   27   27  100    1
  0.9710400E+02  0.1002848E-08  0.1002848E-08  0.3000000E-08  0.5000000E-15
  1.000000000000000E-004
  CAR 
 unknown system                          
    159     34    120
 
  0.0000000E+00  0.0000000E+00  0.0000000E+00  0.1562500E-01
    1      -17.832591   1.000000
    2      -16.665644   1.000000
    3      -16.598884   1.000000
    4      -16.591801   1.000000
    5      -16.445822   1.000000
    6      -16.420469   1.000000
    7      -16.352227   1.000000
    8      -16.302222   1.000000
    9      -16.108865   1.000000
   10      -16.105493   1.000000
   11      -16.001772   1.000000
   12      -15.994893   1.000000
   13      -15.881749   1.000000
   14      -15.868649   1.000000
   15      -15.586725   1.000000
   16      -15.492072   1.000000
   17      -15.436469   1.000000
   18      -15.391267   1.000000
   19       -9.413649   1.000000
   20       -8.950791   1.000000
   21       -8.923537   1.000000
   22       -8.732492   1.000000
   23       -8.724555   1.000000
   24       -8.630870   1.000000
   25       -8.555263   1.000000
   26       -8.482179   1.000000
   27       -8.428896   1.000000
   28       -8.422553   1.000000
   29       -8.336128   1.000000
   30       -8.290947   1.000000
   31       -8.241497   1.000000
   32       -8.135151   1.000000
   33       -8.089016   1.000000
   34       -8.066067   1.000000
   35       -7.869836   1.000000
   36       -7.838564   1.000000
   37       -7.755086   1.000000
   38       -7.645072   1.000000
   39       -7.485457   1.000000
   40       -7.436515   1.000000
   41       -7.380061   1.000000
   42       -7.237401   1.000000
   43       -7.226840   1.000000
   44       -6.874446   1.000000
   45       -6.746901   1.000000
   46       -6.734785   1.000000
   47       -6.699486   1.000000
   48       -6.645382   1.000000
   49       -6.586049   1.000000
   50       -6.501517   1.000000
   51       -6.460500   1.000000
   52       -6.427005   1.000000
   53       -6.298182   1.000000
   54       -6.284307   1.000000
   55       -6.236948   1.000000
   56       -6.105008   1.000000
   57       -6.078819   1.000000
   58       -5.887914   1.000000
   59       -5.679550   1.000000
   60       -5.554938   1.000000
   61       -5.519644   1.000000
   62       -5.445732   1.000000
   63       -5.345759   1.000000
   64       -5.200931   1.000000
   65       -4.824798   1.000000
   66       -4.757410   1.000000
   67       -4.707578   1.000000
   68       -4.687509   1.000000
   69       -4.672321   1.000000
   70       -4.609690   1.000000
   71       -4.470053   1.000000
   72       -4.454398   1.000000
   73       -4.433946   1.000000
   74       -4.334336   1.000000
   75       -4.201281   1.000000
   76       -4.063416   1.000000
   77       -3.518160   0.999756
   78       -3.496471   0.999571
   79       -3.464266   0.999051
   80       -2.998079   0.424405
   81       -2.949949   0.297722
   82       -2.646566   0.003723
   83       -2.524556   0.000201
   84       -2.461915   0.000034
   85       -2.380265   0.000003
   86       -2.365500   0.000002
   87       -2.302583   0.000000
   88       -2.258575   0.000000
   89       -2.191042   0.000000
   90       -2.065728   0.000000
   91       -1.837146   0.000000
   92       -1.805051   0.000000
   93       -1.671368   0.000000
   94       -1.480314   0.000000
   95       -1.410647   0.000000
   96       -1.228329   0.000000
   97       -1.163195   0.000000
   98       -1.100229   0.000000
   99       -0.837613   0.000000
  100       -0.355392   0.000000
  101       -0.329971   0.000000
  102       -0.321058   0.000000
  103       -0.300293   0.000000
  104       -0.162657   0.000000
  105       -0.059363   0.000000
  106        0.337185   0.000000
  107        0.345987   0.000000
  108        0.362099   0.000000
  109        0.401303   0.000000
  110        0.443593   0.000000
  111        0.453700   0.000000
  112        0.725585   0.000000
  113        0.739680   0.000000
  114        0.866377   0.000000
  115        0.905375   0.000000
  116        0.936423   0.000000
  117        0.997269   0.000000
  118        1.690173   0.000000
  119        1.840172   0.000000
  120        2.206058   0.000000
 
  0.1250000E+00  0.2775558E-16  0.0000000E+00  0.3125000E-01
    1      -17.806968   1.000000
    2      -16.749251   1.000000
    3      -16.649738   1.000000
    4      -16.605412   1.000000
    5      -16.491280   1.000000
    6      -16.364730   1.000000
    7      -16.325356   1.000000
    8      -16.271489   1.000000
    9      -16.151920   1.000000
   10      -16.085918   1.000000
   11      -16.004212   1.000000
   12      -15.930826   1.000000
   13      -15.868542   1.000000
   14      -15.800763   1.000000
   15      -15.607757   1.000000
   16      -15.516262   1.000000
   17      -15.431544   1.000000
   18      -15.401438   1.000000
   19       -9.407812   1.000000
   20       -9.118101   1.000000
   21       -9.012092   1.000000
   22       -8.856860   1.000000
   23       -8.758121   1.000000
   24       -8.642252   1.000000
   25       -8.570762   1.000000
   26       -8.505239   1.000000
   27       -8.459299   1.000000
   28       -8.425752   1.000000
   29       -8.318948   1.000000
   30       -8.208036   1.000000
   31       -8.162415   1.000000
   32       -8.103376   1.000000
   33       -8.035106   1.000000
   34       -7.905257   1.000000
   35       -7.781679   1.000000
   36       -7.740091   1.000000
   37       -7.678204   1.000000
   38       -7.599739   1.000000
   39       -7.527678   1.000000
   40       -7.471357   1.000000
   41       -7.328558   1.000000
   42       -7.220832   1.000000
   43       -7.180641   1.000000
   44       -6.963007   1.000000
   45       -6.825317   1.000000
   46       -6.760527   1.000000
   47       -6.716231   1.000000
   48       -6.646743   1.000000
   49       -6.583738   1.000000
   50       -6.513391   1.000000
   51       -6.467390   1.000000
   52       -6.362098   1.000000
   53       -6.325957   1.000000
   54       -6.282615   1.000000
   55       -6.246815   1.000000
   56       -6.140303   1.000000
   57       -6.072469   1.000000
   58       -5.824744   1.000000
   59       -5.708314   1.000000
   60       -5.555615   1.000000
   61       -5.488412   1.000000
   62       -5.378100   1.000000
   63       -5.264246   1.000000
   64       -5.104583   1.000000
   65       -5.026379   1.000000
   66       -5.004137   1.000000
   67       -4.937134   1.000000
   68       -4.860869   1.000000
   69       -4.655284   1.000000
   70       -4.611935   1.000000
   71       -4.579622   1.000000
   72       -4.299308   1.000000
   73       -4.237223   1.000000
   74       -4.134555   1.000000
   75       -4.027955   1.000000
   76       -3.917783   1.000000
   77       -3.715990   0.999999
   78       -3.629335   0.999990
   79       -3.495569   0.999561
   80       -2.911528   0.211091
   81       -2.826922   0.080623
   82       -2.674099   0.006541
   83       -2.588543   0.001013
   84       -2.502187   0.000109
   85       -2.410466   0.000007
   86       -2.355742   0.000001
   87       -2.307531   0.000000
   88       -2.269903   0.000000
   89       -2.194509   0.000000
   90       -2.102454   0.000000
   91       -1.837759   0.000000
   92       -1.798945   0.000000
   93       -1.622909   0.000000
   94       -1.444663   0.000000
   95       -1.385524   0.000000
   96       -1.201040   0.000000
   97       -1.127798   0.000000
   98       -1.063004   0.000000
   99       -0.817198   0.000000
  100       -0.457409   0.000000
  101       -0.413024   0.000000
  102       -0.394611   0.000000
  103       -0.329463   0.000000
  104       -0.197389   0.000000
  105       -0.066998   0.000000
  106        0.190527   0.000000
  107        0.222919   0.000000
  108        0.296542   0.000000
  109        0.325127   0.000000
  110        0.422367   0.000000
  111        0.495056   0.000000
  112        0.652310   0.000000
  113        0.773073   0.000000
  114        0.934212   0.000000
  115        0.980184   0.000000
  116        1.048271   0.000000
  117        1.160220   0.000000
  118        1.732306   0.000000
  119        1.880742   0.000000
  120        2.241335   0.000000
 
  0.2500000E+00  0.5551115E-16  0.0000000E+00  0.3125000E-01
    1      -17.731797   1.000000
    2      -16.964114   1.000000
    3      -16.689702   1.000000
    4      -16.613681   1.000000
    5      -16.545327   1.000000
    6      -16.340578   1.000000
    7      -16.275984   1.000000
    8      -16.237533   1.000000
    9      -16.156811   1.000000
   10      -16.072900   1.000000
   11      -15.982952   1.000000
   12      -15.836818   1.000000
   13      -15.826102   1.000000
   14      -15.680173   1.000000
   15      -15.641882   1.000000
   16      -15.563002   1.000000
   17      -15.442964   1.000000
   18      -15.426307   1.000000
   19       -9.523118   1.000000
   20       -9.273471   1.000000
   21       -9.166937   1.000000
   22       -8.957325   1.000000
   23       -8.907223   1.000000
   24       -8.745385   1.000000
   25       -8.522561   1.000000
   26       -8.473347   1.000000
   27       -8.438765   1.000000
   28       -8.368854   1.000000
   29       -8.286909   1.000000
   30       -8.220525   1.000000
   31       -8.154758   1.000000
   32       -8.048302   1.000000
   33       -7.864454   1.000000
   34       -7.760976   1.000000
   35       -7.690650   1.000000
   36       -7.668116   1.000000
   37       -7.615233   1.000000
   38       -7.528110   1.000000
   39       -7.393935   1.000000
   40       -7.352367   1.000000
   41       -7.216489   1.000000
   42       -7.159114   1.000000
   43       -7.074946   1.000000
   44       -6.985254   1.000000
   45       -6.919964   1.000000
   46       -6.835871   1.000000
   47       -6.769063   1.000000
   48       -6.661456   1.000000
   49       -6.594485   1.000000
   50       -6.565793   1.000000
   51       -6.511013   1.000000
   52       -6.388262   1.000000
   53       -6.279293   1.000000
   54       -6.247298   1.000000
   55       -6.158424   1.000000
   56       -6.110686   1.000000
   57       -6.039001   1.000000
   58       -5.816948   1.000000
   59       -5.671920   1.000000
   60       -5.583532   1.000000
   61       -5.515832   1.000000
   62       -5.408919   1.000000
   63       -5.386130   1.000000
   64       -5.322887   1.000000
   65       -5.218090   1.000000
   66       -5.138340   1.000000
   67       -5.044623   1.000000
   68       -4.908925   1.000000
   69       -4.656369   1.000000
   70       -4.622767   1.000000
   71       -4.536832   1.000000
   72       -4.229918   1.000000
   73       -4.090585   1.000000
   74       -3.982671   1.000000
   75       -3.966106   1.000000
   76       -3.888388   1.000000
   77       -3.711243   0.999999
   78       -3.642727   0.999994
   79       -3.478177   0.999323
   80       -2.878385   0.149868
   81       -2.809998   0.064184
   82       -2.674202   0.006555
   83       -2.598440   0.001279
   84       -2.530647   0.000236
   85       -2.470094   0.000044
   86       -2.408797   0.000007
   87       -2.304698   0.000000
   88       -2.281364   0.000000
   89       -2.217734   0.000000
   90       -2.161861   0.000000
   91       -1.827540   0.000000
   92       -1.779996   0.000000
   93       -1.531697   0.000000
   94       -1.389892   0.000000
   95       -1.333207   0.000000
   96       -1.151755   0.000000
   97       -1.064478   0.000000
   98       -0.947490   0.000000
   99       -0.771089   0.000000
  100       -0.640063   0.000000
  101       -0.555695   0.000000
  102       -0.530684   0.000000
  103       -0.420032   0.000000
  104       -0.300561   0.000000
  105       -0.189816   0.000000
  106       -0.057817   0.000000
  107       -0.011707   0.000000
  108        0.148444   0.000000
  109        0.204899   0.000000
  110        0.440164   0.000000
  111        0.541472   0.000000
  112        0.578781   0.000000
  113        0.800798   0.000000
  114        1.068937   0.000000
  115        1.123319   0.000000
  116        1.233446   0.000000
  117        1.408697   0.000000
  118        1.851550   0.000000
  119        1.998111   0.000000
  120        2.346169   0.000000
 
  0.3750000E+00  0.0000000E+00  0.0000000E+00  0.3125000E-01
    1      -17.615268   1.000000
    2      -17.182307   1.000000
    3      -16.730864   1.000000
    4      -16.612748   1.000000
    5      -16.557555   1.000000
    6      -16.391531   1.000000
    7      -16.248458   1.000000
    8      -16.201027   1.000000
    9      -16.120613   1.000000
   10      -16.043981   1.000000
   11      -15.937224   1.000000
   12      -15.817605   1.000000
   13      -15.756312   1.000000
   14      -15.693035   1.000000
   15      -15.623717   1.000000
   16      -15.529193   1.000000
   17      -15.480242   1.000000
   18      -15.451163   1.000000
   19       -9.734423   1.000000
   20       -9.319729   1.000000
   21       -9.217203   1.000000
   22       -9.033199   1.000000
   23       -8.984024   1.000000
   24       -8.814599   1.000000
   25       -8.488468   1.000000
   26       -8.440713   1.000000
   27       -8.399744   1.000000
   28       -8.336501   1.000000
   29       -8.265980   1.000000
   30       -8.228868   1.000000
   31       -8.154010   1.000000
   32       -7.983451   1.000000
   33       -7.871316   1.000000
   34       -7.798759   1.000000
   35       -7.710901   1.000000
   36       -7.591204   1.000000
   37       -7.567718   1.000000
   38       -7.438728   1.000000
   39       -7.276609   1.000000
   40       -7.230519   1.000000
   41       -7.176262   1.000000
   42       -7.116215   1.000000
   43       -7.029199   1.000000
   44       -6.910434   1.000000
   45       -6.873092   1.000000
   46       -6.796997   1.000000
   47       -6.689454   1.000000
   48       -6.640855   1.000000
   49       -6.597458   1.000000
   50       -6.564178   1.000000
   51       -6.384057   1.000000
   52       -6.310072   1.000000
   53       -6.245936   1.000000
   54       -6.207551   1.000000
   55       -6.110779   1.000000
   56       -5.985071   1.000000
   57       -5.949216   1.000000
   58       -5.912046   1.000000
   59       -5.838747   1.000000
   60       -5.740054   1.000000
   61       -5.710792   1.000000
   62       -5.675165   1.000000
   63       -5.623137   1.000000
   64       -5.548234   1.000000
   65       -5.213409   1.000000
   66       -5.039473   1.000000
   67       -4.947806   1.000000
   68       -4.822516   1.000000
   69       -4.727304   1.000000
   70       -4.617636   1.000000
   71       -4.566564   1.000000
   72       -4.500527   1.000000
   73       -4.160122   1.000000
   74       -3.982181   1.000000
   75       -3.811573   1.000000
   76       -3.754716   1.000000
   77       -3.571616   0.999944
   78       -3.416502   0.997180
   79       -3.354002   0.989994
   80       -2.991345   0.405843
   81       -2.952877   0.304935
   82       -2.696187   0.010027
   83       -2.597573   0.001253
   84       -2.528974   0.000226
   85       -2.459987   0.000032
   86       -2.401155   0.000005
   87       -2.326001   0.000000
   88       -2.271401   0.000000
   89       -2.233168   0.000000
   90       -2.185807   0.000000
   91       -1.809480   0.000000
   92       -1.768540   0.000000
   93       -1.460535   0.000000
   94       -1.374017   0.000000
   95       -1.285335   0.000000
   96       -1.122639   0.000000
   97       -1.020685   0.000000
   98       -0.843663   0.000000
   99       -0.759830   0.000000
  100       -0.739374   0.000000
  101       -0.639340   0.000000
  102       -0.608485   0.000000
  103       -0.527344   0.000000
  104       -0.434482   0.000000
  105       -0.348657   0.000000
  106       -0.260066   0.000000
  107       -0.232706   0.000000
  108        0.065386   0.000000
  109        0.115134   0.000000
  110        0.439349   0.000000
  111        0.502880   0.000000
  112        0.616002   0.000000
  113        0.825410   0.000000
  114        1.177300   0.000000
  115        1.233553   0.000000
  116        1.372840   0.000000
  117        1.581318   0.000000
  118        2.034381   0.000000
  119        2.180113   0.000000
  120        2.515629   0.000000
 
  0.5000000E+00  0.1110223E-15  0.0000000E+00  0.1562500E-01
    1      -17.519275   1.000000
    2      -17.314289   1.000000
    3      -16.745653   1.000000
    4      -16.620702   1.000000
    5      -16.544689   1.000000
    6      -16.418936   1.000000
    7      -16.242851   1.000000
    8      -16.206531   1.000000
    9      -16.081123   1.000000
   10      -16.007960   1.000000
   11      -15.942719   1.000000
   12      -15.819972   1.000000
   13      -15.724435   1.000000
   14      -15.680252   1.000000
   15      -15.655193   1.000000
   16      -15.507563   1.000000
   17      -15.483779   1.000000
   18      -15.461806   1.000000
   19       -9.816342   1.000000
   20       -9.354391   1.000000
   21       -9.219835   1.000000
   22       -9.071724   1.000000
   23       -8.978994   1.000000
   24       -8.817034   1.000000
   25       -8.558608   1.000000
   26       -8.416140   1.000000
   27       -8.380578   1.000000
   28       -8.316171   1.000000
   29       -8.263663   1.000000
   30       -8.164761   1.000000
   31       -8.137199   1.000000
   32       -7.943971   1.000000
   33       -7.895965   1.000000
   34       -7.845136   1.000000
   35       -7.761454   1.000000
   36       -7.617362   1.000000
   37       -7.540035   1.000000
   38       -7.428422   1.000000
   39       -7.282590   1.000000
   40       -7.252921   1.000000
   41       -7.114046   1.000000
   42       -7.046489   1.000000
   43       -6.922794   1.000000
   44       -6.883844   1.000000
   45       -6.821530   1.000000
   46       -6.740065   1.000000
   47       -6.690665   1.000000
   48       -6.630187   1.000000
   49       -6.563130   1.000000
   50       -6.457889   1.000000
   51       -6.365192   1.000000
   52       -6.314684   1.000000
   53       -6.265577   1.000000
   54       -6.114238   1.000000
   55       -6.105849   1.000000
   56       -6.024442   1.000000
   57       -6.009681   1.000000
   58       -5.886725   1.000000
   59       -5.829792   1.000000
   60       -5.786175   1.000000
   61       -5.758976   1.000000
   62       -5.720464   1.000000
   63       -5.680277   1.000000
   64       -5.621928   1.000000
   65       -5.395068   1.000000
   66       -5.070762   1.000000
   67       -4.966497   1.000000
   68       -4.854802   1.000000
   69       -4.736261   1.000000
   70       -4.622433   1.000000
   71       -4.493287   1.000000
   72       -4.479313   1.000000
   73       -4.306284   1.000000
   74       -3.947354   1.000000
   75       -3.715174   0.999999
   76       -3.681080   0.999998
   77       -3.573426   0.999947
   78       -3.294657   0.971707
   79       -3.211472   0.906295
   80       -3.120847   0.750945
   81       -3.017570   0.478941
   82       -2.736220   0.020563
   83       -2.639068   0.003174
   84       -2.509652   0.000134
   85       -2.477266   0.000054
   86       -2.346997   0.000001
   87       -2.321526   0.000000
   88       -2.276008   0.000000
   89       -2.226930   0.000000
   90       -2.196398   0.000000
   91       -1.800186   0.000000
   92       -1.767062   0.000000
   93       -1.426308   0.000000
   94       -1.382546   0.000000
   95       -1.273790   0.000000
   96       -1.120474   0.000000
   97       -1.009322   0.000000
   98       -0.824678   0.000000
   99       -0.771142   0.000000
  100       -0.734391   0.000000
  101       -0.661574   0.000000
  102       -0.606055   0.000000
  103       -0.579338   0.000000
  104       -0.499808   0.000000
  105       -0.412953   0.000000
  106       -0.348134   0.000000
  107       -0.322797   0.000000
  108        0.043931   0.000000
  109        0.083929   0.000000
  110        0.434327   0.000000
  111        0.486422   0.000000
  112        0.633595   0.000000
  113        0.836630   0.000000
  114        1.217260   0.000000
  115        1.273314   0.000000
  116        1.423028   0.000000
  117        1.639323   0.000000
  118        2.262805   0.000000
  119        2.276105   0.000000
  120        2.400517   0.000000
 
  0.0000000E+00  0.1250000E+00  0.0000000E+00  0.3125000E-01
    1      -17.806979   1.000000
    2      -16.749543   1.000000
    3      -16.647370   1.000000
    4      -16.607942   1.000000
    5      -16.491963   1.000000
    6      -16.363597   1.000000
    7      -16.324882   1.000000
    8      -16.269904   1.000000
    9      -16.151619   1.000000
   10      -16.089658   1.000000
   11      -16.006429   1.000000
   12      -15.927284   1.000000
   13      -15.866081   1.000000
   14      -15.803072   1.000000
   15      -15.608414   1.000000
   16      -15.515045   1.000000
   17      -15.432533   1.000000
   18      -15.401111   1.000000
   19       -9.407787   1.000000
   20       -9.119138   1.000000
   21       -9.011076   1.000000
   22       -8.854240   1.000000
   23       -8.760781   1.000000
   24       -8.642217   1.000000
   25       -8.571295   1.000000
   26       -8.506929   1.000000
   27       -8.460418   1.000000
   28       -8.423715   1.000000
   29       -8.317998   1.000000
   30       -8.205070   1.000000
   31       -8.161661   1.000000
   32       -8.105373   1.000000
   33       -8.035384   1.000000
   34       -7.904739   1.000000
   35       -7.781845   1.000000
   36       -7.743432   1.000000
   37       -7.677391   1.000000
   38       -7.599725   1.000000
   39       -7.529621   1.000000
   40       -7.468381   1.000000
   41       -7.328073   1.000000
   42       -7.220860   1.000000
   43       -7.180540   1.000000
   44       -6.963589   1.000000
   45       -6.824213   1.000000
   46       -6.761757   1.000000
   47       -6.717439   1.000000
   48       -6.646215   1.000000
   49       -6.582069   1.000000
   50       -6.513148   1.000000
   51       -6.467057   1.000000
   52       -6.361463   1.000000
   53       -6.328695   1.000000
   54       -6.283100   1.000000
   55       -6.244869   1.000000
   56       -6.137676   1.000000
   57       -6.076118   1.000000
   58       -5.825992   1.000000
   59       -5.706603   1.000000
   60       -5.560665   1.000000
   61       -5.481734   1.000000
   62       -5.376942   1.000000
   63       -5.269337   1.000000
   64       -5.101442   1.000000
   65       -5.030805   1.000000
   66       -5.005603   1.000000
   67       -4.936212   1.000000
   68       -4.856515   1.000000
   69       -4.654514   1.000000
   70       -4.613155   1.000000
   71       -4.577168   1.000000
   72       -4.298580   1.000000
   73       -4.242084   1.000000
   74       -4.132114   1.000000
   75       -4.031311   1.000000
   76       -3.915616   1.000000
   77       -3.712892   0.999999
   78       -3.630685   0.999991
   79       -3.498003   0.999588
   80       -2.910926   0.209862
   81       -2.826413   0.080086
   82       -2.673892   0.006514
   83       -2.594147   0.001156
   84       -2.496754   0.000094
   85       -2.409230   0.000007
   86       -2.358049   0.000001
   87       -2.306329   0.000000
   88       -2.267953   0.000000
   89       -2.194829   0.000000
   90       -2.103098   0.000000
   91       -1.837753   0.000000
   92       -1.799358   0.000000
   93       -1.622288   0.000000
   94       -1.443963   0.000000
   95       -1.387641   0.000000
   96       -1.201769   0.000000
   97       -1.127164   0.000000
   98       -1.062817   0.000000
   99       -0.817316   0.000000
  100       -0.455982   0.000000
  101       -0.414313   0.000000
  102       -0.397570   0.000000
  103       -0.328151   0.000000
  104       -0.196953   0.000000
  105       -0.063213   0.000000
  106        0.189984   0.000000
  107        0.222084   0.000000
  108        0.296556   0.000000
  109        0.324027   0.000000
  110        0.423319   0.000000
  111        0.493610   0.000000
  112        0.650222   0.000000
  113        0.775854   0.000000
  114        0.936361   0.000000
  115        0.980821   0.000000
  116        1.047286   0.000000
  117        1.158048   0.000000
  118        1.732286   0.000000
  119        1.880773   0.000000
  120        2.241327   0.000000
 
  0.1250000E+00  0.1250000E+00  0.0000000E+00  0.3125000E-01
    1      -17.757519   1.000000
    2      -16.840812   1.000000
    3      -16.802242   1.000000
    4      -16.611129   1.000000
    5      -16.393230   1.000000
    6      -16.390845   1.000000
    7      -16.289603   1.000000
    8      -16.277559   1.000000
    9      -16.142160   1.000000
   10      -16.092948   1.000000
   11      -15.976311   1.000000
   12      -15.917062   1.000000
   13      -15.763292   1.000000
   14      -15.734658   1.000000
   15      -15.647756   1.000000
   16      -15.551310   1.000000
   17      -15.442547   1.000000
   18      -15.408427   1.000000
   19       -9.434122   1.000000
   20       -9.294147   1.000000
   21       -9.145276   1.000000
   22       -9.031763   1.000000
   23       -8.737251   1.000000
   24       -8.654064   1.000000
   25       -8.527249   1.000000
   26       -8.520590   1.000000
   27       -8.458865   1.000000
   28       -8.415002   1.000000
   29       -8.253592   1.000000
   30       -8.202683   1.000000
   31       -8.172796   1.000000
   32       -8.052045   1.000000
   33       -7.994662   1.000000
   34       -7.789043   1.000000
   35       -7.774108   1.000000
   36       -7.740653   1.000000
   37       -7.485691   1.000000
   38       -7.462582   1.000000
   39       -7.425895   1.000000
   40       -7.323132   1.000000
   41       -7.307108   1.000000
   42       -7.216448   1.000000
   43       -7.115892   1.000000
   44       -7.048838   1.000000
   45       -6.892843   1.000000
   46       -6.793433   1.000000
   47       -6.756800   1.000000
   48       -6.691218   1.000000
   49       -6.599352   1.000000
   50       -6.530685   1.000000
   51       -6.473588   1.000000
   52       -6.410719   1.000000
   53       -6.322241   1.000000
   54       -6.258888   1.000000
   55       -6.179086   1.000000
   56       -6.112328   1.000000
   57       -6.062284   1.000000
   58       -5.796490   1.000000
   59       -5.750643   1.000000
   60       -5.450523   1.000000
   61       -5.427223   1.000000
   62       -5.396292   1.000000
   63       -5.356900   1.000000
   64       -5.329392   1.000000
   65       -5.166548   1.000000
   66       -5.027079   1.000000
   67       -4.953516   1.000000
   68       -4.945349   1.000000
   69       -4.823370   1.000000
   70       -4.790730   1.000000
   71       -4.286436   1.000000
   72       -4.273929   1.000000
   73       -4.124254   1.000000
   74       -4.004512   1.000000
   75       -3.926464   1.000000
   76       -3.836617   1.000000
   77       -3.821439   1.000000
   78       -3.711150   0.999999
   79       -3.491736   0.999517
   80       -2.896617   0.181919
   81       -2.701065   0.010986
   82       -2.674426   0.006584
   83       -2.589546   0.001037
   84       -2.576336   0.000755
   85       -2.422917   0.000010
   86       -2.416170   0.000008
   87       -2.365944   0.000002
   88       -2.305370   0.000000
   89       -2.162368   0.000000
   90       -2.144563   0.000000
   91       -1.812523   0.000000
   92       -1.794191   0.000000
   93       -1.527291   0.000000
   94       -1.399408   0.000000
   95       -1.347704   0.000000
   96       -1.189646   0.000000
   97       -1.058523   0.000000
   98       -1.035259   0.000000
   99       -0.783773   0.000000
  100       -0.574483   0.000000
  101       -0.516428   0.000000
  102       -0.498949   0.000000
  103       -0.441067   0.000000
  104       -0.250529   0.000000
  105       -0.088472   0.000000
  106        0.000468   0.000000
  107        0.024066   0.000000
  108        0.126401   0.000000
  109        0.291599   0.000000
  110        0.443641   0.000000
  111        0.495339   0.000000
  112        0.636765   0.000000
  113        0.777376   0.000000
  114        1.079357   0.000000
  115        1.097562   0.000000
  116        1.180566   0.000000
  117        1.287425   0.000000
  118        1.812316   0.000000
  119        1.959595   0.000000
  120        2.311068   0.000000
 
  0.2500000E+00  0.1250000E+00  0.0000000E+00  0.3125000E-01
    1      -17.661527   1.000000
    2      -17.053726   1.000000
    3      -16.880477   1.000000
    4      -16.584197   1.000000
    5      -16.422215   1.000000
    6      -16.350432   1.000000
    7      -16.296906   1.000000
    8      -16.218471   1.000000
    9      -16.146505   1.000000
   10      -16.056455   1.000000
   11      -15.950620   1.000000
   12      -15.879362   1.000000
   13      -15.743847   1.000000
   14      -15.672028   1.000000
   15      -15.604258   1.000000
   16      -15.583944   1.000000
   17      -15.494500   1.000000
   18      -15.404230   1.000000
   19       -9.610864   1.000000
   20       -9.424096   1.000000
   21       -9.270719   1.000000
   22       -9.079114   1.000000
   23       -8.800734   1.000000
   24       -8.655725   1.000000
   25       -8.486119   1.000000
   26       -8.432444   1.000000
   27       -8.399564   1.000000
   28       -8.354203   1.000000
   29       -8.260225   1.000000
   30       -8.240212   1.000000
   31       -8.191958   1.000000
   32       -8.063811   1.000000
   33       -7.970375   1.000000
   34       -7.848384   1.000000
   35       -7.809013   1.000000
   36       -7.522994   1.000000
   37       -7.461281   1.000000
   38       -7.385058   1.000000
   39       -7.301295   1.000000
   40       -7.261473   1.000000
   41       -7.190326   1.000000
   42       -7.114979   1.000000
   43       -7.048934   1.000000
   44       -6.967262   1.000000
   45       -6.875688   1.000000
   46       -6.803006   1.000000
   47       -6.762776   1.000000