       N       E                     dE             d eps       ncg     rms          rms(c)
DAV:   1     0.112403239983E+04    0.11240E+04   -0.35863E+04  8160   0.577E+02
DAV:   2     0.126246448483E+01   -0.11228E+04   -0.10771E+04 10960   0.173E+02
DAV:   3    -0.199461456085E+03   -0.20072E+03   -0.19225E+03 10840   0.825E+01
DAV:   4    -0.208973636503E+03   -0.95122E+01   -0.92238E+01 12000   0.265E+01
DAV:   5    -0.209320044089E+03   -0.34641E+00   -0.34548E+00 11400   0.383E+00    0.275E+01
DAV:   6    -0.237933227064E+03   -0.28613E+02   -0.10712E+02 12520   0.601E+01    0.595E+01
DAV:   7    -0.196560912571E+03    0.41372E+02   -0.17580E+02 13480   0.153E+02    0.200E+01
DAV:   8    -0.189488569969E+03    0.70723E+01   -0.17932E+01 11880   0.127E+01    0.125E+01
DAV:   9    -0.188166782659E+03    0.13218E+01   -0.31387E+00 13440   0.624E+00    0.925E+00
DAV:  10    -0.186957849434E+03    0.12089E+01   -0.17553E+00 13160   0.770E+00    0.217E+00
DAV:  11    -0.187062206076E+03   -0.10436E+00   -0.59224E-01 13480   0.306E+00    0.390E+00
DAV:  12    -0.187005442713E+03    0.56763E-01   -0.83337E-01 12720   0.460E+00    0.370E+00
DAV:  13    -0.186887308912E+03    0.11813E+00   -0.30387E-01 13160   0.297E+00    0.187E+00
DAV:  14    -0.186850238002E+03    0.37071E-01   -0.10728E-01 13320   0.175E+00    0.899E-01
DAV:  15    -0.186848153114E+03    0.20849E-02   -0.28883E-02 12760   0.902E-01    0.820E-01
DAV:  16    -0.186842441404E+03    0.57117E-02   -0.11127E-02 13240   0.534E-01    0.274E-01
DAV:  17    -0.186841223998E+03    0.12174E-02   -0.44531E-03 12720   0.286E-01    0.181E-01
DAV:  18    -0.186840992568E+03    0.23143E-03   -0.18306E-03 11640   0.148E-01    0.129E-01
DAV:  19    -0.186840803195E+03    0.18937E-03   -0.80380E-04 10960   0.875E-02    0.587E-02
DAV:  20    -0.186841552153E+03   -0.74896E-03   -0.68232E-04  9120   0.739E-02    0.551E-02
DAV:  21    -0.186842383189E+03   -0.83104E-03   -0.24054E-04  8160   0.492E-02    0.321E-02
DAV:  22    -0.186843336487E+03   -0.95330E-03   -0.15863E-04  7600   0.385E-02    0.311E-02
DAV:  23    -0.186844490258E+03   -0.11538E-02   -0.10623E-04  7600   0.365E-02    0.130E-02
DAV:  24    -0.186845041875E+03   -0.55162E-03   -0.23854E-05  6840   0.152E-02    0.475E-03
DAV:  25    -0.186845436163E+03   -0.39429E-03   -0.16005E-05  5520   0.955E-03    0.319E-03
DAV:  26    -0.186845677860E+03   -0.24170E-03   -0.92856E-06  6800   0.700E-03    0.165E-03
DAV:  27    -0.186845766444E+03   -0.88585E-04   -0.32856E-06  7400   0.405E-03
   1 F= -.18684577E+03 E0= -.18667480E+03  d E =-.186846E+03
       N       E                     dE             d eps       ncg     rms          rms(c)
DAV:   1    -0.187499880011E+03   -0.65420E+00   -0.27222E+02  8160   0.350E+01    0.460E+00
DAV:   2    -0.189346489034E+03   -0.18466E+01   -0.19881E+01 12240   0.150E+01    0.856E+00
DAV:   3    -0.189359976928E+03   -0.13488E-01   -0.39334E+00 12440   0.120E+01    0.659E+00
DAV:   4    -0.188757372318E+03    0.60260E+00   -0.64194E-01 12520   0.477E+00    0.199E+00
DAV:   5    -0.188849969153E+03   -0.92597E-01   -0.41669E-01 11800   0.342E+00    0.488E+00
DAV:   6    -0.188755570388E+03    0.94399E-01   -0.73785E-01 12560   0.436E+00    0.269E+00
DAV:   7    -0.188676293659E+03    0.79277E-01   -0.21324E-01 12400   0.160E+00    0.102E+00
DAV:   8    -0.188661724928E+03    0.14569E-01   -0.50004E-02 11480   0.732E-01    0.649E-01
DAV:   9    -0.188656960546E+03    0.47644E-02   -0.11592E-02 12560   0.404E-01    0.399E-01
DAV:  10    -0.188657391754E+03   -0.43121E-03   -0.56551E-03 12040   0.413E-01    0.450E-01
DAV:  11    -0.188655859155E+03    0.15326E-02   -0.40361E-03 12920   0.329E-01    0.131E-01
DAV:  12    -0.188655853417E+03    0.57374E-05   -0.95861E-04 11720   0.100E-01
   2 F= -.18865585E+03 E0= -.18851712E+03  d E =-.181009E+01
       N       E                     dE             d eps       ncg     rms          rms(c)
DAV:   1    -0.190582410482E+03   -0.19266E+01   -0.31125E+01  9200   0.142E+01    0.445E+00
DAV:   2    -0.190528439569E+03    0.53971E-01   -0.27745E+00 11520   0.945E+00    0.718E+00
DAV:   3    -0.190064477822E+03    0.46396E+00   -0.12907E+00 12320   0.862E+00    0.425E+00
DAV:   4    -0.189852707422E+03    0.21177E+00   -0.68024E-01 13000   0.432E+00    0.253E+00
DAV:   5    -0.189823294320E+03    0.29413E-01   -0.36933E-01 12240   0.309E+00    0.284E+00
DAV:   6    -0.189751407474E+03    0.71887E-01   -0.16060E-01 12680   0.251E+00    0.753E-01
DAV:   7    -0.189745559724E+03    0.58477E-02   -0.15850E-02 11560   0.611E-01    0.389E-01
DAV:   8    -0.189745445578E+03    0.11415E-03   -0.58914E-03 12680   0.468E-01    0.343E-01
DAV:   9    -0.189744585222E+03    0.86036E-03   -0.21536E-03 11360   0.249E-01    0.121E-01
DAV:  10    -0.189745016816E+03   -0.43159E-03   -0.99473E-04 10760   0.106E-01    0.138E-01
DAV:  11    -0.189744709145E+03    0.30767E-03   -0.55704E-04  9440   0.843E-02    0.194E-02
DAV:  12    -0.189744731603E+03   -0.22457E-04   -0.64657E-05  7200   0.249E-02
   3 F= -.18974473E+03 E0= -.18962847E+03  d E =-.108888E+01
       N       E                     dE             d eps       ncg     rms          rms(c)
DAV:   1    -0.191299668838E+03   -0.15550E+01   -0.74222E+01  8160   0.196E+01    0.456E+00
DAV:   2    -0.191105821898E+03    0.19385E+00   -0.52544E+00 13440   0.750E+00    0.438E+00
DAV:   3    -0.191306205954E+03   -0.20038E+00   -0.14855E+00 12200   0.903E+00    0.733E+00
DAV:   4    -0.190898697976E+03    0.40751E+00   -0.16788E+00 11920   0.851E+00    0.352E+00
DAV:   5    -0.190903598618E+03   -0.49006E-02   -0.69389E-01 10960   0.544E+00    0.355E+00
DAV:   6    -0.190729008101E+03    0.17459E+00   -0.20377E-01 11480   0.313E+00    0.611E-01
DAV:   7    -0.190731621481E+03   -0.26134E-02   -0.34357E-02 12400   0.883E-01    0.731E-01
DAV:   8    -0.190728314541E+03    0.33069E-02   -0.17475E-02 11760   0.898E-01    0.534E-01
DAV:   9    -0.190725312144E+03    0.30024E-02   -0.46809E-03 11360   0.445E-01    0.150E-01
DAV:  10    -0.190725629759E+03   -0.31761E-03   -0.14551E-03 10080   0.139E-01    0.104E-01
DAV:  11    -0.190725478460E+03    0.15130E-03   -0.58443E-04  9880   0.908E-02    0.439E-02
DAV:  12    -0.190725476893E+03    0.15674E-05   -0.10310E-04  7120   0.358E-02
   4 F= -.19072548E+03 E0= -.19062788E+03  d E =-.980745E+00
       N       E                     dE             d eps       ncg     rms          rms(c)
DAV:   1    -0.192199928897E+03   -0.14745E+01   -0.17536E+02  8160   0.295E+01    0.587E+00
DAV:   2    -0.191896986242E+03    0.30294E+00   -0.98645E+00 10960   0.810E+00    0.404E+00
DAV:   3    -0.192373458784E+03   -0.47647E+00   -0.28111E+00 12200   0.109E+01    0.867E+00
DAV:   4    -0.191688524273E+03    0.68493E+00   -0.23559E+00 11560   0.110E+01    0.352E+00
DAV:   5    -0.191634337104E+03    0.54187E-01   -0.58869E-01 12240   0.566E+00    0.443E+00
DAV:   6    -0.191476199992E+03    0.15814E+00   -0.63656E-01 12320   0.525E+00    0.164E+00
DAV:   7    -0.191464933880E+03    0.11266E-01   -0.10139E-01 12480   0.188E+00    0.121E+00
DAV:   8    -0.191448793916E+03    0.16140E-01   -0.33545E-02 12280   0.139E+00    0.474E-01
DAV:   9    -0.191445984052E+03    0.28099E-02   -0.74460E-03 11360   0.494E-01    0.200E-01
DAV:  10    -0.191446118365E+03   -0.13431E-03   -0.28598E-03 11560   0.215E-01    0.104E-01
DAV:  11    -0.191446035647E+03    0.82718E-04   -0.61227E-04 10600   0.935E-02
   5 F= -.19144604E+03 E0= -.19135296E+03  d E =-.720559E+00
       N       E                     dE             d eps       ncg     rms          rms(c)
DAV:   1    -0.191519186790E+03   -0.73068E-01   -0.60893E+00  8160   0.520E+00    0.736E-01
DAV:   2    -0.191593032221E+03   -0.73845E-01   -0.31209E-01 13080   0.342E+00    0.241E+00
DAV:   3    -0.191528052047E+03    0.64980E-01   -0.11310E-01 12600   0.257E+00    0.334E-01
DAV:   4    -0.191530651327E+03   -0.25993E-02   -0.12198E-02 11520   0.740E-01    0.682E-01
DAV:   5    -0.191526398654E+03    0.42527E-02   -0.96483E-03 10920   0.703E-01    0.238E-01
DAV:   6    -0.191526715289E+03   -0.31664E-03   -0.37425E-03 11400   0.328E-01    0.277E-01
DAV:   7    -0.191526345495E+03    0.36979E-03   -0.34502E-03 11360   0.400E-01    0.231E-01
DAV:   8    -0.191525795168E+03    0.55033E-03   -0.10923E-03  9920   0.216E-01    0.414E-02
DAV:   9    -0.191525793553E+03    0.16148E-05   -0.10011E-04  6520   0.424E-02
   6 F= -.19152579E+03 E0= -.19143090E+03  d E =-.797579E-01
       N       E                     dE             d eps       ncg     rms          rms(c)
DAV:   1    -0.191626181103E+03   -0.10039E+00   -0.16512E+01  8160   0.848E+00    0.969E-01
DAV:   2    -0.191727541010E+03   -0.10136E+00   -0.46289E-01 13080   0.369E+00    0.279E+00
DAV:   3    -0.191641414408E+03    0.86127E-01   -0.18194E-01 12520   0.324E+00    0.643E-01
DAV:   4    -0.191648400968E+03   -0.69866E-02   -0.32838E-02 12000   0.123E+00    0.110E+00
DAV:   5    -0.191636844367E+03    0.11557E-01   -0.24268E-02 11800   0.110E+00    0.314E-01
DAV:   6    -0.191638344727E+03   -0.15004E-02   -0.79863E-03 11320   0.536E-01    0.481E-01
DAV:   7    -0.191636778371E+03    0.15664E-02   -0.77556E-03 11600   0.617E-01    0.288E-01
DAV:   8    -0.191635841443E+03    0.93693E-03   -0.19216E-03 10320   0.271E-01    0.555E-02
DAV:   9    -0.191635817955E+03    0.23488E-04   -0.22351E-04  7640   0.569E-02
   7 F= -.19163582E+03 E0= -.19154021E+03  d E =-.110024E+00
       N       E                     dE             d eps       ncg     rms          rms(c)
DAV:   1    -0.191665071723E+03   -0.29230E-01   -0.95348E-01  8160   0.214E+00    0.377E-01
DAV:   2    -0.191672258251E+03   -0.71865E-02   -0.49290E-02 12040   0.122E+00    0.859E-01
DAV:   3    -0.191664106428E+03    0.81518E-02   -0.17873E-02 11720   0.103E+00    0.220E-01
DAV:   4    -0.191664212653E+03   -0.10623E-03   -0.41478E-03 11880   0.391E-01    0.332E-01
DAV:   5    -0.191663456384E+03    0.75627E-03   -0.37815E-03 10920   0.442E-01    0.218E-01
DAV:   6    -0.191662968138E+03    0.48825E-03   -0.13719E-03 10360   0.223E-01    0.665E-02
DAV:   7    -0.191662955623E+03    0.12515E-04   -0.36513E-04  7720   0.107E-01
   8 F= -.19166296E+03 E0= -.19156688E+03  d E =-.271377E-01
       N       E                     dE             d eps       ncg     rms          rms(c)
DAV:   1    -0.191719048489E+03   -0.56080E-01   -0.59484E+00  8160   0.513E+00    0.547E-01
DAV:   2    -0.191746413791E+03   -0.27365E-01   -0.17135E-01 12720   0.203E+00    0.134E+00
DAV:   3    -0.191726702351E+03    0.19711E-01   -0.47603E-02 12480   0.163E+00    0.394E-01
DAV:   4    -0.191727938088E+03   -0.12357E-02   -0.98916E-03 12320   0.672E-01    0.554E-01
DAV:   5    -0.191724991421E+03    0.29467E-02   -0.67348E-03 10680   0.619E-01    0.219E-01
DAV:   6    -0.191724900119E+03    0.91302E-04   -0.23407E-03 10920   0.249E-01    0.140E-01
DAV:   7    -0.191724523546E+03    0.37657E-03   -0.90163E-04 10720   0.126E-01    0.459E-02
DAV:   8    -0.191724544829E+03   -0.21283E-04   -0.20576E-04  6680   0.926E-02
   9 F= -.19172454E+03 E0= -.19162894E+03  d E =-.615892E-01
       N       E                     dE             d eps       ncg     rms          rms(c)
DAV:   1    -0.191749272341E+03   -0.24749E-01   -0.87198E-01  8160   0.202E+00    0.298E-01
DAV:   2    -0.191754770070E+03   -0.54977E-02   -0.38441E-02 12960   0.102E+00    0.692E-01
DAV:   3    -0.191749702597E+03    0.50675E-02   -0.12337E-02 11720   0.822E-01    0.209E-01
DAV:   4    -0.191750399058E+03   -0.69646E-03   -0.41975E-03 11440   0.427E-01    0.375E-01
DAV:   5    -0.191749078476E+03    0.13206E-02   -0.30791E-03 10840   0.397E-01    0.123E-01
DAV:   6    -0.191749005454E+03    0.73022E-04   -0.82920E-04 10000   0.155E-01
  10 F= -.19174901E+03 E0= -.19165345E+03  d E =-.244606E-01
       N       E                     dE             d eps       ncg     rms          rms(c)
DAV:   1    -0.191806755031E+03   -0.57677E-01   -0.66438E+00  8160   0.549E+00    0.595E-01
DAV:   2    -0.191833892285E+03   -0.27137E-01   -0.21210E-01 12400   0.201E+00    0.136E+00
DAV:   3    -0.191817866500E+03    0.16026E-01   -0.58304E-02 12440   0.163E+00    0.575E-01
DAV:   4    -0.191819362877E+03   -0.14964E-02   -0.18529E-02 12200   0.934E-01    0.709E-01
DAV:   5    -0.191813773187E+03    0.55897E-02   -0.95804E-03 11480   0.755E-01    0.196E-01
DAV:   6    -0.191813951307E+03   -0.17812E-03   -0.33782E-03 10760   0.263E-01    0.165E-01
DAV:   7    -0.191813465238E+03    0.48607E-03   -0.13827E-03 10800   0.193E-01    0.113E-01
DAV:   8    -0.191813372372E+03    0.92867E-04   -0.38405E-04  9000   0.138E-01
  11 F= -.19181337E+03 E0= -.19171866E+03  d E =-.643669E-01
       N       E                     dE             d eps       ncg     rms          rms(c)
DAV:   1    -0.191839862267E+03   -0.26397E-01   -0.10459E+00  8160   0.223E+00    0.304E-01
DAV:   2    -0.191844234343E+03   -0.43721E-02   -0.43082E-02 12360   0.857E-01    0.614E-01
DAV:   3    -0.191841535258E+03    0.26991E-02   -0.13513E-02 12160   0.776E-01    0.337E-01
DAV:   4    -0.191841100449E+03    0.43481E-03   -0.44521E-03 11680   0.453E-01    0.291E-01
DAV:   5    -0.191840272563E+03    0.82789E-03   -0.23233E-03 10160   0.384E-01    0.147E-01
DAV:   6    -0.191840094591E+03    0.17797E-03   -0.10599E-03 10120   0.188E-01    0.846E-02
DAV:   7    -0.191840103902E+03   -0.93111E-05   -0.49883E-04  9040   0.155E-01
  12 F= -.19184010E+03 E0= -.19174555E+03  d E =-.267315E-01
       N       E                     dE             d eps       ncg     rms          rms(c)
DAV:   1    -0.191891193411E+03   -0.51099E-01   -0.50066E+00  8160   0.479E+00    0.524E-01
DAV:   2    -0.191911083274E+03   -0.19890E-01   -0.16442E-01 11240   0.158E+00    0.119E+00
DAV:   3    -0.191900773378E+03    0.10310E-01   -0.46647E-02 12440   0.141E+00    0.560E-01
DAV:   4    -0.191897962094E+03    0.28113E-02   -0.82596E-03 12120   0.524E-01    0.273E-01
DAV:   5    -0.191897241408E+03    0.72069E-03   -0.34852E-03 11400   0.403E-01    0.243E-01
DAV:   6    -0.191897460399E+03   -0.21899E-03   -0.35547E-03 11760   0.451E-01    0.261E-01
DAV:   7    -0.191896871956E+03    0.58844E-03   -0.18197E-03 10120   0.305E-01    0.171E-01
DAV:   8    -0.191896579384E+03    0.29257E-03   -0.56152E-04  8520   0.179E-01    0.351E-02
DAV:   9    -0.191896573760E+03    0.56240E-05   -0.55034E-05  6440   0.379E-02
  13 F= -.19189657E+03 E0= -.19180317E+03  d E =-.564699E-01
       N       E                     dE             d eps       ncg     rms          rms(c)
DAV:   1    -0.191916894953E+03   -0.20316E-01   -0.64162E-01  8160   0.174E+00    0.234E-01
DAV:   2    -0.191920682486E+03   -0.37875E-02   -0.27077E-02 11120   0.708E-01    0.591E-01
DAV:   3    -0.191917832595E+03    0.28499E-02   -0.95838E-03 11880   0.655E-01    0.222E-01
DAV:   4    -0.191917317603E+03    0.51499E-03   -0.14521E-03 10760   0.198E-01    0.963E-02
DAV:   5    -0.191917220764E+03    0.96839E-04   -0.64274E-04 10720   0.120E-01
  14 F= -.19191722E+03 E0= -.19182405E+03  d E =-.206470E-01
       N       E                     dE             d eps       ncg     rms          rms(c)
DAV:   1    -0.191965760227E+03   -0.48443E-01   -0.43422E+00  8160   0.449E+00    0.564E-01
DAV:   2    -0.191991610556E+03   -0.25850E-01   -0.16656E-01 11640   0.179E+00    0.151E+00
DAV:   3    -0.191972716903E+03    0.18894E-01   -0.56506E-02 12400   0.162E+00    0.490E-01
DAV:   4    -0.191971176909E+03    0.15400E-02   -0.87474E-03 11440   0.556E-01    0.411E-01
DAV:   5    -0.191969885192E+03    0.12917E-02   -0.62027E-03 12960   0.599E-01    0.297E-01
DAV:   6    -0.191969951153E+03   -0.65961E-04   -0.40962E-03 11400   0.446E-01    0.284E-01
DAV:   7    -0.191969247965E+03    0.70319E-03   -0.23429E-03 10680   0.377E-01    0.153E-01
DAV:   8    -0.191968934532E+03    0.31343E-03   -0.53536E-04  9640   0.165E-01    0.329E-02
DAV:   9    -0.191968924047E+03    0.10485E-04   -0.70207E-05  6720   0.351E-02
  15 F= -.19196892E+03 E0= -.19187669E+03  d E =-.517033E-01
       N       E                     dE             d eps       ncg     rms          rms(c)
DAV:   1    -0.192028777778E+03   -0.59843E-01   -0.10836E+01  8160   0.704E+00    0.842E-01
DAV:   2    -0.192099720630E+03   -0.70943E-01   -0.41350E-01 10880   0.291E+00    0.236E+00
DAV:   3    -0.192050497537E+03    0.49223E-01   -0.13606E-01 12280   0.260E+00    0.781E-01
DAV:   4    -0.192048973158E+03    0.15244E-02   -0.24790E-02 12120   0.114E+00    0.731E-01
DAV:   5    -0.192042602675E+03    0.63705E-02   -0.13961E-02 12440   0.951E-01    0.284E-01
DAV:   6    -0.192042359099E+03    0.24358E-03   -0.48500E-03 11920   0.369E-01    0.215E-01
DAV:   7    -0.192042192093E+03    0.16701E-03   -0.28864E-03 11760   0.353E-01    0.261E-01
DAV:   8    -0.192041510326E+03    0.68177E-03   -0.11537E-03 10040   0.268E-01    0.527E-02
DAV:   9    -0.192041485508E+03    0.24818E-04   -0.10533E-04  6000   0.534E-02
  16 F= -.19204149E+03 E0= -.19195099E+03  d E =-.725615E-01
       N       E                     dE             d eps       ncg     rms          rms(c)
DAV:   1    -0.192055257289E+03   -0.13747E-01   -0.49412E-01  8160   0.156E+00    0.263E-01
DAV:   2    -0.192058376324E+03   -0.31190E-02   -0.27255E-02 10360   0.720E-01    0.585E-01
DAV:   3    -0.192055842312E+03    0.25340E-02   -0.97680E-03 12360   0.709E-01    0.280E-01
DAV:   4    -0.192054934728E+03    0.90758E-03   -0.19845E-03 11400   0.279E-01    0.111E-01
DAV:   5    -0.192054922449E+03    0.12280E-04   -0.99557E-04 10720   0.214E-01
  17 F= -.19205492E+03 E0= -.19196414E+03  d E =-.134369E-01
       N       E                     dE             d eps       ncg     rms          rms(c)
DAV:   1    -0.192078130479E+03   -0.23196E-01   -0.17688E+00  8160   0.283E+00    0.358E-01
DAV:   2    -0.192089967664E+03   -0.11837E-01   -0.67944E-02 11080   0.120E+00    0.994E-01
DAV:   3    -0.192081192027E+03    0.87756E-02   -0.21335E-02 12360   0.108E+00    0.301E-01
DAV:   4    -0.192080860992E+03    0.33104E-03   -0.34156E-03 11280   0.396E-01    0.269E-01
DAV:   5    -0.192080099280E+03    0.76171E-03   -0.22093E-03 12080   0.379E-01    0.137E-01
DAV:   6    -0.192080283810E+03   -0.18453E-03   -0.11623E-03 10320   0.240E-01    0.180E-01
DAV:   7    -0.192080034028E+03    0.24978E-03   -0.87777E-04  9760   0.242E-01    0.987E-02
DAV:   8    -0.192079900189E+03    0.13384E-03   -0.17575E-04  6480   0.946E-02    0.151E-02
DAV:   9    -0.192079903967E+03   -0.37784E-05   -0.43153E-05  6800   0.225E-02
  18 F= -.19207990E+03 E0= -.19199033E+03  d E =-.249815E-01
       N       E                     dE             d eps       ncg     rms          rms(c)
DAV:   1    -0.192101575445E+03   -0.21675E-01   -0.19268E+00  8160   0.296E+00    0.385E-01
DAV:   2    -0.192115934791E+03   -0.14359E-01   -0.86136E-02 10520   0.148E+00    0.995E-01
DAV:   3    -0.192105752700E+03    0.10182E-01   -0.23643E-02 12480   0.120E+00    0.352E-01
DAV:   4    -0.192105636833E+03    0.11587E-03   -0.49029E-03 10880   0.534E-01    0.345E-01
DAV:   5    -0.192104369630E+03    0.12672E-02   -0.28407E-03 10560   0.422E-01    0.138E-01
DAV:   6    -0.192104292831E+03    0.76799E-04   -0.11014E-03 11080   0.167E-01    0.934E-02
DAV:   7    -0.192104338694E+03   -0.45862E-04   -0.68478E-04 10240   0.185E-01
  19 F= -.19210434E+03 E0= -.19201598E+03  d E =-.244347E-01
       N       E                     dE             d eps       ncg     rms          rms(c)
DAV:   1    -0.192112229019E+03   -0.79362E-02   -0.22408E-01  8160   0.105E+00    0.173E-01
DAV:   2    -0.192113093432E+03   -0.86441E-03   -0.10657E-02 10960   0.412E-01    0.305E-01
DAV:   3    -0.192112591684E+03    0.50175E-03   -0.35228E-03 12280   0.447E-01    0.220E-01
DAV:   4    -0.192112081365E+03    0.51032E-03   -0.10150E-03  9600   0.211E-01    0.759E-02
DAV:   5    -0.192112014980E+03    0.66385E-04   -0.38611E-04  9360   0.968E-02
  20 F= -.19211201E+03 E0= -.19202397E+03  d E =-.767629E-02
       N       E                     dE             d eps       ncg     rms          rms(c)
DAV:   1    -0.192128733785E+03   -0.16652E-01   -0.12202E+00  8160   0.237E+00    0.311E-01
DAV:   2    -0.192138342984E+03   -0.96092E-02   -0.49144E-02 11240   0.111E+00    0.833E-01
DAV:   3    -0.192130865354E+03    0.74776E-02   -0.14208E-02 12240   0.975E-01    0.254E-01
DAV:   4    -0.192131087139E+03   -0.22178E-03   -0.27914E-03 11040   0.424E-01    0.292E-01
DAV:   5    -0.192130131652E+03    0.95549E-03   -0.17296E-03 10360   0.338E-01    0.949E-02
DAV:   6    -0.192130364769E+03   -0.23312E-03   -0.86732E-04 10200   0.210E-01    0.171E-01
DAV:   7    -0.192130121752E+03    0.24302E-03   -0.66572E-04  9200   0.213E-01    0.730E-02
DAV:   8    -0.192130044298E+03    0.77454E-04   -0.11189E-04  5760   0.705E-02
  21 F= -.19213004E+03 E0= -.19204278E+03  d E =-.180293E-01
       N       E                     dE             d eps       ncg     rms          rms(c)
DAV:   1    -0.192162042772E+03   -0.31921E-01   -0.74118E+00  8160   0.585E+00    0.700E-01
DAV:   2    -0.192198430028E+03   -0.36387E-01   -0.26370E-01 11520   0.217E+00    0.146E+00
DAV:   3    -0.192177350493E+03    0.21080E-01   -0.58331E-02 12240   0.197E+00    0.668E-01
DAV:   4    -0.192176479041E+03    0.87145E-03   -0.13913E-02 11920   0.956E-01    0.636E-01
DAV:   5    -0.192172105287E+03    0.43738E-02   -0.90143E-03 11480   0.795E-01    0.238E-01
DAV:   6    -0.192172319761E+03   -0.21447E-03   -0.38982E-03 12640   0.361E-01    0.252E-01
DAV:   7    -0.192172102670E+03    0.21709E-03   -0.28462E-03 11680   0.430E-01    0.243E-01
DAV:   8    -0.192171412002E+03    0.69067E-03   -0.92018E-04 10040   0.243E-01    0.345E-02
DAV:   9    -0.192171410078E+03    0.19239E-05   -0.96346E-05  6240   0.380E-02
  22 F= -.19217141E+03 E0= -.19208552E+03  d E =-.413658E-01
       N       E                     dE             d eps       ncg     rms          rms(c)
DAV:   1    -0.192186752145E+03   -0.15340E-01   -0.12211E+00  8160   0.238E+00    0.277E-01
DAV:   2    -0.192190001872E+03   -0.32497E-02   -0.36713E-02 11240   0.648E-01    0.397E-01
DAV:   3    -0.192189104297E+03    0.89758E-03   -0.71688E-03 12040   0.683E-01    0.320E-01
DAV:   4    -0.192188409727E+03    0.69457E-03   -0.21438E-03 11480   0.390E-01    0.223E-01
DAV:   5    -0.192187958888E+03    0.45084E-03   -0.12688E-03 10160   0.315E-01    0.116E-01
DAV:   6    -0.192187883959E+03    0.74929E-04   -0.53906E-04 10480   0.137E-01
  23 F= -.19218788E+03 E0= -.19210179E+03  d E =-.164739E-01
       N       E                     dE             d eps       ncg     rms          rms(c)
DAV:   1    -0.192194892788E+03   -0.69339E-02   -0.25052E-01  8160   0.108E+00    0.137E-01
DAV:   2    -0.192195620527E+03   -0.72774E-03   -0.73927E-03 10600   0.337E-01    0.214E-01
DAV:   3    -0.192195257415E+03    0.36311E-03   -0.15011E-03 11120   0.338E-01    0.140E-01
DAV:   4    -0.192195213028E+03    0.44387E-04   -0.60295E-04  8760   0.200E-01
  24 F= -.19219521E+03 E0= -.19210889E+03  d E =-.732907E-02
       N       E                     dE             d eps       ncg     rms          rms(c)
DAV:   1    -0.192170809771E+03    0.24448E-01   -0.32531E+00  8160   0.388E+00    0.513E-01
DAV:   2    -0.192194772006E+03   -0.23962E-01   -0.11225E-01 11440   0.178E+00    0.145E+00
DAV:   3    -0.192173556591E+03    0.21215E-01   -0.45232E-02 12240   0.167E+00    0.393E-01
DAV:   4    -0.192174055281E+03   -0.49869E-03   -0.69743E-03 11520   0.647E-01    0.447E-01
DAV:   5    -0.192171748751E+03    0.23065E-02   -0.43089E-03 12040   0.572E-01    0.179E-01
DAV:   6    -0.192171969910E+03   -0.22116E-03   -0.18289E-03 11640   0.332E-01    0.234E-01
DAV:   7    -0.192171564476E+03    0.40543E-03   -0.13292E-03 10480   0.326E-01    0.131E-01
DAV:   8    -0.192171324804E+03    0.23967E-03   -0.38159E-04  9240   0.135E-01    0.237E-02
DAV:   9    -0.192171324282E+03    0.52139E-06   -0.51048E-05  6920   0.279E-02
  25 F= -.19217132E+03 E0= -.19208598E+03  d E =0.238887E-01
       N       E                     dE             d eps       ncg     rms          rms(c)
DAV:   1    -0.192126759708E+03    0.44565E-01   -0.13940E+01  8160   0.808E+00    0.103E+00
DAV:   2    -0.192204463917E+03   -0.77704E-01   -0.44692E-01 11800   0.339E+00    0.260E+00
DAV:   3    -0.192142314712E+03    0.62149E-01   -0.17985E-01 12360   0.315E+00    0.909E-01
DAV:   4    -0.192144541841E+03   -0.22271E-02   -0.38121E-02 12400   0.147E+00    0.104E+00
DAV:   5    -0.192132699817E+03    0.11842E-01   -0.23319E-02 12160   0.127E+00    0.425E-01
DAV:   6    -0.192134122703E+03   -0.14229E-02   -0.10481E-02 11760   0.809E-01    0.576E-01
DAV:   7    -0.192131320800E+03    0.28019E-02   -0.76583E-03 11760   0.735E-01    0.238E-01
DAV:   8    -0.192130374979E+03    0.94582E-03   -0.15338E-03 10440   0.232E-01    0.452E-02
DAV:   9    -0.192130367653E+03    0.73258E-05   -0.21156E-04  8760   0.488E-02
  26 F= -.19213037E+03 E0= -.19204345E+03  d E =0.409566E-01
       N       E                     dE             d eps       ncg     rms          rms(c)
DAV:   1    -0.192134107440E+03   -0.37325E-02   -0.39027E-01  8160   0.136E+00    0.189E-01
DAV:   2    -0.192135649395E+03   -0.15420E-02   -0.14992E-02 12680   0.503E-01    0.360E-01
DAV:   3    -0.192134690256E+03    0.95914E-03   -0.43876E-03 12040   0.515E-01    0.229E-01
DAV:   4    -0.192134187088E+03    0.50317E-03   -0.11626E-03  9960   0.223E-01    0.108E-01
DAV:   5    -0.192134224964E+03   -0.37876E-04   -0.85243E-04 10400   0.222E-01
  27 F= -.19213422E+03 E0= -.19204783E+03  d E =-.385731E-02
       N       E                     dE             d eps       ncg     rms          rms(c)
DAV:   1    -0.192125277047E+03    0.89100E-02   -0.22795E+00  8160   0.327E+00    0.393E-01
DAV:   2    -0.192130478874E+03   -0.52018E-02   -0.60889E-02 11320   0.958E-01    0.574E-01
DAV:   3    -0.192128766837E+03    0.17120E-02   -0.14622E-02 12080   0.964E-01    0.451E-01
DAV:   4    -0.192127232059E+03    0.15348E-02   -0.46691E-03 12000   0.538E-01    0.290E-01
DAV:   5    -0.192126467219E+03    0.76484E-03   -0.28024E-03 10600   0.444E-01    0.178E-01
DAV:   6    -0.192126340559E+03    0.12666E-03   -0.12915E-03 10840   0.241E-01    0.139E-01
DAV:   7    -0.192126264636E+03    0.75922E-04   -0.90914E-04  9800   0.215E-01
  28 F= -.19212626E+03 E0= -.19203932E+03  d E =0.796033E-02
       N       E                     dE             d eps       ncg     rms          rms(c)
DAV:   1    -0.192131573166E+03   -0.52326E-02   -0.56612E-01  8160   0.162E+00    0.187E-01
DAV:   2    -0.192134450806E+03   -0.28776E-02   -0.17125E-02 12680   0.613E-01    0.472E-01
DAV:   3    -0.192132329962E+03    0.21208E-02   -0.53784E-03 12160   0.566E-01    0.178E-01
DAV:   4    -0.192132245329E+03    0.84633E-04   -0.11623E-03  9640   0.228E-01    0.162E-01
DAV:   5    -0.192131995412E+03    0.24992E-03   -0.80049E-04 10080   0.216E-01    0.842E-02
DAV:   6    -0.192132025315E+03   -0.29903E-04   -0.39217E-04  8520   0.147E-01
  29 F= -.19213203E+03 E0= -.19204470E+03  d E =-.576068E-02
       N       E                     dE             d eps       ncg     rms          rms(c)
DAV:   1    -0.192135168211E+03   -0.31728E-02   -0.20746E-01  8160   0.978E-01    0.123E-01
DAV:   2    -0.192136302387E+03   -0.11342E-02   -0.83756E-03 11480   0.419E-01    0.263E-01
DAV:   3    -0.192135622245E+03    0.68014E-03   -0.19309E-03 12320   0.351E-01    0.119E-01
DAV:   4    -0.192135630060E+03   -0.78151E-05   -0.57154E-04  8920   0.176E-01
  30 F= -.19213563E+03 E0= -.19204785E+03  d E =-.360475E-02
       N       E                     dE             d eps       ncg     rms          rms(c)
DAV:   1    -0.192137744149E+03   -0.21219E-02   -0.88418E-02  8160   0.647E-01    0.967E-02
DAV:   2    -0.192138508459E+03   -0.76431E-03   -0.36521E-03 12840   0.294E-01    0.272E-01
DAV:   3    -0.192137816122E+03    0.69234E-03   -0.16281E-03 10120   0.282E-01    0.768E-02
DAV:   4    -0.192137780412E+03    0.35710E-04   -0.12602E-04  5880   0.805E-02
  31 F= -.19213778E+03 E0= -.19205100E+03  d E =-.215035E-02
       N       E                     dE             d eps       ncg     rms          rms(c)
DAV:   1    -0.192141466005E+03   -0.36499E-02   -0.24865E-01  8160   0.108E+00    0.150E-01
DAV:   2    -0.192143543105E+03   -0.20771E-02   -0.99387E-03 12600   0.512E-01    0.406E-01
DAV:   3    -0.192141814327E+03    0.17288E-02   -0.36649E-03 12520   0.478E-01    0.135E-01
DAV:   4    -0.192141862867E+03   -0.48540E-04   -0.80952E-04  9240   0.210E-01
  32 F= -.19214186E+03 E0= -.19205437E+03  d E =-.408245E-02
       N       E                     dE             d eps       ncg     rms          rms(c)
DAV:   1    -0.192142162387E+03   -0.34806E-03   -0.45868E-03 11280   0.218E-01    0.560E-02
DAV:   2    -0.192142519545E+03   -0.35716E-03   -0.90487E-04 10400   0.208E-01    0.193E-01
DAV:   3    -0.192142135895E+03    0.38365E-03   -0.68666E-04  8800   0.193E-01    0.419E-02
DAV:   4    -0.192142139270E+03   -0.33749E-05   -0.62457E-05  5840   0.600E-02
  33 F= -.19214214E+03 E0= -.19205554E+03  d E =-.276403E-03
       N       E                     dE             d eps       ncg     rms          rms(c)
DAV:   1    -0.192146005906E+03   -0.38700E-02   -0.25553E-01  8160   0.109E+00    0.148E-01
DAV:   2    -0.192147817561E+03   -0.18117E-02   -0.94177E-03 12120   0.490E-01    0.381E-01
DAV:   3    -0.192146321648E+03    0.14959E-02   -0.32053E-03 12320   0.455E-01    0.135E-01
DAV:   4    -0.192146326344E+03   -0.46961E-05   -0.71316E-04  9280   0.199E-01
  34 F= -.19214633E+03 E0= -.19205931E+03  d E =-.418707E-02
       N       E                     dE             d eps       ncg     rms          rms(c)
DAV:   1    -0.192145576272E+03    0.74538E-03   -0.53993E-03 11000   0.237E-01    0.625E-02
DAV:   2    -0.192146380619E+03   -0.80435E-03   -0.17876E-03 10760   0.311E-01    0.272E-01
DAV:   3    -0.192145555775E+03    0.82484E-03   -0.12246E-03  9600   0.269E-01    0.417E-02
DAV:   4    -0.192145557533E+03   -0.17582E-05   -0.57148E-05  5800   0.588E-02
  35 F= -.19214556E+03 E0= -.19205922E+03  d E =0.768811E-03
       N       E                     dE             d eps       ncg     rms          rms(c)
DAV:   1    -0.192148945212E+03   -0.33894E-02   -0.19132E-01  8160   0.943E-01    0.123E-01
DAV:   2    -0.192149951807E+03   -0.10066E-02   -0.70482E-03 11480   0.377E-01    0.278E-01
DAV:   3    -0.192149253832E+03    0.69798E-03   -0.19798E-03 11960   0.349E-01    0.123E-01
DAV:   4    -0.192149198423E+03    0.55409E-04   -0.45827E-04  8400   0.158E-01
  36 F= -.19214920E+03 E0= -.19206274E+03  d E =-.364089E-02
       N       E                     dE             d eps       ncg     rms          rms(c)
DAV:   1    -0.192147206591E+03    0.20472E-02   -0.52598E-02  8160   0.506E-01    0.751E-02
DAV:   2    -0.192148178939E+03   -0.97235E-03   -0.31292E-03 11800   0.345E-01    0.278E-01
DAV:   3    -0.192147273365E+03    0.90557E-03   -0.13499E-03  9960   0.297E-01    0.430E-02
DAV:   4    -0.192147298529E+03   -0.25164E-04   -0.10346E-04  5880   0.875E-02
  37 F= -.19214730E+03 E0= -.19206111E+03  d E =0.189989E-02
       N       E                     dE             d eps       ncg     rms          rms(c)
DAV:   1    -0.192146275009E+03    0.99836E-03   -0.40298E-02  8160   0.437E-01    0.765E-02
DAV:   2    -0.192146852791E+03   -0.57778E-03   -0.21714E-03 12360   0.319E-01    0.222E-01
DAV:   3    -0.192146249655E+03    0.60314E-03   -0.83991E-04  9640   0.249E-01    0.415E-02
DAV:   4    -0.192146313980E+03   -0.64325E-04   -0.17374E-04  7080   0.108E-01
  38 F= -.19214631E+03 E0= -.19205978E+03  d E =0.984549E-03
       N       E                     dE             d eps       ncg     rms          rms(c)
DAV:   1    -0.192144303405E+03    0.19462E-02   -0.88173E-02  8160   0.650E-01    0.996E-02
DAV:   2    -0.192145067720E+03   -0.76431E-03   -0.33241E-03 12280   0.348E-01    0.269E-01
DAV:   3    -0.192144295456E+03    0.77226E-03   -0.13545E-03 10320   0.306E-01    0.699E-02
DAV:   4    -0.192144312672E+03   -0.17216E-04   -0.23605E-04  8760   0.123E-01
  39 F= -.19214431E+03 E0= -.19205789E+03  d E =0.200131E-02
       N       E                     dE             d eps       ncg     rms          rms(c)
DAV:   1    -0.192144283881E+03    0.11575E-04   -0.26814E-04  8920   0.122E-01    0.457E-02
DAV:   2    -0.192144647319E+03   -0.36344E-03   -0.73338E-04 10280   0.219E-01    0.176E-01
DAV:   3    -0.192144264415E+03    0.38290E-03   -0.51357E-04  8800   0.185E-01    0.365E-02
DAV:   4    -0.192144258892E+03    0.55237E-05   -0.37059E-05  5560   0.446E-02
  40 F= -.19214426E+03 E0= -.19205763E+03  d E =0.537800E-04
       N       E                     dE             d eps       ncg     rms          rms(c)
DAV:   1    -0.192147595728E+03   -0.33313E-02   -0.23510E-01  8160   0.105E+00    0.128E-01
DAV:   2    -0.192148678782E+03   -0.10831E-02   -0.80579E-03 11200   0.417E-01    0.277E-01
DAV:   3    -0.192147949039E+03    0.72974E-03   -0.19014E-03 12240   0.358E-01    0.118E-01
DAV:   4    -0.192147880292E+03    0.68747E-04   -0.39342E-04  8160   0.159E-01
  41 F= -.19214788E+03 E0= -.19206101E+03  d E =-.362140E-02
       N       E                     dE             d eps       ncg     rms          rms(c)
DAV:   1    -0.192141528301E+03    0.64207E-02   -0.63701E-01  8160   0.172E+00    0.209E-01
DAV:   2    -0.192144882076E+03   -0.33538E-02   -0.24199E-02 12040   0.685E-01    0.493E-01
DAV:   3    -0.192142655314E+03    0.22268E-02   -0.68682E-03 11640   0.598E-01    0.186E-01
DAV:   4    -0.192142591954E+03    0.63360E-04   -0.14617E-03 10120   0.274E-01    0.184E-01
DAV:   5    -0.192142261477E+03    0.33048E-03   -0.82047E-04  9840   0.236E-01    0.870E-02
DAV:   6    -0.192142340112E+03   -0.78635E-04   -0.44365E-04  8720   0.167E-01
  42 F= -.19214234E+03 E0= -.19205495E+03  d E =0.554018E-02
       N       E                     dE             d eps       ncg     rms          rms(c)
DAV:   1    -0.192138581229E+03    0.36802E-02   -0.29265E-01  8160   0.118E+00    0.164E-01
DAV:   2    -0.192140043592E+03   -0.14624E-02   -0.10706E-02 12280   0.512E-01    0.347E-01
DAV:   3    -0.192138861366E+03    0.11822E-02   -0.29943E-03 12120   0.447E-01    0.136E-01
DAV:   4    -0.192138854630E+03    0.67359E-05   -0.68515E-04  9240   0.220E-01
  43 F= -.19213885E+03 E0= -.19205201E+03  d E =0.348548E-02
       N       E                     dE             d eps       ncg     rms          rms(c)
DAV:   1    -0.192140442216E+03   -0.15808E-02   -0.77866E-02  8160   0.625E-01    0.854E-02
DAV:   2    -0.192141491647E+03   -0.10494E-02   -0.40964E-03 12440   0.387E-01    0.266E-01
DAV:   3    -0.192140547054E+03    0.94459E-03   -0.13594E-03 10120   0.308E-01    0.367E-02
DAV:   4    -0.192140592282E+03   -0.45228E-04   -0.13907E-04  6160   0.886E-02
  44 F= -.19214059E+03 E0= -.19205368E+03  d E =-.173765E-02
       N       E                     dE             d eps       ncg     rms          rms(c)
DAV:   1    -0.192140369139E+03    0.17792E-03   -0.86728E-02  8160   0.637E-01    0.116E-01
DAV:   2    -0.192142674566E+03   -0.23054E-02   -0.67981E-03 12240   0.549E-01    0.456E-01
DAV:   3    -0.192140436866E+03    0.22377E-02   -0.35047E-03 10520   0.463E-01    0.756E-02
DAV:   4    -0.192140456046E+03   -0.19180E-04   -0.34240E-04  8360   0.131E-01
  45 F= -.19214046E+03 E0= -.19205380E+03  d E =0.136236E-03
       N       E                     dE             d eps       ncg     rms          rms(c)
DAV:   1    -0.192143408005E+03   -0.29711E-02   -0.61083E-01  8160   0.167E+00    0.248E-01
DAV:   2    -0.192152059914E+03   -0.86519E-02   -0.32793E-02 12240   0.114E+00    0.846E-01
DAV:   3    -0.192144300925E+03    0.77590E-02   -0.13685E-02 12240   0.904E-01    0.205E-01
DAV:   4    -0.192144208475E+03    0.92450E-04   -0.19035E-03  9600   0.316E-01    0.178E-01
DAV:   5    -0.192143845242E+03    0.36323E-03   -0.78991E-04  9800   0.204E-01    0.668E-02
DAV:   6    -0.192143929396E+03   -0.84154E-04   -0.39396E-04  9880   0.144E-01
  46 F= -.19214393E+03 E0= -.19205700E+03  d E =-.347335E-02
       N       E                     dE             d eps       ncg     rms          rms(c)
DAV:   1    -0.192146681186E+03   -0.28359E-02   -0.26746E-01  8160   0.112E+00    0.132E-01
DAV:   2    -0.192147517373E+03   -0.83619E-03   -0.94196E-03 11800   0.321E-01    0.194E-01
DAV:   3    -0.192147393052E+03    0.12432E-03   -0.19487E-03 12120   0.331E-01    0.179E-01
DAV:   4    -0.192147161597E+03    0.23146E-03   -0.77558E-04  8720   0.198E-01    0.103E-01
DAV:   5    -0.192147077633E+03    0.83964E-04   -0.37228E-04  8520   0.147E-01
  47 F= -.19214708E+03 E0= -.19206075E+03  d E =-.314824E-02
       N       E                     dE             d eps       ncg     rms          rms(c)
DAV:   1    -0.192147772959E+03   -0.61136E-03   -0.14172E-02  8160   0.264E-01    0.560E-02
DAV:   2    -0.192147918452E+03   -0.14549E-03   -0.87847E-04 10520   0.171E-01    0.119E-01
DAV:   3    -0.192147753138E+03    0.16531E-03   -0.37891E-04  8880   0.161E-01    0.532E-02
DAV:   4    -0.192147733242E+03    0.19895E-04   -0.86786E-05  5960   0.740E-02
  48 F= -.19214773E+03 E0= -.19206116E+03  d E =-.655609E-03
       N       E                     dE             d eps       ncg     rms          rms(c)
DAV:   1    -0.192150612292E+03   -0.28592E-02   -0.19446E-01  8160   0.951E-01    0.122E-01
DAV:   2    -0.192151742030E+03   -0.11297E-02   -0.63129E-03 12520   0.378E-01    0.304E-01
DAV:   3    -0.192150833200E+03    0.90883E-03   -0.20383E-03 11640   0.365E-01    0.105E-01
DAV:   4    -0.192150799600E+03    0.33600E-04   -0.34661E-04  8440   0.128E-01
  49 F= -.19215080E+03 E0= -.19206419E+03  d E =-.306636E-02
       N       E                     dE             d eps       ncg     rms          rms(c)
DAV:   1    -0.192150117968E+03    0.71523E-03   -0.77505E-03  8400   0.238E-01    0.716E-02
DAV:   2    -0.192151453323E+03   -0.13354E-02   -0.27573E-03 11560   0.397E-01    0.359E-01
DAV:   3    -0.192150080256E+03    0.13731E-02   -0.18732E-03 10040   0.333E-01    0.295E-02
DAV:   4    -0.192150097242E+03   -0.16986E-04   -0.42019E-05  5960   0.488E-02
  50 F= -.19215010E+03 E0= -.19206350E+03  d E =0.702358E-03
       N       E                     dE             d eps       ncg     rms          rms(c)
DAV:   1    -0.192150219254E+03   -0.13900E-03   -0.29677E-02  8160   0.371E-01    0.667E-02
DAV:   2    -0.192150819458E+03   -0.60020E-03   -0.19958E-03 12640   0.291E-01    0.239E-01
DAV:   3    -0.192150205238E+03    0.61422E-03   -0.98422E-04  8880   0.246E-01    0.391E-02
DAV:   4    -0.192150221890E+03   -0.16652E-04   -0.11253E-04  5640   0.699E-02
  51 F= -.19215022E+03 E0= -.19206335E+03  d E =-.124648E-03
       N       E                     dE             d eps       ncg     rms          rms(c)
DAV:   1    -0.192150622424E+03   -0.41719E-03   -0.82872E-02  8160   0.626E-01    0.123E-01
DAV:   2    -0.192151848386E+03   -0.12260E-02   -0.55032E-03 11480   0.432E-01    0.366E-01
DAV:   3    -0.192150525100E+03    0.13233E-02   -0.28949E-03 11160   0.391E-01    0.920E-02
DAV:   4    -0.192150505343E+03    0.19757E-04   -0.46262E-04  8640   0.125E-01
  52 F= -.19215051E+03 E0= -.19206340E+03  d E =-.283453E-03
       N       E                     dE             d eps       ncg     rms          rms(c)
DAV:   1    -0.192153694761E+03   -0.31697E-02   -0.25265E-01  8160   0.112E+00    0.237E-01
DAV:   2    -0.192163766438E+03   -0.10072E-01   -0.22460E-02 12160   0.116E+00    0.974E-01
DAV:   3    -0.192153299528E+03    0.10467E-01   -0.12749E-02 10600   0.981E-01    0.859E-02
DAV:   4    -0.192153346492E+03   -0.46964E-04   -0.73404E-04 10000   0.142E-01
  53 F= -.19215335E+03 E0= -.19206762E+03  d E =-.284115E-02
       N       E                     dE             d eps       ncg     rms          rms(c)
DAV:   1    -0.192152752640E+03    0.54689E-03   -0.17095E-01  8160   0.931E-01    0.172E-01
DAV:   2    -0.192157047857E+03   -0.42952E-02   -0.12530E-02 12240   0.766E-01    0.639E-01
DAV:   3    -0.192152718095E+03    0.43298E-02   -0.59213E-03 11440   0.652E-01    0.842E-02
DAV:   4    -0.192152803115E+03   -0.85021E-04   -0.63389E-04  8920   0.157E-01
  54 F= -.19215280E+03 E0= -.19206668E+03  d E =0.543377E-03
       N       E                     dE             d eps       ncg     rms          rms(c)
DAV:   1    -0.192154938603E+03   -0.22205E-02   -0.23344E-01  8160   0.106E+00    0.152E-01
DAV:   2    -0.192155292324E+03   -0.35372E-03   -0.80800E-03 12800   0.292E-01    0.181E-01
DAV:   3    -0.192155377472E+03   -0.85148E-04   -0.20501E-03 11800   0.342E-01    0.226E-01
DAV:   4    -0.192154907681E+03    0.46979E-03   -0.11131E-03  9960   0.246E-01    0.924E-02
DAV:   5    -0.192154821976E+03    0.85705E-04   -0.38433E-04  8240   0.114E-01
  55 F= -.19215482E+03 E0= -.19206823E+03  d E =-.201886E-02
       N       E                     dE             d eps       ncg     rms          rms(c)
DAV:   1    -0.192155810807E+03   -0.90313E-03   -0.93085E-02  8160   0.701E-01    0.182E-01
DAV:   2    -0.192160876902E+03   -0.50661E-02   -0.13602E-02 12240   0.855E-01    0.708E-01
DAV:   3    -0.192155452229E+03    0.54247E-02   -0.79768E-03 11480   0.719E-01    0.891E-02
DAV:   4    -0.192155495195E+03   -0.42967E-04   -0.62094E-04  8800   0.156E-01
  56 F= -.19215550E+03 E0= -.19206942E+03  d E =-.673219E-03
       N       E                     dE             d eps       ncg     rms          rms(c)
DAV:   1    -0.192155659022E+03   -0.20679E-03   -0.23853E+00  8160   0.341E+00    0.593E-01
DAV:   2    -0.192187648376E+03   -0.31989E-01   -0.14778E-01 12240   0.223E+00    0.176E+00
DAV:   3    -0.192156119435E+03    0.31529E-01   -0.57325E-02 12120   0.193E+00    0.351E-01
DAV:   4    -0.192154853176E+03    0.12663E-02   -0.62804E-03 12240   0.498E-01    0.332E-01
DAV:   5    -0.192154764972E+03    0.88204E-04   -0.65087E-03 11080   0.589E-01    0.385E-01
DAV:   6    -0.192153641562E+03    0.11234E-02   -0.44995E-03 11760   0.437E-01    0.184E-01
DAV:   7    -0.192153444542E+03    0.19702E-03   -0.13501E-03  9920   0.289E-01    0.132E-01
DAV:   8    -0.192153204788E+03    0.23975E-03   -0.36090E-04  8720   0.153E-01    0.285E-02
DAV:   9    -0.192153194533E+03    0.10255E-04   -0.51093E-05  6480   0.322E-02
  57 F= -.19215319E+03 E0= -.19206568E+03  d E =0.230066E-02
       N       E                     dE             d eps       ncg     rms          rms(c)
DAV:   1    -0.192169822287E+03   -0.16617E-01   -0.61966E+00  8160   0.547E+00    0.100E+00
DAV:   2    -0.192236553546E+03   -0.66731E-01   -0.36667E-01 12400   0.347E+00    0.258E+00
DAV:   3    -0.192167052469E+03    0.69501E-01   -0.14268E-01 12360   0.302E+00    0.739E-01
DAV:   4    -0.192166788068E+03    0.26440E-03   -0.29096E-02 11280   0.131E+00    0.864E-01
DAV:   5    -0.192160439927E+03    0.63481E-02   -0.25454E-02 12080   0.131E+00    0.595E-01
DAV:   6    -0.192158212119E+03    0.22278E-02   -0.11634E-02 12520   0.784E-01    0.412E-01
DAV:   7    -0.192156829471E+03    0.13826E-02   -0.52195E-03 11840   0.565E-01    0.199E-01
DAV:   8    -0.192156280720E+03    0.54875E-03   -0.11294E-03 11000   0.205E-01    0.482E-02
DAV:   9    -0.192156258159E+03    0.22560E-04   -0.13466E-04  7200   0.438E-02
  58 F= -.19215626E+03 E0= -.19207081E+03  d E =-.306363E-02
       N       E                     dE             d eps       ncg     rms          rms(c)
DAV:   1    -0.192161659835E+03   -0.53791E-02   -0.71874E-01  8160   0.186E+00    0.291E-01
DAV:   2    -0.192165227752E+03   -0.35679E-02   -0.33698E-02 12240   0.833E-01    0.589E-01
DAV:   3    -0.192162156127E+03    0.30716E-02   -0.10584E-02 12240   0.777E-01    0.267E-01
DAV:   4    -0.192161582118E+03    0.57401E-03   -0.25775E-03 11840   0.344E-01    0.198E-01
DAV:   5    -0.192161431381E+03    0.15074E-03   -0.19152E-03 10720   0.354E-01    0.201E-01
DAV:   6    -0.192161090400E+03    0.34098E-03   -0.99968E-04  9800   0.240E-01    0.101E-01
DAV:   7    -0.192161057343E+03    0.33057E-04   -0.40591E-04  8520   0.171E-01
  59 F= -.19216106E+03 E0= -.19207553E+03  d E =-.479918E-02
       N       E                     dE             d eps       ncg     rms          rms(c)
DAV:   1    -0.192164729718E+03   -0.36393E-02   -0.18642E-01  8160   0.935E-01    0.130E-01
DAV:   2    -0.192165717588E+03   -0.98787E-03   -0.64497E-03 11640   0.407E-01    0.293E-01
DAV:   3    -0.192164872052E+03    0.84554E-03   -0.20645E-03 11760   0.367E-01    0.107E-01
DAV:   4    -0.192164789650E+03    0.82402E-04   -0.32681E-04  8280   0.130E-01
  60 F= -.19216479E+03 E0= -.19207910E+03  d E =-.373231E-02
       N       E                     dE             d eps       ncg     rms          rms(c)
DAV:   1    -0.192164314626E+03    0.55743E-03   -0.32094E-02  8160   0.419E-01    0.783E-02
DAV:   2    -0.192165194867E+03   -0.88024E-03   -0.26030E-03 12680   0.338E-01    0.276E-01
DAV:   3    -0.192164337022E+03    0.85784E-03   -0.12568E-03 10080   0.298E-01    0.563E-02
DAV:   4    -0.192164358130E+03   -0.21108E-04   -0.17002E-04  7240   0.969E-02
  61 F= -.19216436E+03 E0= -.19207899E+03  d E =0.431520E-03
       N       E                     dE             d eps       ncg     rms          rms(c)
DAV:   1    -0.192162437341E+03    0.18997E-02   -0.16499E-01  8160   0.875E-01    0.117E-01
DAV:   2    -0.192163424761E+03   -0.98742E-03   -0.62859E-03 12240   0.390E-01    0.272E-01
DAV:   3    -0.192162675634E+03    0.74913E-03   -0.20597E-03 10560   0.340E-01    0.104E-01
DAV:   4    -0.192162681804E+03   -0.61701E-05   -0.41530E-04  8160   0.156E-01
  62 F= -.19216268E+03 E0= -.19207680E+03  d E =0.167633E-02
       N       E                     dE             d eps       ncg     rms          rms(c)
DAV:   1    -0.192165271639E+03   -0.25960E-02   -0.19796E-01  8160   0.990E-01    0.132E-01
DAV:   2    -0.192165977499E+03   -0.70586E-03   -0.73274E-03 12040   0.318E-01    0.229E-01
DAV:   3    -0.192165660690E+03    0.31681E-03   -0.19777E-03 11960   0.344E-01    0.167E-01
DAV:   4    -0.192165408845E+03    0.25185E-03   -0.54097E-04  8320   0.156E-01    0.766E-02
DAV:   5    -0.192165375273E+03    0.33572E-04   -0.29724E-04  8960   0.136E-01
  63 F= -.19216538E+03 E0= -.19207960E+03  d E =-.269347E-02
       N       E                     dE             d eps       ncg     rms          rms(c)
DAV:   1    -0.192168085698E+03   -0.26769E-02   -0.10758E-01  8160   0.716E-01    0.116E-01
DAV:   2    -0.192169505710E+03   -0.14200E-02   -0.53869E-03 11840   0.440E-01    0.344E-01
DAV:   3    -0.192168126259E+03    0.13795E-02   -0.22635E-03 10720   0.389E-01    0.818E-02
DAV:   4    -0.192168128229E+03   -0.19695E-05   -0.26608E-04  8400   0.131E-01
  64 F= -.19216813E+03 E0= -.19208208E+03  d E =-.275296E-02
       N       E                     dE             d eps       ncg     rms          rms(c)
DAV:   1    -0.192156541768E+03    0.11584E-01   -0.20205E+00  8160   0.309E+00    0.395E-01
DAV:   2    -0.192163551052E+03   -0.70093E-02   -0.55688E-02 11480   0.105E+00    0.724E-01
DAV:   3    -0.192158010300E+03    0.55408E-02   -0.17416E-02 12160   0.105E+00    0.336E-01
DAV:   4    -0.192157875627E+03    0.13467E-03   -0.40672E-03 11280   0.499E-01    0.342E-01
DAV:   5    -0.192156739206E+03    0.11364E-02   -0.31055E-03 10520   0.488E-01    0.178E-01
DAV:   6    -0.192156473261E+03    0.26595E-03   -0.10525E-03 10320   0.197E-01    0.719E-02
DAV:   7    -0.192156362122E+03    0.11114E-03   -0.26510E-04  8120   0.702E-02    0.252E-02
DAV:   8    -0.192156369512E+03   -0.73894E-05   -0.64507E-05  7520   0.568E-02
  65 F= -.19215637E+03 E0= -.19207013E+03  d E =0.117587E-01
       N       E                     dE             d eps       ncg     rms          rms(c)
DAV:   1    -0.192165709502E+03   -0.93474E-02   -0.12428E+00  8160   0.244E+00    0.331E-01
DAV:   2    -0.192169586205E+03   -0.38767E-02   -0.35773E-02 11920   0.789E-01    0.592E-01
DAV:   3    -0.192166693857E+03    0.28923E-02   -0.11042E-02 12120   0.847E-01    0.364E-01
DAV:   4    -0.192166134216E+03    0.55964E-03   -0.39331E-03 12000   0.461E-01    0.300E-01
DAV:   5    -0.192165243531E+03    0.89069E-03   -0.29208E-03 11160   0.421E-01    0.158E-01
DAV:   6    -0.192165168413E+03    0.75118E-04   -0.12044E-03 10400   0.233E-01    0.141E-01
DAV:   7    -0.192165013787E+03    0.15463E-03   -0.66303E-04  9400   0.210E-01    0.901E-02
DAV:   8    -0.192164913716E+03    0.10007E-03   -0.15993E-04  6360   0.972E-02    0.191E-02
DAV:   9    -0.192164909817E+03    0.38997E-05   -0.33242E-05  6800   0.249E-02
  66 F= -.19216491E+03 E0= -.19207861E+03  d E =-.854031E-02
       N       E                     dE             d eps       ncg     rms          rms(c)
DAV:   1    -0.192164334359E+03    0.57936E-03   -0.18853E-02  8160   0.308E-01    0.513E-02
DAV:   2    -0.192164322023E+03    0.12337E-04   -0.70349E-04 10080   0.848E-02
  67 F= -.19216432E+03 E0= -.19207812E+03  d E =0.587794E-03
       N       E                     dE             d eps       ncg     rms          rms(c)
DAV:   1    -0.192167173276E+03   -0.28389E-02   -0.16199E-01  8160   0.894E-01    0.207E-01
DAV:   2    -0.192168865385E+03   -0.16921E-02   -0.11351E-02 11400   0.700E-01    0.446E-01
DAV:   3    -0.192166359836E+03    0.25055E-02   -0.43479E-03 12000   0.563E-01    0.101E-01
DAV:   4    -0.192166285838E+03    0.73998E-04   -0.81245E-04  9520   0.160E-01
  68 F= -.19216629E+03 E0= -.19208036E+03  d E =-.196382E-02
       N       E                     dE             d eps       ncg     rms          rms(c)
DAV:   1    -0.192167471867E+03   -0.11120E-02   -0.24290E-02  8160   0.396E-01    0.143E-01
DAV:   2    -0.192172594110E+03   -0.51222E-02   -0.98846E-03 11200   0.749E-01    0.727E-01
DAV:   3    -0.192167273959E+03    0.53202E-02   -0.76144E-03 10000   0.653E-01    0.538E-02
DAV:   4    -0.192167321892E+03   -0.47934E-04   -0.20066E-04  8160   0.985E-02
  69 F= -.19216732E+03 E0= -.19208146E+03  d E =-.103605E-02
       N       E                     dE             d eps       ncg     rms          rms(c)
DAV:   1    -0.192170975526E+03   -0.37016E-02   -0.14718E-01  8160   0.839E-01    0.128E-01
DAV:   2    -0.192172219095E+03   -0.12436E-02   -0.51834E-03 11640   0.431E-01    0.343E-01
DAV:   3    -0.192170954190E+03    0.12649E-02   -0.22114E-03 10600   0.396E-01    0.903E-02
DAV:   4    -0.192170897402E+03    0.56788E-04   -0.25244E-04  7960   0.889E-02
  70 F= -.19217090E+03 E0= -.19208515E+03  d E =-.357551E-02
       N       E                     dE             d eps       ncg     rms          rms(c)
DAV:   1    -0.192160384382E+03    0.10570E-01   -0.17393E+00  8160   0.285E+00    0.388E-01
DAV:   2    -0.192174086516E+03   -0.13702E-01   -0.57907E-02 11160   0.139E+00    0.111E+00
DAV:   3    -0.192161149611E+03    0.12937E-01   -0.23561E-02 11360   0.127E+00    0.275E-01
DAV:   4    -0.192160985213E+03    0.16440E-03   -0.30651E-03 11520   0.389E-01    0.257E-01
DAV:   5    -0.192160499999E+03    0.48521E-03   -0.29209E-03 10920   0.418E-01    0.215E-01
DAV:   6    -0.192160219413E+03    0.28059E-03   -0.18131E-03 10720   0.281E-01    0.155E-01
DAV:   7    -0.192160149402E+03    0.70012E-04   -0.95020E-04  9600   0.242E-01
  71 F= -.19216015E+03 E0= -.19207417E+03  d E =0.107480E-01
       N       E                     dE             d eps       ncg     rms          rms(c)
DAV:   1    -0.192154013613E+03    0.62058E-02   -0.12136E+00  8160   0.238E+00    0.300E-01
DAV:   2    -0.192157364029E+03   -0.33504E-02   -0.32068E-02 11040   0.731E-01    0.509E-01
DAV:   3    -0.192155431735E+03    0.19323E-02   -0.90332E-03 11960   0.758E-01    0.313E-01
DAV:   4    -0.192154706299E+03    0.72544E-03   -0.21073E-03 11520   0.364E-01    0.192E-01
DAV:   5    -0.192154432983E+03    0.27332E-03   -0.16408E-03 10360   0.336E-01    0.150E-01
DAV:   6    -0.192154285570E+03    0.14741E-03   -0.84133E-04 10360   0.203E-01    0.873E-02
DAV:   7    -0.192154241827E+03    0.43744E-04   -0.41858E-04  9000   0.133E-01
  72 F= -.19215424E+03 E0= -.19206811E+03  d E =0.590757E-02
       N       E                     dE             d eps       ncg     rms          rms(c)
DAV:   1    -0.192157049321E+03   -0.27638E-02   -0.17559E-01  8160   0.956E-01    0.189E-01
DAV:   2    -0.192158322507E+03   -0.12732E-02   -0.84455E-03 11600   0.537E-01    0.443E-01
DAV:   3    -0.192156498358E+03    0.18241E-02   -0.45049E-03 11680   0.529E-01    0.164E-01
DAV:   4    -0.192156287199E+03    0.21116E-03   -0.11744E-03 10080   0.220E-01    0.140E-01
DAV:   5    -0.192156252339E+03    0.34860E-04   -0.10788E-03 10360   0.251E-01    0.142E-01
DAV:   6    -0.192156024229E+03    0.22811E-03   -0.45186E-04  8320   0.151E-01    0.444E-02
DAV:   7    -0.192156011615E+03    0.12614E-04   -0.97204E-05  5800   0.767E-02
  73 F= -.19215601E+03 E0= -.19206984E+03  d E =-.176979E-02
       N       E                     dE             d eps       ncg     rms          rms(c)
DAV:   1    -0.192157779994E+03   -0.17558E-02   -0.14037E-01  8160   0.807E-01    0.111E-01
DAV:   2    -0.192158781048E+03   -0.10011E-02   -0.58621E-03 11600   0.424E-01    0.273E-01
DAV:   3    -0.192157979463E+03    0.80159E-03   -0.16386E-03 11320   0.332E-01    0.953E-02
DAV:   4    -0.192157987977E+03   -0.85139E-05   -0.40225E-04  8400   0.152E-01
  74 F= -.19215799E+03 E0= -.19207105E+03  d E =-.197636E-02
       N       E                     dE             d eps       ncg     rms          rms(c)
DAV:   1    -0.192159082337E+03   -0.11029E-02   -0.48405E-02  8160   0.483E-01    0.802E-02
DAV:   2    -0.192159516395E+03   -0.43406E-03   -0.20574E-03 12440   0.230E-01    0.210E-01
DAV:   3    -0.192159096411E+03    0.41998E-03   -0.10716E-03  9920   0.228E-01    0.711E-02
DAV:   4    -0.192159069122E+03    0.27289E-04   -0.13584E-04  5680   0.795E-02
  75 F= -.19215907E+03 E0= -.19207269E+03  d E =-.108115E-02
       N       E                     dE             d eps       ncg     rms          rms(c)
DAV:   1    -0.192159591063E+03   -0.49465E-03   -0.87578E-03  8160   0.224E-01    0.573E-02
DAV:   2    -0.192159971894E+03   -0.38083E-03   -0.99948E-04 11240   0.244E-01    0.180E-01
DAV:   3    -0.192159561433E+03    0.41046E-03   -0.56249E-04  8960   0.208E-01    0.399E-02
DAV:   4    -0.192159569957E+03   -0.85238E-05   -0.81112E-05  5840   0.673E-02
  76 F= -.19215957E+03 E0= -.19207280E+03  d E =-.500835E-03
       N       E                     dE             d eps       ncg     rms          rms(c)
DAV:   1    -0.192161403896E+03   -0.18425E-02   -0.95500E-02  8160   0.672E-01    0.985E-02
DAV:   2    -0.192161837784E+03   -0.43389E-03   -0.31269E-03 12440   0.262E-01    0.209E-01
DAV:   3    -0.192161447055E+03    0.39073E-03   -0.11741E-03 11080   0.268E-01    0.980E-02
DAV:   4    -0.192161375487E+03    0.71568E-04   -0.26898E-04  7520   0.109E-01
  77 F= -.19216138E+03 E0= -.19207446E+03  d E =-.180553E-02
       N       E                     dE             d eps       ncg     rms          rms(c)
DAV:   1    -0.192159151097E+03    0.22960E-02   -0.14321E-01  8160   0.826E-01    0.133E-01
DAV:   2    -0.192162178353E+03   -0.30273E-02   -0.85727E-03 12240   0.608E-01    0.525E-01
DAV:   3    -0.192159158409E+03    0.30199E-02   -0.45744E-03 11320   0.530E-01    0.591E-02
DAV:   4    -0.192159269199E+03   -0.11079E-03   -0.36014E-04  8400   0.128E-01    0.115E-01
DAV:   5    -0.192159133217E+03    0.13598E-03   -0.24447E-04  7560   0.126E-01    0.326E-02
DAV:   6    -0.192159138622E+03   -0.54045E-05   -0.60453E-05  6160   0.483E-02
  78 F= -.19215914E+03 E0= -.19207263E+03  d E =0.223687E-02
       N       E                     dE             d eps       ncg     rms          rms(c)
DAV:   1    -0.192159046337E+03    0.86880E-04   -0.28736E-02  8160   0.379E-01    0.917E-02
DAV:   2    -0.192159454611E+03   -0.40827E-03   -0.23755E-03 11680   0.330E-01    0.210E-01
DAV:   3    -0.192158898002E+03    0.55661E-03   -0.92069E-04  9960   0.260E-01    0.437E-02
DAV:   4    -0.192158882795E+03    0.15207E-04   -0.11297E-04  5440   0.661E-02
  79 F= -.19215888E+03 E0= -.19207268E+03  d E =0.255826E-03
       N       E                     dE             d eps       ncg     rms          rms(c)
DAV:   1    -0.192160844765E+03   -0.19468E-02   -0.11790E-01  8160   0.755E-01    0.940E-02
DAV:   2    -0.192161124270E+03   -0.27950E-03   -0.33146E-03 11360   0.227E-01    0.150E-01
DAV:   3    -0.192160960948E+03    0.16332E-03   -0.89722E-04 10400   0.229E-01    0.995E-02
DAV:   4    -0.192160894473E+03    0.66475E-04   -0.30402E-04  7840   0.130E-01
  80 F= -.19216089E+03 E0= -.19207422E+03  d E =-.201168E-02
       N       E                     dE             d eps       ncg     rms          rms(c)
DAV:   1    -0.192159327347E+03    0.16336E-02   -0.82311E-02  8160   0.630E-01    0.101E-01
DAV:   2    -0.192160346066E+03   -0.10187E-02   -0.42021E-03 11360   0.408E-01    0.303E-01
DAV:   3    -0.192159317296E+03    0.10288E-02   -0.17409E-03 10200   0.334E-01    0.756E-02
DAV:   4    -0.192159374406E+03   -0.57109E-04   -0.39813E-04  8160   0.146E-01
  81 F= -.19215937E+03 E0= -.19207235E+03  d E =0.152007E-02
       N       E                     dE             d eps       ncg     rms          rms(c)
DAV:   1    -0.192156792011E+03    0.25253E-02   -0.39826E-01  8160   0.138E+00    0.199E-01
DAV:   2    -0.192157426027E+03   -0.63402E-03   -0.11258E-02 10880   0.424E-01    0.280E-01
DAV:   3    -0.192157038951E+03    0.38708E-03   -0.33942E-03 11840   0.467E-01    0.229E-01
DAV:   4    -0.192156565958E+03    0.47299E-03   -0.13033E-03 10080   0.276E-01    0.116E-01
DAV:   5    -0.192156487734E+03    0.78223E-04   -0.82193E-04 10240   0.213E-01
  82 F= -.19215649E+03 E0= -.19207109E+03  d E =0.288667E-02
       N       E                     dE             d eps       ncg     rms          rms(c)
DAV:   1    -0.192157591080E+03   -0.10251E-02   -0.71100E-02  8160   0.629E-01    0.103E-01
DAV:   2    -0.192157697970E+03   -0.10689E-03   -0.32860E-03 11760   0.209E-01    0.117E-01
DAV:   3    -0.192157547219E+03    0.15075E-03   -0.78640E-04 10280   0.198E-01    0.860E-02
DAV:   4    -0.192157500170E+03    0.47049E-04   -0.37269E-04  9000   0.155E-01
  83 F= -.19215750E+03 E0= -.19207093E+03  d E =-.101244E-02
       N       E                     dE             d eps       ncg     rms          rms(c)
DAV:   1    -0.192158403282E+03   -0.85606E-03   -0.86257E-02  8160   0.645E-01    0.113E-01
DAV:   2    -0.192160164800E+03   -0.17615E-02   -0.47250E-03 11840   0.481E-01    0.399E-01
DAV:   3    -0.192158385578E+03    0.17792E-02   -0.22848E-03 10120   0.414E-01    0.632E-02
DAV:   4    -0.192158456543E+03   -0.70965E-04   -0.29941E-04  8120   0.126E-01
  84 F= -.19215846E+03 E0= -.19207162E+03  d E =-.956373E-03
       N       E                     dE             d eps       ncg     rms          rms(c)
DAV:   1    -0.192158368489E+03    0.17089E-04   -0.81326E-03 10760   0.252E-01    0.569E-02
DAV:   2    -0.192158572527E+03   -0.20404E-03   -0.76847E-04 10400   0.183E-01    0.161E-01
DAV:   3    -0.192158310034E+03    0.26249E-03   -0.55039E-04  8600   0.175E-01    0.451E-02
DAV:   4    -0.192158319291E+03   -0.92577E-05   -0.97140E-05  5880   0.727E-02
  85 F= -.19215832E+03 E0= -.19207200E+03  d E =0.137252E-03
       N       E                     dE             d eps       ncg     rms          rms(c)
DAV:   1    -0.192160841991E+03   -0.25320E-02   -0.24063E-01  8160   0.106E+00    0.147E-01
DAV:   2    -0.192161945042E+03   -0.11031E-02   -0.73367E-03 12280   0.411E-01    0.322E-01
DAV:   3    -0.192161000283E+03    0.94476E-03   -0.25210E-03 12600   0.403E-01    0.134E-01
DAV:   4    -0.192160880302E+03    0.11998E-03   -0.51296E-04  8680   0.152E-01    0.101E-01
DAV:   5    -0.192160870020E+03    0.10282E-04   -0.54501E-04  8960   0.181E-01
  86 F= -.19216087E+03 E0= -.19207474E+03  d E =-.255073E-02
       N       E                     dE             d eps       ncg     rms          rms(c)
DAV:   1    -0.192162105176E+03   -0.12249E-02   -0.48946E-02  8160   0.494E-01    0.734E-02
DAV:   2    -0.192162348967E+03   -0.24379E-03   -0.17554E-03 11360   0.190E-01    0.139E-01
DAV:   3    -0.192162153519E+03    0.19545E-03   -0.53124E-04 10320   0.192E-01    0.674E-02
DAV:   4    -0.192162154026E+03   -0.50760E-06   -0.13689E-04  6400   0.101E-01
  87 F= -.19216215E+03 E0= -.19207532E+03  d E =-.128401E-02
       N       E                     dE             d eps       ncg     rms          rms(c)
DAV:   1    -0.192160633795E+03    0.15197E-02   -0.11655E-01  8160   0.746E-01    0.116E-01
DAV:   2    -0.192161240289E+03   -0.60649E-03   -0.48378E-03 11640   0.367E-01    0.241E-01
DAV:   3    -0.192160607947E+03    0.63234E-03   -0.17508E-03 10440   0.311E-01    0.894E-02
DAV:   4    -0.192160676267E+03   -0.68320E-04   -0.60071E-04  8680   0.171E-01
  88 F= -.19216068E+03 E0= -.19207342E+03  d E =0.147776E-02
       N       E                     dE             d eps       ncg     rms          rms(c)
DAV:   1    -0.192157220793E+03    0.33872E-02   -0.78068E-01  8160   0.192E+00    0.240E-01
DAV:   2    -0.192158150651E+03   -0.92986E-03   -0.19528E-02 11120   0.461E-01    0.234E-01
DAV:   3    -0.192158431012E+03   -0.28036E-03   -0.43764E-03 11640   0.494E-01    0.297E-01
DAV:   4    -0.192157613236E+03    0.81778E-03   -0.20434E-03 10960   0.368E-01    0.155E-01
DAV:   5    -0.192157525706E+03    0.87530E-04   -0.11713E-03  9920   0.276E-01    0.152E-01
DAV:   6    -0.192157341017E+03    0.18469E-03   -0.66523E-04  9840   0.205E-01    0.699E-02
DAV:   7    -0.192157255489E+03    0.85529E-04   -0.11464E-04  6440   0.675E-02
  89 F= -.19215726E+03 E0= -.19207075E+03  d E =0.342078E-02
       N       E                     dE             d eps       ncg     rms          rms(c)
DAV:   1    -0.192158121435E+03   -0.78042E-03   -0.66926E-02  8160   0.556E-01    0.710E-02
DAV:   2    -0.192158436044E+03   -0.31461E-03   -0.26629E-03 11880   0.237E-01    0.137E-01
DAV:   3    -0.192158248517E+03    0.18753E-03   -0.52954E-04  9720   0.189E-01    0.681E-02
DAV:   4    -0.192158243661E+03    0.48556E-05   -0.17629E-04  6680   0.103E-01
  90 F= -.19215824E+03 E0= -.19207114E+03  d E =-.988172E-03
       N       E                     dE             d eps       ncg     rms          rms(c)
DAV:   1    -0.192158689162E+03   -0.44064E-03   -0.19195E-02  8160   0.308E-01    0.654E-02
DAV:   2    -0.192159260113E+03   -0.57095E-03   -0.17433E-03 11320   0.259E-01    0.246E-01
DAV:   3    -0.192158654448E+03    0.60567E-03   -0.11002E-03  9040   0.230E-01    0.375E-02
DAV:   4    -0.192158663818E+03   -0.93702E-05   -0.68958E-05  5640   0.639E-02
  91 F= -.19215866E+03 E0= -.19207186E+03  d E =-.420157E-03
       N       E                     dE             d eps       ncg     rms          rms(c)
DAV:   1    -0.192159287328E+03   -0.63288E-03   -0.27461E-02  8160   0.364E-01    0.620E-02
DAV:   2    -0.192159694641E+03   -0.40731E-03   -0.14228E-03 11520   0.232E-01    0.189E-01
DAV:   3    -0.192159285798E+03    0.40884E-03   -0.62617E-04  9600   0.210E-01    0.450E-02
DAV:   4    -0.192159296869E+03   -0.11071E-04   -0.93193E-05  5760   0.772E-02
  92 F= -.19215930E+03 E0= -.19207210E+03  d E =-.633050E-03
       N       E                     dE             d eps       ncg     rms          rms(c)
DAV:   1    -0.192159798814E+03   -0.51302E-03   -0.16622E-02  8160   0.283E-01    0.527E-02
DAV:   2    -0.192160088423E+03   -0.28961E-03   -0.98757E-04 11080   0.184E-01    0.174E-01
DAV:   3    -0.192159785208E+03    0.30321E-03   -0.62047E-04  8440   0.175E-01    0.391E-02
DAV:   4    -0.192159778232E+03    0.69765E-05   -0.52183E-05  5520   0.432E-02
  93 F= -.19215978E+03 E0= -.19207278E+03  d E =-.481363E-03
       N       E                     dE             d eps       ncg     rms          rms(c)
DAV:   1    -0.192160713270E+03   -0.92806E-03   -0.50586E-02  8160   0.489E-01    0.757E-02
DAV:   2    -0.192161242533E+03   -0.52926E-03   -0.20722E-03 12040   0.268E-01    0.214E-01
DAV:   3    -0.192160723042E+03    0.51949E-03   -0.84831E-04 10320   0.244E-01    0.562E-02
DAV:   4    -0.192160748010E+03   -0.24968E-04   -0.15557E-04  6720   0.996E-02
  94 F= -.19216075E+03 E0= -.19207312E+03  d E =-.969778E-03
       N       E                     dE             d eps       ncg     rms          rms(c)
DAV:   1    -0.192160587787E+03    0.13525E-03   -0.16361E-03 12120   0.138E-01    0.329E-02
DAV:   2    -0.192160781966E+03   -0.19418E-03   -0.48527E-04  9360   0.149E-01    0.139E-01
DAV:   3    -0.192160574807E+03    0.20716E-03   -0.34760E-04  7760   0.134E-01    0.197E-02
DAV:   4    -0.192160579467E+03   -0.46598E-05   -0.19458E-05  5680   0.304E-02
  95 F= -.19216058E+03 E0= -.19207347E+03  d E =0.168543E-03
       N       E                     dE             d eps       ncg     rms          rms(c)
DAV:   1    -0.192161674471E+03   -0.10997E-02   -0.67061E-02  8160   0.559E-01    0.746E-02
DAV:   2    -0.192161983561E+03   -0.30909E-03   -0.21919E-03 11160   0.219E-01    0.155E-01
DAV:   3    -0.192161737606E+03    0.24596E-03   -0.64157E-04 10800   0.206E-01    0.701E-02
DAV:   4    -0.192161735578E+03    0.20279E-05   -0.16579E-04  6760   0.104E-01
  96 F= -.19216174E+03 E0= -.19207407E+03  d E =-.115611E-02
       N       E                     dE             d eps       ncg     rms          rms(c)
DAV:   1    -0.192161654618E+03    0.82988E-04   -0.22589E-04  8200   0.977E-02    0.368E-02
DAV:   2    -0.192161929782E+03   -0.27516E-03   -0.60825E-04  9680   0.179E-01    0.162E-01
DAV:   3    -0.192161642905E+03    0.28688E-03   -0.46108E-04  8160   0.154E-01    0.257E-02
DAV:   4    -0.192161643517E+03   -0.61162E-06   -0.22842E-05  5560   0.359E-02
  97 F= -.19216164E+03 E0= -.19207440E+03  d E =0.920611E-04
       N       E                     dE             d eps       ncg     rms          rms(c)
DAV:   1    -0.192162799099E+03   -0.11562E-02   -0.68593E-02  8160   0.566E-01    0.749E-02
DAV:   2    -0.192163147802E+03   -0.34870E-03   -0.22775E-03 11920   0.219E-01    0.170E-01
DAV:   3    -0.192162871836E+03    0.27597E-03   -0.68812E-04  9840   0.212E-01    0.688E-02
DAV:   4    -0.192162848033E+03    0.23803E-04   -0.12832E-04  5960   0.805E-02
  98 F= -.19216285E+03 E0= -.19207521E+03  d E =-.120452E-02
       N       E                     dE             d eps       ncg     rms          rms(c)
DAV:   1    -0.192162192196E+03    0.67964E-03   -0.22091E-02  8160   0.330E-01    0.673E-02
DAV:   2    -0.192163090909E+03   -0.89871E-03   -0.23497E-03 12280   0.339E-01    0.288E-01
DAV:   3    -0.192162165989E+03    0.92492E-03   -0.13504E-03 10040   0.286E-01    0.260E-02
DAV:   4    -0.192162196919E+03   -0.30929E-04   -0.62676E-05  5960   0.637E-02
  99 F= -.19216220E+03 E0= -.19207466E+03  d E =0.651114E-03
       N       E                     dE             d eps       ncg     rms          rms(c)
DAV:   1    -0.192161152634E+03    0.10134E-02   -0.67322E-02  8160   0.563E-01    0.741E-02
DAV:   2    -0.192161509758E+03   -0.35712E-03   -0.22201E-03 12000   0.240E-01    0.170E-01
DAV:   3    -0.192161207156E+03    0.30260E-03   -0.69498E-04 10040   0.211E-01    0.603E-02
DAV:   4    -0.192161204453E+03    0.27031E-05   -0.11618E-04  6400   0.926E-02
 100 F= -.19216120E+03 E0= -.19207421E+03  d E =0.992465E-03
