   27   27  100    1
  0.9710400E+02  0.1002848E-08  0.1002848E-08  0.3000000E-08  0.5000000E-15
  1.000000000000000E-004
  CAR 
 unknown system                          
    159     34    120
 
  0.0000000E+00  0.0000000E+00  0.0000000E+00  0.1562500E-01
    1      -17.797062   1.000000
    2      -16.748845   1.000000
    3      -16.654611   1.000000
    4      -16.571208   1.000000
    5      -16.512647   1.000000
    6      -16.461704   1.000000
    7      -16.393617   1.000000
    8      -16.313425   1.000000
    9      -16.217299   1.000000
   10      -16.160750   1.000000
   11      -16.063501   1.000000
   12      -16.018080   1.000000
   13      -15.866182   1.000000
   14      -15.604381   1.000000
   15      -15.564380   1.000000
   16      -15.461036   1.000000
   17      -15.370098   1.000000
   18      -15.239694   1.000000
   19       -9.306399   1.000000
   20       -9.085055   1.000000
   21       -8.961860   1.000000
   22       -8.902848   1.000000
   23       -8.812831   1.000000
   24       -8.742426   1.000000
   25       -8.624945   1.000000
   26       -8.601331   1.000000
   27       -8.508840   1.000000
   28       -8.401912   1.000000
   29       -8.340458   1.000000
   30       -8.290015   1.000000
   31       -8.233268   1.000000
   32       -8.109775   1.000000
   33       -8.013652   1.000000
   34       -7.951961   1.000000
   35       -7.909132   1.000000
   36       -7.797261   1.000000
   37       -7.679331   1.000000
   38       -7.515386   1.000000
   39       -7.484426   1.000000
   40       -7.446679   1.000000
   41       -7.277593   1.000000
   42       -7.165782   1.000000
   43       -7.132909   1.000000
   44       -6.998021   1.000000
   45       -6.846470   1.000000
   46       -6.814268   1.000000
   47       -6.640840   1.000000
   48       -6.612337   1.000000
   49       -6.569303   1.000000
   50       -6.535327   1.000000
   51       -6.498110   1.000000
   52       -6.415968   1.000000
   53       -6.313002   1.000000
   54       -6.257742   1.000000
   55       -6.206005   1.000000
   56       -6.184846   1.000000
   57       -6.077244   1.000000
   58       -5.919843   1.000000
   59       -5.717499   1.000000
   60       -5.567870   1.000000
   61       -5.524046   1.000000
   62       -5.428383   1.000000
   63       -5.231095   1.000000
   64       -5.123401   1.000000
   65       -5.035210   1.000000
   66       -4.971340   1.000000
   67       -4.887971   1.000000
   68       -4.856310   1.000000
   69       -4.813241   1.000000
   70       -4.748712   1.000000
   71       -4.641437   1.000000
   72       -4.607832   1.000000
   73       -4.487928   1.000000
   74       -4.338510   1.000000
   75       -4.294123   1.000000
   76       -4.118776   1.000000
   77       -3.832667   0.999693
   78       -3.585345   0.953157
   79       -3.520596   0.888467
   80       -3.362986   0.541394
   81       -3.303248   0.375066
   82       -2.870398   0.000364
   83       -2.740246   0.000009
   84       -2.613530   0.000000
   85       -2.524545   0.000000
   86       -2.476175   0.000000
   87       -2.366398   0.000000
   88       -2.241330   0.000000
   89       -2.225792   0.000000
   90       -2.072829   0.000000
   91       -2.047997   0.000000
   92       -1.395741   0.000000
   93       -1.319528   0.000000
   94       -1.262662   0.000000
   95       -1.113179   0.000000
   96       -1.053625   0.000000
   97       -1.002478   0.000000
   98       -0.850231   0.000000
   99       -0.710547   0.000000
  100       -0.693426   0.000000
  101       -0.624765   0.000000
  102       -0.531748   0.000000
  103       -0.493604   0.000000
  104       -0.337520   0.000000
  105       -0.215894   0.000000
  106       -0.126026   0.000000
  107       -0.071028   0.000000
  108        0.000957   0.000000
  109        0.077879   0.000000
  110        0.281355   0.000000
  111        0.316416   0.000000
  112        0.600519   0.000000
  113        0.753345   0.000000
  114        0.787949   0.000000
  115        0.834452   0.000000
  116        1.038470   0.000000
  117        1.119201   0.000000
  118        1.640447   0.000000
  119        1.838603   0.000000
  120        2.148740   0.000000
 
  0.1250000E+00  0.2775558E-16  0.0000000E+00  0.3125000E-01
    1      -17.771705   1.000000
    2      -16.789877   1.000000
    3      -16.740758   1.000000
    4      -16.587905   1.000000
    5      -16.529021   1.000000
    6      -16.424676   1.000000
    7      -16.359435   1.000000
    8      -16.326173   1.000000
    9      -16.237489   1.000000
   10      -16.112610   1.000000
   11      -16.025331   1.000000
   12      -15.976619   1.000000
   13      -15.857228   1.000000
   14      -15.614855   1.000000
   15      -15.578152   1.000000
   16      -15.452203   1.000000
   17      -15.371671   1.000000
   18      -15.251506   1.000000
   19       -9.297478   1.000000
   20       -9.216564   1.000000
   21       -9.062020   1.000000
   22       -9.029696   1.000000
   23       -8.776908   1.000000
   24       -8.697212   1.000000
   25       -8.662924   1.000000
   26       -8.561377   1.000000
   27       -8.452955   1.000000
   28       -8.427685   1.000000
   29       -8.393246   1.000000
   30       -8.221884   1.000000
   31       -8.147575   1.000000
   32       -8.062836   1.000000
   33       -8.005685   1.000000
   34       -7.893413   1.000000
   35       -7.821307   1.000000
   36       -7.706079   1.000000
   37       -7.657582   1.000000
   38       -7.567127   1.000000
   39       -7.475982   1.000000
   40       -7.366771   1.000000
   41       -7.331914   1.000000
   42       -7.192198   1.000000
   43       -7.136524   1.000000
   44       -7.021626   1.000000
   45       -6.876120   1.000000
   46       -6.824148   1.000000
   47       -6.743255   1.000000
   48       -6.635271   1.000000
   49       -6.573200   1.000000
   50       -6.470445   1.000000
   51       -6.434719   1.000000
   52       -6.381005   1.000000
   53       -6.346591   1.000000
   54       -6.283237   1.000000
   55       -6.197893   1.000000
   56       -6.148493   1.000000
   57       -6.011104   1.000000
   58       -5.935695   1.000000
   59       -5.705171   1.000000
   60       -5.564076   1.000000
   61       -5.506925   1.000000
   62       -5.472035   1.000000
   63       -5.340648   1.000000
   64       -5.175182   1.000000
   65       -5.121005   1.000000
   66       -5.007089   1.000000
   67       -4.937158   1.000000
   68       -4.874819   1.000000
   69       -4.803922   1.000000
   70       -4.702289   1.000000
   71       -4.614404   1.000000
   72       -4.555769   1.000000
   73       -4.417099   1.000000
   74       -4.315953   1.000000
   75       -4.224703   1.000000
   76       -4.062414   1.000000
   77       -3.885840   0.999928
   78       -3.727560   0.996339
   79       -3.532079   0.903133
   80       -3.443166   0.748858
   81       -3.152064   0.082645
   82       -2.854475   0.000240
   83       -2.728954   0.000006
   84       -2.635787   0.000000
   85       -2.504389   0.000000
   86       -2.466957   0.000000
   87       -2.350650   0.000000
   88       -2.230784   0.000000
   89       -2.199116   0.000000
   90       -2.098352   0.000000
   91       -2.010935   0.000000
   92       -1.403775   0.000000
   93       -1.339467   0.000000
   94       -1.216962   0.000000
   95       -1.115613   0.000000
   96       -1.059307   0.000000
   97       -0.986723   0.000000
   98       -0.883113   0.000000
   99       -0.803257   0.000000
  100       -0.708818   0.000000
  101       -0.689908   0.000000
  102       -0.575479   0.000000
  103       -0.498028   0.000000
  104       -0.341119   0.000000
  105       -0.296310   0.000000
  106       -0.145944   0.000000
  107       -0.116428   0.000000
  108       -0.051702   0.000000
  109        0.118087   0.000000
  110        0.273824   0.000000
  111        0.354031   0.000000
  112        0.611733   0.000000
  113        0.734672   0.000000
  114        0.784156   0.000000
  115        0.913941   0.000000
  116        1.051391   0.000000
  117        1.134298   0.000000
  118        1.685764   0.000000
  119        1.876704   0.000000
  120        2.184224   0.000000
 
  0.2500000E+00  0.5551115E-16  0.0000000E+00  0.3125000E-01
    1      -17.696631   1.000000
    2      -16.994769   1.000000
    3      -16.736929   1.000000
    4      -16.634578   1.000000
    5      -16.604785   1.000000
    6      -16.404217   1.000000
    7      -16.308111   1.000000
    8      -16.275541   1.000000
    9      -16.221976   1.000000
   10      -16.099263   1.000000
   11      -15.971700   1.000000
   12      -15.893397   1.000000
   13      -15.792427   1.000000
   14      -15.644494   1.000000
   15      -15.602511   1.000000
   16      -15.455039   1.000000
   17      -15.367364   1.000000
   18      -15.275883   1.000000
   19       -9.513997   1.000000
   20       -9.328032   1.000000
   21       -9.154239   1.000000
   22       -9.041263   1.000000
   23       -8.864277   1.000000
   24       -8.717333   1.000000
   25       -8.649770   1.000000
   26       -8.537163   1.000000
   27       -8.443547   1.000000
   28       -8.374282   1.000000
   29       -8.299413   1.000000
   30       -8.239632   1.000000
   31       -8.112510   1.000000
   32       -7.993751   1.000000
   33       -7.889060   1.000000
   34       -7.859744   1.000000
   35       -7.726802   1.000000
   36       -7.633739   1.000000
   37       -7.597479   1.000000
   38       -7.501164   1.000000
   39       -7.453564   1.000000
   40       -7.394117   1.000000
   41       -7.290881   1.000000
   42       -7.115311   1.000000
   43       -7.094940   1.000000
   44       -7.008606   1.000000
   45       -6.903663   1.000000
   46       -6.863614   1.000000
   47       -6.818847   1.000000
   48       -6.661928   1.000000
   49       -6.584920   1.000000
   50       -6.491181   1.000000
   51       -6.415620   1.000000
   52       -6.396028   1.000000
   53       -6.288116   1.000000
   54       -6.209667   1.000000
   55       -6.150743   1.000000
   56       -6.088222   1.000000
   57       -5.961041   1.000000
   58       -5.905446   1.000000
   59       -5.756493   1.000000
   60       -5.713469   1.000000
   61       -5.633982   1.000000
   62       -5.560957   1.000000
   63       -5.414831   1.000000
   64       -5.319026   1.000000
   65       -5.142045   1.000000
   66       -5.073943   1.000000
   67       -4.993473   1.000000
   68       -4.878128   1.000000
   69       -4.828402   1.000000
   70       -4.602514   1.000000
   71       -4.531365   1.000000
   72       -4.446970   1.000000
   73       -4.324662   1.000000
   74       -4.268625   1.000000
   75       -4.152616   1.000000
   76       -4.059153   1.000000
   77       -4.037972   0.999999
   78       -3.860981   0.999856
   79       -3.569678   0.941264
   80       -3.408032   0.663659
   81       -3.031425   0.012528
   82       -2.823992   0.000105
   83       -2.706098   0.000003
   84       -2.638226   0.000000
   85       -2.509060   0.000000
   86       -2.428697   0.000000
   87       -2.327813   0.000000
   88       -2.253706   0.000000
   89       -2.146783   0.000000
   90       -2.096271   0.000000
   91       -1.902079   0.000000
   92       -1.428361   0.000000
   93       -1.344702   0.000000
   94       -1.167298   0.000000
   95       -1.148236   0.000000
   96       -1.097414   0.000000
   97       -1.005574   0.000000
   98       -0.939711   0.000000
   99       -0.903565   0.000000
  100       -0.818420   0.000000
  101       -0.740155   0.000000
  102       -0.677601   0.000000
  103       -0.566376   0.000000
  104       -0.453549   0.000000
  105       -0.372506   0.000000
  106       -0.187564   0.000000
  107       -0.158088   0.000000
  108       -0.079133   0.000000
  109        0.066098   0.000000
  110        0.271015   0.000000
  111        0.361276   0.000000
  112        0.576321   0.000000
  113        0.743746   0.000000
  114        0.820565   0.000000
  115        0.982731   0.000000
  116        1.134866   0.000000
  117        1.239498   0.000000
  118        1.810349   0.000000
  119        1.986493   0.000000
  120        2.289238   0.000000
 
  0.3750000E+00  0.0000000E+00  0.0000000E+00  0.3125000E-01
    1      -17.575301   1.000000
    2      -17.209148   1.000000
    3      -16.733793   1.000000
    4      -16.671658   1.000000
    5      -16.648914   1.000000
    6      -16.429987   1.000000
    7      -16.269203   1.000000
    8      -16.236738   1.000000
    9      -16.165799   1.000000
   10      -16.095741   1.000000
   11      -15.929907   1.000000
   12      -15.841734   1.000000
   13      -15.723442   1.000000
   14      -15.675511   1.000000
   15      -15.604935   1.000000
   16      -15.488213   1.000000
   17      -15.370712   1.000000
   18      -15.280502   1.000000
   19       -9.728256   1.000000
   20       -9.423483   1.000000
   21       -9.182207   1.000000
   22       -9.002890   1.000000
   23       -8.900125   1.000000
   24       -8.749067   1.000000
   25       -8.634312   1.000000
   26       -8.489454   1.000000
   27       -8.444142   1.000000
   28       -8.366932   1.000000
   29       -8.277153   1.000000
   30       -8.172220   1.000000
   31       -8.102182   1.000000
   32       -7.989020   1.000000
   33       -7.894982   1.000000
   34       -7.860960   1.000000
   35       -7.745129   1.000000
   36       -7.709038   1.000000
   37       -7.529100   1.000000
   38       -7.486500   1.000000
   39       -7.336532   1.000000
   40       -7.286461   1.000000
   41       -7.196423   1.000000
   42       -7.109405   1.000000
   43       -7.028773   1.000000
   44       -6.969473   1.000000
   45       -6.863490   1.000000
   46       -6.851540   1.000000
   47       -6.671728   1.000000
   48       -6.621234   1.000000
   49       -6.538198   1.000000
   50       -6.487863   1.000000
   51       -6.451522   1.000000
   52       -6.393098   1.000000
   53       -6.252326   1.000000
   54       -6.205875   1.000000
   55       -6.113347   1.000000
   56       -6.072231   1.000000
   57       -6.000837   1.000000
   58       -5.946643   1.000000
   59       -5.879073   1.000000
   60       -5.823006   1.000000
   61       -5.763479   1.000000
   62       -5.674406   1.000000
   63       -5.558598   1.000000
   64       -5.279663   1.000000
   65       -5.139283   1.000000
   66       -5.119047   1.000000
   67       -5.021274   1.000000
   68       -4.893116   1.000000
   69       -4.745781   1.000000
   70       -4.694416   1.000000
   71       -4.497337   1.000000
   72       -4.384160   1.000000
   73       -4.308976   1.000000
   74       -4.264287   1.000000
   75       -4.200948   1.000000
   76       -4.118190   1.000000
   77       -3.964504   0.999993
   78       -3.781519   0.998906
   79       -3.618658   0.972050
   80       -3.390731   0.617961
   81       -2.925855   0.001408
   82       -2.799448   0.000052
   83       -2.703496   0.000003
   84       -2.595670   0.000000
   85       -2.534282   0.000000
   86       -2.414024   0.000000
   87       -2.332375   0.000000
   88       -2.270074   0.000000
   89       -2.130790   0.000000
   90       -2.033072   0.000000
   91       -1.756827   0.000000
   92       -1.448872   0.000000
   93       -1.358466   0.000000
   94       -1.252201   0.000000
   95       -1.198299   0.000000
   96       -1.139633   0.000000
   97       -1.095202   0.000000
   98       -0.968500   0.000000
   99       -0.888420   0.000000
  100       -0.870633   0.000000
  101       -0.806353   0.000000
  102       -0.739685   0.000000
  103       -0.648036   0.000000
  104       -0.514883   0.000000
  105       -0.461535   0.000000
  106       -0.236665   0.000000
  107       -0.216513   0.000000
  108       -0.089263   0.000000
  109        0.030231   0.000000
  110        0.229906   0.000000
  111        0.334259   0.000000
  112        0.545527   0.000000
  113        0.729163   0.000000
  114        0.863257   0.000000
  115        1.043049   0.000000
  116        1.234555   0.000000
  117        1.372111   0.000000
  118        1.995297   0.000000
  119        2.158796   0.000000
  120        2.460009   0.000000
 
  0.5000000E+00  0.1110223E-15  0.0000000E+00  0.1562500E-01
    1      -17.437973   1.000000
    2      -17.379498   1.000000
    3      -16.734593   1.000000
    4      -16.686251   1.000000
    5      -16.659311   1.000000
    6      -16.441167   1.000000
    7      -16.266018   1.000000
    8      -16.214374   1.000000
    9      -16.139316   1.000000
   10      -16.097607   1.000000
   11      -15.911566   1.000000
   12      -15.794071   1.000000
   13      -15.753801   1.000000
   14      -15.676076   1.000000
   15      -15.574857   1.000000
   16      -15.519104   1.000000
   17      -15.380629   1.000000
   18      -15.273078   1.000000
   19       -9.805339   1.000000
   20       -9.463844   1.000000
   21       -9.193063   1.000000
   22       -9.013806   1.000000
   23       -8.840126   1.000000
   24       -8.760829   1.000000
   25       -8.614874   1.000000
   26       -8.571641   1.000000
   27       -8.429478   1.000000
   28       -8.356213   1.000000
   29       -8.212448   1.000000
   30       -8.127116   1.000000
   31       -8.079197   1.000000
   32       -8.037262   1.000000
   33       -7.916981   1.000000
   34       -7.877184   1.000000
   35       -7.823354   1.000000
   36       -7.713198   1.000000
   37       -7.520407   1.000000
   38       -7.452123   1.000000
   39       -7.347711   1.000000
   40       -7.298572   1.000000
   41       -7.086885   1.000000
   42       -7.014378   1.000000
   43       -6.981904   1.000000
   44       -6.939894   1.000000
   45       -6.882001   1.000000
   46       -6.733240   1.000000
   47       -6.633328   1.000000
   48       -6.607909   1.000000
   49       -6.569562   1.000000
   50       -6.472627   1.000000
   51       -6.444710   1.000000
   52       -6.385581   1.000000
   53       -6.304723   1.000000
   54       -6.213472   1.000000
   55       -6.137484   1.000000
   56       -6.071559   1.000000
   57       -5.998724   1.000000
   58       -5.989902   1.000000
   59       -5.929122   1.000000
   60       -5.836378   1.000000
   61       -5.788539   1.000000
   62       -5.704099   1.000000
   63       -5.496288   1.000000
   64       -5.357611   1.000000
   65       -5.241339   1.000000
   66       -5.108938   1.000000
   67       -5.052640   1.000000
   68       -4.909062   1.000000
   69       -4.765445   1.000000
   70       -4.630474   1.000000
   71       -4.485409   1.000000
   72       -4.426333   1.000000
   73       -4.330505   1.000000
   74       -4.248339   1.000000
   75       -4.201138   1.000000
   76       -4.102804   1.000000
   77       -3.880422   0.999916
   78       -3.760226   0.998209
   79       -3.651440   0.983969
   80       -3.391733   0.620660
   81       -2.858713   0.000268
   82       -2.802575   0.000057
   83       -2.701702   0.000002
   84       -2.587003   0.000000
   85       -2.535453   0.000000
   86       -2.433647   0.000000
   87       -2.334048   0.000000
   88       -2.263785   0.000000
   89       -2.114684   0.000000
   90       -2.011740   0.000000
   91       -1.679772   0.000000
   92       -1.456190   0.000000
   93       -1.378141   0.000000
   94       -1.304404   0.000000
   95       -1.242855   0.000000
   96       -1.162335   0.000000
   97       -1.131050   0.000000
   98       -0.941888   0.000000
   99       -0.912385   0.000000
  100       -0.859922   0.000000
  101       -0.853837   0.000000
  102       -0.757912   0.000000
  103       -0.659280   0.000000
  104       -0.529680   0.000000
  105       -0.510829   0.000000
  106       -0.263754   0.000000
  107       -0.236218   0.000000
  108       -0.105627   0.000000
  109        0.023783   0.000000
  110        0.209039   0.000000
  111        0.323525   0.000000
  112        0.535187   0.000000
  113        0.717326   0.000000
  114        0.885337   0.000000
  115        1.068045   0.000000
  116        1.271255   0.000000
  117        1.427902   0.000000
  118        2.205686   0.000000
  119        2.259602   0.000000
  120        2.380040   0.000000
 
  0.0000000E+00  0.1250000E+00  0.0000000E+00  0.3125000E-01
    1      -17.773276   1.000000
    2      -16.789976   1.000000
    3      -16.705507   1.000000
    4      -16.646632   1.000000
    5      -16.522641   1.000000
    6      -16.416380   1.000000
    7      -16.365184   1.000000
    8      -16.286485   1.000000
    9      -16.206761   1.000000
   10      -16.162280   1.000000
   11      -16.054859   1.000000
   12      -15.948209   1.000000
   13      -15.852182   1.000000
   14      -15.622176   1.000000
   15      -15.578053   1.000000
   16      -15.461097   1.000000
   17      -15.373764   1.000000
   18      -15.243274   1.000000
   19       -9.326525   1.000000
   20       -9.151353   1.000000
   21       -9.021282   1.000000
   22       -8.961474   1.000000
   23       -8.877029   1.000000
   24       -8.765583   1.000000
   25       -8.674709   1.000000
   26       -8.595812   1.000000
   27       -8.496448   1.000000
   28       -8.392376   1.000000
   29       -8.368661   1.000000
   30       -8.215239   1.000000
   31       -8.107989   1.000000
   32       -8.023574   1.000000
   33       -7.953341   1.000000
   34       -7.906929   1.000000
   35       -7.836560   1.000000
   36       -7.733910   1.000000
   37       -7.639269   1.000000
   38       -7.558567   1.000000
   39       -7.512810   1.000000
   40       -7.490849   1.000000
   41       -7.244139   1.000000
   42       -7.172923   1.000000
   43       -7.104911   1.000000
   44       -7.058829   1.000000
   45       -6.915058   1.000000
   46       -6.792662   1.000000
   47       -6.642421   1.000000
   48       -6.607867   1.000000
   49       -6.585086   1.000000
   50       -6.528993   1.000000
   51       -6.475510   1.000000
   52       -6.410259   1.000000
   53       -6.374676   1.000000
   54       -6.228979   1.000000
   55       -6.195412   1.000000
   56       -6.183023   1.000000
   57       -5.991272   1.000000
   58       -5.908238   1.000000
   59       -5.720960   1.000000
   60       -5.558396   1.000000
   61       -5.529465   1.000000
   62       -5.485467   1.000000
   63       -5.312682   1.000000
   64       -5.275886   1.000000
   65       -5.097201   1.000000
   66       -4.979603   1.000000
   67       -4.916046   1.000000
   68       -4.841129   1.000000
   69       -4.722447   1.000000
   70       -4.681385   1.000000
   71       -4.619278   1.000000
   72       -4.599810   1.000000
   73       -4.445156   1.000000
   74       -4.281341   1.000000
   75       -4.245350   1.000000
   76       -4.137774   1.000000
   77       -3.918373   0.999972
   78       -3.715697   0.995311
   79       -3.511901   0.876349
   80       -3.334538   0.461277
   81       -3.260754   0.267975
   82       -2.828443   0.000119
   83       -2.717162   0.000004
   84       -2.599869   0.000000
   85       -2.517783   0.000000
   86       -2.456945   0.000000
   87       -2.339701   0.000000
   88       -2.217515   0.000000
   89       -2.208674   0.000000
   90       -2.094096   0.000000
   91       -2.030993   0.000000
   92       -1.405620   0.000000
   93       -1.344779   0.000000
   94       -1.248155   0.000000
   95       -1.120174   0.000000
   96       -1.068382   0.000000
   97       -0.986686   0.000000
   98       -0.868053   0.000000
   99       -0.803057   0.000000
  100       -0.734690   0.000000
  101       -0.650157   0.000000
  102       -0.584167   0.000000
  103       -0.523993   0.000000
  104       -0.405276   0.000000
  105       -0.270670   0.000000
  106       -0.128604   0.000000
  107       -0.092831   0.000000
  108        0.004916   0.000000
  109        0.080753   0.000000
  110        0.259929   0.000000
  111        0.324101   0.000000
  112        0.576657   0.000000
  113        0.755555   0.000000
  114        0.816691   0.000000
  115        0.917975   0.000000
  116        1.077927   0.000000
  117        1.123906   0.000000
  118        1.682348   0.000000
  119        1.878673   0.000000
  120        2.183378   0.000000
 
  0.1250000E+00  0.1250000E+00  0.0000000E+00  0.3125000E-01
    1      -17.724655   1.000000
    2      -16.894752   1.000000
    3      -16.803251   1.000000
    4      -16.670273   1.000000
    5      -16.459095   1.000000
    6      -16.435808   1.000000
    7      -16.324929   1.000000
    8      -16.294136   1.000000
    9      -16.226304   1.000000
   10      -16.107575   1.000000
   11      -16.013646   1.000000
   12      -15.863656   1.000000
   13      -15.832325   1.000000
   14      -15.646221   1.000000
   15      -15.608497   1.000000
   16      -15.457108   1.000000
   17      -15.368176   1.000000
   18      -15.259769   1.000000
   19       -9.384255   1.000000
   20       -9.326170   1.000000
   21       -9.150898   1.000000
   22       -9.076811   1.000000
   23       -8.823778   1.000000
   24       -8.707470   1.000000
   25       -8.646524   1.000000
   26       -8.580643   1.000000
   27       -8.423294   1.000000
   28       -8.376574   1.000000
   29       -8.334777   1.000000
   30       -8.241274   1.000000
   31       -8.084202   1.000000
   32       -8.024603   1.000000
   33       -7.941454   1.000000
   34       -7.830640   1.000000
   35       -7.718400   1.000000
   36       -7.685480   1.000000
   37       -7.599867   1.000000
   38       -7.529307   1.000000
   39       -7.478352   1.000000
   40       -7.366844   1.000000
   41       -7.303086   1.000000
   42       -7.176185   1.000000
   43       -7.095293   1.000000
   44       -7.035612   1.000000
   45       -6.935707   1.000000
   46       -6.834683   1.000000
   47       -6.775131   1.000000
   48       -6.619741   1.000000
   49       -6.557058   1.000000
   50       -6.505647   1.000000
   51       -6.463726   1.000000
   52       -6.366089   1.000000
   53       -6.332091   1.000000
   54       -6.280993   1.000000
   55       -6.178033   1.000000
   56       -6.105879   1.000000
   57       -5.953675   1.000000
   58       -5.891909   1.000000
   59       -5.730081   1.000000
   60       -5.675884   1.000000
   61       -5.558810   1.000000
   62       -5.519029   1.000000
   63       -5.423053   1.000000
   64       -5.272124   1.000000
   65       -5.212313   1.000000
   66       -5.105458   1.000000
   67       -4.890556   1.000000
   68       -4.856895   1.000000
   69       -4.742002   1.000000
   70       -4.614171   1.000000
   71       -4.583283   1.000000
   72       -4.495032   1.000000
   73       -4.380926   1.000000
   74       -4.255763   1.000000
   75       -4.179908   1.000000
   76       -4.127792   1.000000
   77       -3.957097   0.999992
   78       -3.882132   0.999920
   79       -3.496307   0.852373
   80       -3.398628   0.639068
   81       -3.147958   0.078309
   82       -2.789387   0.000039
   83       -2.670451   0.000001
   84       -2.629337   0.000000
   85       -2.482363   0.000000
   86       -2.445808   0.000000
   87       -2.306854   0.000000
   88       -2.220058   0.000000
   89       -2.159159   0.000000
   90       -2.111486   0.000000
   91       -1.958054   0.000000
   92       -1.432937   0.000000
   93       -1.370363   0.000000
   94       -1.206375   0.000000
   95       -1.156336   0.000000
   96       -1.094155   0.000000
   97       -0.975454   0.000000
   98       -0.926760   0.000000
   99       -0.917262   0.000000
  100       -0.804153   0.000000
  101       -0.730842   0.000000
  102       -0.659832   0.000000
  103       -0.535182   0.000000
  104       -0.450044   0.000000
  105       -0.351756   0.000000
  106       -0.153809   0.000000
  107       -0.128302   0.000000
  108       -0.040692   0.000000
  109        0.077968   0.000000
  110        0.260173   0.000000
  111        0.346846   0.000000
  112        0.601753   0.000000
  113        0.763524   0.000000
  114        0.865622   0.000000
  115        0.955545   0.000000
  116        1.107774   0.000000
  117        1.152849   0.000000
  118        1.766394   0.000000
  119        1.953552   0.000000
  120        2.253200   0.000000
 
  0.2500000E+00  0.1250000E+00  0.0000000E+00  0.3125000E-01
    1      -17.628288   1.000000
    2      -17.085497   1.000000
    3      -16.880754   1.000000
    4      -16.673110   1.000000
    5      -16.467406   1.000000
    6      -16.407793   1.000000
    7      -16.304045   1.000000
    8      -16.275183   1.000000
    9      -16.198612   1.000000
   10      -16.092141   1.000000
   11      -15.952344   1.000000
   12      -15.828623   1.000000
   13      -15.747943   1.000000
   14      -15.675421   1.000000
   15      -15.639097   1.000000
   16      -15.470359   1.000000
   17      -15.358167   1.000000
   18      -15.277133   1.000000
   19       -9.604391   1.000000
   20       -9.443391   1.000000
   21       -9.260418   1.000000
   22       -9.059163   1.000000
   23       -8.818414   1.000000
   24       -8.652407   1.000000
   25       -8.586149   1.000000
   26       -8.496991   1.000000
   27       -8.413365   1.000000
   28       -8.386041   1.000000
   29       -8.279599   1.000000
   30       -8.234463   1.000000
   31       -8.095366   1.000000
   32       -8.061502   1.000000
   33       -7.937830   1.000000
   34       -7.901822   1.000000
   35       -7.723272   1.000000
   36       -7.625382   1.000000
   37       -7.537103   1.000000
   38       -7.467157   1.000000
   39       -7.368852   1.000000
   40       -7.338658   1.000000
   41       -7.233308   1.000000
   42       -7.090033   1.000000
   43       -7.049020   1.000000
   44       -6.972686   1.000000
   45       -6.919095   1.000000
   46       -6.845290   1.000000
   47       -6.759144   1.000000