unknown system                          
           1
     8.855594    5.104931    0.000000
    -8.855594    5.104931    0.000000
     0.000000    0.000000   30.000000
   V    Mo   W    S 
   3   3   3  18
Direct configuration=     1
   0.66666669  0.33333334  0.00000000
   0.66666669  0.00000000  0.00000000
   0.00000000  0.00000000  0.00000000
   0.33333334  0.00000000  0.00000000
   0.66666669  0.66666669  0.00000000
   1.00000000  0.33333334  0.00000000
   0.00000000  0.66666669  0.00000000
   0.33333334  0.33333334  0.00000000
   0.33333334  0.66666669  0.00000000
   0.11068511  0.22244981  0.95539999
   0.22244981  0.11068511  0.04460000
   0.11068511  0.55578315  0.95539999
   0.22244981  0.44401845  0.04460000
   0.11068511  0.88911647  0.95539999
   0.22244981  0.77735180  0.04460000
   0.44401845  0.22244981  0.95539999
   0.55578315  0.11068511  0.04460000
   0.44401845  0.55578315  0.95539999
   0.55578315  0.44401845  0.04460000
   0.44401845  0.88911647  0.95539999
   0.55578315  0.77735180  0.04460000
   0.77735180  0.22244981  0.95539999
   0.88911647  0.11068511  0.04460000
   0.77735180  0.55578315  0.95539999
   0.88911647  0.44401845  0.04460000
   0.77735180  0.88911647  0.95539999
   0.88911647  0.77735180  0.04460000
unknown system                          
           1
     8.667295    4.998599    0.000000
    -8.667291    4.998593    0.000000
     0.000000    0.000000   30.000000
   V    Mo   W    S 
   3   3   3  18
Direct configuration=     2
   0.66671533  0.33290099  0.00016166
   0.66713747  0.00047076 -0.00000000
  -0.00043222  0.00004870 -0.00016168
   0.33347271 -0.00002484  0.00007044
   0.66664203  0.66680631 -0.00007045
   0.99982197  0.33315518 -0.00000000
  -0.00039832  0.66663277 -0.00020386
   0.33329913  0.33293478  0.00020385
   0.33366850  0.66700194 -0.00000001
   0.10960438  0.21794207  0.95192412
   0.21821117  0.10987840  0.04803642
   0.11150215  0.55639173  0.95070873
   0.22305838  0.44483549  0.04929128
   0.10801008  0.89023469  0.95196277
   0.22178067  0.77688398  0.04925953
   0.44840312  0.22473922  0.95194275
   0.55991076  0.11310116  0.04690557
   0.44355057  0.55511398  0.95074046
   0.55690124  0.44134341  0.04803730
   0.44829144  0.88998441  0.95193324
   0.55665095  0.78162480  0.04806680
   0.77328676  0.22013109  0.95312234
   0.88679773  0.10661990  0.04687762
   0.77654533  0.55154473  0.95196355
   0.88460892  0.44293784  0.04807585
   0.77976814  0.89324432  0.95309443
   0.89140607  0.78173664  0.04805721
unknown system                          
           1
     8.483753    4.898547    0.000000
    -8.483830    4.898680    0.000000
     0.000000    0.000000   30.000000
   V    Mo   W    S 
   3   3   3  18
Direct configuration=     3
   0.66669029  0.33285801  0.00017892
   0.66716660  0.00049914 -0.00000000
  -0.00047500  0.00002372 -0.00017897
   0.33327190 -0.00027893  0.00007346
   0.66638897  0.66660766 -0.00007350
   1.00028970  0.33362182 -0.00000002
  -0.00021028  0.66667016 -0.00022456
   0.33333493  0.33312225  0.00022453
   0.33349904  0.66683255  0.00000011
   0.10975769  0.21791090  0.95193301
   0.21818716  0.11003790  0.04802548
   0.11161282  0.55667416  0.95068295
   0.22334112  0.44494679  0.04931710
   0.10781744  0.89004135  0.95194339
   0.22164496  0.77660640  0.04925914
   0.44840786  0.22493343  0.95198437
   0.56001697  0.11317435  0.04688886
   0.44327335  0.55497788  0.95074082
   0.55670733  0.44115193  0.04805700
   0.44832746  0.88985894  0.95194716
   0.55652501  0.78166062  0.04805276
   0.77319962  0.22004323  0.95316080
   0.88671072  0.10653170  0.04683867
   0.77670534  0.55152242  0.95197417
   0.88457940  0.44309170  0.04806728
   0.77984270  0.89335135  0.95311177
   0.89160137  0.78174302  0.04801518
unknown system                          
           1
     8.262266    4.770640    0.000000
    -8.262190    4.770509    0.000000
     0.000000    0.000000   30.000000
   V    Mo   W    S 
   3   3   3  18
Direct configuration=     4
   0.66654606  0.33312838  0.00016803
   0.66682375  0.00017499 -0.00000002
  -0.00020738 -0.00011835 -0.00016845
   0.33205055 -0.00168800  0.00004837
   0.66495805  0.66534159 -0.00004864
   1.00292813  0.33628190  0.00000023
   0.00112755  0.66681590 -0.00019541
   0.33352117  0.33447536  0.00019539
   0.33219741  0.66553244  0.00000018
   0.10927702  0.21674951  0.95050670
   0.21688446  0.10941421  0.04944805
   0.11174937  0.55703580  0.94891425
   0.22370139  0.44508116  0.05108448
   0.10713432  0.89051653  0.95037548
   0.22142480  0.77624409  0.05089058
   0.44954342  0.22559516  0.95071582
   0.56117348  0.11378833  0.04815350
   0.44290837  0.55475836  0.94910848
   0.55718914  0.44045678  0.04962344
   0.44963985  0.89054202  0.95053970
   0.55720904  0.78297494  0.04945975
   0.77219742  0.21940792  0.95200894
   0.88606733  0.10553895  0.04799429
   0.77607507  0.55020159  0.95055442
   0.88340001  0.44260289  0.04949149
   0.78043856  0.89449911  0.95184377
   0.89225612  0.78286288  0.04928708
unknown system                          
           1
     8.248349    4.766709    0.000000
    -8.248359    4.766728    0.000000
     0.000000    0.000000   30.000000
   V    Mo   W    S 
   3   3   3  18
Direct configuration=     5
   0.66614636  0.33418758 -0.00003988
   0.66582301 -0.00083513  0.00000004
   0.00084814 -0.00051788  0.00003819
   0.32916326 -0.00495225 -0.00002706
   0.66170012  0.66247612  0.00002767
   1.00877020  0.34211686 -0.00000049
   0.00467415  0.66716718 -0.00003479
   0.33385536  0.33801101  0.00003460
   0.32868744  0.66202352  0.00000270
   0.10874153  0.21579601  0.94857539
   0.21554192  0.10873773  0.05127312
   0.11194540  0.55738748  0.94618770
   0.22405457  0.44527746  0.05380773
   0.10635301  0.89097548  0.94807618
   0.22132544  0.77611316  0.05321834
   0.45044741  0.22572245  0.94918311
   0.56193531  0.11407459  0.05001468
   0.44277587  0.55465812  0.94677826
   0.55764918  0.43968141  0.05193301
   0.45103037  0.89126153  0.94866919
   0.55793110  0.78436230  0.05132721
   0.77203148  0.21914826  0.95049097
   0.88581259  0.10536878  0.04950579
   0.77540018  0.54886601  0.94872245
   0.88245407  0.44207236  0.05143283
   0.78073081  0.89525976  0.94999176
   0.89238617  0.78377457  0.05081119
unknown system                          
           1
     8.244571    4.766602    0.000000
    -8.244582    4.766621    0.000000
     0.000000    0.000000   30.000000
   V    Mo   W    S 
   3   3   3  18
Direct configuration=     6
   0.66586209  0.33474374 -0.00008072
   0.66542846 -0.00123065 -0.00000011
   0.00140519 -0.00080170  0.00008170
   0.32807096 -0.00633985 -0.00003565
   0.66030976  0.66138169  0.00003496
   1.01054488  0.34389139  0.00000027
   0.00645967  0.66733092 -0.00005797
   0.33402420  0.33979773  0.00005770
   0.32728450  0.66062052 -0.00000171
   0.10893239  0.21636235  0.94847472
   0.21594092  0.10905164  0.05127886
   0.11211857  0.55762669  0.94567129
   0.22429064  0.44544670  0.05432702
   0.10617587  0.89063121  0.94782859
   0.22160197  0.77610015  0.05360364
   0.44978471  0.22526346  0.94923623
   0.56142463  0.11379036  0.05006610
   0.44276367  0.55493608  0.94639597
   0.55729960  0.43950486  0.05217734
   0.45055448  0.89075848  0.94858736
   0.55742599  0.78388584  0.05141184
   0.77299895  0.21972439  0.95055042
   0.88638982  0.10633454  0.04944689
   0.77571758  0.54927102  0.94871797
   0.88302505  0.44226559  0.05153035
   0.78045212  0.89475221  0.94993804
   0.89192779  0.78311507  0.05075879
unknown system                          
           1
     8.248332    4.772438    0.000000
    -8.248320    4.772417    0.000000
     0.000000    0.000000   30.000000
   V    Mo   W    S 
   3   3   3  18
Direct configuration=     7
   0.66547099  0.33527728 -0.00013991
   0.66515556 -0.00149960  0.00000002
   0.00193580 -0.00118839  0.00014023
   0.32673220 -0.00830989 -0.00004346
   0.65833343  0.66003135  0.00004396
   1.01255150  0.34590300  0.00000032
   0.00876927  0.66766626 -0.00002747
   0.33436978  0.34210847  0.00002808
   0.32585012  0.65918653  0.00000125
   0.10922416  0.21692287  0.94848592
   0.21636168  0.10945775  0.05116026
   0.11232567  0.55784369  0.94521517
   0.22451066  0.44565823  0.05478109
   0.10597785  0.89026277  0.94762985
   0.22181954  0.77595631  0.05391878
   0.44905892  0.22488728  0.94945258
   0.56094730  0.11359984  0.04998783
   0.44262090  0.55515183  0.94607865
   0.55693180  0.43930829  0.05237435
   0.45004695  0.89018679  0.94858330
   0.55685247  0.78337706  0.05141457
   0.77387949  0.22030190  0.95075775
   0.88696748  0.10721603  0.04924118
   0.77612255  0.54969041  0.94883849
   0.88358573  0.44255728  0.05151804
   0.78026193  0.89427496  0.95001498
   0.89155073  0.78238616  0.05054407
unknown system                          
           1
     8.245739    4.769406    0.000000
    -8.245743    4.769414    0.000000
     0.000000    0.000000   30.000000
   V    Mo   W    S 
   3   3   3  18
Direct configuration=     8
   0.66507723  0.33569667 -0.00020425
   0.66521672 -0.00145583 -0.00000049
   0.00236301 -0.00158764  0.00020603
   0.32535528 -0.01070731 -0.00007657
   0.65594798  0.65869426  0.00007464
   1.01417981  0.34751451 -0.00000089
   0.01116819  0.66812003 -0.00006739
   0.33478964  0.34449364  0.00006540
   0.32489898  0.65823277 -0.00000284
   0.10952122  0.21738457  0.94856823
   0.21681262  0.10987442  0.05091182
   0.11246946  0.55799818  0.94487811
   0.22466378  0.44579778  0.05512105
   0.10579758  0.88991319  0.94750667
   0.22209595  0.77573065  0.05423732
   0.44831642  0.22458103  0.94978211
   0.56059373  0.11348256  0.04982844
   0.44239386  0.55542813  0.94576358
   0.55658074  0.43912993  0.05249992
   0.44969438  0.88972994  0.94862154
   0.55639651  0.78302485  0.05137906
   0.77447251  0.22075465  0.95103715
   0.88742177  0.10780741  0.04896023
   0.77654269  0.55015024  0.94908538
   0.88404776  0.44285352  0.05143763
   0.78014945  0.89392334  0.95017610
   0.89124721  0.78164895  0.05021193
unknown system                          
           1
     8.241255    4.765343    0.000000
    -8.241570    4.765888    0.000000
     0.000000    0.000000   30.000000
   V    Mo   W    S 
   3   3   3  18
Direct configuration=     9
   0.66522825  0.33555785 -0.00018032
   0.66513632 -0.00152676 -0.00000033
   0.00221935 -0.00143334  0.00018127
   0.32587817 -0.00971404 -0.00006288
   0.65693420  0.65919508  0.00006185
   1.01365294  0.34699676 -0.00000049
   0.01024030  0.66791251 -0.00004597
   0.33460106  0.34357302  0.00004492
   0.32515219  0.65848750 -0.00000088
   0.10940246  0.21722202  0.94851715
   0.21662684  0.10971396  0.05103472
   0.11242370  0.55795337  0.94497623
   0.22461990  0.44575431  0.05502152
   0.10585783  0.89004335  0.94753505
   0.22198746  0.77583134  0.05412780
   0.44860994  0.22469407  0.94963124
   0.56071287  0.11351756  0.04990834
   0.44249524  0.55531949  0.94587151
   0.55671214  0.43918885  0.05247056
   0.44980549  0.88988516  0.94859558
   0.55655143  0.78313569  0.05140363
   0.77429388  0.22060287  0.95091678
   0.88726894  0.10763012  0.04908159
   0.77638002  0.54995950  0.94896341
   0.88388372  0.44273439  0.05148792
   0.78018136  0.89404100  0.95009544
   0.89135845  0.78193881  0.05036424
unknown system                          
           1
     8.235171    4.762729    0.000000
    -8.235502    4.763302    0.000000
     0.000000    0.000000   30.000000
   V    Mo   W    S 
   3   3   3  18
Direct configuration=    10
   0.66533711  0.33541068 -0.00015143
   0.66469900 -0.00189121 -0.00000159
   0.00202293 -0.00130263  0.00014486
   0.32660364 -0.00821242 -0.00004872
   0.65837505  0.65974198  0.00004633
   1.01336105  0.34677605  0.00000025
   0.00904009  0.66750772 -0.00003980
   0.33435734  0.34243254  0.00003825
   0.32522254  0.65857042  0.00000079
   0.10921225  0.21699036  0.94841029
   0.21634615  0.10954369  0.05125025
   0.11242109  0.55799582  0.94504926
   0.22466213  0.44575303  0.05494472
   0.10589605  0.89022595  0.94757521
   0.22192115  0.77600865  0.05398279
   0.44906277  0.22489289  0.94938602
   0.56083336  0.11357592  0.05002657
   0.44267298  0.55525394  0.94601470
   0.55691520  0.43920201  0.05242831
   0.44984415  0.88996063  0.94858962
   0.55663474  0.78317592  0.05140503
   0.77415939  0.22045044  0.95077103
   0.88709393  0.10751896  0.04923769
   0.77618594  0.54962941  0.94875616
   0.88361042  0.44252593  0.05158997
   0.78019194  0.89413501  0.94997355
   0.89153207  0.78234278  0.05061979
unknown system                          
           1
     8.236371    4.763914    0.000000
    -8.236697    4.764478    0.000000
     0.000000    0.000000   30.000000
   V    Mo   W    S 
   3   3   3  18
Direct configuration=    11
   0.66510428  0.33538909 -0.00020023
   0.66412608 -0.00240297  0.00000061
   0.00191343 -0.00150704  0.00019759
   0.32683183 -0.00731675 -0.00002901
   0.65922848  0.65983089  0.00003439
   1.01413801  0.34759116  0.00000169
   0.00860554  0.66711522 -0.00000095
   0.33408951  0.34204929  0.00000560
   0.32459881  0.65796763  0.00001190
   0.10923617  0.21711979  0.94840089
   0.21622389  0.10961835  0.05131911
   0.11251116  0.55818728  0.94490209
   0.22485748  0.44583552  0.05507163
   0.10582314  0.89021853  0.94758448
   0.22197177  0.77612763  0.05393268
   0.44914437  0.22504011  0.94929940
   0.56076208  0.11358859  0.05004789
   0.44278632  0.55530705  0.94605075
   0.55694756  0.43909205  0.05245409
   0.44957115  0.88976137  0.94861889
   0.55645435  0.78289236  0.05135505
   0.77441505  0.22050832  0.95086340
   0.88712599  0.10779953  0.04913792
   0.77624511  0.54946664  0.94866253
   0.88368589  0.44252279  0.05162118
   0.78014737  0.89402394  0.94996842
   0.89166962  0.78238809  0.05068792
unknown system                          
           1
     8.239302    4.769375    0.000000
    -8.239157    4.769127    0.000000
     0.000000    0.000000   30.000000
   V    Mo   W    S 
   3   3   3  18
Direct configuration=    12
   0.66490319  0.33536909 -0.00020821
   0.66381563 -0.00269070 -0.00000108
   0.00186007 -0.00169209  0.00020590
   0.32688250 -0.00700761 -0.00002864
   0.65952854  0.65983151  0.00002971
   1.01466213  0.34812287  0.00000026
   0.00854241  0.66695671 -0.00000786
   0.33397969  0.34200412  0.00000935
   0.32425701  0.65764217  0.00000677
   0.10924801  0.21718910  0.94840072
   0.21618226  0.10967153  0.05134523
   0.11255310  0.55828862  0.94482065
   0.22495954  0.44586916  0.05515235
   0.10577892  0.89020619  0.94758751
   0.22202000  0.77619175  0.05393197
   0.44912398  0.22509045  0.94926193
   0.56071673  0.11359894  0.05005058
   0.44284866  0.55535790  0.94605333
   0.55694258  0.43903979  0.05246869
   0.44941881  0.88966213  0.94863156
   0.55636148  0.78273353  0.05133871
   0.77456967  0.22054919  0.95092770
   0.88715672  0.10795993  0.04907148
   0.77629667  0.54941879  0.94862646
   0.88374427  0.44252551  0.05163129
   0.78014198  0.89396390  0.94997505
   0.89171990  0.78236198  0.05071851
unknown system                          
           1
     8.245603    4.777318    0.000000
    -8.245408    4.776983    0.000000
     0.000000    0.000000   30.000000
   V    Mo   W    S 
   3   3   3  18
Direct configuration=    13
   0.66393889  0.33534297 -0.00024535
   0.66304795 -0.00350533 -0.00000075
   0.00181253 -0.00263175  0.00026274
   0.32622919 -0.00784339 -0.00003323
   0.65877628  0.65929084  0.00003602
   1.01704523  0.35040348  0.00000352
   0.00998396  0.66700297 -0.00003013
   0.33392092  0.34340868  0.00003941
   0.32301151  0.65643039  0.00000006
   0.10946319  0.21762339  0.94852078
   0.21636190  0.10999477  0.05118893
   0.11270886  0.55856274  0.94452527
   0.22524885  0.44602051  0.05544459
   0.10564296  0.88998121  0.94754223
   0.22224369  0.77620007  0.05403628
   0.44849223  0.22500521  0.94940293
   0.56044370  0.11351691  0.04994021
   0.44286026  0.55559364  0.94595235
   0.55667716  0.43894336  0.05254568
   0.44892849  0.88927861  0.94869022
   0.55597568  0.78221907  0.05127347
   0.77525469  0.22081846  0.95128482
   0.88743867  0.10860681  0.04869457
   0.77666812  0.54967552  0.94874453
   0.88424945  0.44275720  0.05153003
   0.78011294  0.89370855  0.95010449
   0.89167716  0.78180957  0.05054622
unknown system                          
           1
     8.245034    4.776179    0.000000
    -8.244901    4.775951    0.000000
     0.000000    0.000000   30.000000
   V    Mo   W    S 
   3   3   3  18
Direct configuration=    14
   0.66151436  0.33504878 -0.00036682
   0.66124536 -0.00531003 -0.00000493
   0.00141982 -0.00495603  0.00039286
   0.32531103 -0.00926233 -0.00004078
   0.65745703  0.65831375  0.00003146
   1.02134300  0.35460250  0.00000028
   0.01267499  0.66722311 -0.00007188
   0.33418423  0.34613227  0.00007633
   0.32100664  0.65450962 -0.00000944
   0.10987048  0.21845895  0.94876118
   0.21662332  0.11056048  0.05088199
   0.11310847  0.55917468  0.94384811
   0.22591074  0.44645848  0.05613045
   0.10542693  0.88960734  0.94740727
   0.22275837  0.77624685  0.05426741
   0.44735480  0.22493822  0.94967665
   0.55994716  0.11342637  0.04975337
   0.44292347  0.55612278  0.94573764
   0.55625561  0.43876989  0.05270130
   0.44799703  0.88853076  0.94874525
   0.55520198  0.78125446  0.05120869
   0.77657534  0.22139776  0.95208356
   0.88799289  0.10990782  0.04790768
   0.77726539  0.54996843  0.94903425
   0.88515273  0.44315334  0.05128379
   0.78006652  0.89323097  0.95029361
   0.89162677  0.78070521  0.05027064
unknown system                          
           1
     8.247414    4.773886    0.000000
    -8.248012    4.774921    0.000000
     0.000000    0.000000   30.000000
   V    Mo   W    S 
   3   3   3  18
Direct configuration=    15
   0.66188284  0.33514869 -0.00036237
   0.66146277 -0.00508338 -0.00000573
   0.00152667 -0.00459209  0.00038574
   0.32538951 -0.00899749 -0.00005139
   0.65769455  0.65837505  0.00003970
   1.02105551  0.35433415  0.00000027
   0.01233964  0.66703945 -0.00005362
   0.33401791  0.34579701  0.00005529
   0.32099428  0.65449034 -0.00001262
   0.10983195  0.21841104  0.94873251
   0.21659446  0.11052722  0.05092916
   0.11305690  0.55910449  0.94389108
   0.22583186  0.44639723  0.05608972
   0.10542357  0.88961554  0.94742996
   0.22268807  0.77624315  0.05423794
   0.44748146  0.22496402  0.94966332
   0.55998138  0.11343364  0.04975778
   0.44291900  0.55604891  0.94576821
   0.55626439  0.43876319  0.05267738
   0.44803472  0.88856772  0.94876870
   0.55523779  0.78129136  0.05118857
   0.77649453  0.22135644  0.95200748
   0.88795433  0.10982869  0.04798184
   0.77723247  0.54994108  0.94899033
   0.88510316  0.44311992  0.05131538
   0.78007161  0.89326177  0.95029086
   0.89164910  0.78082731  0.05028439
unknown system                          
           1
     8.245544    4.771644    0.000000
    -8.246740    4.773712    0.000000
     0.000000    0.000000   30.000000
   V    Mo   W    S 
   3   3   3  18
Direct configuration=    16
   0.66447567  0.33588102 -0.00031127
   0.66313037 -0.00337693 -0.00000325
   0.00229141 -0.00201685  0.00032313
   0.32566539 -0.00850896 -0.00008844
   0.65799959  0.65853145  0.00009378
   1.01893545  0.35234374  0.00001034
   0.01094223  0.66596260 -0.00005352
   0.33306321  0.34441579  0.00006946
   0.32135273  0.65477321  0.00001049
   0.10953338  0.21820022  0.94850065
   0.21663264  0.11037669  0.05113264
   0.11270628  0.55864653  0.94403596
   0.22534979  0.44603815  0.05592519
   0.10530186  0.88951650  0.94752209
   0.22251233  0.77613931  0.05418029
   0.44798304  0.22503293  0.94968907
   0.56014196  0.11345326  0.04972191
   0.44282271  0.55585082  0.94579985
   0.55620539  0.43858939  0.05254301
   0.44837507  0.88865339  0.94891504
   0.55531737  0.78163394  0.05104286
   0.77615558  0.22120615  0.95161773
   0.88779701  0.10953685  0.04837628
   0.77704392  0.54991135  0.94882774
   0.88481858  0.44283177  0.05153331
   0.78001192  0.89337970  0.95030898
   0.89164954  0.78121244  0.05027659
unknown system                          
           1
     8.247110    4.777659    0.000000
    -8.247425    4.778206    0.000000
     0.000000    0.000000   30.000000
   V    Mo   W    S 
   3   3   3  18
Direct configuration=    17
   0.66776656  0.33729545 -0.00031415
   0.66484937 -0.00156138 -0.00001107
   0.00369406  0.00133779  0.00030764
   0.32533615 -0.00824148 -0.00019077
   0.65796454  0.65792671  0.00019161
   1.01837803  0.35194333  0.00000898
   0.00997842  0.66400725 -0.00003038
   0.33135705  0.34347040  0.00003681
   0.32027667  0.65363779  0.00000702
   0.10927639  0.21835266  0.94823218
   0.21672484  0.11041521  0.05133646
   0.11240434  0.55821637  0.94393525
   0.22489428  0.44569353  0.05602270
   0.10489960  0.88912282  0.94772230
   0.22231335  0.77593761  0.05408840
   0.44828621  0.22525577  0.94993885
   0.56015098  0.11352423  0.04956740
   0.44261207  0.55561214  0.94587460
   0.55585862  0.43812190  0.05234015
   0.44823344  0.88826490  0.94923506
   0.55492877  0.78147924  0.05073041
   0.77641137  0.22133662  0.95136276
   0.88790695  0.10984967  0.04863806
   0.77705466  0.54994684  0.94866091
   0.88488823  0.44258435  0.05181331
   0.77997628  0.89330462  0.95046652
   0.89179322  0.78138012  0.05002888
unknown system                          
           1
     8.245210    4.775685    0.000000
    -8.245606    4.776373    0.000000
     0.000000    0.000000   30.000000
   V    Mo   W    S 
   3   3   3  18
Direct configuration=    18
   0.66452365  0.33633164 -0.00034413
   0.66328670 -0.00320686 -0.00001042
   0.00274271 -0.00191754  0.00035017
   0.32472683 -0.01028075 -0.00011302
   0.65618938  0.65755274  0.00010434
   1.01945292  0.35285343 -0.00000240
   0.01232172  0.66629053 -0.00009488
   0.33341179  0.34577751  0.00009450
   0.32131614  0.65474022 -0.00000394
   0.10964706  0.21840030  0.94850664
   0.21681234  0.11048090  0.05096627
   0.11283285  0.55866838  0.94388849
   0.22538274  0.44615857  0.05608583
   0.10514180  0.88933422  0.94754000
   0.22256859  0.77591469  0.05428326
   0.44759529  0.22497669  0.94996329
   0.56005684  0.11352830  0.04964636
   0.44257585  0.55589462  0.94570069
   0.55604069  0.43841660  0.05254969
   0.44825510  0.88841258  0.94890000
   0.55509046  0.78152743  0.05106417
   0.77641024  0.22146754  0.95173791
   0.88804451  0.10980319  0.04827206
   0.77713746  0.55007893  0.94899836
   0.88499381  0.44292492  0.05153000
   0.78006617  0.89327357  0.95038978
   0.89159083  0.78081209  0.04999686
unknown system                          
           1
     8.239394    4.768325    0.000000
    -8.239146    4.767901    0.000000
     0.000000    0.000000   30.000000
   V    Mo   W    S 
   3   3   3  18
Direct configuration=    19
   0.66585859  0.33662194 -0.00032109
   0.66388925 -0.00256327 -0.00001350
   0.00304278 -0.00060165  0.00031481
   0.32519474 -0.00878715 -0.00014781
   0.65758396  0.65794044  0.00013334
   1.01866576  0.35214490 -0.00000694
   0.01087229  0.66535746 -0.00007076
   0.33255350  0.34433592  0.00006015
   0.32100039  0.65440165 -0.00000854
   0.10939298  0.21824200  0.94836231
   0.21661300  0.11035101  0.05117911
   0.11263210  0.55848025  0.94397787
   0.22518033  0.44593813  0.05600133
   0.10506109  0.88934271  0.94767139
   0.22240339  0.77597001  0.05411624
   0.44809910  0.22522695  0.94986252
   0.56020187  0.11359585  0.04966816
   0.44262793  0.55571554  0.94586606
   0.55606688  0.43831252  0.05241722
   0.44827147  0.88840242  0.94903816
   0.55508142  0.78153980  0.05093246
   0.77628392  0.22134981  0.95151100
   0.88792626  0.10969561  0.04849694
   0.77699790  0.54986137  0.94879856
   0.88480173  0.44268006  0.05168668
   0.78009671  0.89338903  0.95037201
   0.89181514  0.78127116  0.05010224
unknown system                          
           1
     8.241627    4.771148    0.000000
    -8.241454    4.770855    0.000000
     0.000000    0.000000   30.000000
   V    Mo   W    S 
   3   3   3  18
Direct configuration=    20
   0.67072677  0.33763643 -0.00019326
   0.66607462 -0.00033745  0.00000054
   0.00430012  0.00417585  0.00021369
   0.32657731 -0.00295971 -0.00019065
   0.66318399  0.65946222  0.00021892
   1.01604412  0.34963709  0.00003785
   0.00548943  0.66200877  0.00009722
   0.32906242  0.33874411 -0.00004306
   0.31950532  0.65284759  0.00002930
   0.10844431  0.21754367  0.94781398
   0.21549532  0.10977000  0.05198578
   0.11206313  0.55785447  0.94428631
   0.22448590  0.44528442  0.05562198
   0.10455907  0.88950318  0.94817954
   0.22173147  0.77622563  0.05334785
   0.45009967  0.22637705  0.94942570
   0.56079817  0.11403431  0.04975336
   0.44286708  0.55500746  0.94657342
   0.55623044  0.43775611  0.05190408
   0.44822975  0.88829202  0.94955596
   0.55495528  0.78147033  0.05041029
   0.77583181  0.22093127  0.95064455
   0.88751752  0.10925138  0.04930103
   0.77644946  0.54876691  0.94797595
   0.88406224  0.44178769  0.05225431
   0.78048761  0.89392993  0.95030590
   0.89294211  0.78321372  0.05048932
unknown system                          
           1
     8.238797    4.772699    0.000000
    -8.238522    4.772230    0.000000
     0.000000    0.000000   30.000000
   V    Mo   W    S 
   3   3   3  18
Direct configuration=    21
   0.67286229  0.33840527 -0.00019317
   0.66718507  0.00076289 -0.00000917
   0.00518252  0.00634341  0.00019756
   0.32653831 -0.00164465 -0.00027497
   0.66431631  0.65943626  0.00027785
   1.01529617  0.34893105  0.00001844
   0.00403166  0.66064031  0.00006931
   0.32769059  0.33719123 -0.00005468
   0.31889106  0.65216957 -0.00000074
   0.10818757  0.21752699  0.94758095
   0.21525665  0.10971758  0.05221924
   0.11181666  0.55759610  0.94425983
   0.22420448  0.44500031  0.05567935
   0.10417783  0.88937296  0.94836961
   0.22156189  0.77623272  0.05320933
   0.45049899  0.22673142  0.94948089
   0.56088164  0.11419291  0.04971133
   0.44283412  0.55478870  0.94672749
   0.55608554  0.43736242  0.05172571
   0.44807756  0.88816020  0.94979803
   0.55480970  0.78133184  0.05019222
   0.77588770  0.22091221  0.95040522
   0.88750752  0.10929069  0.04953732
   0.77642655  0.54856965  0.94777105
   0.88405002  0.44155708  0.05251318
   0.78066430  0.89402035  0.95036667
   0.89329173  0.78361498  0.05042206
unknown system                          
           1
     8.242980    4.775583    0.000000
    -8.242977    4.775583    0.000000
     0.000000    0.000000   30.000000
   V    Mo   W    S 
   3   3   3  18
Direct configuration=    22
   0.67427782  0.33895631 -0.00018829
   0.66812761  0.00161677 -0.00001764
   0.00590616  0.00781752  0.00018908
   0.32625655 -0.00055000 -0.00035077
   0.66519332  0.65924835  0.00034122
   1.01514832  0.34878648  0.00000544
   0.00314923  0.65954055  0.00001645
   0.32653394  0.33615768 -0.00002192
   0.31814260  0.65131667 -0.00001925
   0.10807532  0.21764631  0.94741705
   0.21504789  0.10977890  0.05235542
   0.11162044  0.55742918  0.94419830
   0.22402705  0.44479741  0.05576639
   0.10369780  0.88925442  0.94854064
   0.22147397  0.77624423  0.05307902
   0.45064075  0.22706733  0.94960779
   0.56085598  0.11437859  0.04962517
   0.44279408  0.55463374  0.94686255
   0.55591874  0.43690344  0.05154130
   0.44776802  0.88805505  0.95005679
   0.55467301  0.78107224  0.04996587
   0.77599720  0.22092656  0.95030074
   0.88754361  0.10935191  0.04964549
   0.77652992  0.54842787  0.94767758
   0.88423984  0.44149231  0.05267319
   0.78093284  0.89406090  0.95045900
   0.89364246  0.78380374  0.05027329
unknown system                          
           1
     8.246408    4.778744    0.000000
    -8.246785    4.779403    0.000000
     0.000000    0.000000   30.000000
   V    Mo   W    S 
   3   3   3  18
Direct configuration=    23
   0.67571472  0.33965111 -0.00015901
   0.66915882  0.00257034 -0.00001726
   0.00667650  0.00930474  0.00018005
   0.32567451 -0.00025729 -0.00037732
   0.66512726  0.65861430  0.00040231
   1.01521756  0.34891124  0.00003100
   0.00293837  0.65850481  0.00002926
   0.32559745  0.33589329  0.00001819
   0.31734732  0.65035460  0.00001186
   0.10807070  0.21788135  0.94726447
   0.21496731  0.10989771  0.05245714
   0.11152805  0.55726916  0.94404321
   0.22386054  0.44470001  0.05588242
   0.10319405  0.88905477  0.94862984
   0.22141608  0.77618060  0.05298093
   0.45065448  0.22734145  0.94979314
   0.56076800  0.11453261  0.04949333
   0.44269893  0.55451085  0.94690065
   0.55570142  0.43640656  0.05142018
   0.44747271  0.88788327  0.95028570
   0.55447984  0.78082932  0.04975369
   0.77616356  0.22101614  0.95023674
   0.88763517  0.10951411  0.04971943
   0.77663979  0.54835583  0.94761798
   0.88451070  0.44151148  0.05278232
   0.78111529  0.89399495  0.95057467
   0.89388534  0.78378715  0.05004497
unknown system                          
           1
     8.246766    4.778993    0.000000
    -8.247151    4.779663    0.000000
     0.000000    0.000000   30.000000
   V    Mo   W    S 
   3   3   3  18
Direct configuration=    24
   0.67626204  0.34005913 -0.00018232
   0.66987989  0.00320248 -0.00004020
   0.00715986  0.00994978  0.00016797
   0.32483723 -0.00076187 -0.00044146
   0.66407563  0.65764795  0.00042591
   1.01546470  0.34921640 -0.00000926
   0.00363959  0.65822456 -0.00004903
   0.32548916  0.33655245  0.00002637
   0.31690716  0.64969530 -0.00003835
   0.10821351  0.21820534  0.94724080
   0.21497159  0.11004872  0.05245935
   0.11161588  0.55724873  0.94391434
   0.22382570  0.44473308  0.05607746
   0.10284790  0.88884897  0.94864649
   0.22152323  0.77611422  0.05302997
   0.45044679  0.22745532  0.95001425
   0.56063210  0.11458348  0.04938475
   0.44256566  0.55452691  0.94683425
   0.55550159  0.43605185  0.05143191
   0.44723345  0.88772637  0.95045461