       N       E                     dE             d eps       ncg     rms          rms(c)
DAV:   1     0.112362489748E+04    0.11236E+04   -0.35870E+04  8160   0.577E+02
DAV:   2    -0.456796560207E+01   -0.11282E+04   -0.10867E+04 11320   0.173E+02
DAV:   3    -0.200115441381E+03   -0.19555E+03   -0.18824E+03 10920   0.819E+01
DAV:   4    -0.209097324051E+03   -0.89819E+01   -0.87180E+01 12240   0.259E+01
DAV:   5    -0.209403486168E+03   -0.30616E+00   -0.30531E+00 11520   0.347E+00    0.278E+01
DAV:   6    -0.241511979948E+03   -0.32108E+02   -0.11399E+02 12440   0.600E+01    0.607E+01
DAV:   7    -0.196128013523E+03    0.45384E+02   -0.18062E+02 13240   0.152E+02    0.198E+01
DAV:   8    -0.189337501380E+03    0.67905E+01   -0.18363E+01 12120   0.126E+01    0.122E+01
DAV:   9    -0.188072446057E+03    0.12651E+01   -0.30378E+00 13000   0.616E+00    0.886E+00
DAV:  10    -0.186953318068E+03    0.11191E+01   -0.15859E+00 13480   0.719E+00    0.207E+00
DAV:  11    -0.187074920726E+03   -0.12160E+00   -0.61078E-01 13560   0.349E+00    0.441E+00
DAV:  12    -0.186953709348E+03    0.12121E+00   -0.65282E-01 13000   0.431E+00    0.293E+00
DAV:  13    -0.186876931954E+03    0.76777E-01   -0.19561E-01 12760   0.232E+00    0.135E+00
DAV:  14    -0.186856319301E+03    0.20613E-01   -0.77735E-02 12320   0.132E+00    0.923E-01
DAV:  15    -0.186852966736E+03    0.33526E-02   -0.25376E-02 12720   0.805E-01    0.727E-01
DAV:  16    -0.186848477415E+03    0.44893E-02   -0.10723E-02 12880   0.449E-01    0.300E-01
DAV:  17    -0.186847319722E+03    0.11577E-02   -0.55457E-03 12480   0.336E-01    0.236E-01
DAV:  18    -0.186846715601E+03    0.60412E-03   -0.18008E-03 12560   0.201E-01    0.771E-02
DAV:  19    -0.186846904061E+03   -0.18846E-03   -0.55253E-04  8680   0.653E-02    0.795E-02
DAV:  20    -0.186847590032E+03   -0.68597E-03   -0.71804E-04  9160   0.836E-02    0.578E-02
DAV:  21    -0.186848567391E+03   -0.97736E-03   -0.26053E-04  8160   0.487E-02    0.327E-02
DAV:  22    -0.186849355402E+03   -0.78801E-03   -0.11818E-04  6760   0.372E-02    0.245E-02
DAV:  23    -0.186850436516E+03   -0.10811E-02   -0.94679E-05  7480   0.234E-02    0.104E-02
DAV:  24    -0.186851063517E+03   -0.62700E-03   -0.25156E-05  6360   0.153E-02    0.665E-03
DAV:  25    -0.186851445405E+03   -0.38189E-03   -0.15318E-05  5920   0.112E-02    0.252E-03
DAV:  26    -0.186851649582E+03   -0.20418E-03   -0.75036E-06  6880   0.620E-03    0.141E-03
DAV:  27    -0.186851733257E+03   -0.83676E-04   -0.36587E-06  6840   0.427E-03
   1 F= -.18685173E+03 E0= -.18667861E+03  d E =-.186852E+03
       N       E                     dE             d eps       ncg     rms          rms(c)
DAV:   1    -0.187532023171E+03   -0.68037E+00   -0.27391E+02  8160   0.351E+01    0.466E+00
DAV:   2    -0.189602648879E+03   -0.20706E+01   -0.20313E+01 12200   0.156E+01    0.104E+01
DAV:   3    -0.189338448727E+03    0.26420E+00   -0.49772E+00 12400   0.127E+01    0.622E+00
DAV:   4    -0.188803679619E+03    0.53477E+00   -0.63360E-01 12520   0.443E+00    0.240E+00
DAV:   5    -0.188905375379E+03   -0.10170E+00   -0.49074E-01 11200   0.389E+00    0.540E+00
DAV:   6    -0.188771220359E+03    0.13416E+00   -0.76994E-01 12680   0.407E+00    0.237E+00
DAV:   7    -0.188730431066E+03    0.40789E-01   -0.23659E-01 11840   0.209E+00    0.206E+00
DAV:   8    -0.188721229928E+03    0.92011E-02   -0.16135E-01 12320   0.214E+00    0.202E+00
DAV:   9    -0.188690404041E+03    0.30826E-01   -0.73078E-02 12560   0.126E+00    0.594E-01
DAV:  10    -0.188687810803E+03    0.25932E-02   -0.72068E-03 10840   0.292E-01    0.309E-01
DAV:  11    -0.188687046146E+03    0.76466E-03   -0.27856E-03 13160   0.226E-01    0.117E-01
DAV:  12    -0.188687032916E+03    0.13230E-04   -0.10680E-03 11840   0.103E-01    0.905E-02
DAV:  13    -0.188687060440E+03   -0.27523E-04   -0.32961E-04  8600   0.608E-02
   2 F= -.18868706E+03 E0= -.18854502E+03  d E =-.183533E+01
       N       E                     dE             d eps       ncg     rms          rms(c)
DAV:   1    -0.190621854131E+03   -0.19348E+01   -0.31441E+01  8960   0.143E+01    0.444E+00
DAV:   2    -0.190552700127E+03    0.69154E-01   -0.27794E+00 11600   0.913E+00    0.722E+00
DAV:   3    -0.190118142016E+03    0.43456E+00   -0.15138E+00 12280   0.841E+00    0.435E+00
DAV:   4    -0.189890133840E+03    0.22801E+00   -0.71859E-01 12680   0.435E+00    0.247E+00
DAV:   5    -0.189867895699E+03    0.22238E-01   -0.37291E-01 12240   0.307E+00    0.288E+00
DAV:   6    -0.189792626078E+03    0.75270E-01   -0.15768E-01 12560   0.246E+00    0.703E-01
DAV:   7    -0.189787806986E+03    0.48191E-02   -0.14905E-02 11680   0.596E-01    0.418E-01
DAV:   8    -0.189787591924E+03    0.21506E-03   -0.66517E-03 12720   0.480E-01    0.360E-01
DAV:   9    -0.189786623971E+03    0.96795E-03   -0.23561E-03 11400   0.249E-01    0.121E-01
DAV:  10    -0.189787058239E+03   -0.43427E-03   -0.96860E-04 10440   0.107E-01    0.127E-01
DAV:  11    -0.189786758951E+03    0.29929E-03   -0.49332E-04  9080   0.776E-02    0.203E-02
DAV:  12    -0.189786779269E+03   -0.20318E-04   -0.66057E-05  7000   0.265E-02
   3 F= -.18978678E+03 E0= -.18966636E+03  d E =-.109972E+01
       N       E                     dE             d eps       ncg     rms          rms(c)
DAV:   1    -0.191399653776E+03   -0.16129E+01   -0.80918E+01  8160   0.205E+01    0.463E+00
DAV:   2    -0.191136547238E+03    0.26311E+00   -0.53838E+00 13280   0.675E+00    0.378E+00
DAV:   3    -0.191450582491E+03   -0.31404E+00   -0.15346E+00 12120   0.863E+00    0.809E+00
DAV:   4    -0.191004616931E+03    0.44597E+00   -0.21409E+00 11320   0.930E+00    0.370E+00
DAV:   5    -0.190995419135E+03    0.91978E-02   -0.73674E-01 11920   0.542E+00    0.368E+00
DAV:   6    -0.190815284881E+03    0.18013E+00   -0.23338E-01 12080   0.326E+00    0.720E-01
DAV:   7    -0.190815143510E+03    0.14137E-03   -0.36527E-02 12440   0.836E-01    0.655E-01
DAV:   8    -0.190813367996E+03    0.17755E-02   -0.18077E-02 11800   0.849E-01    0.617E-01
DAV:   9    -0.190809748692E+03    0.36193E-02   -0.64825E-03 11560   0.519E-01    0.178E-01
DAV:  10    -0.190810046452E+03   -0.29776E-03   -0.16271E-03 11200   0.153E-01    0.123E-01
DAV:  11    -0.190809830662E+03    0.21579E-03   -0.66510E-04 10640   0.997E-02    0.434E-02
DAV:  12    -0.190809838059E+03   -0.73970E-05   -0.96799E-05  7240   0.344E-02
   4 F= -.19080984E+03 E0= -.19070657E+03  d E =-.102306E+01
       N       E                     dE             d eps       ncg     rms          rms(c)
DAV:   1    -0.192260225986E+03   -0.14504E+01   -0.18560E+02  8160   0.303E+01    0.592E+00
DAV:   2    -0.192011705965E+03    0.24852E+00   -0.10216E+01 11080   0.790E+00    0.409E+00
DAV:   3    -0.192461625552E+03   -0.44992E+00   -0.32374E+00 12080   0.113E+01    0.737E+00
DAV:   4    -0.191700505154E+03    0.76112E+00   -0.11206E+00 12240   0.840E+00    0.286E+00
DAV:   5    -0.191752149428E+03   -0.51644E-01   -0.61478E-01 12040   0.554E+00    0.488E+00
DAV:   6    -0.191549570357E+03    0.20258E+00   -0.59918E-01 12200   0.500E+00    0.109E+00
DAV:   7    -0.191542040272E+03    0.75301E-02   -0.58474E-02 11880   0.122E+00    0.726E-01
DAV:   8    -0.191539694997E+03    0.23453E-02   -0.28839E-02 12360   0.105E+00    0.699E-01
DAV:   9    -0.191535045275E+03    0.46497E-02   -0.11131E-02 11480   0.642E-01    0.178E-01
DAV:  10    -0.191535044457E+03    0.81729E-06   -0.25152E-03 11560   0.167E-01    0.822E-02
DAV:  11    -0.191535062598E+03   -0.18141E-04   -0.40532E-04  9080   0.887E-02
   5 F= -.19153506E+03 E0= -.19143733E+03  d E =-.725225E+00
       N       E                     dE             d eps       ncg     rms          rms(c)
DAV:   1    -0.191603163441E+03   -0.68119E-01   -0.58565E+00  8160   0.513E+00    0.780E-01
DAV:   2    -0.191701145756E+03   -0.97982E-01   -0.36957E-01 12720   0.360E+00    0.283E+00
DAV:   3    -0.191616206431E+03    0.84939E-01   -0.14785E-01 12440   0.286E+00    0.427E-01
DAV:   4    -0.191620404044E+03   -0.41976E-02   -0.21501E-02 11640   0.901E-01    0.839E-01
DAV:   5    -0.191613753513E+03    0.66505E-02   -0.14838E-02 11640   0.778E-01    0.207E-01
DAV:   6    -0.191615092497E+03   -0.13390E-02   -0.57049E-03 11560   0.417E-01    0.419E-01
DAV:   7    -0.191613582675E+03    0.15098E-02   -0.50195E-03 11320   0.444E-01    0.163E-01
DAV:   8    -0.191613272432E+03    0.31024E-03   -0.73169E-04  9640   0.139E-01    0.378E-02
DAV:   9    -0.191613286074E+03   -0.13641E-04   -0.10729E-04  6280   0.382E-02
   6 F= -.19161329E+03 E0= -.19151338E+03  d E =-.782235E-01
       N       E                     dE             d eps       ncg     rms          rms(c)
DAV:   1    -0.191681823878E+03   -0.68551E-01   -0.65543E+00  8160   0.539E+00    0.704E-01
DAV:   2    -0.191751077681E+03   -0.69254E-01   -0.25407E-01 13360   0.278E+00    0.241E+00
DAV:   3    -0.191689795360E+03    0.61282E-01   -0.12101E-01 12440   0.253E+00    0.512E-01
DAV:   4    -0.191693131635E+03   -0.33363E-02   -0.23050E-02 11560   0.905E-01    0.802E-01
DAV:   5    -0.191686961420E+03    0.61702E-02   -0.14013E-02 11680   0.741E-01    0.194E-01
DAV:   6    -0.191687305650E+03   -0.34423E-03   -0.31598E-03 11600   0.281E-01    0.255E-01
DAV:   7    -0.191687119509E+03    0.18614E-03   -0.35928E-03 11440   0.382E-01    0.237E-01
DAV:   8    -0.191686579544E+03    0.53996E-03   -0.12497E-03 10080   0.211E-01    0.462E-02
DAV:   9    -0.191686563726E+03    0.15818E-04   -0.10750E-04  6000   0.430E-02
   7 F= -.19168656E+03 E0= -.19158598E+03  d E =-.732777E-01
       N       E                     dE             d eps       ncg     rms          rms(c)
DAV:   1    -0.191727707953E+03   -0.41128E-01   -0.18750E+00  8160   0.293E+00    0.413E-01
DAV:   2    -0.191750435235E+03   -0.22727E-01   -0.89730E-02 13240   0.175E+00    0.142E+00
DAV:   3    -0.191729975937E+03    0.20459E-01   -0.38754E-02 12280   0.141E+00    0.298E-01
DAV:   4    -0.191731543095E+03   -0.15672E-02   -0.95153E-03 11440   0.590E-01    0.510E-01
DAV:   5    -0.191728904105E+03    0.26390E-02   -0.54224E-03 11280   0.460E-01    0.102E-01
DAV:   6    -0.191728981127E+03   -0.77022E-04   -0.11080E-03 10120   0.125E-01    0.964E-02
DAV:   7    -0.191728885693E+03    0.95434E-04   -0.61147E-04  9720   0.142E-01
   8 F= -.19172889E+03 E0= -.19162824E+03  d E =-.423220E-01
       N       E                     dE             d eps       ncg     rms          rms(c)
DAV:   1    -0.191781271748E+03   -0.52291E-01   -0.28927E+00  8160   0.365E+00    0.477E-01
DAV:   2    -0.191807760315E+03   -0.26489E-01   -0.12027E-01 13360   0.187E+00    0.154E+00
DAV:   3    -0.191785373257E+03    0.22387E-01   -0.49967E-02 12360   0.155E+00    0.402E-01
DAV:   4    -0.191787193456E+03   -0.18202E-02   -0.13416E-02 11280   0.730E-01    0.591E-01
DAV:   5    -0.191783474385E+03    0.37191E-02   -0.70130E-03 11160   0.559E-01    0.127E-01
DAV:   6    -0.191783574603E+03   -0.10022E-03   -0.15735E-03 10360   0.148E-01    0.113E-01
DAV:   7    -0.191783298179E+03    0.27642E-03   -0.56488E-04 11480   0.104E-01    0.524E-02
DAV:   8    -0.191783297659E+03    0.51998E-06   -0.15015E-04  6200   0.821E-02
   9 F= -.19178330E+03 E0= -.19168395E+03  d E =-.544120E-01
       N       E                     dE             d eps       ncg     rms          rms(c)
DAV:   1    -0.191796511045E+03   -0.13213E-01   -0.16588E-01  8160   0.882E-01    0.105E-01
DAV:   2    -0.191797146601E+03   -0.63556E-03   -0.54490E-03 11520   0.280E-01    0.230E-01
DAV:   3    -0.191796770845E+03    0.37576E-03   -0.18521E-03 10360   0.273E-01    0.120E-01
DAV:   4    -0.191796662962E+03    0.10788E-03   -0.34358E-04  7160   0.111E-01    0.602E-02
DAV:   5    -0.191796678312E+03   -0.15350E-04   -0.24398E-04  7800   0.110E-01
  10 F= -.19179668E+03 E0= -.19169782E+03  d E =-.133807E-01
       N       E                     dE             d eps       ncg     rms          rms(c)
DAV:   1    -0.191743334497E+03    0.53328E-01   -0.37251E+00  8160   0.423E+00    0.598E-01
DAV:   2    -0.191755062154E+03   -0.11728E-01   -0.13328E-01 12680   0.140E+00    0.115E+00
DAV:   3    -0.191747168744E+03    0.78934E-02   -0.61167E-02 12120   0.147E+00    0.775E-01
DAV:   4    -0.191741234262E+03    0.59345E-02   -0.16708E-02 11440   0.688E-01    0.261E-01
DAV:   5    -0.191741850823E+03   -0.61656E-03   -0.68894E-03 11520   0.516E-01    0.422E-01
DAV:   6    -0.191740417770E+03    0.14331E-02   -0.58845E-03 11600   0.504E-01    0.210E-01
DAV:   7    -0.191740155621E+03    0.26215E-03   -0.16618E-03  9960   0.252E-01    0.141E-01
DAV:   8    -0.191739973410E+03    0.18221E-03   -0.52665E-04  9920   0.168E-01    0.610E-02
DAV:   9    -0.191739931204E+03    0.42207E-04   -0.88366E-05  5840   0.584E-02
  11 F= -.19173993E+03 E0= -.19163911E+03  d E =0.567471E-01
       N       E                     dE             d eps       ncg     rms          rms(c)
DAV:   1    -0.191854421268E+03   -0.11445E+00   -0.11592E+01  8160   0.748E+00    0.100E+00
DAV:   2    -0.191921765867E+03   -0.67345E-01   -0.44056E-01 13000   0.302E+00    0.275E+00
DAV:   3    -0.191867233187E+03    0.54533E-01   -0.19583E-01 12280   0.280E+00    0.955E-01
DAV:   4    -0.191870410493E+03   -0.31773E-02   -0.52179E-02 12280   0.159E+00    0.117E+00
DAV:   5    -0.191854665479E+03    0.15745E-01   -0.29532E-02 11000   0.132E+00    0.376E-01
DAV:   6    -0.191853670276E+03    0.99520E-03   -0.10017E-02 11560   0.461E-01    0.259E-01
DAV:   7    -0.191853544366E+03    0.12591E-03   -0.45813E-03 12000   0.441E-01    0.320E-01
DAV:   8    -0.191852578535E+03    0.96583E-03   -0.22026E-03  9880   0.321E-01    0.821E-02
DAV:   9    -0.191852482877E+03    0.95658E-04   -0.21548E-04  6040   0.722E-02
  12 F= -.19185248E+03 E0= -.19175582E+03  d E =-.112552E+00
       N       E                     dE             d eps       ncg     rms          rms(c)
DAV:   1    -0.191879766898E+03   -0.27188E-01   -0.77330E-01  8160   0.188E+00    0.214E-01
DAV:   2    -0.191884447518E+03   -0.46806E-02   -0.27210E-02 11680   0.717E-01    0.612E-01
DAV:   3    -0.191881109598E+03    0.33379E-02   -0.88782E-03 11800   0.642E-01    0.197E-01
DAV:   4    -0.191881275395E+03   -0.16580E-03   -0.18973E-03 10240   0.291E-01    0.226E-01
DAV:   5    -0.191880720590E+03    0.55480E-03   -0.10211E-03  9720   0.248E-01    0.693E-02
DAV:   6    -0.191880825476E+03   -0.10489E-03   -0.44782E-04  9040   0.123E-01    0.111E-01
DAV:   7    -0.191880723421E+03    0.10205E-03   -0.40704E-04  8000   0.149E-01    0.647E-02
DAV:   8    -0.191880682125E+03    0.41296E-04   -0.90615E-05  5720   0.629E-02
  13 F= -.19188068E+03 E0= -.19178517E+03  d E =-.281992E-01
       N       E                     dE             d eps       ncg     rms          rms(c)
DAV:   1    -0.191937984036E+03   -0.57261E-01   -0.28136E+00  8160   0.362E+00    0.398E-01
DAV:   2    -0.191946359893E+03   -0.83759E-02   -0.81252E-02 11640   0.102E+00    0.767E-01
DAV:   3    -0.191942867702E+03    0.34922E-02   -0.21589E-02 12360   0.100E+00    0.472E-01
DAV:   4    -0.191940608720E+03    0.22590E-02   -0.39070E-03 11160   0.401E-01    0.179E-01
DAV:   5    -0.191941137601E+03   -0.52888E-03   -0.28519E-03 12400   0.401E-01    0.304E-01
DAV:   6    -0.191940496838E+03    0.64076E-03   -0.25096E-03 11560   0.365E-01    0.154E-01
DAV:   7    -0.191940263797E+03    0.23304E-03   -0.77290E-04  9720   0.194E-01    0.977E-02
DAV:   8    -0.191940153685E+03    0.11011E-03   -0.17145E-04  7400   0.105E-01    0.208E-02
DAV:   9    -0.191940154222E+03   -0.53709E-06   -0.36896E-05  6040   0.267E-02
  14 F= -.19194015E+03 E0= -.19184807E+03  d E =-.594721E-01
       N       E                     dE             d eps       ncg     rms          rms(c)
DAV:   1    -0.191919720831E+03    0.20433E-01   -0.38738E-01  8160   0.135E+00    0.165E-01
DAV:   2    -0.191920917869E+03   -0.11970E-02   -0.10228E-02 11920   0.425E-01    0.296E-01
DAV:   3    -0.191920090046E+03    0.82782E-03   -0.27212E-03 12360   0.417E-01    0.144E-01
DAV:   4    -0.191919881048E+03    0.20900E-03   -0.55704E-04  8840   0.155E-01    0.967E-02
DAV:   5    -0.191919911149E+03   -0.30101E-04   -0.56101E-04  8920   0.170E-01
  15 F= -.19191991E+03 E0= -.19182615E+03  d E =0.202431E-01
       N       E                     dE             d eps       ncg     rms          rms(c)
DAV:   1    -0.191817589462E+03    0.10229E+00   -0.28405E+01  8160   0.117E+01    0.146E+00
DAV:   2    -0.191967042669E+03   -0.14945E+00   -0.92618E-01 12240   0.457E+00    0.359E+00
DAV:   3    -0.191854318149E+03    0.11272E+00   -0.39858E-01 12080   0.423E+00    0.125E+00
DAV:   4    -0.191872728738E+03   -0.18411E-01   -0.13664E-01 10960   0.224E+00    0.193E+00
DAV:   5    -0.191831600138E+03    0.41129E-01   -0.71405E-02 11400   0.182E+00    0.406E-01
DAV:   6    -0.191838967507E+03   -0.73674E-02   -0.26747E-02 11800   0.990E-01    0.954E-01
DAV:   7    -0.191830342334E+03    0.86252E-02   -0.21020E-02 11360   0.963E-01    0.263E-01
DAV:   8    -0.191829374031E+03    0.96830E-03   -0.23023E-03 11080   0.235E-01    0.577E-02
DAV:   9    -0.191829339850E+03    0.34181E-04   -0.41473E-04 10640   0.617E-02
  16 F= -.19182934E+03 E0= -.19172798E+03  d E =0.905713E-01
       N       E                     dE             d eps       ncg     rms          rms(c)
DAV:   1    -0.191889323103E+03   -0.59949E-01   -0.59508E+00  8160   0.527E+00    0.720E-01
DAV:   2    -0.191974149229E+03   -0.84826E-01   -0.33371E-01 11360   0.288E+00    0.321E+00
DAV:   3    -0.191896760354E+03    0.77389E-01   -0.22089E-01 12320   0.265E+00    0.516E-01
DAV:   4    -0.191899236965E+03   -0.24766E-02   -0.18296E-02 10440   0.934E-01    0.799E-01
DAV:   5    -0.191893123675E+03    0.61133E-02   -0.16947E-02 12120   0.873E-01    0.295E-01
DAV:   6    -0.191893665108E+03   -0.54143E-03   -0.56418E-03 10320   0.510E-01    0.373E-01
DAV:   7    -0.191892509109E+03    0.11560E-02   -0.35377E-03 10800   0.452E-01    0.163E-01
DAV:   8    -0.191892049044E+03    0.46007E-03   -0.76031E-04  9960   0.155E-01    0.281E-02
DAV:   9    -0.191892052356E+03   -0.33125E-05   -0.10014E-04  7000   0.336E-02
  17 F= -.19189205E+03 E0= -.19179275E+03  d E =-.627125E-01
       N       E                     dE             d eps       ncg     rms          rms(c)
DAV:   1    -0.191923015190E+03   -0.30966E-01   -0.13264E+00  8160   0.249E+00    0.301E-01
DAV:   2    -0.191929846789E+03   -0.68316E-02   -0.51315E-02 11720   0.891E-01    0.772E-01
DAV:   3    -0.191925303931E+03    0.45429E-02   -0.19068E-02 12520   0.832E-01    0.295E-01
DAV:   4    -0.191924521223E+03    0.78271E-03   -0.26973E-03 11400   0.275E-01    0.173E-01
DAV:   5    -0.191924581469E+03   -0.60245E-04   -0.20102E-03 11520   0.309E-01    0.215E-01
DAV:   6    -0.191924239014E+03    0.34246E-03   -0.13242E-03  9800   0.235E-01    0.878E-02
DAV:   7    -0.191924148850E+03    0.90164E-04   -0.35494E-04  7920   0.104E-01
  18 F= -.19192415E+03 E0= -.19182604E+03  d E =-.320965E-01
       N       E                     dE             d eps       ncg     rms          rms(c)
DAV:   1    -0.191936278505E+03   -0.12039E-01   -0.18243E-01  8160   0.918E-01    0.114E-01
DAV:   2    -0.191937186541E+03   -0.90804E-03   -0.72170E-03 11440   0.328E-01    0.272E-01
DAV:   3    -0.191936625339E+03    0.56120E-03   -0.25490E-03 10560   0.312E-01    0.124E-01
DAV:   4    -0.191936510267E+03    0.11507E-03   -0.42166E-04  7560   0.114E-01    0.593E-02
DAV:   5    -0.191936505506E+03    0.47606E-05   -0.19397E-04  7040   0.999E-02
  19 F= -.19193651E+03 E0= -.19183916E+03  d E =-.123567E-01
       N       E                     dE             d eps       ncg     rms          rms(c)
DAV:   1    -0.191948530667E+03   -0.12020E-01   -0.31894E-01  8160   0.123E+00    0.191E-01
DAV:   2    -0.191954077526E+03   -0.55469E-02   -0.19726E-02 11440   0.785E-01    0.740E-01
DAV:   3    -0.191948748319E+03    0.53292E-02   -0.10431E-02 12080   0.687E-01    0.119E-01
DAV:   4    -0.191949102392E+03   -0.35407E-03   -0.12655E-03  9880   0.248E-01    0.218E-01
DAV:   5    -0.191948631029E+03    0.47136E-03   -0.98543E-04  8920   0.223E-01    0.668E-02
DAV:   6    -0.191948730363E+03   -0.99334E-04   -0.38386E-04  8280   0.144E-01
  20 F= -.19194873E+03 E0= -.19185229E+03  d E =-.122249E-01
       N       E                     dE             d eps       ncg     rms          rms(c)
DAV:   1    -0.192011398220E+03   -0.62767E-01   -0.96953E+00  8160   0.671E+00    0.841E-01
DAV:   2    -0.192088925477E+03   -0.77527E-01   -0.41767E-01 12000   0.291E+00    0.269E+00
DAV:   3    -0.192030603081E+03    0.58322E-01   -0.17878E-01 12360   0.269E+00    0.786E-01
DAV:   4    -0.192031811921E+03   -0.12088E-02   -0.25821E-02 10800   0.125E+00    0.917E-01
DAV:   5    -0.192023330742E+03    0.84812E-02   -0.20162E-02 12120   0.108E+00    0.366E-01
DAV:   6    -0.192023883956E+03   -0.55321E-03   -0.75699E-03 11160   0.621E-01    0.432E-01
DAV:   7    -0.192022486404E+03    0.13976E-02   -0.51029E-03 11280   0.574E-01    0.223E-01
DAV:   8    -0.192021666837E+03    0.81957E-03   -0.14109E-03 10800   0.221E-01    0.416E-02
DAV:   9    -0.192021664361E+03    0.24757E-05   -0.17897E-04  8000   0.448E-02
  21 F= -.19202166E+03 E0= -.19192786E+03  d E =-.729340E-01
       N       E                     dE             d eps       ncg     rms          rms(c)
DAV:   1    -0.192012547616E+03    0.91192E-02   -0.14478E+00  8160   0.266E+00    0.411E-01
DAV:   2    -0.192022849040E+03   -0.10301E-01   -0.63969E-02 11000   0.128E+00    0.107E+00
DAV:   3    -0.192012793114E+03    0.10056E-01   -0.30464E-02 12320   0.121E+00    0.353E-01
DAV:   4    -0.192011863152E+03    0.92996E-03   -0.46772E-03 11720   0.447E-01    0.287E-01
DAV:   5    -0.192011868151E+03   -0.49991E-05   -0.40558E-03 11000   0.486E-01    0.318E-01
DAV:   6    -0.192011086922E+03    0.78123E-03   -0.31362E-03 11280   0.354E-01    0.185E-01
DAV:   7    -0.192010831614E+03    0.25531E-03   -0.11596E-03  9960   0.250E-01    0.915E-02
DAV:   8    -0.192010724461E+03    0.10715E-03   -0.16610E-04  7160   0.871E-02    0.196E-02
DAV:   9    -0.192010720685E+03    0.37756E-05   -0.36778E-05  7320   0.223E-02
  22 F= -.19201072E+03 E0= -.19191607E+03  d E =0.109437E-01
       N       E                     dE             d eps       ncg     rms          rms(c)
DAV:   1    -0.192047825284E+03   -0.37101E-01   -0.26866E+00  8160   0.351E+00    0.438E-01
DAV:   2    -0.192067890356E+03   -0.20065E-01   -0.11379E-01 11600   0.157E+00    0.127E+00
DAV:   3    -0.192052951937E+03    0.14938E-01   -0.42531E-02 12400   0.139E+00    0.397E-01
DAV:   4    -0.192053383832E+03   -0.43190E-03   -0.71364E-03 11160   0.628E-01    0.459E-01
DAV:   5    -0.192051012764E+03    0.23711E-02   -0.39818E-03 12360   0.506E-01    0.128E-01
DAV:   6    -0.192050965700E+03    0.47064E-04   -0.10680E-03 10680   0.148E-01    0.851E-02
DAV:   7    -0.192050862266E+03    0.10343E-03   -0.53426E-04 10400   0.114E-01    0.684E-02
DAV:   8    -0.192050821564E+03    0.40701E-04   -0.14291E-04  6680   0.947E-02
  23 F= -.19205082E+03 E0= -.19195749E+03  d E =-.401009E-01
       N       E                     dE             d eps       ncg     rms          rms(c)
DAV:   1    -0.192107404911E+03   -0.56543E-01   -0.10812E+01  8160   0.710E+00    0.878E-01
DAV:   2    -0.192167106290E+03   -0.59701E-01   -0.44145E-01 12200   0.271E+00    0.209E+00
DAV:   3    -0.192130846697E+03    0.36260E-01   -0.14422E-01 12360   0.255E+00    0.885E-01
DAV:   4    -0.192128169431E+03    0.26773E-02   -0.26941E-02 12000   0.117E+00    0.827E-01
DAV:   5    -0.192120601252E+03    0.75682E-02   -0.15634E-02 12320   0.101E+00    0.306E-01
DAV:   6    -0.192120104198E+03    0.49705E-03   -0.55312E-03 12600   0.414E-01    0.234E-01
DAV:   7    -0.192120266976E+03   -0.16278E-03   -0.44144E-03 12080   0.478E-01    0.313E-01
DAV:   8    -0.192119207930E+03    0.10590E-02   -0.17980E-03 10360   0.338E-01    0.606E-02
DAV:   9    -0.192119169898E+03    0.38031E-04   -0.15941E-04  6200   0.602E-02
  24 F= -.19211917E+03 E0= -.19202724E+03  d E =-.683483E-01
       N       E                     dE             d eps       ncg     rms          rms(c)
DAV:   1    -0.192141402522E+03   -0.22195E-01   -0.21895E+00  8160   0.315E+00    0.406E-01
DAV:   2    -0.192157262476E+03   -0.15860E-01   -0.98637E-02 11760   0.161E+00    0.989E-01
DAV:   3    -0.192145627344E+03    0.11635E-01   -0.23261E-02 12360   0.122E+00    0.260E-01
DAV:   4    -0.192145885994E+03   -0.25865E-03   -0.45703E-03 11560   0.450E-01    0.358E-01
DAV:   5    -0.192144887749E+03    0.99824E-03   -0.34001E-03 11120   0.431E-01    0.186E-01
DAV:   6    -0.192144628355E+03    0.25939E-03   -0.13034E-03 10560   0.196E-01    0.789E-02
DAV:   7    -0.192144546480E+03    0.81875E-04   -0.49808E-04 10640   0.107E-01
  25 F= -.19214455E+03 E0= -.19205408E+03  d E =-.253766E-01
       N       E                     dE             d eps       ncg     rms          rms(c)
DAV:   1    -0.192151049295E+03   -0.64209E-02   -0.13057E-01  8160   0.823E-01    0.159E-01
DAV:   2    -0.192151186729E+03   -0.13743E-03   -0.71398E-03 11200   0.337E-01    0.211E-01
DAV:   3    -0.192151127880E+03    0.58849E-04   -0.23831E-03 12040   0.387E-01    0.211E-01
DAV:   4    -0.192150629700E+03    0.49818E-03   -0.10466E-03  9520   0.245E-01    0.822E-02
DAV:   5    -0.192150697382E+03   -0.67682E-04   -0.59338E-04  9160   0.171E-01
  26 F= -.19215070E+03 E0= -.19206027E+03  d E =-.615090E-02
       N       E                     dE             d eps       ncg     rms          rms(c)
DAV:   1    -0.192170909415E+03   -0.20280E-01   -0.18551E+00  8160   0.293E+00    0.356E-01
DAV:   2    -0.192177603276E+03   -0.66939E-02   -0.63044E-02 12240   0.951E-01    0.603E-01
DAV:   3    -0.192174320321E+03    0.32830E-02   -0.13908E-02 11880   0.928E-01    0.361E-01
DAV:   4    -0.192173382507E+03    0.93781E-03   -0.40362E-03 12160   0.445E-01    0.272E-01
DAV:   5    -0.192172824565E+03    0.55794E-03   -0.23009E-03 10520   0.378E-01    0.171E-01
DAV:   6    -0.192172627534E+03    0.19703E-03   -0.10729E-03 10080   0.202E-01    0.992E-02
DAV:   7    -0.192172658922E+03   -0.31388E-04   -0.68346E-04  9960   0.200E-01
  27 F= -.19217266E+03 E0= -.19208297E+03  d E =-.219615E-01
       N       E                     dE             d eps       ncg     rms          rms(c)
DAV:   1    -0.192186476896E+03   -0.13849E-01   -0.98213E-01  8160   0.212E+00    0.254E-01
DAV:   2    -0.192190827043E+03   -0.43501E-02   -0.38622E-02 12280   0.797E-01    0.454E-01
DAV:   3    -0.192188762861E+03    0.20642E-02   -0.66010E-03 12360   0.667E-01    0.212E-01
DAV:   4    -0.192188329500E+03    0.43336E-03   -0.14119E-03 10000   0.253E-01    0.136E-01
DAV:   5    -0.192188362084E+03   -0.32584E-04   -0.10041E-03 11080   0.246E-01    0.162E-01
DAV:   6    -0.192188173979E+03    0.18810E-03   -0.72436E-04  9320   0.191E-01    0.647E-02
DAV:   7    -0.192188114408E+03    0.59572E-04   -0.16326E-04  6280   0.688E-02
  28 F= -.19218811E+03 E0= -.19209952E+03  d E =-.154555E-01
       N       E                     dE             d eps       ncg     rms          rms(c)
DAV:   1    -0.192197133773E+03   -0.89598E-02   -0.36663E-01  8160   0.131E+00    0.165E-01
DAV:   2    -0.192198473145E+03   -0.13394E-02   -0.14024E-02 12240   0.432E-01    0.267E-01
DAV:   3    -0.192197994998E+03    0.47815E-03   -0.28330E-03 12440   0.433E-01    0.188E-01
DAV:   4    -0.192197624589E+03    0.37041E-03   -0.70623E-04  9200   0.201E-01    0.772E-02
DAV:   5    -0.192197647199E+03   -0.22610E-04   -0.38659E-04  9240   0.160E-01
  29 F= -.19219765E+03 E0= -.19210954E+03  d E =-.953279E-02
       N       E                     dE             d eps       ncg     rms          rms(c)
DAV:   1    -0.192211189790E+03   -0.13565E-01   -0.93388E-01  8160   0.208E+00    0.244E-01
DAV:   2    -0.192214352559E+03   -0.31628E-02   -0.30740E-02 12360   0.645E-01    0.398E-01
DAV:   3    -0.192213047037E+03    0.13055E-02   -0.52548E-03 11840   0.611E-01    0.237E-01
DAV:   4    -0.192212515800E+03    0.53124E-03   -0.12887E-03 10480   0.278E-01    0.141E-01
DAV:   5    -0.192212464721E+03    0.51079E-04   -0.84552E-04 10360   0.246E-01
  30 F= -.19221246E+03 E0= -.19212555E+03  d E =-.148175E-01
       N       E                     dE             d eps       ncg     rms          rms(c)
DAV:   1    -0.192224379429E+03   -0.11864E-01   -0.72545E-01  8160   0.184E+00    0.225E-01
DAV:   2    -0.192227108169E+03   -0.27287E-02   -0.24211E-02 12360   0.612E-01    0.393E-01
DAV:   3    -0.192225604456E+03    0.15037E-02   -0.44742E-03 11680   0.568E-01    0.192E-01
DAV:   4    -0.192225288626E+03    0.31583E-03   -0.95860E-04 10040   0.238E-01    0.130E-01
DAV:   5    -0.192225232390E+03    0.56237E-04   -0.69713E-04 10200   0.222E-01
  31 F= -.19222523E+03 E0= -.19213939E+03  d E =-.127677E-01
       N       E                     dE             d eps       ncg     rms          rms(c)
DAV:   1    -0.192238813842E+03   -0.13525E-01   -0.97949E-01  8160   0.214E+00    0.259E-01
DAV:   2    -0.192241558584E+03   -0.27447E-02   -0.33487E-02 12200   0.594E-01    0.343E-01
DAV:   3    -0.192241075439E+03    0.48314E-03   -0.58863E-03 11960   0.630E-01    0.312E-01
DAV:   4    -0.192240190760E+03    0.88468E-03   -0.19963E-03 11640   0.350E-01    0.155E-01
DAV:   5    -0.192240075234E+03    0.11553E-03   -0.10064E-03 10680   0.263E-01    0.144E-01
DAV:   6    -0.192239968824E+03    0.10641E-03   -0.73551E-04  9120   0.205E-01    0.874E-02
DAV:   7    -0.192239869795E+03    0.99029E-04   -0.26359E-04  8200   0.103E-01
  32 F= -.19223987E+03 E0= -.19215486E+03  d E =-.146374E-01
       N       E                     dE             d eps       ncg     rms          rms(c)
DAV:   1    -0.192259750262E+03   -0.19781E-01   -0.29825E+00  8160   0.370E+00    0.445E-01
DAV:   2    -0.192271151641E+03   -0.11401E-01   -0.10619E-01 12240   0.124E+00    0.764E-01
DAV:   3    -0.192265936724E+03    0.52149E-02   -0.18536E-02 12240   0.114E+00    0.437E-01
DAV:   4    -0.192264397570E+03    0.15392E-02   -0.51646E-03 12160   0.526E-01    0.267E-01
DAV:   5    -0.192263954184E+03    0.44339E-03   -0.28415E-03 12480   0.451E-01    0.221E-01
DAV:   6    -0.192263694420E+03    0.25976E-03   -0.17557E-03 11360   0.300E-01    0.126E-01
DAV:   7    -0.192263473528E+03    0.22089E-03   -0.75359E-04 10720   0.166E-01    0.809E-02
DAV:   8    -0.192263410094E+03    0.63435E-04   -0.15862E-04  8600   0.112E-01
  33 F= -.19226341E+03 E0= -.19218018E+03  d E =-.235403E-01
       N       E                     dE             d eps       ncg     rms          rms(c)
DAV:   1    -0.192256548853E+03    0.69247E-02   -0.40575E-01  8160   0.137E+00    0.193E-01
DAV:   2    -0.192259043622E+03   -0.24948E-02   -0.18016E-02 12040   0.625E-01    0.423E-01
DAV:   3    -0.192257197283E+03    0.18463E-02   -0.43338E-03 12280   0.562E-01    0.161E-01
DAV:   4    -0.192256906776E+03    0.29051E-03   -0.78153E-04  9880   0.178E-01    0.733E-02
DAV:   5    -0.192256933237E+03   -0.26461E-04   -0.46901E-04  9400   0.144E-01
  34 F= -.19225693E+03 E0= -.19217353E+03  d E =0.647686E-02
       N       E                     dE             d eps       ncg     rms          rms(c)
DAV:   1    -0.192267186137E+03   -0.10279E-01   -0.66643E-01  8160   0.176E+00    0.224E-01
DAV:   2    -0.192272023836E+03   -0.48377E-02   -0.26972E-02 12600   0.775E-01    0.573E-01
DAV:   3    -0.192268298533E+03    0.37253E-02   -0.69475E-03 12160   0.699E-01    0.166E-01
DAV:   4    -0.192268166165E+03    0.13237E-03   -0.11604E-03 10600   0.214E-01    0.125E-01
DAV:   5    -0.192268027986E+03    0.13818E-03   -0.62976E-04 10560   0.207E-01    0.990E-02
DAV:   6    -0.192267961371E+03    0.66615E-04   -0.33526E-04  8360   0.142E-01
  35 F= -.19226796E+03 E0= -.19218544E+03  d E =-.110281E-01
       N       E                     dE             d eps       ncg     rms          rms(c)
DAV:   1    -0.192265248106E+03    0.27799E-02   -0.37577E-02  8160   0.418E-01    0.522E-02
DAV:   2    -0.192265480460E+03   -0.23235E-03   -0.14690E-03 11760   0.176E-01    0.127E-01
DAV:   3    -0.192265304635E+03    0.17583E-03   -0.35724E-04  8960   0.159E-01    0.422E-02
DAV:   4    -0.192265291964E+03    0.12671E-04   -0.55636E-05  6040   0.538E-02
  36 F= -.19226529E+03 E0= -.19218262E+03  d E =0.266941E-02
       N       E                     dE             d eps       ncg     rms          rms(c)
DAV:   1    -0.192271110865E+03   -0.58062E-02   -0.21817E-01  8160   0.101E+00    0.153E-01
DAV:   2    -0.192272945635E+03   -0.18348E-02   -0.10431E-02 11360   0.563E-01    0.388E-01
DAV:   3    -0.192271282430E+03    0.16632E-02   -0.28355E-03 11760   0.458E-01    0.981E-02
DAV:   4    -0.192271265564E+03    0.16867E-04   -0.50476E-04  8320   0.170E-01
  37 F= -.19227127E+03 E0= -.19218940E+03  d E =-.597360E-02
       N       E                     dE             d eps       ncg     rms          rms(c)
DAV:   1    -0.192271725059E+03   -0.44263E-03   -0.17357E-01  8160   0.102E+00    0.247E-01
DAV:   2    -0.192271047548E+03    0.67751E-03   -0.10871E-02 11560   0.384E-01    0.266E-01
DAV:   3    -0.192271126185E+03   -0.78638E-04   -0.48144E-03 11520   0.555E-01    0.336E-01
DAV:   4    -0.192270053109E+03    0.10731E-02   -0.27627E-03 11520   0.428E-01    0.142E-01
DAV:   5    -0.192269835028E+03    0.21808E-03   -0.11004E-03  9880   0.202E-01    0.117E-01
DAV:   6    -0.192269689873E+03    0.14515E-03   -0.38171E-04  9040   0.170E-01    0.534E-02
DAV:   7    -0.192269657380E+03    0.32493E-04   -0.98659E-05  6000   0.733E-02
  38 F= -.19226966E+03 E0= -.19218874E+03  d E =0.160818E-02
       N       E                     dE             d eps       ncg     rms          rms(c)
DAV:   1    -0.192284164875E+03   -0.14475E-01   -0.89338E-01  8160   0.210E+00    0.355E-01
DAV:   2    -0.192283763682E+03    0.40119E-03   -0.35501E-02 10320   0.506E-01    0.262E-01
DAV:   3    -0.192285277720E+03   -0.15140E-02   -0.81463E-03 12280   0.666E-01    0.507E-01
DAV:   4    -0.192282359475E+03    0.29182E-02   -0.46927E-03 11160   0.600E-01    0.150E-01
DAV:   5    -0.192282490152E+03   -0.13068E-03   -0.18044E-03 11200   0.322E-01    0.221E-01
DAV:   6    -0.192281949458E+03    0.54069E-03   -0.11089E-03 10040   0.282E-01    0.605E-02
DAV:   7    -0.192281917085E+03    0.32374E-04   -0.12808E-04  6680   0.754E-02
  39 F= -.19228192E+03 E0= -.19220086E+03  d E =-.122597E-01
       N       E                     dE             d eps       ncg     rms          rms(c)
DAV:   1    -0.192291267579E+03   -0.93181E-02   -0.65143E-01  8160   0.172E+00    0.219E-01
DAV:   2    -0.192294668026E+03   -0.34004E-02   -0.24438E-02 11760   0.703E-01    0.474E-01
DAV:   3    -0.192292338294E+03    0.23297E-02   -0.51641E-03 12240   0.612E-01    0.170E-01
DAV:   4    -0.192292092619E+03    0.24568E-03   -0.83450E-04 10000   0.199E-01    0.102E-01
DAV:   5    -0.192292074917E+03    0.17701E-04   -0.53435E-04 10240   0.196E-01
  40 F= -.19229207E+03 E0= -.19221204E+03  d E =-.101578E-01
       N       E                     dE             d eps       ncg     rms          rms(c)
DAV:   1    -0.192298376931E+03   -0.62843E-02   -0.31586E-01  8160   0.121E+00    0.169E-01
DAV:   2    -0.192300331851E+03   -0.19549E-02   -0.11916E-02 11600   0.529E-01    0.380E-01
DAV:   3    -0.192298705326E+03    0.16265E-02   -0.30102E-03 12240   0.472E-01    0.114E-01
DAV:   4    -0.192298711779E+03   -0.64530E-05   -0.54345E-04  9000   0.178E-01
  41 F= -.19229871E+03 E0= -.19221936E+03  d E =-.663686E-02
       N       E                     dE             d eps       ncg     rms          rms(c)
DAV:   1    -0.192304623610E+03   -0.59183E-02   -0.31149E-01  8160   0.120E+00    0.170E-01
DAV:   2    -0.192306129585E+03   -0.15060E-02   -0.11080E-02 13480   0.460E-01    0.343E-01
DAV:   3    -0.192304961209E+03    0.11684E-02   -0.28297E-03 12440   0.460E-01    0.140E-01
DAV:   4    -0.192304755258E+03    0.20595E-03   -0.45851E-04  9640   0.137E-01    0.561E-02
DAV:   5    -0.192304789970E+03   -0.34712E-04   -0.26162E-04  8600   0.117E-01
  42 F= -.19230479E+03 E0= -.19222591E+03  d E =-.607819E-02
       N       E                     dE             d eps       ncg     rms          rms(c)
DAV:   1    -0.192319972486E+03   -0.15217E-01   -0.49280E+00  8160   0.473E+00    0.567E-01
DAV:   2    -0.192340175926E+03   -0.20203E-01   -0.17352E-01 12520   0.170E+00    0.104E+00
DAV:   3    -0.192329312201E+03    0.10864E-01   -0.29614E-02 12000   0.150E+00    0.498E-01
DAV:   4    -0.192326673021E+03    0.26392E-02   -0.63217E-03 12240   0.575E-01    0.257E-01
DAV:   5    -0.192326668919E+03    0.41021E-05   -0.39187E-03 12560   0.510E-01    0.290E-01
DAV:   6    -0.192326073976E+03    0.59494E-03   -0.26437E-03 11400   0.419E-01    0.160E-01
DAV:   7    -0.192325647320E+03    0.42666E-03   -0.91875E-04 10760   0.180E-01    0.602E-02
DAV:   8    -0.192325632017E+03    0.15303E-04   -0.16159E-04  8720   0.105E-01
  43 F= -.19232563E+03 E0= -.19224863E+03  d E =-.208420E-01
       N       E                     dE             d eps       ncg     rms          rms(c)
DAV:   1    -0.192321902830E+03    0.37445E-02   -0.33206E-01  8160   0.126E+00    0.192E-01
DAV:   2    -0.192323305318E+03   -0.14025E-02   -0.13096E-02 12160   0.521E-01    0.361E-01
DAV:   3    -0.192322110575E+03    0.11947E-02   -0.37271E-03 12400   0.525E-01    0.183E-01
DAV:   4    -0.192321705258E+03    0.40532E-03   -0.86309E-04  9880   0.194E-01    0.718E-02
DAV:   5    -0.192321692388E+03    0.12870E-04   -0.50439E-04  9360   0.146E-01
  44 F= -.19232169E+03 E0= -.19224455E+03  d E =0.393963E-02
       N       E                     dE             d eps       ncg     rms          rms(c)
DAV:   1    -0.192326605245E+03   -0.49000E-02   -0.44304E-01  8160   0.141E+00    0.161E-01
DAV:   2    -0.192328431881E+03   -0.18266E-02   -0.15492E-02 12040   0.473E-01    0.304E-01
DAV:   3    -0.192327527501E+03    0.90438E-03   -0.29042E-03 12640   0.455E-01    0.161E-01
DAV:   4    -0.192327286888E+03    0.24061E-03   -0.67643E-04 10040   0.184E-01    0.701E-02
DAV:   5    -0.192327201237E+03    0.85650E-04   -0.22341E-04  7160   0.750E-02
  45 F= -.19232720E+03 E0= -.19225072E+03  d E =-.550885E-02
       N       E                     dE             d eps       ncg     rms          rms(c)
DAV:   1    -0.192329860267E+03   -0.25734E-02   -0.11508E-01  8160   0.730E-01    0.123E-01
DAV:   2    -0.192331729013E+03   -0.18687E-02   -0.61072E-03 12640   0.514E-01    0.390E-01
DAV:   3    -0.192329918579E+03    0.18104E-02   -0.22447E-03 11640   0.447E-01    0.553E-02
DAV:   4    -0.192329923022E+03   -0.44428E-05   -0.10385E-04  6480   0.692E-02
  46 F= -.19232992E+03 E0= -.19225371E+03  d E =-.272178E-02
       N       E                     dE             d eps       ncg     rms          rms(c)
DAV:   1    -0.192335356019E+03   -0.54374E-02   -0.85881E+00  8160   0.621E+00    0.706E-01
DAV:   2    -0.192362298169E+03   -0.26942E-01   -0.28199E-01 12320   0.193E+00    0.107E+00
DAV:   3    -0.192352885597E+03    0.94126E-02   -0.38841E-02 11520   0.172E+00    0.704E-01
DAV:   4    -0.192347533704E+03    0.53519E-02   -0.11584E-02 12120   0.840E-01    0.341E-01
DAV:   5    -0.192347390874E+03    0.14283E-03   -0.68449E-03 12520   0.661E-01    0.374E-01
DAV:   6    -0.192346471630E+03    0.91924E-03   -0.46185E-03 11320   0.558E-01    0.216E-01
DAV:   7    -0.192345658152E+03    0.81348E-03   -0.14413E-03 10760   0.226E-01    0.609E-02
DAV:   8    -0.192345666881E+03   -0.87294E-05   -0.23196E-04  9240   0.118E-01
  47 F= -.19234567E+03 E0= -.19227179E+03  d E =-.157439E-01
       N       E                     dE             d eps       ncg     rms          rms(c)
DAV:   1    -0.192346711794E+03   -0.10536E-02   -0.10180E-01  8160   0.675E-01    0.805E-02
DAV:   2    -0.192347101603E+03   -0.38981E-03   -0.48981E-03 12360   0.222E-01    0.874E-02
DAV:   3    -0.192347145470E+03   -0.43866E-04   -0.47598E-04 10800   0.194E-01
  48 F= -.19234715E+03 E0= -.19227328E+03  d E =-.147859E-02
       N       E                     dE             d eps       ncg     rms          rms(c)
DAV:   1    -0.192348381744E+03   -0.12801E-02   -0.26254E-01  8160   0.109E+00    0.128E-01
DAV:   2    -0.192349251139E+03   -0.86940E-03   -0.93033E-03 13320   0.366E-01    0.192E-01
DAV:   3    -0.192348977608E+03    0.27353E-03   -0.11938E-03 11440   0.310E-01    0.127E-01
DAV:   4    -0.192348800365E+03    0.17724E-03   -0.34580E-04  8640   0.154E-01    0.596E-02
DAV:   5    -0.192348819497E+03   -0.19132E-04   -0.24328E-04  8320   0.116E-01
  49 F= -.19234882E+03 E0= -.19227533E+03  d E =-.167403E-02
       N       E                     dE             d eps       ncg     rms          rms(c)
DAV:   1    -0.192349676966E+03   -0.87660E-03   -0.10534E-01  8160   0.693E-01    0.936E-02
DAV:   2    -0.192350158504E+03   -0.48154E-03   -0.41781E-03 12480   0.263E-01    0.166E-01
DAV:   3    -0.192349852061E+03    0.30644E-03   -0.78866E-04 10560   0.242E-01    0.709E-02
DAV:   4    -0.192349804819E+03    0.47242E-04   -0.14520E-04  6520   0.893E-02
  50 F= -.19234980E+03 E0= -.19227655E+03  d E =-.985322E-03
