unknown system                          
           1
     8.860053    5.103099    0.000000
    -8.859760    5.102595    0.000000
     0.000000    0.000000   30.000000
   V    Mo   W    S 
   3   3   3  18
Direct configuration=     1
   0.00000000  0.66666669  0.00000000
   0.66666669  0.33333334  0.00000000
   0.33333334  0.00000000  0.00000000
   0.33333334  0.33333334  0.00000000
   1.00000000  0.33333334  0.00000000
   0.66666669  0.66666669  0.00000000
   0.00000000  0.00000000  0.00000000
   0.33333334  0.66666669  0.00000000
   0.66666669  0.00000000  0.00000000
   0.11068511  0.22244981  0.95539999
   0.22244981  0.11068511  0.04460000
   0.11068511  0.55578315  0.95539999
   0.22244981  0.44401845  0.04460000
   0.11068511  0.88911647  0.95539999
   0.22244981  0.77735180  0.04460000
   0.44401845  0.22244981  0.95539999
   0.55578315  0.11068511  0.04460000
   0.44401845  0.55578315  0.95539999
   0.55578315  0.44401845  0.04460000
   0.44401845  0.88911647  0.95539999
   0.55578315  0.77735180  0.04460000
   0.77735180  0.22244981  0.95539999
   0.88911647  0.11068511  0.04460000
   0.77735180  0.55578315  0.95539999
   0.88911647  0.44401845  0.04460000
   0.77735180  0.88911647  0.95539999
   0.88911647  0.77735180  0.04460000
unknown system                          
           1
     8.670009    4.996547    0.000000
    -8.669747    4.996097    0.000000
     0.000000    0.000000   30.000000
   V    Mo   W    S 
   3   3   3  18
Direct configuration=     2
  -0.00121154  0.66538167  0.00004464
   0.66666974  0.33460691 -0.00002275
   0.33337421  0.00122872 -0.00001712
   0.33350634  0.33461499 -0.00024392
   1.00118656  0.33327983  0.00021600
   0.66535606  0.66524684 -0.00016975
   0.00029897  0.00113955 -0.00021980
   0.33293566  0.66382642  0.00026702
   0.66795433  0.00037851  0.00021141
   0.11064555  0.22104518  0.95074401
   0.22360361  0.10815625  0.04796851
   0.10953471  0.55840847  0.95201312
   0.22251401  0.44548546  0.04930896
   0.11272154  0.88707266  0.95304904
   0.22039141  0.77942317  0.04690093
   0.44648666  0.21994633  0.95306722
   0.55370074  0.11271334  0.04694329
   0.44401949  0.55583004  0.95065021
   0.55788773  0.44191314  0.04800168
   0.44237045  0.89082652  0.95206093
   0.55490289  0.77826024  0.04925057
   0.77478822  0.22360309  0.95204364
   0.88820476  0.11032370  0.04934465
   0.77982651  0.55325953  0.95302623
   0.88663718  0.44654070  0.04693497
   0.77824736  0.88948505  0.95069568
   0.89166132  0.77621814  0.04793053
unknown system                          
           1
     8.489034    4.897356    0.000000
    -8.489305    4.897830    0.000000
     0.000000    0.000000   30.000000
   V    Mo   W    S 
   3   3   3  18
Direct configuration=     3
  -0.00151157  0.66508214  0.00009556
   0.66664073  0.33495629 -0.00002551
   0.33334636  0.00154451 -0.00002509
   0.33340247  0.33539630 -0.00025862
   1.00175971  0.33300273  0.00019041
   0.66461759  0.66498011 -0.00014159
   0.00010815  0.00167427 -0.00023058
   0.33297313  0.66274386  0.00027433
   0.66865990  0.00039589  0.00016567
   0.11053209  0.22082439  0.95064093
   0.22341912  0.10803141  0.04793119
   0.10974518  0.55857415  0.95204727
   0.22266670  0.44570124  0.04946770
   0.11261694  0.88716518  0.95313251
   0.22048412  0.77930997  0.04676597
   0.44653145  0.21993121  0.95310475
   0.55380516  0.11264125  0.04685850
   0.44386700  0.55595805  0.95050333
   0.55793340  0.44183385  0.04802946
   0.44245410  0.89070724  0.95221628
   0.55478006  0.77834699  0.04927554
   0.77464076  0.22340826  0.95212153
   0.88813137  0.11008487  0.04942284
   0.77985275  0.55319689  0.95302297
   0.88659479  0.44658369  0.04689026
   0.77834805  0.88972120  0.95068119
   0.89181494  0.77641852  0.04784311
unknown system                          
           1
     8.286763    4.768139    0.000000
    -8.288143    4.770536    0.000000
     0.000000    0.000000   30.000000
   V    Mo   W    S 
   3   3   3  18
Direct configuration=     4
  -0.00237201  0.66424061  0.00026869
   0.66644651  0.33600752 -0.00002635
   0.33315049  0.00253728 -0.00004232
   0.33261307  0.33876018 -0.00021128
   1.00409035  0.33132468  0.00004335
   0.66146511  0.66450023  0.00001058
  -0.00124458  0.00392811 -0.00015575
   0.33356102  0.65865804  0.00018967
   0.67178216  0.00016443 -0.00006641
   0.11061650  0.22085490  0.94861220
   0.22390037  0.10774664  0.04919782
   0.10940896  0.55913212  0.95075674
   0.22277716  0.44553104  0.05174186
   0.11293782  0.88668836  0.95211106
   0.22014774  0.77960987  0.04756329
   0.44707169  0.21962992  0.95194301
   0.55352603  0.11316752  0.04786395
   0.44368856  0.55605286  0.94826701
   0.55835403  0.44108797  0.04954623
   0.44202043  0.89081512  0.95141370
   0.55466395  0.77838398  0.05099704
   0.77421738  0.22392560  0.95099175
   0.88832510  0.10999989  0.05140611
   0.78029006  0.55264202  0.95169939
   0.88608914  0.44694960  0.04800164
   0.77835516  0.88974907  0.94897827
   0.89233225  0.77612687  0.04889863
unknown system                          
           1
     8.311303    4.768244    0.000000
    -8.313132    4.771413    0.000000
     0.000000    0.000000   30.000000
   V    Mo   W    S 
   3   3   3  18
Direct configuration=     5
  -0.00319079  0.66344894  0.00048780
   0.66546024  0.33759567 -0.00002756
   0.33216868  0.00431456 -0.00007230
   0.33111332  0.34538788 -0.00006313
   1.00856847  0.32733310 -0.00011484
   0.65488098  0.66362836  0.00018606
  -0.00392687  0.00858126  0.00002140
   0.33462590  0.65081905  0.00001076
   0.67854431  0.00002711 -0.00034195
   0.11158142  0.22115748  0.94568284
   0.22441159  0.10843992  0.05070395
   0.10920372  0.55899603  0.94921438
   0.22255735  0.44493528  0.05504119
   0.11283540  0.88632805  0.95074449
   0.22012517  0.77933805  0.04857608
   0.44741639  0.22022785  0.95029953
   0.55381051  0.11381982  0.04912066
   0.44373450  0.55566532  0.94493416
   0.55817517  0.44047270  0.05156438
   0.44172466  0.89017401  0.95076479
   0.55415872  0.77835252  0.05331002
   0.77464916  0.22488387  0.94964186
   0.88881820  0.11059998  0.05433166
   0.78017556  0.55231536  0.94989137
   0.88586496  0.44658163  0.04947671
   0.77858932  0.88884703  0.94655467
   0.89213843  0.77594361  0.05006092
unknown system                          
           1
     8.302594    4.761298    0.000000
    -8.303661    4.763138    0.000000
     0.000000    0.000000   30.000000
   V    Mo   W    S 
   3   3   3  18
Direct configuration=     6
  -0.00284071  0.66360705  0.00055528
   0.66471149  0.33798851 -0.00002812
   0.33123485  0.00485980 -0.00013207
   0.33148853  0.34569600 -0.00018076
   1.00853394  0.32625584  0.00002847
   0.65386644  0.66346619  0.00004091
  -0.00415287  0.00943080 -0.00013526
   0.33452923  0.64997615  0.00008083
   0.68036807  0.00025978 -0.00025104
   0.11236488  0.22119963  0.94551289
   0.22415960  0.10927493  0.05066293
   0.10949180  0.55819869  0.94933063
   0.22216172  0.44472223  0.05528943
   0.11231084  0.88665066  0.95083294
   0.22066307  0.77876784  0.04838987
   0.44710710  0.22093872  0.95033923
   0.55435568  0.11363724  0.04890177
   0.44385008  0.55543515  0.94464259
   0.55750849  0.44085523  0.05156336
   0.44215946  0.88949040  0.95118289
   0.55375722  0.77847510  0.05335151
   0.77554811  0.22492248  0.94982003
   0.88899902  0.11100143  0.05468965
   0.77969938  0.55262214  0.95000198
   0.88619903  0.44596192  0.04927958
   0.77880630  0.88824919  0.94641383
   0.89133371  0.77627136  0.04981652
unknown system                          
           1
     8.313011    4.764314    0.000000
    -8.313757    4.765594    0.000000
     0.000000    0.000000   30.000000
   V    Mo   W    S 
   3   3   3  18
Direct configuration=     7
  -0.00232413  0.66356461  0.00070177
   0.66360398  0.33876105  0.00001622
   0.32971704  0.00588869 -0.00017472
   0.33165792  0.34704147 -0.00015054
   1.00923565  0.32439214  0.00006250
   0.65157185  0.66303393 -0.00000082
  -0.00468435  0.01130858 -0.00014805
   0.33440821  0.64749341  0.00003144
   0.68369845  0.00061008 -0.00024036
   0.11305223  0.22136625  0.94504952
   0.22399473  0.10992513  0.05078566
   0.10957818  0.55742110  0.94931824
   0.22198104  0.44432260  0.05579536
   0.11184916  0.88685671  0.95075053
   0.22115426  0.77838699  0.04828193
   0.44694709  0.22151708  0.95014095
   0.55479983  0.11347010  0.04871457
   0.44374630  0.55531228  0.94404874
   0.55705053  0.44116873  0.05176451
   0.44260235  0.88905502  0.95166531
   0.55351482  0.77860356  0.05358837
   0.77627107  0.22501198  0.94990568
   0.88937178  0.11116962  0.05535069
   0.77934566  0.55286564  0.94993745
   0.88639894  0.44539908  0.04919046
   0.77896686  0.88774477  0.94602180
   0.89070500  0.77652386  0.04959268
unknown system                          
           1
     8.321848    4.765370    0.000000
    -8.321763    4.765198    0.000000
     0.000000    0.000000   30.000000
   V    Mo   W    S 
   3   3   3  18
Direct configuration=     8
  -0.00195616  0.66345533  0.00078330
   0.66309751  0.33913752  0.00002095
   0.32892751  0.00637832 -0.00022295
   0.33193175  0.34708639 -0.00018957
   1.00924810  0.32390366  0.00010153
   0.65097622  0.66280019 -0.00004587
  -0.00458506  0.01182282 -0.00020193
   0.33416234  0.64690458  0.00004010
   0.68472483  0.00080023 -0.00020880
   0.11329791  0.22140143  0.94500778
   0.22388845  0.11007270  0.05081334
   0.10957929  0.55711970  0.94937100
   0.22190919  0.44418748  0.05583931
   0.11170419  0.88693834  0.95079017
   0.22135823  0.77834474  0.04816660
   0.44692310  0.22164151  0.95013216
   0.55489399  0.11334237  0.04853282
   0.44368993  0.55524231  0.94397562
   0.55694053  0.44133910  0.05177705
   0.44281434  0.88901956  0.95196318
   0.55343287  0.77868615  0.05354510
   0.77646926  0.22498464  0.95002379
   0.88949895  0.11120678  0.05549626
   0.77925926  0.55296169  0.95002009
   0.88643777  0.44521738  0.04906499
   0.77907843  0.88759546  0.94599663
   0.89051173  0.77662408  0.04940726
unknown system                          
           1
     8.323414    4.765870    0.000000
    -8.323083    4.765269    0.000000
     0.000000    0.000000   30.000000
   V    Mo   W    S 
   3   3   3  18
Direct configuration=     9
  -0.00120267  0.66311139  0.00095875
   0.66205028  0.33999034  0.00003547
   0.32728294  0.00746012 -0.00031100
   0.33241367  0.34750051 -0.00021925
   1.00952927  0.32283298  0.00015085
   0.64945055  0.66223805 -0.00010444
  -0.00447466  0.01310774 -0.00025916
   0.33370436  0.64534236  0.00002600
   0.68704143  0.00116252 -0.00016348
   0.11377325  0.22151852  0.94480808
   0.22370738  0.11036538  0.05093696
   0.10955670  0.55653812  0.94940341
   0.22180068  0.44387498  0.05604268
   0.11139851  0.88705126  0.95079445
   0.22175698  0.77826435  0.04799452
   0.44691416  0.22192311  0.95001864
   0.55508324  0.11313234  0.04822522
   0.44356715  0.55512491  0.94371117
   0.55675151  0.44165650  0.05187928
   0.44317946  0.88893143  0.95252425
   0.55327032  0.77880077  0.05354254
   0.77686106  0.22499530  0.95020460
   0.88980513  0.11127850  0.05586790
   0.77909124  0.55314914  0.95010363
   0.88648565  0.44482405  0.04889276
   0.77928057  0.88726656  0.94586000
   0.89013629  0.77677322  0.04907608
unknown system                          
           1
     8.309998    4.759100    0.000000
    -8.311067    4.760942    0.000000
     0.000000    0.000000   30.000000
   V    Mo   W    S 
   3   3   3  18
Direct configuration=    10
  -0.00097769  0.66298229  0.00100488
   0.66178955  0.34020178  0.00003666
   0.32687796  0.00773727 -0.00033448
   0.33253141  0.34751656 -0.00022301
   1.00959165  0.32263818  0.00015944
   0.64912354  0.66208740 -0.00011652
  -0.00438889  0.01340397 -0.00026791
   0.33355589  0.64501573  0.00002001
   0.68752030  0.00124476 -0.00015046
   0.11386869  0.22155204  0.94477584
   0.22366663  0.11040704  0.05096940
   0.10954257  0.55642252  0.94940749
   0.22179320  0.44380326  0.05607058
   0.11133206  0.88706748  0.95079830
   0.22185133  0.77827558  0.04795345
   0.44692292  0.22197390  0.94998951
   0.55510792  0.11307911  0.04814222
   0.44352644  0.55509990  0.94366976
   0.55672703  0.44172636  0.05190112
   0.44325223  0.88894503  0.95266611
   0.55324252  0.77882346  0.05352674
   0.77692323  0.22499562  0.95025407
   0.88987918  0.11128105  0.05593343
   0.77906822  0.55319321  0.95012964
   0.88647867  0.44473452  0.04885249
   0.77933114  0.88720810  0.94584561
   0.89007674  0.77679834  0.04898553
unknown system                          
           1
     8.333237    4.769392    0.000000
    -8.331628    4.766558    0.000000
     0.000000    0.000000   30.000000
   V    Mo   W    S 
   3   3   3  18
Direct configuration=    11
  -0.00172940  0.66354274  0.00087942
   0.66233668  0.33969269  0.00005798
   0.32783487  0.00712751 -0.00025650
   0.33221280  0.34763510 -0.00020945
   1.00937866  0.32260546  0.00014724
   0.64980087  0.66248375 -0.00009628
  -0.00488201  0.01283820 -0.00024951
   0.33400658  0.64556845  0.00003573
   0.68689742  0.00117005 -0.00018507
   0.11368612  0.22147572  0.94483483
   0.22376680  0.11036278  0.05084227
   0.10962284  0.55668663  0.94944928
   0.22176315  0.44398612  0.05602695
   0.11147923  0.88700712  0.95077806
   0.22160274  0.77813385  0.04803914
   0.44692710  0.22188689  0.95008677
   0.55512781  0.11322223  0.04836411
   0.44365408  0.55520386  0.94372091
   0.55676707  0.44153861  0.05182725
   0.44315477  0.88882820  0.95230127
   0.55333232  0.77882695  0.05359303
   0.77683566  0.22499285  0.95011643
   0.88967561  0.11126848  0.05582514
   0.77910301  0.55304537  0.95004873
   0.88654256  0.44497385  0.04892538
   0.77916082  0.88732078  0.94583473
   0.89015629  0.77679020  0.04926206
unknown system                          
           1
     8.338933    4.771784    0.000000
    -8.336349    4.767245    0.000000
     0.000000    0.000000   30.000000
   V    Mo   W    S 
   3   3   3  18
Direct configuration=    12
   0.00014514  0.66231279  0.00122843
   0.66055281  0.34119779  0.00003415
   0.32497286  0.00904862 -0.00045332
   0.33306829  0.34752519 -0.00024836
   1.00991867  0.32180613  0.00020134
   0.64759522  0.66137757 -0.00017702
  -0.00391430  0.01479374 -0.00031454
   0.33282050  0.64351416 -0.00000624
   0.68967003  0.00159953 -0.00008594
   0.11433465  0.22171317  0.94460112
   0.22348117  0.11060424  0.05114994
   0.10946670  0.55588397  0.94939515
   0.22176315  0.44345971  0.05622891
   0.11101937  0.88714927  0.95080877
   0.22231010  0.77836064  0.04777319
   0.44695391  0.22221314  0.94983201
   0.55520674  0.11282427  0.04775528
   0.44332480  0.55495680  0.94345344
   0.55660263  0.44204672  0.05203355
   0.44357677  0.88903419  0.95333636
   0.55310144  0.77892884  0.05346965
   0.77720456  0.22500421  0.95047748
   0.89023323  0.11130501  0.05626238
   0.77896710  0.55340927  0.95023868
   0.88643028  0.44429997  0.04868371
   0.77959189  0.88693457  0.94576556
   0.88981675  0.77691095  0.04855621
unknown system                          
           1
     8.332664    4.768222    0.000000
    -8.330694    4.764757    0.000000
     0.000000    0.000000   30.000000
   V    Mo   W    S 
   3   3   3  18
Direct configuration=    13
   0.00095071  0.66174574  0.00137891
   0.65971538  0.34186555  0.00002111
   0.32384965  0.00988839 -0.00053974
   0.33336780  0.34737667 -0.00026336
   1.01017205  0.32139049  0.00022731
   0.64667527  0.66087039 -0.00021505
  -0.00347139  0.01571010 -0.00034153
   0.33226279  0.64263224 -0.00002609
   0.69084584  0.00179481 -0.00003572
   0.11461984  0.22183540  0.94449365
   0.22335533  0.11071067  0.05128466
   0.10940046  0.55558683  0.94936357
   0.22176738  0.44324508  0.05631103
   0.11080450  0.88714658  0.95081316
   0.22260434  0.77849077  0.04768264
   0.44699329  0.22236077  0.94971756
   0.55523716  0.11268466  0.04750778
   0.44317236  0.55484816  0.94333964
   0.55655219  0.44223472  0.05212764
   0.44374465  0.88915477  0.95375409
   0.55302465  0.77897633  0.05342353
   0.77732921  0.22503872  0.95061700
   0.89046990  0.11132253  0.05645263
   0.77895188  0.55355575  0.95030703
   0.88634557  0.44401314  0.04859736
   0.77977025  0.88679208  0.94573330
   0.88970342  0.77694313  0.04826778
unknown system                          
           1
     8.332593    4.768163    0.000000
    -8.330586    4.764634    0.000000
     0.000000    0.000000   30.000000
   V    Mo   W    S 
   3   3   3  18
Direct configuration=    14
   0.00045170  0.66216431  0.00129341
   0.66018218  0.34151480  0.00004389
   0.32428265  0.00950816 -0.00048855
   0.33329925  0.34757747 -0.00025985
   1.00999476  0.32148575  0.00021560
   0.64711347  0.66115701 -0.00019749
  -0.00383978  0.01520506 -0.00033523
   0.33262060  0.64301622 -0.00001346
   0.69040831  0.00173110 -0.00006412
   0.11446255  0.22174835  0.94456755
   0.22343104  0.11065569  0.05120041
   0.10946003  0.55574246  0.94940239
   0.22174985  0.44335721  0.05626883
   0.11093772  0.88717538  0.95080272
   0.22243303  0.77835183  0.04770827
   0.44698074  0.22226638  0.94979532
   0.55524342  0.11272877  0.04764497
   0.44328474  0.55493054  0.94339115
   0.55658506  0.44212706  0.05206337
   0.44368320  0.88904347  0.95353541
   0.55307328  0.77898118  0.05345137
   0.77728902  0.22498854  0.95053052
   0.89032673  0.11130326  0.05635555
   0.77893329  0.55345402  0.95026774
   0.88644411  0.44420285  0.04862740
   0.77965544  0.88684212  0.94573495
   0.88972808  0.77695545  0.04845779
unknown system                          
           1
     8.332527    4.770095    0.000000
    -8.331612    4.768475    0.000000
     0.000000    0.000000   30.000000
   V    Mo   W    S 
   3   3   3  18
Direct configuration=    15
   0.00049179  0.66212353  0.00129992
   0.66014602  0.34154331  0.00004165
   0.32425330  0.00953816 -0.00049265
   0.33330590  0.34756688 -0.00025998
   1.01000954  0.32147999  0.00021644
   0.64707379  0.66113166 -0.00019858
  -0.00381326  0.01524983 -0.00033553
   0.33259464  0.64298520 -0.00001411
   0.69044586  0.00173560 -0.00006201
   0.11447037  0.22175369  0.94456456
   0.22342530  0.11065810  0.05120550
   0.10945739  0.55573241  0.94939942
   0.22175223  0.44335113  0.05626962
   0.11092913  0.88717366  0.95080492
   0.22244506  0.77836118  0.04770634
   0.44698271  0.22227407  0.94979071
   0.55524371  0.11272824  0.04763452
   0.44327599  0.55492564  0.94339018
   0.55658344  0.44213447  0.05206609
   0.44368683  0.88904971  0.95355119
   0.55306898  0.77897925  0.05344749
   0.77729084  0.22499150  0.95053868
   0.89033540  0.11130328  0.05635886
   0.77893351  0.55346058  0.95027211
   0.88643511  0.44418737  0.04862482
   0.77966380  0.88684131  0.94573769
   0.88972707  0.77695469  0.04844203
unknown system                          
           1
     8.336787    4.776070    0.000000
    -8.336760    4.776006    0.000000
     0.000000    0.000000   30.000000
   V    Mo   W    S 
   3   3   3  18
Direct configuration=    16
  -0.00022740  0.66269810  0.00118892
   0.66061790  0.34127148  0.00008416
   0.32470730  0.00919037 -0.00042294
   0.33340525  0.34759930 -0.00026472
   1.00976458  0.32160284  0.00020410
   0.64765955  0.66128822 -0.00018230
  -0.00399686  0.01470340 -0.00033667
   0.33297349  0.64347830 -0.00001063
   0.68985420  0.00165388 -0.00008911
   0.11436164  0.22165416  0.94464692
   0.22343031  0.11067098  0.05112083
   0.10947455  0.55582942  0.94945684
   0.22171702  0.44337003  0.05622252
   0.11095173  0.88716131  0.95079458
   0.22229782  0.77825274  0.04771660
   0.44706273  0.22227649  0.94989082
   0.55527555  0.11287634  0.04773048
   0.44335914  0.55495766  0.94344396
   0.55661258  0.44197200  0.05198514
   0.44363236  0.88897150  0.95334234
   0.55311282  0.77896948  0.05345932
   0.77723865  0.22502184  0.95046910
   0.89026779  0.11129842  0.05628140
   0.77891254  0.55327870  0.95026861
   0.88640809  0.44430210  0.04861263
   0.77957316  0.88689284  0.94575084
   0.88976795  0.77697256  0.04863615
unknown system                          
           1
     8.338330    4.772728    0.000000
    -8.336196    4.768985    0.000000
     0.000000    0.000000   30.000000
   V    Mo   W    S 
   3   3   3  18
Direct configuration=    17
  -0.00160950  0.66405312  0.00111015
   0.66098489  0.34142772  0.00020328
   0.32432324  0.00928940 -0.00031855
   0.33409704  0.34777704 -0.00030207
   1.00940042  0.32106470  0.00020606
   0.64822012  0.66100044 -0.00019441
  -0.00418254  0.01416050 -0.00037785
   0.33323819  0.64341324  0.00000173
   0.69001940  0.00193396 -0.00010809
   0.11447668  0.22154826  0.94477982
   0.22327280  0.11090164  0.05108777
   0.10944194  0.55570064  0.94969456
   0.22174295  0.44320183  0.05609817
   0.11078893  0.88715761  0.95073308
   0.22215139  0.77805956  0.04750006
   0.44741484  0.22240919  0.95000441
   0.55537705  0.11298997  0.04761815
   0.44349693  0.55489715  0.94346324
   0.55670048  0.44183975  0.05194877
   0.44371315  0.88893190  0.95339780
   0.55319959  0.77899119  0.05337295
   0.77724534  0.22503482  0.95050132
   0.89035158  0.11123321  0.05625715
   0.77878388  0.55289000  0.95031036
   0.88635541  0.44441220  0.04837708
   0.77955022  0.88680702  0.94579129
   0.88966002  0.77708841  0.04884363
unknown system                          
           1
     8.343405    4.775461    0.000000
    -8.340967    4.771187    0.000000
     0.000000    0.000000   30.000000
   V    Mo   W    S 
   3   3   3  18
Direct configuration=    18
  -0.00036133  0.66338611  0.00138388
   0.65958315  0.34232746  0.00015093
   0.32261395  0.01054419 -0.00048053
   0.33424919  0.34777481 -0.00030693
   1.01001245  0.32024505  0.00023581
   0.64669894  0.66026497 -0.00024715
  -0.00359665  0.01552101 -0.00040406
   0.33235982  0.64182179 -0.00006109
   0.69197315  0.00229167 -0.00003674
   0.11493221  0.22178777  0.94459298
   0.22316134  0.11099085  0.05134534
   0.10935920  0.55528541  0.94967216
   0.22185038  0.44296183  0.05621509
   0.11064866  0.88723772  0.95069595
   0.22260996  0.77836426  0.04734398
   0.44733727  0.22245054  0.94974002
   0.55528397  0.11254103  0.04723686
   0.44331802  0.55478146  0.94331289
   0.55662883  0.44226987  0.05219860
   0.44389276  0.88918887  0.95412955
   0.55309040  0.77897701  0.05327275
   0.77744297  0.22499404  0.95072676
   0.89065022  0.11119840  0.05651231
   0.77877137  0.55326000  0.95030073
   0.88644202  0.44403689  0.04829253
   0.77984110  0.88659787  0.94577792
   0.88942112  0.77711358  0.04839933
unknown system                          
           1
     8.354389    4.780107    0.000000
    -8.349471    4.771503    0.000000
     0.000000    0.000000   30.000000
   V    Mo   W    S 
   3   3   3  18
Direct configuration=    19
  -0.00010809  0.66325128  0.00145177
   0.65921374  0.34260349  0.00014194
   0.32216821  0.01089934 -0.00051849
   0.33437030  0.34766493 -0.00030543
   1.01015523  0.32009799  0.00024711
   0.64639095  0.65999602 -0.00025941
  -0.00332696  0.01585054 -0.00041136
   0.33209423  0.64148031 -0.00007505
   0.69237725  0.00236768 -0.00001588
   0.11507095  0.22184551  0.94453920
   0.22311702  0.11103149  0.05141953
   0.10930870  0.55515453  0.94966241
   0.22186582  0.44286287  0.05625342
   0.11058044  0.88724801  0.95067803
   0.22274146  0.77846467  0.04729999
   0.44735510  0.22250135  0.94967600
   0.55525925  0.11246821  0.04712663
   0.44327013  0.55473357  0.94326230
   0.55661573  0.44234874  0.05225636
   0.44392275  0.88927299  0.95431755
   0.55305811  0.77896247  0.05324828
   0.77749307  0.22503477  0.95078617
   0.89076139  0.11119314  0.05658950
   0.77876146  0.55331680  0.95031207
   0.88641453  0.44391350  0.04825155
   0.77992615  0.88653794  0.94577199
   0.88935753  0.77711232  0.04829373
unknown system                          
           1
     8.363220    4.785146    0.000000
    -8.356660    4.773673    0.000000
     0.000000    0.000000   30.000000
   V    Mo   W    S 
   3   3   3  18
Direct configuration=    20
   0.00173635  0.66201622  0.00182112
   0.65736320  0.34392622  0.00004933
   0.32006164  0.01256273 -0.00074153
   0.33470649  0.34710701 -0.00030445
   1.01100033  0.31963142  0.00030186
   0.64456543  0.65880544 -0.00032636
  -0.00184312  0.01782688 -0.00043371
   0.33065383  0.63972379 -0.00013745
   0.69436426  0.00261022  0.00009046
   0.11567126  0.22213151  0.94431466
   0.22288943  0.11114677  0.05175396
   0.10907927  0.55453726  0.94956629
   0.22198289  0.44246461  0.05639497
   0.11025227  0.88729148  0.95066695
   0.22342176  0.77903051  0.04712233
   0.44733520  0.22276284  0.94936876
   0.55513433  0.11214609  0.04656326
   0.44294049  0.55449496  0.94310447
   0.55651127  0.44278479  0.05250407
   0.44405522  0.88967753  0.95526293
   0.55284086  0.77882977  0.05308379
   0.77772816  0.22518647  0.95114611
   0.89129742  0.11116565  0.05687312
   0.77875304  0.55371773  0.95043491
   0.88622175  0.44323772  0.04807195
   0.78038204  0.88632850  0.94582712
   0.88910939  0.77707031  0.04762097
unknown system                          
           1
     8.360268    4.784649    0.000000
    -8.352967    4.771878    0.000000
     0.000000    0.000000   30.000000
   V    Mo   W    S 
   3   3   3  18
Direct configuration=    21
   0.00340818  0.66058716  0.00210325
   0.65586329  0.34493219 -0.00005850
   0.31878047  0.01380158 -0.00092751
   0.33485509  0.34648416 -0.00029581
   1.01175879  0.31957729  0.00034034
   0.64305332  0.65776855 -0.00037089
  -0.00040613  0.01954271 -0.00043300
   0.32944892  0.63850732 -0.00018075
   0.69564337  0.00270364  0.00018683
   0.11610835  0.22239920  0.94414223
   0.22269085  0.11126506  0.05201814
   0.10887003  0.55408740  0.94942158
   0.22208653  0.44215503  0.05649857
   0.10992370  0.88725876  0.95068980
   0.22398559  0.77956437  0.04704366
   0.44732528  0.22306046  0.94913136
   0.55504027  0.11205057  0.04612329
   0.44258924  0.55425896  0.94300681
   0.55640613  0.44308045  0.05267785
   0.44409944  0.89001419  0.95595464
   0.55262978  0.77868240  0.05295790
   0.77783178  0.22537799  0.95145432
   0.89173727  0.11116274  0.05705786
   0.77879810  0.55406179  0.95057053
   0.88588936  0.44259960  0.04796565
   0.78079644  0.88623489  0.94591083
   0.88900099  0.77699602  0.04701091
unknown system                          
           1
     8.364164    4.786559    0.000000
    -8.356990    4.774009    0.000000
     0.000000    0.000000   30.000000
   V    Mo   W    S 
   3   3   3  18
Direct configuration=    22
   0.00493757  0.65844546  0.00216379
   0.65533713  0.34489681 -0.00023832
   0.31937934  0.01391836 -0.00101807
   0.33406983  0.34594646 -0.00027080
   1.01224740  0.32049386  0.00035683
   0.64212467  0.65758097 -0.00035957
   0.00069606  0.02053830 -0.00035460
   0.32905969  0.63853417 -0.00015136
   0.69555444  0.00247664  0.00022780
   0.11623848  0.22273284  0.94405674
   0.22267188  0.11139590  0.05207042
   0.10875674  0.55402688  0.94915571
   0.22218645  0.44212123  0.05650226
   0.10970573  0.88709279  0.95086842
   0.22430196  0.77993346  0.04720194
   0.44712417  0.22336702  0.94900257
   0.55508334  0.11245763  0.04598750
   0.44205918  0.55397573  0.94301725
   0.55613530  0.44316231  0.05272860
   0.44402535  0.89009650  0.95609730
   0.55232152  0.77851553  0.05293445
   0.77756247  0.22550153  0.95169383
   0.89193604  0.11131294  0.05700586
   0.77902657  0.55447977  0.95072228
   0.88528668  0.44197594  0.04809573
   0.78108421  0.88642627  0.94609683
   0.88930222  0.77680916  0.04640651
unknown system                          
           1
     8.375523    4.796066    0.000000
    -8.368242    4.783322    0.000000
     0.000000    0.000000   30.000000
   V    Mo   W    S 
   3   3   3  18
Direct configuration=    23
   0.00372665  0.66066884  0.00228796
   0.65511404  0.34555069 -0.00007113
   0.31796166  0.01448534 -0.00100520
   0.33518782  0.34634724 -0.00027912
   1.01212410  0.31910620  0.00036246
   0.64256201  0.65717675 -0.00040092
   0.00000159  0.02010062 -0.00044685
   0.32878310  0.63770198 -0.00022235
   0.69645125  0.00288516  0.00020452
   0.11647191  0.22250208  0.94406243
   0.22247155  0.11135947  0.05217642
   0.10872544  0.55376669  0.94945803
   0.22218946  0.44191832  0.05652963
   0.10968591  0.88731446  0.95059852
   0.22427048  0.77984313  0.04691281
   0.44746317  0.22323450  0.94901242
   0.55497515  0.11187733  0.04584768
   0.44253985  0.55416314  0.94294608
   0.55644657  0.44324069  0.05281330
   0.44411309  0.89019233  0.95638980
   0.55258934  0.77854736  0.05284449
   0.77801420  0.22547200  0.95159475
   0.89200631  0.11108236  0.05719024
   0.77869728  0.55405616  0.95059786
   0.88585719  0.44239610  0.04780279
   0.78099326  0.88613585  0.94592652
   0.88879207  0.77708966  0.04686674
unknown system                          
           1
     8.379765    4.798490    0.000000
    -8.371493    4.784017    0.000000
     0.000000    0.000000   30.000000
   V    Mo   W    S 
   3   3   3  18
Direct configuration=    24
   0.00245690  0.66367229  0.00265119
   0.65381261  0.34679156  0.00002931
   0.31588557  0.01591341 -0.00108702
   0.33654325  0.34646850 -0.00026894
   1.01269446  0.31704806  0.00042580
   0.64270594  0.65590168 -0.00050427
   0.00017229  0.02003492 -0.00057751
   0.32755946  0.63584718 -0.00037035
   0.69836140  0.00361093  0.00024216
   0.11754603  0.22251858  0.94397717
   0.22190942  0.11153074  0.05247906
   0.10820604  0.55287752  0.94987276
   0.22245138  0.44130202  0.05657772
   0.10927763  0.88761528  0.95019230
   0.22478623  0.78044753  0.04643488
   0.44803117  0.22351389  0.94879881
   0.55474627  0.11130126  0.04523180
   0.44281683  0.55408388  0.94283245
   0.55675092  0.44353026  0.05320157
   0.44403382  0.89050325  0.95735898