       N       E                     dE             d eps       ncg     rms          rms(c)
DAV:   1     0.112426018667E+04    0.11243E+04   -0.35864E+04  8160   0.577E+02
DAV:   2    -0.301369824621E+00   -0.11246E+04   -0.10813E+04 11040   0.173E+02
DAV:   3    -0.199638374967E+03   -0.19934E+03   -0.19089E+03 10920   0.822E+01
DAV:   4    -0.208959962736E+03   -0.93216E+01   -0.90277E+01 12040   0.262E+01
DAV:   5    -0.209301747461E+03   -0.34178E+00   -0.34076E+00 11680   0.374E+00    0.275E+01
DAV:   6    -0.236701355767E+03   -0.27400E+02   -0.10813E+02 12640   0.604E+01    0.593E+01
DAV:   7    -0.196694612786E+03    0.40007E+02   -0.17831E+02 13160   0.151E+02    0.202E+01
DAV:   8    -0.189935717637E+03    0.67589E+01   -0.20087E+01 11880   0.133E+01    0.134E+01
DAV:   9    -0.188237913386E+03    0.16978E+01   -0.28933E+00 12000   0.622E+00    0.920E+00
DAV:  10    -0.187049795271E+03    0.11881E+01   -0.18681E+00 13320   0.773E+00    0.291E+00
DAV:  11    -0.187026603789E+03    0.23191E-01   -0.62182E-01 13600   0.305E+00    0.308E+00
DAV:  12    -0.187173162196E+03   -0.14656E+00   -0.81968E-01 13080   0.524E+00    0.577E+00
DAV:  13    -0.186921942333E+03    0.25122E+00   -0.77694E-01 12720   0.415E+00    0.213E+00
DAV:  14    -0.186875636018E+03    0.46306E-01   -0.11892E-01 13320   0.203E+00    0.793E-01
DAV:  15    -0.186869223675E+03    0.64123E-02   -0.11827E-02 13080   0.430E-01    0.259E-01
DAV:  16    -0.186870349583E+03   -0.11259E-02   -0.74956E-03 13120   0.487E-01    0.520E-01
DAV:  17    -0.186868299178E+03    0.20504E-02   -0.59468E-03 12600   0.451E-01    0.226E-01
DAV:  18    -0.186867695290E+03    0.60389E-03   -0.11998E-03 11440   0.151E-01    0.585E-02
DAV:  19    -0.186868310059E+03   -0.61477E-03   -0.76741E-04  9320   0.630E-02    0.853E-02
DAV:  20    -0.186868584875E+03   -0.27482E-03   -0.37741E-04  8120   0.543E-02    0.448E-02
DAV:  21    -0.186869799197E+03   -0.12143E-02   -0.31703E-04  8800   0.549E-02    0.339E-02
DAV:  22    -0.186871218067E+03   -0.14189E-02   -0.16573E-04  7960   0.378E-02    0.131E-02
DAV:  23    -0.186871859400E+03   -0.64133E-03   -0.30023E-05  6280   0.156E-02    0.743E-03
DAV:  24    -0.186872112972E+03   -0.25357E-03   -0.13293E-05  6040   0.103E-02    0.552E-03
DAV:  25    -0.186872471962E+03   -0.35899E-03   -0.12612E-05  5440   0.908E-03    0.285E-03
DAV:  26    -0.186872698768E+03   -0.22681E-03   -0.86464E-06  6800   0.608E-03    0.266E-03
DAV:  27    -0.186872797774E+03   -0.99007E-04   -0.37401E-06  7080   0.454E-03
   1 F= -.18687280E+03 E0= -.18670124E+03  d E =-.186873E+03
       N       E                     dE             d eps       ncg     rms          rms(c)
DAV:   1    -0.187493745043E+03   -0.62105E+00   -0.26997E+02  8160   0.349E+01    0.459E+00
DAV:   2    -0.189301967859E+03   -0.18082E+01   -0.19992E+01 12240   0.149E+01    0.831E+00
DAV:   3    -0.189414135653E+03   -0.11217E+00   -0.42207E+00 12360   0.120E+01    0.696E+00
DAV:   4    -0.188762514421E+03    0.65162E+00   -0.62524E-01 12160   0.491E+00    0.201E+00
DAV:   5    -0.188876578595E+03   -0.11406E+00   -0.43341E-01 11200   0.361E+00    0.537E+00
DAV:   6    -0.188745230611E+03    0.13135E+00   -0.78989E-01 12680   0.434E+00    0.236E+00
DAV:   7    -0.188682094245E+03    0.63136E-01   -0.18460E-01 11320   0.139E+00    0.107E+00
DAV:   8    -0.188666285372E+03    0.15809E-01   -0.48868E-02 11480   0.685E-01    0.653E-01
DAV:   9    -0.188661466637E+03    0.48187E-02   -0.91328E-03 12240   0.310E-01    0.344E-01
DAV:  10    -0.188660886845E+03    0.57979E-03   -0.34328E-03 12960   0.261E-01    0.194E-01
DAV:  11    -0.188661028014E+03   -0.14117E-03   -0.24902E-03 13120   0.276E-01    0.275E-01
DAV:  12    -0.188660615199E+03    0.41282E-03   -0.14364E-03 11400   0.214E-01    0.118E-01
DAV:  13    -0.188660583561E+03    0.31638E-04   -0.26532E-04  7480   0.798E-02
   2 F= -.18866058E+03 E0= -.18851957E+03  d E =-.178779E+01
       N       E                     dE             d eps       ncg     rms          rms(c)
DAV:   1    -0.190571969280E+03   -0.19114E+01   -0.30754E+01  9160   0.141E+01    0.445E+00
DAV:   2    -0.190564980337E+03    0.69889E-02   -0.28080E+00 11280   0.969E+00    0.748E+00
DAV:   3    -0.190050859000E+03    0.51412E+00   -0.13607E+00 12320   0.863E+00    0.418E+00
DAV:   4    -0.189853057990E+03    0.19780E+00   -0.73225E-01 12720   0.412E+00    0.268E+00
DAV:   5    -0.189900029774E+03   -0.46972E-01   -0.48352E-01 12360   0.421E+00    0.383E+00
DAV:   6    -0.189746002370E+03    0.15403E+00   -0.21964E-01 12320   0.322E+00    0.615E-01
DAV:   7    -0.189740153504E+03    0.58489E-02   -0.14915E-02 11920   0.458E-01    0.211E-01
DAV:   8    -0.189740170625E+03   -0.17122E-04   -0.28205E-03 10320   0.155E-01    0.147E-01
DAV:   9    -0.189740311801E+03   -0.14118E-03   -0.98291E-04 10800   0.137E-01    0.146E-01
DAV:  10    -0.189740853247E+03   -0.54145E-03   -0.15763E-03 10400   0.263E-01    0.269E-01
DAV:  11    -0.189740205448E+03    0.64780E-03   -0.98547E-04  9480   0.202E-01    0.224E-02
DAV:  12    -0.189740227073E+03   -0.21625E-04   -0.62805E-05  5880   0.270E-02
   3 F= -.18974023E+03 E0= -.18962119E+03  d E =-.107964E+01
       N       E                     dE             d eps       ncg     rms          rms(c)
DAV:   1    -0.191282648968E+03   -0.15424E+01   -0.70094E+01  8160   0.192E+01    0.460E+00
DAV:   2    -0.191158596975E+03    0.12405E+00   -0.53601E+00 13440   0.827E+00    0.517E+00
DAV:   3    -0.191196684584E+03   -0.38088E-01   -0.15532E+00 12200   0.921E+00    0.624E+00
DAV:   4    -0.190808947673E+03    0.38774E+00   -0.11304E+00 12960   0.679E+00    0.253E+00
DAV:   5    -0.190711353865E+03    0.97594E-01   -0.27939E-01 11240   0.211E+00    0.102E+00
DAV:   6    -0.190708559142E+03    0.27947E-02   -0.87399E-02 12720   0.176E+00    0.131E+00
DAV:   7    -0.190698691266E+03    0.98679E-02   -0.49200E-02 11680   0.150E+00    0.679E-01
DAV:   8    -0.190692796720E+03    0.58945E-02   -0.77248E-03 11080   0.499E-01    0.150E-01
DAV:   9    -0.190693038448E+03   -0.24173E-03   -0.15976E-03 10520   0.123E-01    0.136E-01
DAV:  10    -0.190692936156E+03    0.10229E-03   -0.11755E-03 10880   0.129E-01    0.619E-02
DAV:  11    -0.190693010153E+03   -0.73997E-04   -0.37457E-04  9080   0.122E-01
   4 F= -.19069301E+03 E0= -.19059163E+03  d E =-.952783E+00
       N       E                     dE             d eps       ncg     rms          rms(c)
DAV:   1    -0.192150490860E+03   -0.14576E+01   -0.15367E+02  8160   0.279E+01    0.586E+00
DAV:   2    -0.191832926111E+03    0.31756E+00   -0.98251E+00 12360   0.835E+00    0.400E+00
DAV:   3    -0.191918311099E+03   -0.85385E-01   -0.18569E+00 12240   0.918E+00    0.648E+00
DAV:   4    -0.191631174449E+03    0.28714E+00   -0.17344E+00 12320   0.100E+01    0.393E+00
DAV:   5    -0.191383900474E+03    0.24727E+00   -0.45134E-01 12120   0.378E+00    0.114E+00
DAV:   6    -0.191399039545E+03   -0.15139E-01   -0.18404E-01 12720   0.251E+00    0.193E+00
DAV:   7    -0.191369948414E+03    0.29091E-01   -0.11453E-01 12080   0.213E+00    0.659E-01
DAV:   8    -0.191363099731E+03    0.68487E-02   -0.10954E-02 10200   0.574E-01    0.227E-01
DAV:   9    -0.191363983894E+03   -0.88416E-03   -0.38997E-03 12920   0.431E-01    0.351E-01
DAV:  10    -0.191363120393E+03    0.86350E-03   -0.33982E-03 11120   0.348E-01    0.821E-02
DAV:  11    -0.191363122515E+03   -0.21226E-05   -0.51042E-04 10560   0.877E-02
   5 F= -.19136312E+03 E0= -.19126731E+03  d E =-.670112E+00
       N       E                     dE             d eps       ncg     rms          rms(c)
DAV:   1    -0.191453196344E+03   -0.90076E-01   -0.80997E+00  8160   0.600E+00    0.779E-01
DAV:   2    -0.191536085050E+03   -0.82889E-01   -0.34153E-01 12880   0.337E+00    0.252E+00
DAV:   3    -0.191465890336E+03    0.70195E-01   -0.13136E-01 12440   0.276E+00    0.442E-01
DAV:   4    -0.191464748457E+03    0.11419E-02   -0.98877E-03 11120   0.493E-01    0.382E-01
DAV:   5    -0.191464021065E+03    0.72739E-03   -0.64063E-03 11600   0.569E-01    0.373E-01
DAV:   6    -0.191463022992E+03    0.99807E-03   -0.40965E-03 11800   0.437E-01    0.182E-01
DAV:   7    -0.191462696942E+03    0.32605E-03   -0.14480E-03 11400   0.182E-01    0.837E-02
DAV:   8    -0.191462697844E+03   -0.90204E-06   -0.55320E-04  9520   0.150E-01
   6 F= -.19146270E+03 E0= -.19136390E+03  d E =-.995753E-01
       N       E                     dE             d eps       ncg     rms          rms(c)
DAV:   1    -0.191463825275E+03   -0.11283E-02   -0.14586E-03 10520   0.133E-01    0.323E-02
DAV:   2    -0.191463982877E+03   -0.15760E-03   -0.39450E-04  8760   0.126E-01    0.116E-01
DAV:   3    -0.191463839253E+03    0.14362E-03   -0.28893E-04  7400   0.123E-01    0.259E-02
DAV:   4    -0.191463850835E+03   -0.11582E-04   -0.39374E-05  6040   0.343E-02
   7 F= -.19146385E+03 E0= -.19136508E+03  d E =-.115299E-02
       N       E                     dE             d eps       ncg     rms          rms(c)
DAV:   1    -0.191483676841E+03   -0.19838E-01   -0.40770E-01  8160   0.134E+00    0.172E-01
DAV:   2    -0.191487983714E+03   -0.43069E-02   -0.16153E-02 12480   0.716E-01    0.613E-01
DAV:   3    -0.191484068405E+03    0.39153E-02   -0.81383E-03 11760   0.629E-01    0.124E-01
DAV:   4    -0.191484167381E+03   -0.98976E-04   -0.10021E-03  9360   0.204E-01    0.151E-01
DAV:   5    -0.191483944933E+03    0.22245E-03   -0.49361E-04  8680   0.163E-01    0.533E-02
DAV:   6    -0.191483940498E+03    0.44356E-05   -0.12324E-04  6400   0.648E-02
   8 F= -.19148394E+03 E0= -.19138489E+03  d E =-.200897E-01
       N       E                     dE             d eps       ncg     rms          rms(c)
DAV:   1    -0.191544439100E+03   -0.60494E-01   -0.33384E+00  8160   0.385E+00    0.482E-01
DAV:   2    -0.191575619446E+03   -0.31180E-01   -0.12121E-01 12960   0.190E+00    0.161E+00
DAV:   3    -0.191548709118E+03    0.26910E-01   -0.53246E-02 12000   0.171E+00    0.359E-01
DAV:   4    -0.191549277647E+03   -0.56853E-03   -0.72396E-03 11000   0.573E-01    0.436E-01
DAV:   5    -0.191547345264E+03    0.19324E-02   -0.38959E-03 11560   0.469E-01    0.154E-01
DAV:   6    -0.191547235971E+03    0.10929E-03   -0.11919E-03 10120   0.177E-01    0.121E-01
DAV:   7    -0.191547506378E+03   -0.27041E-03   -0.15033E-03 10480   0.259E-01    0.212E-01
DAV:   8    -0.191547043007E+03    0.46337E-03   -0.84208E-04  8320   0.202E-01    0.292E-02
DAV:   9    -0.191547054577E+03   -0.11570E-04   -0.52082E-05  5720   0.319E-02
   9 F= -.19154705E+03 E0= -.19144787E+03  d E =-.631141E-01
       N       E                     dE             d eps       ncg     rms          rms(c)
DAV:   1    -0.191558049713E+03   -0.11007E-01   -0.15478E-01  8160   0.871E-01    0.176E-01
DAV:   2    -0.191561135560E+03   -0.30858E-02   -0.12467E-02 11600   0.678E-01    0.561E-01
DAV:   3    -0.191557899606E+03    0.32360E-02   -0.61852E-03 11960   0.578E-01    0.118E-01
DAV:   4    -0.191558073889E+03   -0.17428E-03   -0.11861E-03 10080   0.240E-01    0.180E-01
DAV:   5    -0.191557753239E+03    0.32065E-03   -0.83265E-04  9280   0.210E-01    0.775E-02
DAV:   6    -0.191557681107E+03    0.72131E-04   -0.21229E-04  5480   0.807E-02
  10 F= -.19155768E+03 E0= -.19145844E+03  d E =-.106265E-01
       N       E                     dE             d eps       ncg     rms          rms(c)
DAV:   1    -0.191533663333E+03    0.24090E-01   -0.42563E-01  8160   0.139E+00    0.168E-01
DAV:   2    -0.191537031844E+03   -0.33685E-02   -0.15824E-02 13200   0.665E-01    0.493E-01
DAV:   3    -0.191534209489E+03    0.28224E-02   -0.46335E-03 11400   0.541E-01    0.110E-01
DAV:   4    -0.191534273343E+03   -0.63854E-04   -0.72805E-04  8920   0.180E-01
  11 F= -.19153427E+03 E0= -.19143476E+03  d E =0.234078E-01
       N       E                     dE             d eps       ncg     rms          rms(c)
DAV:   1    -0.191467526175E+03    0.66683E-01   -0.47051E+00  8160   0.473E+00    0.793E-01
DAV:   2    -0.191511369712E+03   -0.43844E-01   -0.24110E-01 12720   0.279E+00    0.196E+00
DAV:   3    -0.191465798996E+03    0.45571E-01   -0.79720E-02 12080   0.220E+00    0.500E-01
DAV:   4    -0.191466558014E+03   -0.75902E-03   -0.21650E-02 11400   0.872E-01    0.698E-01
DAV:   5    -0.191463089123E+03    0.34689E-02   -0.19226E-02 12040   0.955E-01    0.458E-01
DAV:   6    -0.191460666621E+03    0.24225E-02   -0.67026E-03 11440   0.460E-01    0.144E-01
DAV:   7    -0.191460721760E+03   -0.55139E-04   -0.17608E-03 12040   0.243E-01    0.179E-01
DAV:   8    -0.191460456668E+03    0.26509E-03   -0.88871E-04  9080   0.219E-01    0.844E-02
DAV:   9    -0.191460378405E+03    0.78263E-04   -0.14216E-04  5840   0.798E-02
  12 F= -.19146038E+03 E0= -.19136260E+03  d E =0.738949E-01
       N       E                     dE             d eps       ncg     rms          rms(c)
DAV:   1    -0.191625050046E+03   -0.16459E+00   -0.22353E+01  8160   0.102E+01    0.142E+00
DAV:   2    -0.191859963121E+03   -0.23491E+00   -0.96844E-01 13360   0.574E+00    0.466E+00
DAV:   3    -0.191652525353E+03    0.20744E+00   -0.45944E-01 12320   0.497E+00    0.993E-01
DAV:   4    -0.191659797522E+03   -0.72722E-02   -0.71063E-02 12320   0.187E+00    0.148E+00
DAV:   5    -0.191637895163E+03    0.21902E-01   -0.50331E-02 12400   0.161E+00    0.531E-01
DAV:   6    -0.191635696818E+03    0.21983E-02   -0.15518E-02 11480   0.638E-01    0.417E-01
DAV:   7    -0.191637392666E+03   -0.16958E-02   -0.14045E-02 12120   0.842E-01    0.620E-01
DAV:   8    -0.191633422846E+03    0.39698E-02   -0.67046E-03 11440   0.580E-01    0.875E-02
DAV:   9    -0.191633328813E+03    0.94033E-04   -0.48967E-04 10000   0.859E-02
  13 F= -.19163333E+03 E0= -.19153534E+03  d E =-.172950E+00
       N       E                     dE             d eps       ncg     rms          rms(c)
DAV:   1    -0.191694768474E+03   -0.61346E-01   -0.32688E+00  8160   0.383E+00    0.451E-01
DAV:   2    -0.191718000946E+03   -0.23232E-01   -0.11579E-01 12800   0.180E+00    0.131E+00
DAV:   3    -0.191699960756E+03    0.18040E-01   -0.35532E-02 12080   0.147E+00    0.324E-01
DAV:   4    -0.191700409723E+03   -0.44897E-03   -0.55790E-03 10640   0.508E-01    0.409E-01
DAV:   5    -0.191698783479E+03    0.16262E-02   -0.36052E-03 11280   0.464E-01    0.167E-01
DAV:   6    -0.191698693950E+03    0.89529E-04   -0.13060E-03 10320   0.188E-01    0.119E-01
DAV:   7    -0.191698752279E+03   -0.58330E-04   -0.10772E-03 10880   0.211E-01    0.171E-01
DAV:   8    -0.191698454946E+03    0.29733E-03   -0.52300E-04  8600   0.164E-01    0.242E-02
DAV:   9    -0.191698464327E+03   -0.93813E-05   -0.36492E-05  5760   0.271E-02
  14 F= -.19169846E+03 E0= -.19160228E+03  d E =-.651355E-01
       N       E                     dE             d eps       ncg     rms          rms(c)
DAV:   1    -0.191814762855E+03   -0.11631E+00   -0.13648E+01  8160   0.790E+00    0.909E-01
DAV:   2    -0.191895029325E+03   -0.80266E-01   -0.49077E-01 13000   0.343E+00    0.237E+00
DAV:   3    -0.191839131775E+03    0.55898E-01   -0.12478E-01 12120   0.281E+00    0.684E-01
DAV:   4    -0.191839255054E+03   -0.12328E-03   -0.21478E-02 12000   0.105E+00    0.807E-01
DAV:   5    -0.191832677367E+03    0.65777E-02   -0.14192E-02 11320   0.968E-01    0.365E-01
DAV:   6    -0.191832167736E+03    0.50963E-03   -0.64077E-03 12600   0.427E-01    0.251E-01
DAV:   7    -0.191831472276E+03    0.69546E-03   -0.33984E-03 11200   0.338E-01    0.235E-01
DAV:   8    -0.191830957175E+03    0.51510E-03   -0.12318E-03  9760   0.249E-01    0.584E-02
DAV:   9    -0.191830927476E+03    0.29699E-04   -0.12000E-04  6200   0.564E-02
  15 F= -.19183093E+03 E0= -.19173943E+03  d E =-.132463E+00
       N       E                     dE             d eps       ncg     rms          rms(c)
DAV:   1    -0.191910661012E+03   -0.79704E-01   -0.10193E+02  8160   0.219E+01    0.228E+00
DAV:   2    -0.192284931059E+03   -0.37427E+00   -0.35795E+00 12160   0.727E+00    0.410E+00
DAV:   3    -0.192159671545E+03    0.12526E+00   -0.58801E-01 12000   0.633E+00    0.217E+00
DAV:   4    -0.192114301746E+03    0.45370E-01   -0.11742E-01 12520   0.267E+00    0.156E+00
DAV:   5    -0.192091868695E+03    0.22433E-01   -0.68424E-02 11200   0.229E+00    0.109E+00
DAV:   6    -0.192085386055E+03    0.64826E-02   -0.48660E-02 12640   0.137E+00    0.641E-01
DAV:   7    -0.192076781338E+03    0.86047E-02   -0.15679E-02 10920   0.575E-01    0.229E-01
DAV:   8    -0.192077183516E+03   -0.40218E-03   -0.39178E-03 13400   0.443E-01    0.275E-01
DAV:   9    -0.192076252943E+03    0.93057E-03   -0.16936E-03 11720   0.285E-01    0.681E-02
DAV:  10    -0.192076201179E+03    0.51763E-04   -0.46197E-04  8960   0.678E-02
  16 F= -.19207620E+03 E0= -.19199251E+03  d E =-.245274E+00
       N       E                     dE             d eps       ncg     rms          rms(c)
DAV:   1    -0.192075294342E+03    0.95860E-03   -0.33769E+00  8160   0.390E+00    0.361E-01
DAV:   2    -0.192077765691E+03   -0.24713E-02   -0.59799E-02 11040   0.704E-01    0.325E-01
DAV:   3    -0.192078600957E+03   -0.83527E-03   -0.10165E-02 11440   0.711E-01    0.516E-01
DAV:   4    -0.192075982734E+03    0.26182E-02   -0.51532E-03 12120   0.573E-01    0.184E-01
DAV:   5    -0.192076254357E+03   -0.27162E-03   -0.23898E-03 11680   0.372E-01    0.249E-01
DAV:   6    -0.192075584400E+03    0.66996E-03   -0.16515E-03 10920   0.355E-01    0.113E-01
DAV:   7    -0.192075444481E+03    0.13992E-03   -0.40531E-04  9600   0.130E-01    0.461E-02
DAV:   8    -0.192075431563E+03    0.12918E-04   -0.10631E-04  8120   0.745E-02
  17 F= -.19207543E+03 E0= -.19199090E+03  d E =0.769616E-03
       N       E                     dE             d eps       ncg     rms          rms(c)
DAV:   1    -0.192100693300E+03   -0.25249E-01   -0.14835E+01  8160   0.821E+00    0.848E-01
DAV:   2    -0.192140497005E+03   -0.39804E-01   -0.54717E-01 12160   0.209E+00    0.760E-01
DAV:   3    -0.192151971564E+03   -0.11475E-01   -0.51148E-02 12360   0.194E+00    0.131E+00
DAV:   4    -0.192132278353E+03    0.19693E-01   -0.24318E-02 12400   0.139E+00    0.345E-01
DAV:   5    -0.192134026559E+03   -0.17482E-02   -0.88635E-03 11400   0.806E-01    0.531E-01
DAV:   6    -0.192131041345E+03    0.29852E-02   -0.72978E-03 12640   0.678E-01    0.187E-01
DAV:   7    -0.192130323569E+03    0.71778E-03   -0.13834E-03 10760   0.161E-01    0.448E-02
DAV:   8    -0.192130309295E+03    0.14274E-04   -0.26176E-04  8840   0.667E-02
  18 F= -.19213031E+03 E0= -.19204704E+03  d E =-.548777E-01
       N       E                     dE             d eps       ncg     rms          rms(c)
DAV:   1    -0.192131588360E+03   -0.12648E-02   -0.77559E-01  8160   0.189E+00    0.187E-01
DAV:   2    -0.192132774953E+03   -0.11866E-02   -0.20551E-02 11000   0.420E-01    0.172E-01
DAV:   3    -0.192133174244E+03   -0.39929E-03   -0.30378E-03 12560   0.411E-01    0.284E-01
DAV:   4    -0.192132300149E+03    0.87409E-03   -0.14385E-03 11160   0.309E-01    0.767E-02
DAV:   5    -0.192132285299E+03    0.14850E-04   -0.41552E-04  9400   0.114E-01
  19 F= -.19213229E+03 E0= -.19204908E+03  d E =-.197600E-02
       N       E                     dE             d eps       ncg     rms          rms(c)
DAV:   1    -0.192142236614E+03   -0.99365E-02   -0.65701E-01  8160   0.172E+00    0.215E-01
DAV:   2    -0.192145710211E+03   -0.34736E-02   -0.27475E-02 10200   0.657E-01    0.398E-01
DAV:   3    -0.192143937129E+03    0.17731E-02   -0.43407E-03 12560   0.581E-01    0.160E-01
DAV:   4    -0.192143607213E+03    0.32992E-03   -0.57570E-04 10200   0.174E-01    0.683E-02
DAV:   5    -0.192143806151E+03   -0.19894E-03   -0.55342E-04 10160   0.194E-01    0.151E-01
DAV:   6    -0.192143591982E+03    0.21417E-03   -0.49367E-04  8520   0.177E-01    0.428E-02
DAV:   7    -0.192143567189E+03    0.24793E-04   -0.86662E-05  6560   0.468E-02
  20 F= -.19214357E+03 E0= -.19206070E+03  d E =-.112819E-01
       N       E                     dE             d eps       ncg     rms          rms(c)
DAV:   1    -0.192150714328E+03   -0.71223E-02   -0.34799E-01  8160   0.127E+00    0.160E-01
DAV:   2    -0.192151570011E+03   -0.85568E-03   -0.14485E-02 10080   0.312E-01    0.121E-01
DAV:   3    -0.192151907257E+03   -0.33725E-03   -0.15472E-03 13160   0.322E-01    0.219E-01
DAV:   4    -0.192151316537E+03    0.59072E-03   -0.76899E-04 10040   0.247E-01    0.614E-02
DAV:   5    -0.192151429345E+03   -0.11281E-03   -0.38388E-04  8560   0.160E-01    0.117E-01
DAV:   6    -0.192151284063E+03    0.14528E-03   -0.28768E-04  8080   0.140E-01    0.285E-02
DAV:   7    -0.192151277028E+03    0.70343E-05   -0.53738E-05  6640   0.381E-02
  21 F= -.19215128E+03 E0= -.19206856E+03  d E =-.770984E-02
       N       E                     dE             d eps       ncg     rms          rms(c)
DAV:   1    -0.192149728585E+03    0.15555E-02   -0.19127E+01  8160   0.936E+00    0.105E+00
DAV:   2    -0.192205909335E+03   -0.56181E-01   -0.75426E-01 10920   0.228E+00    0.897E-01
DAV:   3    -0.192218046333E+03   -0.12137E-01   -0.66059E-02 12400   0.224E+00    0.143E+00
DAV:   4    -0.192193462828E+03    0.24584E-01   -0.31959E-02 12040   0.163E+00    0.439E-01
DAV:   5    -0.192197706376E+03   -0.42435E-02   -0.17047E-02 11760   0.111E+00    0.748E-01
DAV:   6    -0.192191309337E+03    0.63970E-02   -0.10118E-02 11840   0.794E-01    0.146E-01
DAV:   7    -0.192191069132E+03    0.24020E-03   -0.16915E-03 11280   0.220E-01    0.119E-01
DAV:   8    -0.192190974399E+03    0.94734E-04   -0.53221E-04  9640   0.181E-01
  22 F= -.19219097E+03 E0= -.19210973E+03  d E =-.396974E-01
       N       E                     dE             d eps       ncg     rms          rms(c)
DAV:   1    -0.192192786974E+03   -0.17178E-02   -0.13030E-01  8160   0.802E-01    0.134E-01
DAV:   2    -0.192192886915E+03   -0.99941E-04   -0.57631E-03 11360   0.223E-01    0.122E-01
DAV:   3    -0.192193009005E+03   -0.12209E-03   -0.12263E-03 11560   0.288E-01    0.181E-01
DAV:   4    -0.192192630209E+03    0.37880E-03   -0.58334E-04  9760   0.211E-01    0.665E-02
DAV:   5    -0.192192664356E+03   -0.34147E-04   -0.28036E-04  8720   0.153E-01
  23 F= -.19219266E+03 E0= -.19211162E+03  d E =-.168996E-02
       N       E                     dE             d eps       ncg     rms          rms(c)
DAV:   1    -0.192195960418E+03   -0.33302E-02   -0.10371E+00  8160   0.217E+00    0.253E-01
DAV:   2    -0.192198758083E+03   -0.27977E-02   -0.42382E-02 10560   0.555E-01    0.172E-01
DAV:   3    -0.192199503609E+03   -0.74553E-03   -0.31331E-03 12880   0.456E-01    0.325E-01
DAV:   4    -0.192198257674E+03    0.12459E-02   -0.17372E-03 11840   0.386E-01    0.102E-01
DAV:   5    -0.192198548073E+03   -0.29040E-03   -0.87200E-04  9960   0.240E-01    0.178E-01
DAV:   6    -0.192198192079E+03    0.35599E-03   -0.59718E-04 10600   0.215E-01    0.483E-02
DAV:   7    -0.192198157144E+03    0.34936E-04   -0.87504E-05  6360   0.564E-02
  24 F= -.19219816E+03 E0= -.19211746E+03  d E =-.549279E-02
       N       E                     dE             d eps       ncg     rms          rms(c)
DAV:   1    -0.192200361176E+03   -0.21691E-02   -0.12232E+00  8160   0.235E+00    0.264E-01
DAV:   2    -0.192204202556E+03   -0.38414E-02   -0.52748E-02 10320   0.651E-01    0.197E-01
DAV:   3    -0.192204997304E+03   -0.79475E-03   -0.37046E-03 13280   0.515E-01    0.334E-01
DAV:   4    -0.192203613920E+03    0.13834E-02   -0.19060E-03 11080   0.399E-01    0.101E-01
DAV:   5    -0.192203973810E+03   -0.35989E-03   -0.11246E-03 10600   0.266E-01    0.193E-01
DAV:   6    -0.192203572313E+03    0.40150E-03   -0.80275E-04 10040   0.232E-01    0.434E-02
DAV:   7    -0.192203540279E+03    0.32034E-04   -0.86493E-05  6640   0.490E-02
  25 F= -.19220354E+03 E0= -.19212322E+03  d E =-.538314E-02
       N       E                     dE             d eps       ncg     rms          rms(c)
DAV:   1    -0.192204669533E+03   -0.10972E-02   -0.85214E-01  8160   0.197E+00    0.223E-01
DAV:   2    -0.192207096846E+03   -0.24273E-02   -0.36248E-02 10240   0.512E-01    0.119E-01
DAV:   3    -0.192206883106E+03    0.21374E-03   -0.97969E-04 11400   0.112E-01    0.787E-02
DAV:   4    -0.192206861239E+03    0.21867E-04   -0.54198E-04  9600   0.108E-01
  26 F= -.19220686E+03 E0= -.19212654E+03  d E =-.332096E-02
       N       E                     dE             d eps       ncg     rms          rms(c)
DAV:   1    -0.192207519656E+03   -0.63655E-03   -0.11383E-01  8160   0.742E-01    0.116E-01
DAV:   2    -0.192208794985E+03   -0.12753E-02   -0.61520E-03 11960   0.415E-01    0.305E-01
DAV:   3    -0.192207716486E+03    0.10785E-02   -0.20885E-03 11360   0.380E-01    0.803E-02
DAV:   4    -0.192207732345E+03   -0.15859E-04   -0.24839E-04  7840   0.123E-01
  27 F= -.19220773E+03 E0= -.19212767E+03  d E =-.871107E-03
