<?xml version="1.0" encoding="ISO-8859-1"?>
<modeling>
 <generator>
  <i name="program" type="string">vasp </i>
  <i name="version" type="string">5.4.1  </i>
  <i name="subversion" type="string">05Feb16 (build Jul 05 2020 17:13:04) complex                          parallel </i>
  <i name="platform" type="string">IFC91_ompi </i>
  <i name="date" type="string">2024 08 24 </i>
  <i name="time" type="string">17:38:30 </i>
 </generator>
 <incar>
  <i type="int" name="ISTART">     0</i>
  <i type="string" name="PREC">normal</i>
  <i type="string" name="ALGO"> Normal</i>
  <i type="int" name="ISPIN">     1</i>
  <i type="int" name="ICHARG">     2</i>
  <i type="int" name="IBRION">     1</i>
  <i type="int" name="NSW">   100</i>
  <i type="int" name="ISIF">     3</i>
  <i type="int" name="ISYM">     0</i>
  <i name="SYMPREC">      0.00000001</i>
  <i name="POTIM">      0.50000000</i>
  <i type="logical" name="LREAL"> F  </i>
  <i type="logical" name="LPLANE"> F  </i>
  <i type="int" name="ISMEAR">     0</i>
  <i type="logical" name="LWAVE"> F  </i>
  <i type="logical" name="LCHARG"> F  </i>
  <v type="int" name="KPOINT_BSE">    -1     0     0     0</v>
 </incar>
 <kpoints>
  <generation param="Gamma">
   <v type="int" name="divisions">       8        8        1 </v>
   <v name="usershift">      0.00000000       0.00000000       0.00000000 </v>
   <v name="genvec1">      0.12500000       0.00000000       0.00000000 </v>
   <v name="genvec2">     -0.00000000       0.12500000       0.00000000 </v>
   <v name="genvec3">      0.00000000       0.00000000       1.00000000 </v>
   <v name="shift">      0.00000000       0.00000000       0.00000000 </v>
  </generation>
  <varray name="kpointlist" >
   <v>       0.00000000       0.00000000       0.00000000 </v>
   <v>       0.12500000       0.00000000       0.00000000 </v>
   <v>       0.25000000       0.00000000       0.00000000 </v>
   <v>       0.37500000       0.00000000       0.00000000 </v>
   <v>       0.50000000       0.00000000       0.00000000 </v>
   <v>       0.00000000       0.12500000       0.00000000 </v>
   <v>       0.12500000       0.12500000       0.00000000 </v>
   <v>       0.25000000       0.12500000       0.00000000 </v>
   <v>       0.37500000       0.12500000       0.00000000 </v>
   <v>       0.50000000       0.12500000       0.00000000 </v>
   <v>      -0.37500000       0.12500000       0.00000000 </v>
   <v>      -0.25000000       0.12500000       0.00000000 </v>
   <v>      -0.12500000       0.12500000       0.00000000 </v>
   <v>       0.00000000       0.25000000       0.00000000 </v>
   <v>       0.12500000       0.25000000       0.00000000 </v>
   <v>       0.25000000       0.25000000       0.00000000 </v>
   <v>       0.37500000       0.25000000       0.00000000 </v>
   <v>       0.50000000       0.25000000       0.00000000 </v>
   <v>      -0.37500000       0.25000000       0.00000000 </v>
   <v>      -0.25000000       0.25000000       0.00000000 </v>
   <v>      -0.12500000       0.25000000       0.00000000 </v>
   <v>      -0.00000000       0.37500000       0.00000000 </v>
   <v>       0.12500000       0.37500000       0.00000000 </v>
   <v>       0.25000000       0.37500000       0.00000000 </v>
   <v>       0.37500000       0.37500000       0.00000000 </v>
   <v>       0.50000000       0.37500000       0.00000000 </v>
   <v>      -0.37500000       0.37500000       0.00000000 </v>
   <v>      -0.25000000       0.37500000       0.00000000 </v>
   <v>      -0.12500000       0.37500000       0.00000000 </v>
   <v>       0.00000000       0.50000000       0.00000000 </v>
   <v>       0.12500000       0.50000000       0.00000000 </v>
   <v>       0.25000000       0.50000000       0.00000000 </v>
   <v>       0.37500000       0.50000000       0.00000000 </v>
   <v>       0.50000000       0.50000000       0.00000000 </v>
  </varray>
  <varray name="weights" >
   <v>       0.01562500 </v>
   <v>       0.03125000 </v>
   <v>       0.03125000 </v>
   <v>       0.03125000 </v>
   <v>       0.01562500 </v>
   <v>       0.03125000 </v>
   <v>       0.03125000 </v>
   <v>       0.03125000 </v>
   <v>       0.03125000 </v>
   <v>       0.03125000 </v>
   <v>       0.03125000 </v>
   <v>       0.03125000 </v>
   <v>       0.03125000 </v>
   <v>       0.03125000 </v>
   <v>       0.03125000 </v>
   <v>       0.03125000 </v>
   <v>       0.03125000 </v>
   <v>       0.03125000 </v>
   <v>       0.03125000 </v>
   <v>       0.03125000 </v>
   <v>       0.03125000 </v>
   <v>       0.03125000 </v>
   <v>       0.03125000 </v>
   <v>       0.03125000 </v>
   <v>       0.03125000 </v>
   <v>       0.03125000 </v>
   <v>       0.03125000 </v>
   <v>       0.03125000 </v>
   <v>       0.03125000 </v>
   <v>       0.01562500 </v>
   <v>       0.03125000 </v>
   <v>       0.03125000 </v>
   <v>       0.03125000 </v>
   <v>       0.01562500 </v>
  </varray>
 </kpoints>
 <parameters>
  <separator name="general" >
   <i type="string" name="SYSTEM">unknown system</i>
   <i type="logical" name="LCOMPAT"> F  </i>
  </separator>
  <separator name="electronic" >
   <i type="string" name="PREC">normal</i>
   <i name="ENMAX">    280.00000000</i>
   <i name="ENAUG">    373.43800000</i>
   <i name="EDIFF">      0.00010000</i>
   <i type="int" name="IALGO">    38</i>
   <i type="int" name="IWAVPR">    11</i>
   <i type="int" name="NBANDS">   120</i>
   <i name="NELECT">    159.00000000</i>
   <i type="int" name="TURBO">     0</i>
   <i type="int" name="IRESTART">     0</i>
   <i type="int" name="NREBOOT">     0</i>
   <i type="int" name="NMIN">     0</i>
   <i name="EREF">      0.00000000</i>
   <separator name="electronic smearing" >
    <i type="int" name="ISMEAR">     0</i>
    <i name="SIGMA">      0.20000000</i>
    <i name="KSPACING">      0.50000000</i>
    <i type="logical" name="KGAMMA"> T  </i>
   </separator>
   <separator name="electronic projectors" >
    <i type="logical" name="LREAL"> F  </i>
    <v name="ROPT">      0.00000000      0.00000000      0.00000000      0.00000000</v>
    <i type="int" name="LMAXPAW">  -100</i>
    <i type="int" name="LMAXMIX">     2</i>
    <i type="logical" name="NLSPLINE"> F  </i>
   </separator>
   <separator name="electronic startup" >
    <i type="int" name="ISTART">     0</i>
    <i type="int" name="ICHARG">     2</i>
    <i type="int" name="INIWAV">     1</i>
   </separator>
   <separator name="electronic spin" >
    <i type="int" name="ISPIN">     1</i>
    <i type="logical" name="LNONCOLLINEAR"> F  </i>
    <v name="MAGMOM">      1.00000000      1.00000000      1.00000000      1.00000000      1.00000000      1.00000000      1.00000000      1.00000000      1.00000000      1.00000000      1.00000000      1.00000000      1.00000000      1.00000000      1.00000000      1.00000000      1.00000000      1.00000000      1.00000000      1.00000000
      1.00000000      1.00000000      1.00000000      1.00000000      1.00000000      1.00000000      1.00000000</v>
    <i name="NUPDOWN">     -1.00000000</i>
    <i type="logical" name="LSORBIT"> F  </i>
    <v name="SAXIS">      0.00000000      0.00000000      1.00000000</v>
    <i type="logical" name="LSPIRAL"> F  </i>
    <v name="QSPIRAL">      0.00000000      0.00000000      0.00000000</v>
    <i type="logical" name="LZEROZ"> F  </i>
   </separator>
   <separator name="electronic exchange-correlation" >
    <i type="logical" name="LASPH"> F  </i>
    <i type="logical" name="LMETAGGA"> F  </i>
   </separator>
   <separator name="electronic convergence" >
    <i type="int" name="NELM">    60</i>
    <i type="int" name="NELMDL">    -5</i>
    <i type="int" name="NELMIN">     2</i>
    <i name="ENINI">    280.00000000</i>
    <separator name="electronic convergence detail" >
     <i type="logical" name="LDIAG"> T  </i>
     <i type="logical" name="LSUBROT"> F  </i>
     <i name="WEIMIN">      0.00100000</i>
     <i name="EBREAK">      0.00000021</i>
     <i name="DEPER">      0.30000000</i>
     <i type="int" name="NRMM">     4</i>
     <i name="TIME">      0.40000000</i>
    </separator>
   </separator>
   <separator name="electronic mixer" >
    <i name="AMIX">      0.40000000</i>
    <i name="BMIX">      1.00000000</i>
    <i name="AMIN">      0.10000000</i>
    <i name="AMIX_MAG">      1.60000000</i>
    <i name="BMIX_MAG">      1.00000000</i>
    <separator name="electronic mixer details" >
     <i type="int" name="IMIX">     4</i>
     <i type="logical" name="MIXFIRST"> F  </i>
     <i type="int" name="MAXMIX">   -45</i>
     <i name="WC">    100.00000000</i>
     <i type="int" name="INIMIX">     1</i>
     <i type="int" name="MIXPRE">     1</i>
     <i type="int" name="MREMOVE">     5</i>
    </separator>
   </separator>
   <separator name="electronic dipolcorrection" >
    <i type="logical" name="LDIPOL"> F  </i>
    <i type="logical" name="LMONO"> F  </i>
    <i type="int" name="IDIPOL">     0</i>
    <i name="EPSILON">      1.00000000</i>
    <v name="DIPOL">   -100.00000000   -100.00000000   -100.00000000</v>
    <i name="EFIELD">      0.00000000</i>
   </separator>
  </separator>
  <separator name="grids" >
   <i type="int" name="NGX">    42</i>
   <i type="int" name="NGY">    42</i>
   <i type="int" name="NGZ">   126</i>
   <i type="int" name="NGXF">    84</i>
   <i type="int" name="NGYF">    84</i>
   <i type="int" name="NGZF">   252</i>
   <i type="logical" name="ADDGRID"> F  </i>
  </separator>
  <separator name="ionic" >
   <i type="int" name="NSW">   100</i>
   <i type="int" name="IBRION">     1</i>
   <i type="int" name="ISIF">     3</i>
   <i name="PSTRESS">      0.00000000</i>
   <i name="EDIFFG">      0.00100000</i>
   <i type="int" name="NFREE">     0</i>
   <i name="POTIM">      0.50000000</i>
   <i name="SMASS">     -3.00000000</i>
   <i name="SCALEE">      1.00000000</i>
  </separator>
  <separator name="ionic md" >
   <i name="TEBEG">      0.00010000</i>
   <i name="TEEND">      0.00010000</i>
   <i type="int" name="NBLOCK">     1</i>
   <i type="int" name="KBLOCK">   100</i>
   <i type="int" name="NPACO">   256</i>
   <i name="APACO">     16.00000000</i>
  </separator>
  <separator name="symmetry" >
   <i type="int" name="ISYM">     0</i>
   <i name="SYMPREC">      0.00000001</i>
  </separator>
  <separator name="dos" >
   <i type="logical" name="LORBIT"> F  </i>
   <v name="RWIGS">     -1.00000000     -1.00000000     -1.00000000     -1.00000000</v>
   <i type="int" name="NEDOS">   301</i>
   <i name="EMIN">     10.00000000</i>
   <i name="EMAX">    -10.00000000</i>
   <i name="EFERMI">      0.00000000</i>
  </separator>
  <separator name="writing" >
   <i type="int" name="NWRITE">     2</i>
   <i type="logical" name="LWAVE"> F  </i>
   <i type="logical" name="LCHARG"> F  </i>
   <i type="logical" name="LPARD"> F  </i>
   <i type="logical" name="LVTOT"> F  </i>
   <i type="logical" name="LVHAR"> F  </i>
   <i type="logical" name="LELF"> F  </i>
   <i type="logical" name="LOPTICS"> F  </i>
   <v name="STM">      0.00000000      0.00000000      0.00000000      0.00000000      0.00000000      0.00000000      0.00000000</v>
  </separator>
  <separator name="performance" >
   <i type="int" name="NPAR">    40</i>
   <i type="int" name="NSIM">     4</i>
   <i type="int" name="NBLK">    -1</i>
   <i type="logical" name="LPLANE"> F  </i>
   <i type="logical" name="LSCALAPACK"> T  </i>
   <i type="logical" name="LSCAAWARE"> F  </i>
   <i type="logical" name="LSCALU"> F  </i>
   <i type="logical" name="LASYNC"> F  </i>
   <i type="logical" name="LORBITALREAL"> F  </i>
  </separator>
  <separator name="miscellaneous" >
   <i type="int" name="IDIOT">     3</i>
   <i type="logical" name="LMUSIC"> F  </i>
   <v name="POMASS">     50.94100000     95.94000000    183.85000000     32.06600000</v>
   <v name="DARWINR">      0.00000000      0.00000000      0.00000000      0.00000000</v>
   <v name="DARWINV">      1.00000000      1.00000000      1.00000000      1.00000000</v>
   <i type="logical" name="LCORR"> T  </i>
  </separator>
  <i type="logical" name="GGA_COMPAT"> T  </i>
  <i type="logical" name="LBERRY"> F  </i>
  <i type="int" name="ICORELEVEL">     0</i>
  <i type="logical" name="LDAU"> F  </i>
  <i type="int" name="I_CONSTRAINED_M">     0</i>
  <separator name="electronic exchange-correlation" >
   <i type="string" name="GGA">--</i>
   <i type="int" name="VOSKOWN">     0</i>
   <i type="logical" name="LHFCALC"> F  </i>
   <i type="string" name="PRECFOCK"></i>
   <i type="logical" name="LSYMGRAD"> F  </i>
   <i type="logical" name="LHFONE"> F  </i>
   <i type="logical" name="LRHFCALC"> F  </i>
   <i type="logical" name="LTHOMAS"> F  </i>
   <i type="logical" name="LMODELHF"> F  </i>
   <i name="ENCUT4O">     -1.00000000</i>
   <i type="int" name="EXXOEP">     0</i>
   <i type="int" name="FOURORBIT">     0</i>
   <i name="AEXX">      0.00000000</i>
   <i name="HFALPHA">      0.00000000</i>
   <i name="MCALPHA">      0.00000000</i>
   <i name="ALDAX">      1.00000000</i>
   <i name="AGGAX">      1.00000000</i>
   <i name="ALDAC">      1.00000000</i>
   <i name="AGGAC">      1.00000000</i>
   <i type="int" name="NKREDX">     1</i>
   <i type="int" name="NKREDY">     1</i>
   <i type="int" name="NKREDZ">     1</i>
   <i type="logical" name="SHIFTRED"> F  </i>
   <i type="logical" name="ODDONLY"> F  </i>
   <i type="logical" name="EVENONLY"> F  </i>
   <i type="int" name="LMAXFOCK">     0</i>
   <i type="int" name="NMAXFOCKAE">     0</i>
   <i type="logical" name="LFOCKAEDFT"> F  </i>
   <i name="HFSCREEN">      0.00000000</i>
   <i name="HFSCREENC">      0.00000000</i>
   <i type="int" name="NBANDSGWLOW">     0</i>
  </separator>
  <separator name="vdW DFT" >
   <i type="logical" name="LUSE_VDW"> F  </i>
   <i name="Zab_VDW">     -0.84910000</i>
   <i name="PARAM1">      0.12340000</i>
   <i name="PARAM2">      1.00000000</i>
   <i name="PARAM3">      0.00000000</i>
  </separator>
  <separator name="model GW" >
   <i type="int" name="MODEL_GW">     0</i>
   <i name="MODEL_EPS0">     58.26239943</i>
   <i name="MODEL_ALPHA">      1.00000000</i>
  </separator>
  <separator name="linear response parameters" >
   <i type="logical" name="LEPSILON"> F  </i>
   <i type="logical" name="LRPA"> F  </i>
   <i type="logical" name="LNABLA"> F  </i>
   <i type="logical" name="LVEL"> F  </i>
   <i type="int" name="KINTER">     0</i>
   <i name="CSHIFT">      0.10000000</i>
   <i name="OMEGAMAX">     -1.00000000</i>
   <i name="DEG_THRESHOLD">      0.00200000</i>
  </separator>
  <separator name="orbital magnetization" >
   <i type="logical" name="NUCIND"> F  </i>
   <v name="MAGPOS">      0.00000000      0.00000000      0.00000000</v>
   <i type="logical" name="LNICSALL"> T  </i>
   <i type="logical" name="ORBITALMAG"> F  </i>
   <i type="logical" name="LMAGBLOCH"> F  </i>
   <i type="logical" name="LCHIMAG"> F  </i>
   <i type="logical" name="LGAUGE"> T  </i>
   <i type="int" name="MAGATOM">     0</i>
   <v name="MAGDIPOL">      0.00000000      0.00000000      0.00000000</v>
   <v name="AVECCONST">      0.00000000      0.00000000      0.00000000</v>
  </separator>
  <separator name="response functions" >
   <i type="logical" name="LADDER"> F  </i>
   <i type="logical" name="LFXC"> F  </i>
   <i type="logical" name="LHARTREE"> T  </i>
   <i type="int" name="IBSE">     0</i>
   <v type="int" name="KPOINT">    -1     0     0     0</v>
   <i type="logical" name="LTCTE"> F  </i>
   <i type="logical" name="LTETE"> F  </i>
   <i type="logical" name="LTRIPLET"> F  </i>
   <i type="logical" name="LFXCEPS"> F  </i>
   <i type="logical" name="LFXHEG"> F  </i>
   <i type="int" name="NATURALO">     0</i>
   <i type="logical" name="L2ORDER"> F  </i>
   <i type="logical" name="LUSEW"> F  </i>
   <i name="ENCUTGW">     -2.00000000</i>
   <i name="ENCUTGWSOFT">     -2.00000000</i>
   <i name="ENCUTLF">     -1.00000000</i>
   <i type="int" name="LMAXMP2">    -1</i>
   <i name="SCISSOR">      0.00000000</i>
   <i type="int" name="NOMEGA">     0</i>
   <i type="int" name="NOMEGAR">     0</i>
   <i type="int" name="NBANDSGW">    -1</i>
   <i type="int" name="NBANDSO">    -1</i>
   <i type="int" name="NBANDSV">    -1</i>
   <i type="int" name="NELM">     1</i>
   <i type="int" name="NELMHF">     1</i>
   <i type="int" name="DIM">     3</i>
   <i type="int" name="ANTIRES">     0</i>
   <i name="OMEGAMAX">    -30.00000000</i>
   <i name="OMEGAMIN">    -30.00000000</i>
   <i name="OMEGATL">   -200.00000000</i>
   <i type="int" name="OMEGAGRID">     0</i>
   <i name="CSHIFT">     -0.10000000</i>
   <i type="logical" name="SELFENERGY"> F  </i>
   <i type="logical" name="LSPECTRAL"> F  </i>
   <i type="logical" name="LSPECTRALGW"> F  </i>
   <i type="logical" name="LSINGLES"> F  </i>
   <i type="logical" name="LFERMIGW"> F  </i>
   <i type="logical" name="ODDONLYGW"> F  </i>
   <i type="logical" name="EVENONLYGW"> F  </i>
   <i type="int" name="NKREDLFX">     1</i>
   <i type="int" name="NKREDLFY">     1</i>
   <i type="int" name="NKREDLFZ">     1</i>
   <i type="int" name="MAXMEM">  1800</i>
   <i type="int" name="TELESCOPE">     0</i>
   <i type="int" name="TAUPAR">     1</i>
   <i type="int" name="OMEGAPAR">    -1</i>
   <i name="LAMBDA">      1.00000000</i>
  </separator>
  <separator name="External order field" >
   <i name="OFIELD_KAPPA">      0.00000000</i>
   <v name="OFIELD_K">      0.00000000      0.00000000      0.00000000</v>
   <i name="OFIELD_Q6_NEAR">      0.00000000</i>
   <i name="OFIELD_Q6_FAR">      0.00000000</i>
   <i name="OFIELD_A">      0.00000000</i>
  </separator>
 </parameters>
 <atominfo>
  <atoms>      27 </atoms>
  <types>       4 </types>
  <array name="atoms" >
   <dimension dim="1">ion</dimension>
   <field type="string">element</field>
   <field type="int">atomtype</field>
   <set>
    <rc><c>V </c><c>   1</c></rc>
    <rc><c>V </c><c>   1</c></rc>
    <rc><c>V </c><c>   1</c></rc>
    <rc><c>Mo</c><c>   2</c></rc>
    <rc><c>Mo</c><c>   2</c></rc>
    <rc><c>Mo</c><c>   2</c></rc>
    <rc><c>W </c><c>   3</c></rc>
    <rc><c>W </c><c>   3</c></rc>
    <rc><c>W </c><c>   3</c></rc>
    <rc><c>S </c><c>   4</c></rc>
    <rc><c>S </c><c>   4</c></rc>
    <rc><c>S </c><c>   4</c></rc>
    <rc><c>S </c><c>   4</c></rc>
    <rc><c>S </c><c>   4</c></rc>
    <rc><c>S </c><c>   4</c></rc>
    <rc><c>S </c><c>   4</c></rc>
    <rc><c>S </c><c>   4</c></rc>
    <rc><c>S </c><c>   4</c></rc>
    <rc><c>S </c><c>   4</c></rc>
    <rc><c>S </c><c>   4</c></rc>
    <rc><c>S </c><c>   4</c></rc>
    <rc><c>S </c><c>   4</c></rc>
    <rc><c>S </c><c>   4</c></rc>
    <rc><c>S </c><c>   4</c></rc>
    <rc><c>S </c><c>   4</c></rc>
    <rc><c>S </c><c>   4</c></rc>
    <rc><c>S </c><c>   4</c></rc>
   </set>
  </array>
  <array name="atomtypes" >
   <dimension dim="1">type</dimension>
   <field type="int">atomspertype</field>
   <field type="string">element</field>
   <field>mass</field>
   <field>valence</field>
   <field type="string">pseudopotential</field>
   <set>
    <rc><c>   3</c><c>V </c><c>     50.94100000</c><c>      5.00000000</c><c> PAW_PBE V 08Apr2002                    </c></rc>
    <rc><c>   3</c><c>Mo</c><c>     95.94000000</c><c>      6.00000000</c><c> PAW_PBE Mo 08Apr2002                   </c></rc>
    <rc><c>   3</c><c>W </c><c>    183.85000000</c><c>      6.00000000</c><c> PAW_PBE W 08Apr2002                    </c></rc>
    <rc><c>  18</c><c>S </c><c>     32.06600000</c><c>      6.00000000</c><c>  PAW_PBE S 17Jan2003                   </c></rc>
   </set>
  </array>
 </atominfo>
 <structure name="initialpos" >
  <crystal>
   <varray name="basis" >
    <v>       8.66999996       5.03999989       0.00000000 </v>
    <v>      -8.66999982       5.04000013       0.00000000 </v>
    <v>       0.00000000       0.00000000      30.00000000 </v>
   </varray>
   <i name="volume">   2621.80797419 </i>
   <varray name="rec_basis" >
    <v>       0.05767013       0.09920635       0.00000000 </v>
    <v>      -0.05767013       0.09920635       0.00000000 </v>
    <v>       0.00000000       0.00000000       0.03333333 </v>
   </varray>
  </crystal>
  <varray name="positions" >
   <v>       0.33333334       0.00000000       0.00000000 </v>
   <v>       1.00000000       0.33333334       0.00000000 </v>
   <v>       0.66666669       0.33333334       0.00000000 </v>
   <v>       0.00000000       0.66666669       0.00000000 </v>
   <v>       0.33333334       0.33333334       0.00000000 </v>
   <v>       0.66666669       0.00000000       0.00000000 </v>
   <v>       0.00000000       0.00000000       0.00000000 </v>
   <v>       0.33333334       0.66666669       0.00000000 </v>
   <v>       0.66666669       0.66666669       0.00000000 </v>
   <v>       0.11068511       0.22244981       0.95539999 </v>
   <v>       0.22244981       0.11068511       0.04460000 </v>
   <v>       0.11068511       0.55578315       0.95539999 </v>
   <v>       0.22244981       0.44401845       0.04460000 </v>
   <v>       0.11068511       0.88911647       0.95539999 </v>
   <v>       0.22244981       0.77735180       0.04460000 </v>
   <v>       0.44401845       0.22244981       0.95539999 </v>
   <v>       0.55578315       0.11068511       0.04460000 </v>
   <v>       0.44401845       0.55578315       0.95539999 </v>
   <v>       0.55578315       0.44401845       0.04460000 </v>
   <v>       0.44401845       0.88911647       0.95539999 </v>
   <v>       0.55578315       0.77735180       0.04460000 </v>
   <v>       0.77735180       0.22244981       0.95539999 </v>
   <v>       0.88911647       0.11068511       0.04460000 </v>
   <v>       0.77735180       0.55578315       0.95539999 </v>
   <v>       0.88911647       0.44401845       0.04460000 </v>
   <v>       0.77735180       0.88911647       0.95539999 </v>
   <v>       0.88911647       0.77735180       0.04460000 </v>
  </varray>
 </structure>
 <calculation>
  <scstep>
   <time name="dav">   21.68   21.74</time>
   <time name="total">   21.73   21.79</time>
   <energy>
    <i name="alphaZ">     81.65567618 </i>
    <i name="ewald">  41890.23011115 </i>
    <i name="hartreedc"> -47722.87972144 </i>
    <i name="XCdc">   -242.92665265 </i>
    <i name="pawpsdc">   3467.42045192 </i>
    <i name="pawaedc">  -2871.19716117 </i>
    <i name="eentropy">     -0.54064782 </i>
    <i name="bandstr">   -239.12940082 </i>
    <i name="atom">   6761.44252427 </i>
    <i name="e_fr_energy">   1124.07517961 </i>
    <i name="e_wo_entrp">   1124.61582743 </i>
    <i name="e_0_energy">   1124.34550352 </i>
   </energy>
  </scstep>
  <scstep>
   <time name="dav">   27.52   27.59</time>
   <time name="total">   27.52   27.59</time>
   <energy>
    <i name="e_fr_energy">     -0.03838140 </i>
    <i name="e_wo_entrp">      0.14466683 </i>
    <i name="e_0_energy">      0.05314272 </i>
   </energy>
  </scstep>
  <scstep>
   <time name="dav">   27.34   27.42</time>
   <time name="total">   27.34   27.43</time>
   <energy>
    <i name="e_fr_energy">   -199.77265530 </i>
    <i name="e_wo_entrp">   -199.50191256 </i>
    <i name="e_0_energy">   -199.63728393 </i>
   </energy>
  </scstep>
  <scstep>
   <time name="dav">   29.59   29.67</time>
   <time name="total">   29.60   29.67</time>
   <energy>
    <i name="e_fr_energy">   -209.04064331 </i>
    <i name="e_wo_entrp">   -208.71611685 </i>
    <i name="e_0_energy">   -208.87838008 </i>
   </energy>
  </scstep>
  <scstep>
   <time name="dav">   28.32   28.39</time>
   <time name="total">   28.78   28.86</time>
   <energy>
    <i name="e_fr_energy">   -209.39323680 </i>
    <i name="e_wo_entrp">   -209.07096157 </i>
    <i name="e_0_energy">   -209.23209919 </i>
   </energy>
  </scstep>
  <scstep>
   <time name="dav">   30.59   30.66</time>
   <time name="total">   31.09   31.17</time>
   <energy>
    <i name="e_fr_energy">   -237.09305459 </i>
    <i name="e_wo_entrp">   -236.79332188 </i>
    <i name="e_0_energy">   -236.94318824 </i>
   </energy>
  </scstep>
  <scstep>
   <time name="dav">   32.40   32.48</time>
   <time name="total">   32.90   32.99</time>
   <energy>
    <i name="e_fr_energy">   -196.37271634 </i>
    <i name="e_wo_entrp">   -196.08708528 </i>
    <i name="e_0_energy">   -196.22990081 </i>
   </energy>
  </scstep>
  <scstep>
   <time name="dav">   29.80   29.87</time>
   <time name="total">   30.30   30.39</time>
   <energy>
    <i name="e_fr_energy">   -189.11887308 </i>
    <i name="e_wo_entrp">   -188.81183126 </i>
    <i name="e_0_energy">   -188.96535217 </i>
   </energy>
  </scstep>
  <scstep>
   <time name="dav">   32.34   32.43</time>
   <time name="total">   32.86   32.96</time>
   <energy>
    <i name="e_fr_energy">   -187.44161479 </i>
    <i name="e_wo_entrp">   -187.12888290 </i>
    <i name="e_0_energy">   -187.28524884 </i>
   </energy>
  </scstep>
  <scstep>
   <time name="dav">   32.27   32.35</time>
   <time name="total">   32.80   32.89</time>
   <energy>
    <i name="e_fr_energy">   -186.96947402 </i>
    <i name="e_wo_entrp">   -186.61395355 </i>
    <i name="e_0_energy">   -186.79171378 </i>
   </energy>
  </scstep>
  <scstep>
   <time name="dav">   30.88   30.95</time>
   <time name="total">   31.41   31.49</time>
   <energy>
    <i name="e_fr_energy">   -186.97501195 </i>
    <i name="e_wo_entrp">   -186.63620347 </i>
    <i name="e_0_energy">   -186.80560771 </i>
   </energy>
  </scstep>
  <scstep>
   <time name="dav">   31.73   31.81</time>
   <time name="total">   32.26   32.35</time>
   <energy>
    <i name="e_fr_energy">   -186.91597306 </i>
    <i name="e_wo_entrp">   -186.57681639 </i>
    <i name="e_0_energy">   -186.74639473 </i>
   </energy>
  </scstep>
  <scstep>
   <time name="dav">   31.80   31.88</time>
   <time name="total">   32.33   32.42</time>
   <energy>
    <i name="e_fr_energy">   -186.86261864 </i>
    <i name="e_wo_entrp">   -186.51985256 </i>
    <i name="e_0_energy">   -186.69123560 </i>
   </energy>
  </scstep>
  <scstep>
   <time name="dav">   31.18   31.25</time>
   <time name="total">   31.71   31.79</time>
   <energy>
    <i name="e_fr_energy">   -186.84686495 </i>
    <i name="e_wo_entrp">   -186.49765716 </i>
    <i name="e_0_energy">   -186.67226106 </i>
   </energy>
  </scstep>
  <scstep>
   <time name="dav">   29.70   29.77</time>
   <time name="total">   30.23   30.31</time>
   <energy>
    <i name="e_fr_energy">   -186.83814376 </i>
    <i name="e_wo_entrp">   -186.48948610 </i>
    <i name="e_0_energy">   -186.66381493 </i>
   </energy>
  </scstep>
  <scstep>
   <time name="dav">   32.36   32.43</time>
   <time name="total">   32.89   32.97</time>
   <energy>
    <i name="e_fr_energy">   -186.83698220 </i>
    <i name="e_wo_entrp">   -186.48917428 </i>
    <i name="e_0_energy">   -186.66307824 </i>
   </energy>
  </scstep>
  <scstep>
   <time name="dav">   30.21   30.28</time>
   <time name="total">   30.74   30.82</time>
   <energy>
    <i name="e_fr_energy">   -186.83475734 </i>
    <i name="e_wo_entrp">   -186.48933968 </i>
    <i name="e_0_energy">   -186.66204851 </i>
   </energy>
  </scstep>
  <scstep>
   <time name="dav">   30.50   30.57</time>
   <time name="total">   31.03   31.11</time>
   <energy>
    <i name="e_fr_energy">   -186.83369070 </i>
    <i name="e_wo_entrp">   -186.48701404 </i>
    <i name="e_0_energy">   -186.66035237 </i>
   </energy>
  </scstep>
  <scstep>
   <time name="dav">   26.81   26.88</time>
   <time name="total">   27.34   27.42</time>
   <energy>
    <i name="e_fr_energy">   -186.83422748 </i>
    <i name="e_wo_entrp">   -186.48779372 </i>
    <i name="e_0_energy">   -186.66101060 </i>
   </energy>
  </scstep>
  <scstep>
   <time name="dav">   24.60   24.66</time>
   <time name="total">   25.14   25.20</time>
   <energy>
    <i name="e_fr_energy">   -186.83463226 </i>
    <i name="e_wo_entrp">   -186.48839901 </i>
    <i name="e_0_energy">   -186.66151564 </i>
   </energy>
  </scstep>
  <scstep>
   <time name="dav">   20.90   20.95</time>
   <time name="total">   21.43   21.49</time>
   <energy>
    <i name="e_fr_energy">   -186.83547843 </i>
    <i name="e_wo_entrp">   -186.48908703 </i>
    <i name="e_0_energy">   -186.66228273 </i>
   </energy>
  </scstep>
  <scstep>
   <time name="dav">   18.14   18.19</time>
   <time name="total">   18.67   18.73</time>
   <energy>
    <i name="e_fr_energy">   -186.83621967 </i>
    <i name="e_wo_entrp">   -186.48973996 </i>
    <i name="e_0_energy">   -186.66297982 </i>
   </energy>
  </scstep>
  <scstep>
   <time name="dav">   20.20   20.25</time>
   <time name="total">   20.73   20.79</time>
   <energy>
    <i name="e_fr_energy">   -186.83745093 </i>
    <i name="e_wo_entrp">   -186.49108273 </i>
    <i name="e_0_energy">   -186.66426683 </i>
   </energy>
  </scstep>
  <scstep>
   <time name="dav">   18.76   18.81</time>
   <time name="total">   19.30   19.35</time>
   <energy>
    <i name="e_fr_energy">   -186.83800901 </i>
    <i name="e_wo_entrp">   -186.49163549 </i>
    <i name="e_0_energy">   -186.66482225 </i>
   </energy>
  </scstep>
  <scstep>
   <time name="dav">   16.24   16.28</time>
   <time name="total">   16.77   16.82</time>
   <energy>
    <i name="e_fr_energy">   -186.83843955 </i>
    <i name="e_wo_entrp">   -186.49200925 </i>
    <i name="e_0_energy">   -186.66522440 </i>
   </energy>
  </scstep>
  <scstep>
   <time name="dav">   18.93   18.97</time>
   <time name="total">   19.46   19.52</time>
   <energy>
    <i name="e_fr_energy">   -186.83863760 </i>
    <i name="e_wo_entrp">   -186.49222883 </i>
    <i name="e_0_energy">   -186.66543321 </i>
   </energy>
  </scstep>
  <scstep>
   <time name="dav">   19.01   19.06</time>
   <time name="total">   19.55   19.60</time>
   <energy>
    <i name="e_fr_energy">   -186.83873869 </i>
    <i name="e_wo_entrp">   -186.49233871 </i>
    <i name="e_0_energy">   -186.66553870 </i>
   </energy>
  </scstep>
  <scstep>
   <time name="dav">   19.73   19.77</time>
   <time name="total">   19.76   19.82</time>
   <energy>
    <i name="alphaZ">     81.65567618 </i>
    <i name="ewald">  41890.23011115 </i>
    <i name="hartreedc"> -47832.77608742 </i>
    <i name="XCdc">   -231.61215031 </i>
    <i name="pawpsdc">   4191.98272885 </i>
    <i name="pawaedc">  -3609.97981780 </i>
    <i name="eentropy">     -0.34639942 </i>
    <i name="bandstr">  -1437.43537325 </i>
    <i name="atom">   6761.44252427 </i>
    <i name="e_fr_energy">   -186.83878774 </i>
    <i name="e_wo_entrp">   -186.49238833 </i>
    <i name="e_0_energy">   -186.66558804 </i>
   </energy>
  </scstep>
  <structure>
   <crystal>
    <varray name="basis" >
     <v>       8.66999996       5.03999989       0.00000000 </v>
     <v>      -8.66999982       5.04000013       0.00000000 </v>
     <v>       0.00000000       0.00000000      30.00000000 </v>
    </varray>
    <i name="volume">   2621.80797419 </i>
    <varray name="rec_basis" >
     <v>       0.05767013       0.09920635       0.00000000 </v>
     <v>      -0.05767013       0.09920635       0.00000000 </v>
     <v>       0.00000000       0.00000000       0.03333333 </v>
    </varray>
   </crystal>
   <varray name="positions" >
    <v>       0.33333334       0.00000000       0.00000000 </v>
    <v>       1.00000000       0.33333334       0.00000000 </v>
    <v>       0.66666669       0.33333334       0.00000000 </v>
    <v>       0.00000000       0.66666669       0.00000000 </v>
    <v>       0.33333334       0.33333334       0.00000000 </v>
    <v>       0.66666669       0.00000000       0.00000000 </v>
    <v>       0.00000000       0.00000000       0.00000000 </v>
    <v>       0.33333334       0.66666669       0.00000000 </v>
    <v>       0.66666669       0.66666669       0.00000000 </v>
    <v>       0.11068511       0.22244981       0.95539999 </v>
    <v>       0.22244981       0.11068511       0.04460000 </v>
    <v>       0.11068511       0.55578315       0.95539999 </v>
    <v>       0.22244981       0.44401845       0.04460000 </v>
    <v>       0.11068511       0.88911647       0.95539999 </v>
    <v>       0.22244981       0.77735180       0.04460000 </v>
    <v>       0.44401845       0.22244981       0.95539999 </v>
    <v>       0.55578315       0.11068511       0.04460000 </v>
    <v>       0.44401845       0.55578315       0.95539999 </v>
    <v>       0.55578315       0.44401845       0.04460000 </v>
    <v>       0.44401845       0.88911647       0.95539999 </v>
    <v>       0.55578315       0.77735180       0.04460000 </v>
    <v>       0.77735180       0.22244981       0.95539999 </v>
    <v>       0.88911647       0.11068511       0.04460000 </v>
    <v>       0.77735180       0.55578315       0.95539999 </v>
    <v>       0.88911647       0.44401845       0.04460000 </v>
    <v>       0.77735180       0.88911647       0.95539999 </v>
    <v>       0.88911647       0.77735180       0.04460000 </v>
   </varray>
  </structure>
  <varray name="forces" >
   <v>       0.00233536       0.10371144      -0.10461400 </v>
   <v>      -0.09475308      -0.03685049       0.10869906 </v>
   <v>       0.09464787      -0.05444300      -0.00268920 </v>
   <v>       0.00683657      -0.03585663       0.03641916 </v>
   <v>       0.03723079       0.01020662      -0.04570365 </v>
   <v>      -0.04473744       0.01192216       0.00923339 </v>
   <v>       0.00446216       0.05401593      -0.13089716 </v>
   <v>      -0.07163973      -0.04787538       0.13476114 </v>
   <v>       0.06765718      -0.02494468      -0.00567327 </v>
   <v>      -0.64327355      -0.16171663      -2.09854171 </v>
   <v>       0.65999559      -0.13891048       2.10272862 </v>
   <v>       0.60808922      -0.55343404      -2.14188563 </v>
   <v>      -0.63118240      -0.55653756       2.17222107 </v>
   <v>       0.36011804       0.72136737      -2.18421339 </v>
   <v>      -0.34543272       0.69226823       2.14935851 </v>
   <v>       0.89794054      -0.02352521      -1.47161235 </v>
   <v>      -0.89129520       0.00259725       1.46046526 </v>
   <v>       0.07985684       0.14961616      -2.89588374 </v>
   <v>       0.65219600       0.15959039       2.11696963 </v>
   <v>      -0.69544147      -0.13361844      -2.12669013 </v>
   <v>      -0.05343673      -0.15264474       2.91494021 </v>
   <v>      -0.32478747       0.66318000      -1.42282614 </v>
   <v>      -0.39550420       0.72091560       2.16987155 </v>
   <v>       0.35913166      -0.69434589      -2.15909292 </v>
   <v>       0.34421357      -0.66166303       1.43145945 </v>
   <v>       0.28882943       0.01029509      -2.90917191 </v>
   <v>      -0.27205683      -0.02332004       2.89236813 </v>
  </varray>
  <varray name="stress" >
   <v>       7.31057334       0.00344126      -1.52025245 </v>
   <v>       0.00344122       4.41552141       0.05274547 </v>
   <v>      -1.52025261       0.05274531      30.32382578 </v>
  </varray>
  <energy>
   <i name="e_fr_energy">   -186.83878774 </i>
   <i name="e_wo_entrp">   -186.66558804 </i>
   <i name="e_0_energy">     -0.34639942 </i>
  </energy>
  <time name="totalsc">  797.38  799.53</time>
 </calculation>
 <calculation>
  <scstep>
   <time name="dav">   21.58   21.63</time>
   <time name="total">   22.12   22.17</time>
   <energy>
    <i name="alphaZ">     78.92781169 </i>
    <i name="ewald">  39382.59031632 </i>
    <i name="hartreedc"> -45339.98733358 </i>
    <i name="XCdc">   -239.06661142 </i>
    <i name="pawpsdc">   4191.98242232 </i>
    <i name="pawaedc">  -3609.97958977 </i>
    <i name="eentropy">     -0.29775074 </i>
    <i name="bandstr">  -1413.04650161 </i>
    <i name="atom">   6761.44252427 </i>
    <i name="e_fr_energy">   -187.43471251 </i>
    <i name="e_wo_entrp">   -187.13696177 </i>
    <i name="e_0_energy">   -187.28583714 </i>
   </energy>
  </scstep>
  <scstep>
   <time name="dav">   30.00   30.07</time>
   <time name="total">   30.54   30.62</time>
   <energy>
    <i name="e_fr_energy">   -189.15741444 </i>
    <i name="e_wo_entrp">   -188.84445058 </i>
    <i name="e_0_energy">   -189.00093251 </i>
   </energy>
  </scstep>
  <scstep>
   <time name="dav">   30.16   30.23</time>
   <time name="total">   30.70   30.78</time>
   <energy>
    <i name="e_fr_energy">   -189.35470471 </i>
    <i name="e_wo_entrp">   -189.06531277 </i>
    <i name="e_0_energy">   -189.21000874 </i>
   </energy>
  </scstep>
  <scstep>
   <time name="dav">   30.59   30.67</time>
   <time name="total">   31.13   31.22</time>
   <energy>
    <i name="e_fr_energy">   -188.72296016 </i>
    <i name="e_wo_entrp">   -188.42910147 </i>
    <i name="e_0_energy">   -188.57603082 </i>
   </energy>
  </scstep>
  <scstep>
   <time name="dav">   27.27   27.33</time>
   <time name="total">   27.81   27.88</time>
   <energy>
    <i name="e_fr_energy">   -188.70534828 </i>
    <i name="e_wo_entrp">   -188.40588407 </i>
    <i name="e_0_energy">   -188.55561618 </i>
   </energy>
  </scstep>
  <scstep>
   <time name="dav">   30.78   30.85</time>
   <time name="total">   31.32   31.40</time>
   <energy>
    <i name="e_fr_energy">   -188.75694183 </i>
    <i name="e_wo_entrp">   -188.45602749 </i>
    <i name="e_0_energy">   -188.60648466 </i>
   </energy>
  </scstep>
  <scstep>
   <time name="dav">   30.86   30.94</time>
   <time name="total">   31.41   31.49</time>
   <energy>
    <i name="e_fr_energy">   -188.62024926 </i>
    <i name="e_wo_entrp">   -188.32571258 </i>
    <i name="e_0_energy">   -188.47298092 </i>
   </energy>
  </scstep>
  <scstep>
   <time name="dav">   30.74   30.81</time>
   <time name="total">   31.28   31.37</time>
   <energy>
    <i name="e_fr_energy">   -188.61491224 </i>
    <i name="e_wo_entrp">   -188.31979313 </i>
    <i name="e_0_energy">   -188.46735269 </i>
   </energy>
  </scstep>
  <scstep>
   <time name="dav">   31.01   31.09</time>
   <time name="total">   31.56   31.64</time>
   <energy>
    <i name="e_fr_energy">   -188.60379031 </i>
    <i name="e_wo_entrp">   -188.30852295 </i>
    <i name="e_0_energy">   -188.45615663 </i>
   </energy>
  </scstep>
  <scstep>
   <time name="dav">   28.89   28.96</time>
   <time name="total">   29.43   29.51</time>
   <energy>
    <i name="e_fr_energy">   -188.60296217 </i>
    <i name="e_wo_entrp">   -188.30763069 </i>
    <i name="e_0_energy">   -188.45529643 </i>
   </energy>
  </scstep>
  <scstep>
   <time name="dav">   29.86   29.93</time>
   <time name="total">   30.40   30.48</time>
   <energy>
    <i name="e_fr_energy">   -188.60229606 </i>
    <i name="e_wo_entrp">   -188.30755446 </i>
    <i name="e_0_energy">   -188.45492526 </i>
   </energy>
  </scstep>
  <scstep>
   <time name="dav">   27.59   27.66</time>
   <time name="total">   28.14   28.21</time>
   <energy>
    <i name="e_fr_energy">   -188.60242610 </i>
    <i name="e_wo_entrp">   -188.30769399 </i>
    <i name="e_0_energy">   -188.45506005 </i>
   </energy>
  </scstep>
  <scstep>
   <time name="dav">   21.57   21.62</time>
   <time name="total">   21.60   21.66</time>
   <energy>
    <i name="alphaZ">     78.92781169 </i>
    <i name="ewald">  39382.59031632 </i>
    <i name="hartreedc"> -45350.79457873 </i>
    <i name="XCdc">   -237.98526899 </i>
    <i name="pawpsdc">   3950.06904466 </i>
    <i name="pawaedc">  -3364.56239320 </i>
    <i name="eentropy">     -0.29477022 </i>
    <i name="bandstr">  -1407.99509227 </i>
    <i name="atom">   6761.44252427 </i>
    <i name="e_fr_energy">   -188.60240647 </i>
    <i name="e_wo_entrp">   -188.30763624 </i>
    <i name="e_0_energy">   -188.45502136 </i>
   </energy>
  </scstep>
  <structure>
   <crystal>
    <varray name="basis" >
     <v>       8.85537322       5.10515555       0.00000000 </v>
     <v>      -8.85527165       5.10498132       0.00000000 </v>
     <v>       0.00000000       0.00000000      30.00000000 </v>
    </varray>
    <i name="volume">   2712.42162102 </i>
    <varray name="rec_basis" >
     <v>       0.05646225       0.09794132       0.00000000 </v>
     <v>      -0.05646418       0.09794244       0.00000000 </v>
     <v>       0.00000000       0.00000000       0.03333333 </v>
    </varray>
   </crystal>
   <varray name="positions" >
    <v>       0.33383620       0.00048986      -0.00016823 </v>
    <v>       0.99956002       0.33342060       0.00017480 </v>
    <v>       0.66666945       0.33280945      -0.00000432 </v>
    <v>      -0.00015259       0.66647606       0.00005857 </v>
    <v>       0.33348577       0.33327861      -0.00007350 </v>
    <v>       0.66659928       0.00018153       0.00001485 </v>
    <v>       0.00027093       0.00024610      -0.00021049 </v>
    <v>       0.33290490       0.66663687       0.00021671 </v>
    <v>       0.66673554       0.66635907      -0.00000912 </v>
    <v>       0.10812145       0.22346553       0.95202535 </v>
    <v>       0.22362120       0.10818407       0.04798137 </v>
    <v>       0.10972819       0.55144263       0.95195565 </v>
    <v>       0.21803018       0.44311093       0.04809312 </v>
    <v>       0.11513946       0.89156701       0.95188758 </v>
    <v>       0.22480194       0.78162603       0.04805636 </v>
    <v>       0.44640408       0.21983900       0.95303351 </v>
    <v>       0.55331586       0.11317727       0.04694856 </v>
    <v>       0.44495669       0.55627704       0.95074315 </v>
    <v>       0.55836146       0.44296774       0.04800427 </v>
    <v>       0.44144413       0.89041180       0.95198008 </v>
    <v>       0.55490393       0.77676991       0.04928748 </v>
    <v>       0.77962215       0.22652738       0.95311196 </v>
    <v>       0.89146640       0.11523575       0.04808934 </v>
    <v>       0.77502783       0.55146087       0.95192798 </v>
    <v>       0.88690742       0.43989409       0.04690191 </v>
    <v>       0.77820464       0.88836217       0.95072178 </v>
    <v>       0.88824795       0.77799709       0.04925118 </v>
   </varray>
  </structure>
  <varray name="forces" >
   <v>      -0.01402201       0.01887591      -0.03244762 </v>
   <v>      -0.02415363       0.00554315       0.03430770 </v>
   <v>       0.02270359      -0.01410502      -0.00206456 </v>
   <v>      -0.13297099       0.04802231       0.00663606 </v>
   <v>      -0.10231784       0.09375631      -0.00816853 </v>
   <v>       0.23843220      -0.13702049       0.00158948 </v>
   <v>       0.01803066      -0.11257049      -0.03667622 </v>
   <v>       0.09460660       0.03403040       0.03751571 </v>
   <v>      -0.08552987       0.05517738      -0.00000877 </v>
   <v>       0.00066236      -0.11365846       0.00974203 </v>
   <v>      -0.01061529      -0.10271752      -0.05460594 </v>
   <v>       0.08478617       0.04000760       0.06390592 </v>
   <v>      -0.09588370       0.03842366       0.02222064 </v>
   <v>      -0.10681111       0.07363710      -0.01444681 </v>
   <v>       0.10142193       0.07018054      -0.02449349 </v>
   <v>       0.04982946       0.00077955       0.04333403 </v>
   <v>      -0.04491079       0.01040334      -0.08162092 </v>
   <v>      -0.09057266       0.11571589       0.00293302 </v>
   <v>       0.00228214       0.09796719      -0.01087394 </v>
   <v>       0.00147225      -0.11084547       0.00104732 </v>
   <v>       0.08187939      -0.12378296       0.04382166 </v>
   <v>      -0.01647466       0.04257137       0.06862675 </v>
   <v>       0.10444488       0.07427772      -0.02552745 </v>
   <v>      -0.08887656      -0.06692716       0.02823075 </v>
   <v>       0.01105947      -0.05470432      -0.02678707 </v>
   <v>       0.13058293       0.00714742      -0.05202804 </v>
   <v>      -0.12905493       0.00981507       0.00583830 </v>
  </varray>
  <varray name="stress" >
   <v>     -19.86506463       0.00756972       0.04668764 </v>
   <v>       0.00756982     -19.44271226       0.02660183 </v>
   <v>       0.04668767       0.02660193      -1.71793090 </v>
  </varray>
  <energy>
   <i name="e_fr_energy">   -188.60240647 </i>
   <i name="e_wo_entrp">   -188.45502136 </i>
   <i name="e_0_energy">     -0.29477022 </i>
  </energy>
  <time name="totalsc">  419.12  420.22</time>
 </calculation>
 <calculation>
  <scstep>
   <time name="dav">   24.01   24.07</time>
   <time name="total">   24.54   24.60</time>
   <energy>
    <i name="alphaZ">     82.35620239 </i>
    <i name="ewald">  41307.71695226 </i>
    <i name="hartreedc"> -47306.58854406 </i>
    <i name="XCdc">   -233.85910556 </i>
    <i name="pawpsdc">   3949.70118927 </i>
    <i name="pawaedc">  -3364.19111634 </i>
    <i name="eentropy">     -0.24439828 </i>
    <i name="bandstr">  -1386.83840153 </i>
    <i name="atom">   6761.44252427 </i>
    <i name="e_fr_energy">   -190.50469758 </i>
    <i name="e_wo_entrp">   -190.26029930 </i>
    <i name="e_0_energy">   -190.38249844 </i>
   </energy>
  </scstep>
  <scstep>
   <time name="dav">   27.49   27.56</time>
   <time name="total">   28.01   28.08</time>
   <energy>
    <i name="e_fr_energy">   -190.56939195 </i>
    <i name="e_wo_entrp">   -190.31654300 </i>
    <i name="e_0_energy">   -190.44296748 </i>
   </energy>
  </scstep>
  <scstep>
   <time name="dav">   30.09   30.16</time>
   <time name="total">   30.61   30.70</time>
   <energy>
    <i name="e_fr_energy">   -189.97062693 </i>
    <i name="e_wo_entrp">   -189.71794988 </i>
    <i name="e_0_energy">   -189.84428841 </i>
   </energy>
  </scstep>
  <scstep>
   <time name="dav">   30.84   30.91</time>
   <time name="total">   31.37   31.45</time>
   <energy>
    <i name="e_fr_energy">   -189.76922700 </i>
    <i name="e_wo_entrp">   -189.51751974 </i>
    <i name="e_0_energy">   -189.64337337 </i>
   </energy>
  </scstep>
  <scstep>
   <time name="dav">   29.83   29.90</time>
   <time name="total">   30.36   30.44</time>
   <energy>
    <i name="e_fr_energy">   -189.70782654 </i>
    <i name="e_wo_entrp">   -189.45968811 </i>
    <i name="e_0_energy">   -189.58375733 </i>
   </energy>
  </scstep>
  <scstep>
   <time name="dav">   29.81   29.88</time>
   <time name="total">   30.34   30.42</time>
   <energy>
    <i name="e_fr_energy">   -189.67200095 </i>
    <i name="e_wo_entrp">   -189.42256943 </i>
    <i name="e_0_energy">   -189.54728519 </i>
   </energy>
  </scstep>
  <scstep>
   <time name="dav">   29.56   29.63</time>
   <time name="total">   30.09   30.17</time>
   <energy>
    <i name="e_fr_energy">   -189.66574925 </i>
    <i name="e_wo_entrp">   -189.41562150 </i>
    <i name="e_0_energy">   -189.54068538 </i>
   </energy>
  </scstep>
  <scstep>
   <time name="dav">   27.24   27.31</time>
   <time name="total">   27.77   27.84</time>
   <energy>
    <i name="e_fr_energy">   -189.66586514 </i>
    <i name="e_wo_entrp">   -189.41601156 </i>
    <i name="e_0_energy">   -189.54093835 </i>
   </energy>
  </scstep>
  <scstep>
   <time name="dav">   26.57   26.64</time>
   <time name="total">   27.10   27.18</time>
   <energy>
    <i name="e_fr_energy">   -189.66623371 </i>
    <i name="e_wo_entrp">   -189.41656730 </i>
    <i name="e_0_energy">   -189.54140050 </i>
   </energy>
  </scstep>
  <scstep>
   <time name="dav">   26.22   26.28</time>
   <time name="total">   26.75   26.82</time>
   <energy>
    <i name="e_fr_energy">   -189.66639404 </i>
    <i name="e_wo_entrp">   -189.41668962 </i>
    <i name="e_0_energy">   -189.54154183 </i>
   </energy>
  </scstep>
  <scstep>
   <time name="dav">   24.10   24.16</time>
   <time name="total">   24.63   24.70</time>
   <energy>
    <i name="e_fr_energy">   -189.66591812 </i>
    <i name="e_wo_entrp">   -189.41608311 </i>
    <i name="e_0_energy">   -189.54100061 </i>
   </energy>
  </scstep>
  <scstep>
   <time name="dav">   17.74   17.79</time>
   <time name="total">   17.78   17.83</time>
   <energy>
    <i name="alphaZ">     82.35620239 </i>
    <i name="ewald">  41307.71695226 </i>
    <i name="hartreedc"> -47279.91700369 </i>
    <i name="XCdc">   -235.25679884 </i>
    <i name="pawpsdc">   4038.27270658 </i>
    <i name="pawaedc">  -3453.96085428 </i>
    <i name="eentropy">     -0.24979678 </i>
    <i name="bandstr">  -1410.06987064 </i>
    <i name="atom">   6761.44252427 </i>
    <i name="e_fr_energy">   -189.66593872 </i>
    <i name="e_wo_entrp">   -189.41614194 </i>
    <i name="e_0_energy">   -189.54104033 </i>
   </energy>
  </scstep>
  <structure>
   <crystal>
    <varray name="basis" >
     <v>       8.66713473       4.99899102       0.00000000 </v>
     <v>      -8.66695260       4.99867692       0.00000000 </v>
     <v>       0.00000000       0.00000000      30.00000000 </v>
    </varray>
    <i name="volume">   2599.50673687 </i>
    <varray name="rec_basis" >
     <v>       0.05768799       0.10002228       0.00000000 </v>
     <v>      -0.05769161       0.10002438       0.00000000 </v>
     <v>       0.00000000       0.00000000       0.03333333 </v>
    </varray>
   </crystal>
   <varray name="positions" >
    <v>       0.33385424       0.00053494      -0.00018669 </v>
    <v>       0.99954600       0.33345314       0.00019432 </v>
    <v>       0.66666775       0.33276399      -0.00000550 </v>
    <v>      -0.00020046       0.66668450       0.00006234 </v>
    <v>       0.33354390       0.33353397      -0.00007814 </v>
    <v>       0.66660000      -0.00027736       0.00001575 </v>
    <v>       0.00010011       0.00004053      -0.00023136 </v>
    <v>       0.33305297       0.66660258       0.00023805 </v>
    <v>       0.66674535       0.66653375      -0.00000913 </v>
    <v>       0.10793207       0.22327487       0.95203089 </v>
    <v>       0.22343924       0.10802258       0.04795030 </v>
    <v>       0.10987679       0.55142780       0.95199201 </v>
    <v>       0.21800201       0.44326758       0.04810577 </v>
    <v>       0.11515963       0.89179306       0.95187936 </v>
    <v>       0.22501702       0.78164560       0.04804242 </v>
    <v>       0.44645340       0.21979228       0.95305816 </v>
    <v>       0.55328996       0.11323795       0.04690211 </v>
    <v>       0.44506285       0.55655779       0.95074482 </v>
    <v>       0.55852745       0.44312932       0.04799809 </v>
    <v>       0.44126023       0.89022507       0.95198068 </v>
    <v>       0.55477590       0.77648405       0.04931241 </v>
    <v>       0.77967744       0.22661444       0.95315101 </v>
    <v>       0.89169124       0.11525927       0.04807482 </v>
    <v>       0.77483029       0.55143464       0.95194404 </v>
    <v>       0.88682662       0.43979198       0.04688667 </v>
    <v>       0.77834244       0.88824826       0.95069218 </v>
    <v>       0.88813998       0.77813789       0.04925450 </v>
   </varray>
  </structure>
  <varray name="forces" >
   <v>      -0.01945405      -0.03410775      -0.00587809 </v>
   <v>       0.02069472       0.03583203       0.00661881 </v>
   <v>      -0.02257923       0.00831464      -0.00110785 </v>
   <v>      -0.17739525       0.07426386      -0.00455323 </v>
   <v>      -0.15005085       0.11915775       0.00545434 </v>
   <v>       0.32678249      -0.19034368      -0.00084787 </v>
   <v>       0.02320909      -0.18232370      -0.00036959 </v>
   <v>       0.16086179       0.06366385       0.00008936 </v>
   <v>      -0.14878823       0.08769707       0.00099522 </v>
   <v>      -0.12077906      -0.04060391      -0.48905775 </v>
   <v>       0.09880619      -0.03154254       0.43016622 </v>
   <v>       0.07993194      -0.08583259      -0.42075204 </v>
   <v>      -0.09495389      -0.09377559       0.53291299 </v>
   <v>       0.01504947       0.14000892      -0.52755422 </v>
   <v>      -0.02229374       0.14031202       0.47326923 </v>
   <v>       0.12752647       0.00832929      -0.40951360 </v>
   <v>      -0.11427964       0.00931184       0.35911569 </v>
   <v>      -0.06114367       0.05664141      -0.55385749 </v>
   <v>       0.11922487       0.03197640       0.48425697 </v>
   <v>      -0.10310440      -0.04820193      -0.49363760 </v>
   <v>       0.04935469      -0.06197527       0.61525414 </v>
   <v>      -0.04953068       0.10123187      -0.37180770 </v>
   <v>      -0.00535432       0.13339508       0.47432834 </v>
   <v>       0.02948940      -0.13469994      -0.46968364 </v>
   <v>       0.04119947      -0.12219018       0.42576974 </v>
   <v>       0.06138663       0.00114902      -0.62381597 </v>
   <v>      -0.06381021       0.01431202       0.56420561 </v>
  </varray>
  <varray name="stress" >
   <v>     -10.16600505      -0.00695456       0.02946687 </v>
   <v>      -0.00695470      -9.85509082       0.02294570 </v>
   <v>       0.02946664       0.02294579       6.54892050 </v>
  </varray>
  <energy>
   <i name="e_fr_energy">   -189.66593872 </i>
   <i name="e_wo_entrp">   -189.54104033 </i>
   <i name="e_0_energy">     -0.24979678 </i>
  </energy>
  <time name="totalsc">  370.89  371.87</time>
 </calculation>
 <calculation>
  <scstep>
   <time name="dav">   21.54   21.59</time>
   <time name="total">   22.06   22.11</time>
   <energy>
    <i name="alphaZ">     85.86320559 </i>
    <i name="ewald">  42851.55043297 </i>
    <i name="hartreedc"> -48868.72076497 </i>
    <i name="XCdc">   -232.94849815 </i>
    <i name="pawpsdc">   4038.32850793 </i>
    <i name="pawaedc">  -3454.01330353 </i>
    <i name="eentropy">     -0.19683241 </i>
    <i name="bandstr">  -1372.48119486 </i>
    <i name="atom">   6761.44252427 </i>
    <i name="e_fr_energy">   -191.17592316 </i>
    <i name="e_wo_entrp">   -190.97909075 </i>
    <i name="e_0_energy">   -191.07750695 </i>
   </energy>
  </scstep>
  <scstep>
   <time name="dav">   32.46   32.53</time>
   <time name="total">   32.97   33.05</time>
   <energy>
    <i name="e_fr_energy">   -191.12936760 </i>
    <i name="e_wo_entrp">   -190.91809721 </i>
    <i name="e_0_energy">   -191.02373240 </i>
   </energy>
  </scstep>
  <scstep>
   <time name="dav">   29.83   29.90</time>
   <time name="total">   30.34   30.42</time>
   <energy>
    <i name="e_fr_energy">   -191.02496555 </i>
    <i name="e_wo_entrp">   -190.81316792 </i>
    <i name="e_0_energy">   -190.91906674 </i>
   </energy>
  </scstep>
  <scstep>
   <time name="dav">   31.90   31.97</time>
   <time name="total">   32.41   32.50</time>
   <energy>
    <i name="e_fr_energy">   -190.66080949 </i>
    <i name="e_wo_entrp">   -190.45548249 </i>
    <i name="e_0_energy">   -190.55814599 </i>
   </energy>
  </scstep>
  <scstep>
   <time name="dav">   29.80   29.87</time>
   <time name="total">   30.32   30.40</time>
   <energy>
    <i name="e_fr_energy">   -190.60541612 </i>
    <i name="e_wo_entrp">   -190.40077542 </i>
    <i name="e_0_energy">   -190.50309577 </i>
   </energy>
  </scstep>
  <scstep>
   <time name="dav">   30.24   30.31</time>
   <time name="total">   30.75   30.83</time>
   <energy>
    <i name="e_fr_energy">   -190.56567870 </i>
    <i name="e_wo_entrp">   -190.35928722 </i>
    <i name="e_0_energy">   -190.46248296 </i>
   </energy>
  </scstep>
  <scstep>
   <time name="dav">   29.79   29.86</time>
   <time name="total">   30.31   30.39</time>
   <energy>
    <i name="e_fr_energy">   -190.56110684 </i>
    <i name="e_wo_entrp">   -190.35487567 </i>
    <i name="e_0_energy">   -190.45799126 </i>
   </energy>
  </scstep>
  <scstep>
   <time name="dav">   26.56   26.62</time>
   <time name="total">   27.07   27.14</time>
   <energy>
    <i name="e_fr_energy">   -190.55740503 </i>
    <i name="e_wo_entrp">   -190.35178175 </i>
    <i name="e_0_energy">   -190.45459339 </i>
   </energy>
  </scstep>
  <scstep>
   <time name="dav">   28.35   28.42</time>
   <time name="total">   28.86   28.94</time>
   <energy>
    <i name="e_fr_energy">   -190.55812410 </i>
    <i name="e_wo_entrp">   -190.35265190 </i>
    <i name="e_0_energy">   -190.45538800 </i>
   </energy>
  </scstep>
  <scstep>
   <time name="dav">   26.95   27.01</time>
   <time name="total">   27.46   27.53</time>
   <energy>
    <i name="e_fr_energy">   -190.55770296 </i>
    <i name="e_wo_entrp">   -190.35229129 </i>
    <i name="e_0_energy">   -190.45499713 </i>
   </energy>
  </scstep>
  <scstep>
   <time name="dav">   22.92   22.97</time>
   <time name="total">   23.43   23.49</time>
   <energy>
    <i name="e_fr_energy">   -190.55754369 </i>
    <i name="e_wo_entrp">   -190.35209491 </i>
    <i name="e_0_energy">   -190.45481930 </i>
   </energy>
  </scstep>
  <scstep>
   <time name="dav">   19.79   19.84</time>
   <time name="total">   19.83   19.89</time>
   <energy>
    <i name="alphaZ">     85.86320559 </i>
    <i name="ewald">  42851.55043297 </i>
    <i name="hartreedc"> -48839.94235578 </i>
    <i name="XCdc">   -234.31201934 </i>
    <i name="pawpsdc">   4061.97107541 </i>
    <i name="pawaedc">  -3477.81673614 </i>
    <i name="eentropy">     -0.20544173 </i>
    <i name="bandstr">  -1399.10822346 </i>
    <i name="atom">   6761.44252427 </i>
    <i name="e_fr_energy">   -190.55753820 </i>
    <i name="e_wo_entrp">   -190.35209648 </i>
    <i name="e_0_energy">   -190.45481734 </i>
   </energy>
  </scstep>
  <structure>
   <crystal>
    <varray name="basis" >
     <v>       8.48399508       4.89774463       0.00000000 </v>
     <v>      -8.48431038       4.89829264       0.00000000 </v>
     <v>       0.00000000       0.00000000      30.00000000 </v>
    </varray>
    <i name="volume">   2493.33228911 </i>
    <varray name="rec_basis" >
     <v>       0.05893670       0.10208399       0.00000000 </v>
     <v>      -0.05893011       0.10208020       0.00000000 </v>
     <v>       0.00000000       0.00000000       0.03333333 </v>
    </varray>
   </crystal>
   <varray name="positions" >
    <v>       0.33342904       0.00026635      -0.00017624 </v>
    <v>       0.99998661       0.33361429       0.00018445 </v>
    <v>       0.66662894       0.33301955      -0.00000698 </v>
    <v>      -0.00037512       0.66792336       0.00004335 </v>
    <v>       0.33374331       0.33495835      -0.00005521 </v>
    <v>       0.66658248      -0.00291757       0.00001192 </v>
    <v>      -0.00112794      -0.00137066      -0.00020118 </v>
    <v>       0.33420534       0.66639818       0.00020633 </v>
    <v>       0.66674719       0.66779625      -0.00000621 </v>
    <v>       0.10724723       0.22381580       0.95059090 </v>
    <v>       0.22393538       0.10748685       0.04925615 </v>
    <v>       0.10930512       0.55029103       0.95070580 </v>
    <v>       0.21673940       0.44269019       0.04964690 </v>
    <v>       0.11643554       0.89260801       0.95034729 </v>
    <v>       0.22581435       0.78296179       0.04944877 </v>
    <v>       0.44709876       0.21928932       0.95182239 </v>
    <v>       0.55283158       0.11380785       0.04802299 </v>
    <v>       0.44509156       0.55694449       0.94912093 </v>
    <v>       0.55916367       0.44256403       0.04942499 </v>
    <v>       0.44058999       0.89060382       0.95053469 </v>
    <v>       0.55467337       0.77611788       0.05107618 </v>
    <v>       0.78023291       0.22762423       0.95200405 </v>
    <v>       0.89249901       0.11642297       0.04948515 </v>
    <v>       0.77409244       0.55014125       0.95054500 </v>
    <v>       0.88608306       0.43866286       0.04815593 </v>
    <v>       0.77845707       0.88811800       0.94891035 </v>
    <v>       0.88810419       0.77837596       0.05090121 </v>
   </varray>
  </structure>
  <varray name="forces" >
   <v>      -0.02669964      -0.10002100       0.05234653 </v>
   <v>       0.07001827       0.07575680      -0.05238657 </v>
   <v>      -0.05710393       0.03041008      -0.00021278 </v>
   <v>      -0.21597078       0.09515969      -0.01634964 </v>
   <v>      -0.19195413       0.13783857       0.01673116 </v>
   <v>       0.39024344      -0.22540115      -0.00041903 </v>
   <v>       0.02684629      -0.27305451       0.03486883 </v>
   <v>       0.23805581       0.10215276      -0.03462704 </v>
   <v>      -0.23586757       0.14331504      -0.00065689 </v>
   <v>      -0.04086840      -0.01200773      -0.29562229 </v>
   <v>       0.01035099       0.01679599       0.22838395 </v>
   <v>      -0.00335953      -0.02817540      -0.22525942 </v>
   <v>      -0.05456502      -0.03720687       0.40946463 </v>
   <v>       0.00641102       0.06599419      -0.40709350 </v>
   <v>      -0.01670563       0.05226299       0.29280491 </v>
   <v>       0.02463552       0.01873765      -0.32228946 </v>
   <v>       0.01449971       0.00302173       0.23647868 </v>
   <v>      -0.00870297       0.01677444      -0.40389099 </v>
   <v>       0.04282776       0.01233322       0.31285491 </v>
   <v>      -0.01676299      -0.00334977      -0.32948139 </v>
   <v>       0.01731856      -0.02949548       0.50076966 </v>
   <v>       0.01761775      -0.01246310      -0.23864172 </v>
   <v>      -0.01142200       0.02770698       0.32031067 </v>
   <v>       0.01814652      -0.05062915      -0.30606582 </v>
   <v>      -0.01476213      -0.02789861       0.32473924 </v>
   <v>       0.03513258       0.00037796      -0.50209452 </v>
   <v>      -0.01735948       0.00106468       0.40533789 </v>
  </varray>
  <varray name="stress" >
   <v>      -5.87914375      -0.00412556      -0.05906931 </v>
   <v>      -0.00412548      -5.88940873       0.02193671 </v>
   <v>      -0.05906905       0.02193670       4.52536188 </v>
  </varray>
  <energy>
   <i name="e_fr_energy">   -190.55753820 </i>
   <i name="e_wo_entrp">   -190.45481734 </i>
   <i name="e_0_energy">     -0.20544173 </i>
  </energy>
  <time name="totalsc">  377.33  378.32</time>
 </calculation>
 <calculation>
  <scstep>
   <time name="dav">   21.54   21.59</time>
   <time name="total">   22.06   22.11</time>
   <energy>
    <i name="alphaZ">     90.46848063 </i>
    <i name="ewald">  44793.21261525 </i>
    <i name="hartreedc"> -50840.04523118 </i>
    <i name="XCdc">   -231.68382791 </i>
    <i name="pawpsdc">   4061.85605857 </i>
    <i name="pawaedc">  -3477.69727753 </i>
    <i name="eentropy">     -0.15984937 </i>
    <i name="bandstr">  -1349.37508380 </i>
    <i name="atom">   6761.44252427 </i>
    <i name="e_fr_energy">   -191.98159106 </i>
    <i name="e_wo_entrp">   -191.82174170 </i>
    <i name="e_0_energy">   -191.90166638 </i>
   </energy>
  </scstep>
  <scstep>
   <time name="dav">   31.50   31.57</time>
   <time name="total">   32.00   32.08</time>
   <energy>
    <i name="e_fr_energy">   -191.66846733 </i>
    <i name="e_wo_entrp">   -191.48769999 </i>
    <i name="e_0_energy">   -191.57808366 </i>
   </energy>
  </scstep>
  <scstep>
   <time name="dav">   29.62   29.69</time>
   <time name="total">   30.13   30.21</time>
   <energy>
    <i name="e_fr_energy">   -191.98577312 </i>
    <i name="e_wo_entrp">   -191.80924444 </i>
    <i name="e_0_energy">   -191.89750878 </i>
   </energy>
  </scstep>
  <scstep>
   <time name="dav">   29.86   29.94</time>
   <time name="total">   30.37   30.45</time>
   <energy>
    <i name="e_fr_energy">   -191.34447618 </i>
    <i name="e_wo_entrp">   -191.17129525 </i>
    <i name="e_0_energy">   -191.25788571 </i>
   </energy>
  </scstep>
  <scstep>
   <time name="dav">   29.73   29.80</time>
   <time name="total">   30.23   30.31</time>
   <energy>
    <i name="e_fr_energy">   -191.29566954 </i>
    <i name="e_wo_entrp">   -191.12647380 </i>
    <i name="e_0_energy">   -191.21107167 </i>
   </energy>
  </scstep>
  <scstep>
   <time name="dav">   29.59   29.66</time>
   <time name="total">   30.10   30.18</time>
   <energy>
    <i name="e_fr_energy">   -191.12381951 </i>
    <i name="e_wo_entrp">   -190.95274035 </i>
    <i name="e_0_energy">   -191.03827993 </i>
   </energy>
  </scstep>
  <scstep>
   <time name="dav">   29.88   29.95</time>
   <time name="total">   30.38   30.46</time>
   <energy>
    <i name="e_fr_energy">   -191.12220094 </i>
    <i name="e_wo_entrp">   -190.95098792 </i>
    <i name="e_0_energy">   -191.03659443 </i>
   </energy>
  </scstep>
  <scstep>
   <time name="dav">   27.02   27.09</time>
   <time name="total">   27.53   27.60</time>
   <energy>
    <i name="e_fr_energy">   -191.11897793 </i>
    <i name="e_wo_entrp">   -190.94856275 </i>
    <i name="e_0_energy">   -191.03377034 </i>
   </energy>
  </scstep>
  <scstep>
   <time name="dav">   29.35   29.42</time>
   <time name="total">   29.86   29.94</time>
   <energy>
    <i name="e_fr_energy">   -191.12029148 </i>
    <i name="e_wo_entrp">   -190.95005015 </i>
    <i name="e_0_energy">   -191.03517082 </i>
   </energy>
  </scstep>
  <scstep>
   <time name="dav">   29.00   29.07</time>
   <time name="total">   29.51   29.59</time>
   <energy>
    <i name="e_fr_energy">   -191.11922383 </i>
    <i name="e_wo_entrp">   -190.94910046 </i>
    <i name="e_0_energy">   -191.03416215 </i>
   </energy>
  </scstep>
  <scstep>
   <time name="dav">   25.83   25.89</time>
   <time name="total">   26.33   26.40</time>
   <energy>
    <i name="e_fr_energy">   -191.11911219 </i>
    <i name="e_wo_entrp">   -190.94901010 </i>
    <i name="e_0_energy">   -191.03406114 </i>
   </energy>
  </scstep>
  <scstep>
   <time name="dav">   20.52   20.57</time>
   <time name="total">   20.55   20.61</time>
   <energy>
    <i name="alphaZ">     90.46848063 </i>
    <i name="ewald">  44793.21261525 </i>
    <i name="hartreedc"> -50803.65456019 </i>
    <i name="XCdc">   -233.36460520 </i>
    <i name="pawpsdc">   4081.20517921 </i>
    <i name="pawaedc">  -3497.07497277 </i>
    <i name="eentropy">     -0.17016056 </i>
    <i name="bandstr">  -1383.18356614 </i>
    <i name="atom">   6761.44252427 </i>
    <i name="e_fr_energy">   -191.11906550 </i>
    <i name="e_wo_entrp">   -190.94890494 </i>
    <i name="e_0_energy">   -191.03398522 </i>
   </energy>
  </scstep>
  <structure>
   <crystal>
    <varray name="basis" >
     <v>       8.26507678       4.77086145       0.00000000 </v>
     <v>      -8.26597981       4.77242797       0.00000000 </v>
     <v>       0.00000000       0.00000000      30.00000000 </v>
    </varray>
    <i name="volume">   2366.40984186 </i>
    <varray name="rec_basis" >
     <v>       0.06050213       0.10479140       0.00000000 </v>
     <v>      -0.06048227       0.10477995       0.00000000 </v>
     <v>       0.00000000       0.00000000       0.03333333 </v>
    </varray>
   </crystal>
   <varray name="positions" >
    <v>       0.33192422      -0.00084478       0.00003370 </v>
    <v>       1.00150390       0.33405393      -0.00002636 </v>
    <v>       0.66658168       0.33389309      -0.00000738 </v>
    <v>      -0.00074374       0.67078126      -0.00002880 </v>
    <v>       0.33408789       0.33818397       0.00002131 </v>
    <v>       0.66657113      -0.00879984       0.00000744 </v>
    <v>      -0.00442764      -0.00507249      -0.00004017 </v>
    <v>       0.33729108       0.66593738       0.00004487 </v>
    <v>       0.66681608       0.67134918      -0.00000694 </v>
    <v>       0.10667548       0.22442592       0.94875155 </v>
    <v>       0.22463412       0.10747340       0.05080907 </v>
    <v>       0.10851857       0.54940150       0.94916940 </v>
    <v>       0.21533271       0.44215796       0.05192748 </v>
    <v>       0.11786817       0.89350437       0.94807567 </v>
    <v>       0.22649811       0.78433221       0.05126814 </v>
    <v>       0.44775955       0.21911102       0.94998055 </v>
    <v>       0.55273162       0.11399966       0.04951923 </v>
    <v>       0.44512941       0.55711292       0.94680085 </v>
    <v>       0.55974807       0.44196080       0.05131905 </v>
    <v>       0.44026622       0.89106456       0.94857677 </v>
    <v>       0.55453283       0.77577329       0.05378998 </v>
    <v>       0.78045546       0.22784138       0.95049329 </v>
    <v>       0.89294486       0.11740624       0.05140495 </v>
    <v>       0.77345046       0.54879860       0.94868041 </v>
    <v>       0.88536245       0.43793888       0.05001534 </v>
    <v>       0.77860714       0.88794390       0.94618664 </v>
    <v>       0.88809466       0.77848614       0.05323389 </v>
   </varray>
  </structure>
  <varray name="forces" >
   <v>      -0.04104447      -0.12530324       0.02141014 </v>
   <v>       0.08598224       0.10373846      -0.02239894 </v>
   <v>      -0.05499476       0.02666626       0.00124413 </v>
   <v>      -0.20888448       0.06871214      -0.00379150 </v>
   <v>      -0.16769425       0.14692680       0.00375945 </v>
   <v>       0.27001670      -0.15682687       0.00119883 </v>
   <v>       0.02743527      -0.30508089      -0.01300433 </v>
   <v>       0.27494659       0.12384727       0.01274730 </v>
   <v>      -0.21916352       0.12720944       0.00223525 </v>
   <v>       0.07609496      -0.02218824       0.04334349 </v>
   <v>      -0.11533633       0.01866511      -0.07481632 </v>
   <v>      -0.07665192       0.09066783       0.06587895 </v>
   <v>      -0.02857484       0.05812922       0.10319883 </v>
   <v>      -0.06110643      -0.00664085      -0.09981492 </v>
   <v>       0.05380883      -0.05154083      -0.03728338 </v>
   <v>      -0.08852286       0.00307066       0.00706328 </v>
   <v>       0.16153338      -0.01806996      -0.06686074 </v>
   <v>       0.04872245       0.03095492      -0.17399222 </v>
   <v>      -0.08910878       0.05063532       0.00048843 </v>
   <v>       0.09653627       0.01743560      -0.00905818 </v>
   <v>       0.02191151      -0.02852566       0.24663639 </v>
   <v>       0.09546328      -0.12936556       0.07003274 </v>
   <v>       0.03186649      -0.09586816       0.01131113 </v>
   <v>      -0.08571059       0.05472746      -0.00472512 </v>
   <v>      -0.04432487       0.07837403      -0.00924153 </v>
   <v>       0.04028411      -0.00683723      -0.25157031 </v>
   <v>      -0.00348399      -0.05351304       0.17600912 </v>
  </varray>
  <varray name="stress" >
   <v>      -0.37725489      -0.11361127      -0.06319447 </v>
   <v>      -0.11361132      -0.48307017      -0.08461297 </v>
   <v>      -0.06319445      -0.08461331      -0.47185385 </v>
  </varray>
  <energy>
   <i name="e_fr_energy">   -191.11906550 </i>
   <i name="e_wo_entrp">   -191.03398522 </i>
   <i name="e_0_energy">     -0.17016056 </i>
  </energy>
  <time name="totalsc">  380.82  381.82</time>
 </calculation>
 <calculation>
  <scstep>
   <time name="dav">   21.55   21.60</time>
   <time name="total">   22.06   22.11</time>
   <energy>
    <i name="alphaZ">     90.79186132 </i>
    <i name="ewald">  44922.43362311 </i>
    <i name="hartreedc"> -50937.12500839 </i>
    <i name="XCdc">   -233.20836581 </i>
    <i name="pawpsdc">   4081.05899816 </i>
    <i name="pawaedc">  -3496.92316369 </i>
    <i name="eentropy">     -0.17324025 </i>
    <i name="bandstr">  -1379.46356723 </i>
    <i name="atom">   6761.44252427 </i>
    <i name="e_fr_energy">   -191.16633850 </i>
    <i name="e_wo_entrp">   -190.99309825 </i>
    <i name="e_0_energy">   -191.07971837 </i>
   </energy>
  </scstep>
  <scstep>
   <time name="dav">   32.45   32.53</time>
   <time name="total">   32.95   33.04</time>
   <energy>
    <i name="e_fr_energy">   -191.19777666 </i>
    <i name="e_wo_entrp">   -191.02486258 </i>
    <i name="e_0_energy">   -191.11131962 </i>
   </energy>
  </scstep>
  <scstep>
   <time name="dav">   30.25   30.32</time>
   <time name="total">   30.75   30.84</time>
   <energy>
    <i name="e_fr_energy">   -191.17292137 </i>
    <i name="e_wo_entrp">   -190.99865183 </i>
    <i name="e_0_energy">   -191.08578660 </i>
   </energy>
  </scstep>
  <scstep>
   <time name="dav">   26.66   26.73</time>
   <time name="total">   27.17   27.24</time>
   <energy>
    <i name="e_fr_energy">   -191.16964874 </i>
    <i name="e_wo_entrp">   -190.99534333 </i>
    <i name="e_0_energy">   -191.08249604 </i>
   </energy>
  </scstep>
  <scstep>
   <time name="dav">   28.70   28.77</time>
   <time name="total">   29.20   29.28</time>
   <energy>
    <i name="e_fr_energy">   -191.16883773 </i>
    <i name="e_wo_entrp">   -190.99564441 </i>
    <i name="e_0_energy">   -191.08224107 </i>
   </energy>
  </scstep>
  <scstep>
   <time name="dav">   28.81   28.88</time>
   <time name="total">   29.32   29.40</time>
   <energy>
    <i name="e_fr_energy">   -191.16739829 </i>
    <i name="e_wo_entrp">   -190.99356736 </i>
    <i name="e_0_energy">   -191.08048282 </i>
   </energy>
  </scstep>
  <scstep>
   <time name="dav">   26.48   26.54</time>
   <time name="total">   26.98   27.05</time>
   <energy>
    <i name="e_fr_energy">   -191.16712273 </i>
    <i name="e_wo_entrp">   -190.99311549 </i>
    <i name="e_0_energy">   -191.08011911 </i>
   </energy>
  </scstep>
  <scstep>
   <time name="dav">   19.39   19.44</time>
   <time name="total">   19.42   19.48</time>
   <energy>
    <i name="alphaZ">     90.79186132 </i>
    <i name="ewald">  44922.43362311 </i>
    <i name="hartreedc"> -50935.34797022 </i>
    <i name="XCdc">   -233.31246780 </i>
    <i name="pawpsdc">   4081.14925380 </i>
    <i name="pawaedc">  -3496.99911289 </i>
    <i name="eentropy">     -0.17387988 </i>
    <i name="bandstr">  -1381.15090497 </i>
    <i name="atom">   6761.44252427 </i>
    <i name="e_fr_energy">   -191.16707327 </i>
    <i name="e_wo_entrp">   -190.99319339 </i>
    <i name="e_0_energy">   -191.08013333 </i>
   </energy>
  </scstep>
  <structure>
   <crystal>
    <varray name="basis" >
     <v>       8.25003844       4.75899928       0.00000000 </v>
     <v>      -8.25400196       4.76586680       0.00000000 </v>
     <v>       0.00000000       0.00000000      30.00000000 </v>
    </varray>
    <i name="volume">   2357.98120913 </i>
    <varray name="rec_basis" >
     <v>       0.06063492       0.10501358       0.00000000 </v>
     <v>      -0.06054755       0.10496316       0.00000000 </v>
     <v>       0.00000000       0.00000000       0.03333333 </v>
    </varray>
   </crystal>
   <varray name="positions" >
    <v>       0.33106978      -0.00143075       0.00007772 </v>
    <v>       1.00238234       0.33435971      -0.00007212 </v>
    <v>       0.66655236       0.33423965      -0.00000526 </v>
    <v>      -0.00103513       0.67190169      -0.00003800 </v>
    <v>       0.33436904       0.33960957       0.00003069 </v>
    <v>       0.66656549      -0.01069443       0.00000925 </v>
    <v>      -0.00609908      -0.00692841      -0.00005605 </v>
    <v>       0.33891936       0.66573342       0.00006027 </v>
    <v>       0.66682171       0.67283883      -0.00000312 </v>
    <v>       0.10676826       0.22410484       0.94874375 </v>
    <v>       0.22441245       0.10792608       0.05075255 </v>
    <v>       0.10872904       0.55007878       0.94921137 </v>
    <v>       0.21549180       0.44252757       0.05220050 </v>
    <v>       0.11770878       0.89369308       0.94780871 </v>
    <v>       0.22641678       0.78395348       0.05128535 </v>
    <v>       0.44753200       0.21938923       0.94991332 </v>
    <v>       0.55312517       0.11341636       0.04947210 </v>
    <v>       0.44544479       0.55713174       0.94640426 </v>
    <v>       0.55976778       0.44247519       0.05140317 </v>
    <v>       0.44064274       0.89088515       0.94847581 </v>
    <v>       0.55444510       0.77554371       0.05432464 </v>
    <v>       0.78007162       0.22687275       0.95054516 </v>
    <v>       0.89255024       0.11684284       0.05150834 </v>
    <v>       0.77345195       0.54929448       0.94859017 </v>
    <v>       0.88561285       0.43845821       0.05007966 </v>
    <v>       0.77869802       0.88777813       0.94564312 </v>
    <v>       0.88779923       0.77821354       0.05363453 </v>
   </varray>
  </structure>
  <varray name="forces" >
   <v>      -0.04924924      -0.10342561       0.02562841 </v>
   <v>       0.06248297       0.10115025      -0.02588459 </v>
   <v>      -0.03084298       0.01292402      -0.00082955 </v>
   <v>      -0.24712577       0.04769692      -0.00361665 </v>
   <v>      -0.16781720       0.19371901       0.00417185 </v>
   <v>       0.24917904      -0.14552122      -0.00167546 </v>
   <v>       0.04571119      -0.31466600       0.01079488 </v>
   <v>       0.29244499       0.11286154      -0.01131947 </v>
   <v>      -0.17724836       0.10262941      -0.00052938 </v>
   <v>       0.05772631      -0.02869232       0.06679470 </v>
   <v>      -0.09744307      -0.00002459      -0.10948274 </v>
   <v>      -0.04951073       0.08398959       0.10295269 </v>
   <v>      -0.02663859       0.04274170       0.08664831 </v>
   <v>      -0.04770172       0.00009092      -0.08415365 </v>
   <v>       0.05146853      -0.03399644      -0.06332423 </v>
   <v>      -0.06113520      -0.00554872       0.04651698 </v>
   <v>       0.11433990      -0.01761000      -0.10335270 </v>
   <v>       0.03246763       0.04035566      -0.13986165 </v>
   <v>      -0.06686043       0.04771359      -0.01160255 </v>
   <v>       0.07270463       0.00012473       0.01524445 </v>
   <v>       0.02207134      -0.01848930       0.20336798 </v>
   <v>       0.07184915      -0.08887478       0.10748720 </v>
   <v>       0.03520039      -0.06460365      -0.01547191 </v>
   <v>      -0.07292055       0.03578457       0.01230226 </v>
   <v>      -0.02342380       0.05764121      -0.04824496 </v>
   <v>       0.02946137      -0.01203658      -0.20368556 </v>
   <v>      -0.01918979      -0.04593390       0.14112533 </v>
  </varray>
  <varray name="stress" >
   <v>       0.12173184      -0.05281784      -0.04793555 </v>
   <v>      -0.05281784       0.06822628      -0.06565159 </v>
   <v>      -0.04793551      -0.06565166      -1.03771874 </v>
  </varray>
  <energy>
   <i name="e_fr_energy">   -191.16707327 </i>
   <i name="e_wo_entrp">   -191.08013333 </i>
   <i name="e_0_energy">     -0.17387988 </i>
  </energy>
  <time name="totalsc">  259.98  260.66</time>
 </calculation>
 <calculation>
  <scstep>
   <time name="dav">   21.57   21.62</time>
   <time name="total">   22.07   22.13</time>
   <energy>
    <i name="alphaZ">     90.74820859 </i>
    <i name="ewald">  44892.85886768 </i>
    <i name="hartreedc"> -50905.59309543 </i>
    <i name="XCdc">   -233.37930916 </i>
    <i name="pawpsdc">   4081.27195553 </i>
    <i name="pawaedc">  -3497.12295837 </i>
    <i name="eentropy">     -0.18040461 </i>
    <i name="bandstr">  -1381.24825934 </i>
    <i name="atom">   6761.44252427 </i>
    <i name="e_fr_energy">   -191.20247084 </i>
    <i name="e_wo_entrp">   -191.02206623 </i>
    <i name="e_0_energy">   -191.11226853 </i>
   </energy>
  </scstep>
  <scstep>
   <time name="dav">   32.80   32.88</time>
   <time name="total">   33.31   33.39</time>
   <energy>
    <i name="e_fr_energy">   -191.24254997 </i>
    <i name="e_wo_entrp">   -191.06343548 </i>
    <i name="e_0_energy">   -191.15299273 </i>
   </energy>
  </scstep>
  <scstep>
   <time name="dav">   30.59   30.66</time>
   <time name="total">   31.09   31.17</time>
   <energy>
    <i name="e_fr_energy">   -191.20619729 </i>
    <i name="e_wo_entrp">   -191.02587097 </i>
    <i name="e_0_energy">   -191.11603413 </i>
   </energy>
  </scstep>
  <scstep>
   <time name="dav">   28.49   28.56</time>
   <time name="total">   29.00   29.07</time>
   <energy>
    <i name="e_fr_energy">   -191.20595475 </i>
    <i name="e_wo_entrp">   -191.02531354 </i>
    <i name="e_0_energy">   -191.11563414 </i>
   </energy>
  </scstep>
  <scstep>
   <time name="dav">   29.05   29.13</time>
   <time name="total">   29.56   29.64</time>
   <energy>
    <i name="e_fr_energy">   -191.20566740 </i>
    <i name="e_wo_entrp">   -191.02564470 </i>
    <i name="e_0_energy">   -191.11565605 </i>
   </energy>
  </scstep>
  <scstep>
   <time name="dav">   26.16   26.23</time>
   <time name="total">   26.67   26.74</time>
   <energy>
    <i name="e_fr_energy">   -191.20505084 </i>
    <i name="e_wo_entrp">   -191.02473058 </i>
    <i name="e_0_energy">   -191.11489071 </i>
   </energy>
  </scstep>
  <scstep>
   <time name="dav">   25.49   25.55</time>
   <time name="total">   25.52   25.59</time>
   <energy>
    <i name="alphaZ">     90.74820859 </i>
    <i name="ewald">  44892.85886768 </i>
    <i name="hartreedc"> -50906.47696859 </i>
    <i name="XCdc">   -233.35630557 </i>
[...]
      <set comment="kpoint 31">
       <r>  -17.5374    1.0000 </r>
       <r>  -17.2545    1.0000 </r>
       <r>  -16.9097    1.0000 </r>
       <r>  -16.5504    1.0000 </r>
       <r>  -16.4479    1.0000 </r>
       <r>  -16.4032    1.0000 </r>
       <r>  -16.2874    1.0000 </r>
       <r>  -16.1676    1.0000 </r>
       <r>  -16.0979    1.0000 </r>
       <r>  -16.0325    1.0000 </r>
       <r>  -15.9363    1.0000 </r>
       <r>  -15.8520    1.0000 </r>
       <r>  -15.7997    1.0000 </r>
       <r>  -15.6567    1.0000 </r>
       <r>  -15.6189    1.0000 </r>
       <r>  -15.5505    1.0000 </r>
       <r>  -15.4697    1.0000 </r>
       <r>  -15.4137    1.0000 </r>
       <r>   -9.7710    1.0000 </r>
       <r>   -9.4643    1.0000 </r>
       <r>   -9.3595    1.0000 </r>
       <r>   -9.0223    1.0000 </r>
       <r>   -8.8148    1.0000 </r>
       <r>   -8.7044    1.0000 </r>
       <r>   -8.5186    1.0000 </r>
       <r>   -8.4360    1.0000 </r>
       <r>   -8.3621    1.0000 </r>
       <r>   -8.3103    1.0000 </r>
       <r>   -8.2543    1.0000 </r>
       <r>   -8.2021    1.0000 </r>
       <r>   -8.1583    1.0000 </r>
       <r>   -8.0742    1.0000 </r>
       <r>   -7.9366    1.0000 </r>
       <r>   -7.8664    1.0000 </r>
       <r>   -7.8223    1.0000 </r>
       <r>   -7.5715    1.0000 </r>
       <r>   -7.5426    1.0000 </r>
       <r>   -7.3768    1.0000 </r>
       <r>   -7.2715    1.0000 </r>
       <r>   -7.1919    1.0000 </r>
       <r>   -7.1138    1.0000 </r>
       <r>   -7.0486    1.0000 </r>
       <r>   -6.9350    1.0000 </r>
       <r>   -6.9062    1.0000 </r>
       <r>   -6.8236    1.0000 </r>
       <r>   -6.7946    1.0000 </r>
       <r>   -6.7477    1.0000 </r>
       <r>   -6.6649    1.0000 </r>
       <r>   -6.5862    1.0000 </r>
       <r>   -6.4684    1.0000 </r>
       <r>   -6.3655    1.0000 </r>
       <r>   -6.3231    1.0000 </r>
       <r>   -6.2268    1.0000 </r>
       <r>   -6.1589    1.0000 </r>
       <r>   -6.0560    1.0000 </r>
       <r>   -6.0063    1.0000 </r>
       <r>   -5.9452    1.0000 </r>
       <r>   -5.9007    1.0000 </r>
       <r>   -5.8362    1.0000 </r>
       <r>   -5.8023    1.0000 </r>
       <r>   -5.7245    1.0000 </r>
       <r>   -5.6827    1.0000 </r>
       <r>   -5.6003    1.0000 </r>
       <r>   -5.5377    1.0000 </r>
       <r>   -5.2770    1.0000 </r>
       <r>   -5.1482    1.0000 </r>
       <r>   -5.0444    1.0000 </r>
       <r>   -4.9422    1.0000 </r>
       <r>   -4.8358    1.0000 </r>
       <r>   -4.7111    1.0000 </r>
       <r>   -4.5377    1.0000 </r>
       <r>   -4.3624    1.0000 </r>
       <r>   -4.2427    1.0000 </r>
       <r>   -3.9728    1.0000 </r>
       <r>   -3.7550    1.0000 </r>
       <r>   -3.6423    1.0000 </r>
       <r>   -3.5458    0.9999 </r>
       <r>   -3.4010    0.9953 </r>
       <r>   -3.1839    0.8563 </r>
       <r>   -3.0630    0.5827 </r>
       <r>   -2.9497    0.2767 </r>
       <r>   -2.7124    0.0116 </r>
       <r>   -2.6567    0.0039 </r>
       <r>   -2.5082    0.0001 </r>
       <r>   -2.4603    0.0000 </r>
       <r>   -2.4209    0.0000 </r>
       <r>   -2.3672    0.0000 </r>
       <r>   -2.3297    0.0000 </r>
       <r>   -2.2227    0.0000 </r>
       <r>   -2.1376    0.0000 </r>
       <r>   -1.7992    0.0000 </r>
       <r>   -1.7487    0.0000 </r>
       <r>   -1.4332    0.0000 </r>
       <r>   -1.3991    0.0000 </r>
       <r>   -1.2646    0.0000 </r>
       <r>   -1.1163    0.0000 </r>
       <r>   -0.9873    0.0000 </r>
       <r>   -0.8467    0.0000 </r>
       <r>   -0.8088    0.0000 </r>
       <r>   -0.7594    0.0000 </r>
       <r>   -0.6843    0.0000 </r>
       <r>   -0.6291    0.0000 </r>
       <r>   -0.5382    0.0000 </r>
       <r>   -0.4348    0.0000 </r>
       <r>   -0.3905    0.0000 </r>
       <r>   -0.2797    0.0000 </r>
       <r>   -0.2455    0.0000 </r>
       <r>   -0.0195    0.0000 </r>
       <r>    0.0757    0.0000 </r>
       <r>    0.3486    0.0000 </r>
       <r>    0.5084    0.0000 </r>
       <r>    0.6177    0.0000 </r>
       <r>    0.8013    0.0000 </r>
       <r>    1.2384    0.0000 </r>
       <r>    1.2881    0.0000 </r>
       <r>    1.3884    0.0000 </r>
       <r>    1.6049    0.0000 </r>
       <r>    2.1708    0.0000 </r>
       <r>    2.3144    0.0000 </r>
       <r>    2.4337    0.0000 </r>
      </set>
      <set comment="kpoint 32">
       <r>  -17.5520    1.0000 </r>
       <r>  -17.1434    1.0000 </r>
       <r>  -17.0634    1.0000 </r>
       <r>  -16.5533    1.0000 </r>
       <r>  -16.3879    1.0000 </r>
       <r>  -16.3404    1.0000 </r>
       <r>  -16.2271    1.0000 </r>
       <r>  -16.2116    1.0000 </r>
       <r>  -16.1437    1.0000 </r>
       <r>  -16.0257    1.0000 </r>
       <r>  -15.9552    1.0000 </r>
       <r>  -15.8832    1.0000 </r>
       <r>  -15.8307    1.0000 </r>
       <r>  -15.6298    1.0000 </r>
       <r>  -15.6117    1.0000 </r>
       <r>  -15.5660    1.0000 </r>
       <r>  -15.4757    1.0000 </r>
       <r>  -15.3846    1.0000 </r>
       <r>   -9.6475    1.0000 </r>
       <r>   -9.6341    1.0000 </r>
       <r>   -9.4313    1.0000 </r>
       <r>   -9.0132    1.0000 </r>
       <r>   -8.6860    1.0000 </r>
       <r>   -8.5333    1.0000 </r>
       <r>   -8.4734    1.0000 </r>
       <r>   -8.3858    1.0000 </r>
       <r>   -8.3662    1.0000 </r>
       <r>   -8.3093    1.0000 </r>
       <r>   -8.2643    1.0000 </r>
       <r>   -8.2451    1.0000 </r>
       <r>   -8.2219    1.0000 </r>
       <r>   -8.1574    1.0000 </r>
       <r>   -8.1209    1.0000 </r>
       <r>   -7.8680    1.0000 </r>
       <r>   -7.8493    1.0000 </r>
       <r>   -7.5043    1.0000 </r>
       <r>   -7.4312    1.0000 </r>
       <r>   -7.3411    1.0000 </r>
       <r>   -7.3303    1.0000 </r>
       <r>   -7.1515    1.0000 </r>
       <r>   -7.1338    1.0000 </r>
       <r>   -7.0634    1.0000 </r>
       <r>   -7.0061    1.0000 </r>
       <r>   -6.9030    1.0000 </r>
       <r>   -6.8936    1.0000 </r>
       <r>   -6.8153    1.0000 </r>
       <r>   -6.6951    1.0000 </r>
       <r>   -6.6821    1.0000 </r>
       <r>   -6.4958    1.0000 </r>
       <r>   -6.4507    1.0000 </r>
       <r>   -6.4126    1.0000 </r>
       <r>   -6.3564    1.0000 </r>
       <r>   -6.2533    1.0000 </r>
       <r>   -6.2428    1.0000 </r>
       <r>   -6.0942    1.0000 </r>
       <r>   -5.9887    1.0000 </r>
       <r>   -5.9466    1.0000 </r>
       <r>   -5.8800    1.0000 </r>
       <r>   -5.8202    1.0000 </r>
       <r>   -5.7172    1.0000 </r>
       <r>   -5.6988    1.0000 </r>
       <r>   -5.4908    1.0000 </r>
       <r>   -5.4533    1.0000 </r>
       <r>   -5.3780    1.0000 </r>
       <r>   -5.3563    1.0000 </r>
       <r>   -5.2251    1.0000 </r>
       <r>   -5.2092    1.0000 </r>
       <r>   -5.0345    1.0000 </r>
       <r>   -4.9668    1.0000 </r>
       <r>   -4.6342    1.0000 </r>
       <r>   -4.6106    1.0000 </r>
       <r>   -4.4016    1.0000 </r>
       <r>   -4.0530    1.0000 </r>
       <r>   -3.9961    1.0000 </r>
       <r>   -3.8799    1.0000 </r>
       <r>   -3.5682    0.9999 </r>
       <r>   -3.5536    0.9999 </r>
       <r>   -3.4456    0.9982 </r>
       <r>   -3.1685    0.8302 </r>
       <r>   -3.0542    0.5582 </r>
       <r>   -2.7754    0.0340 </r>
       <r>   -2.7636    0.0282 </r>
       <r>   -2.6037    0.0012 </r>
       <r>   -2.5495    0.0003 </r>
       <r>   -2.5060    0.0001 </r>
       <r>   -2.4285    0.0000 </r>
       <r>   -2.4074    0.0000 </r>
       <r>   -2.3794    0.0000 </r>
       <r>   -2.1798    0.0000 </r>
       <r>   -2.1446    0.0000 </r>
       <r>   -1.8045    0.0000 </r>
       <r>   -1.7503    0.0000 </r>
       <r>   -1.4237    0.0000 </r>
       <r>   -1.4046    0.0000 </r>
       <r>   -1.2535    0.0000 </r>
       <r>   -1.1370    0.0000 </r>
       <r>   -0.9455    0.0000 </r>
       <r>   -0.8992    0.0000 </r>
       <r>   -0.8304    0.0000 </r>
       <r>   -0.7399    0.0000 </r>
       <r>   -0.7125    0.0000 </r>
       <r>   -0.6552    0.0000 </r>
       <r>   -0.5252    0.0000 </r>
       <r>   -0.3784    0.0000 </r>
       <r>   -0.3126    0.0000 </r>
       <r>   -0.2431    0.0000 </r>
       <r>   -0.1603    0.0000 </r>
       <r>   -0.0969    0.0000 </r>
       <r>    0.0689    0.0000 </r>
       <r>    0.3243    0.0000 </r>
       <r>    0.4092    0.0000 </r>
       <r>    0.6476    0.0000 </r>
       <r>    0.7810    0.0000 </r>
       <r>    1.2677    0.0000 </r>
       <r>    1.2942    0.0000 </r>
       <r>    1.3712    0.0000 </r>
       <r>    1.5610    0.0000 </r>
       <r>    2.1383    0.0000 </r>
       <r>    2.2822    0.0000 </r>
       <r>    2.6180    0.0000 </r>
      </set>
      <set comment="kpoint 33">
       <r>  -17.5382    1.0000 </r>
       <r>  -17.2537    1.0000 </r>
       <r>  -16.9096    1.0000 </r>
       <r>  -16.5528    1.0000 </r>
       <r>  -16.4454    1.0000 </r>
       <r>  -16.3981    1.0000 </r>
       <r>  -16.2890    1.0000 </r>
       <r>  -16.1721    1.0000 </r>
       <r>  -16.1023    1.0000 </r>
       <r>  -16.0250    1.0000 </r>
       <r>  -15.9333    1.0000 </r>
       <r>  -15.8622    1.0000 </r>
       <r>  -15.7983    1.0000 </r>
       <r>  -15.6449    1.0000 </r>
       <r>  -15.6224    1.0000 </r>
       <r>  -15.5551    1.0000 </r>
       <r>  -15.4682    1.0000 </r>
       <r>  -15.4154    1.0000 </r>
       <r>   -9.7701    1.0000 </r>
       <r>   -9.4614    1.0000 </r>
       <r>   -9.3604    1.0000 </r>
       <r>   -9.0221    1.0000 </r>
       <r>   -8.8160    1.0000 </r>
       <r>   -8.7049    1.0000 </r>
       <r>   -8.5218    1.0000 </r>
       <r>   -8.4273    1.0000 </r>
       <r>   -8.3589    1.0000 </r>
       <r>   -8.3177    1.0000 </r>
       <r>   -8.2534    1.0000 </r>
       <r>   -8.1992    1.0000 </r>
       <r>   -8.1635    1.0000 </r>
       <r>   -8.0762    1.0000 </r>
       <r>   -7.9358    1.0000 </r>
       <r>   -7.8663    1.0000 </r>
       <r>   -7.8328    1.0000 </r>
       <r>   -7.5701    1.0000 </r>
       <r>   -7.5326    1.0000 </r>
       <r>   -7.3691    1.0000 </r>
       <r>   -7.2772    1.0000 </r>
       <r>   -7.1907    1.0000 </r>
       <r>   -7.1106    1.0000 </r>
       <r>   -7.0461    1.0000 </r>
       <r>   -6.9383    1.0000 </r>
       <r>   -6.9040    1.0000 </r>
       <r>   -6.8206    1.0000 </r>
       <r>   -6.8064    1.0000 </r>
       <r>   -6.7497    1.0000 </r>
       <r>   -6.6620    1.0000 </r>
       <r>   -6.5876    1.0000 </r>
       <r>   -6.4706    1.0000 </r>
       <r>   -6.3681    1.0000 </r>
       <r>   -6.3233    1.0000 </r>
       <r>   -6.2256    1.0000 </r>
       <r>   -6.1588    1.0000 </r>
       <r>   -6.0534    1.0000 </r>
       <r>   -6.0089    1.0000 </r>
       <r>   -5.9493    1.0000 </r>
       <r>   -5.9028    1.0000 </r>
       <r>   -5.8361    1.0000 </r>
       <r>   -5.8009    1.0000 </r>
       <r>   -5.7297    1.0000 </r>
       <r>   -5.6730    1.0000 </r>
       <r>   -5.5987    1.0000 </r>
       <r>   -5.5388    1.0000 </r>
       <r>   -5.2725    1.0000 </r>
       <r>   -5.1482    1.0000 </r>
       <r>   -5.0465    1.0000 </r>
       <r>   -4.9369    1.0000 </r>
       <r>   -4.8391    1.0000 </r>
       <r>   -4.7078    1.0000 </r>
       <r>   -4.5379    1.0000 </r>
       <r>   -4.3666    1.0000 </r>
       <r>   -4.2286    1.0000 </r>
       <r>   -3.9746    1.0000 </r>
       <r>   -3.7864    1.0000 </r>
       <r>   -3.6354    1.0000 </r>
       <r>   -3.5513    0.9999 </r>
       <r>   -3.3982    0.9950 </r>
       <r>   -3.1805    0.8507 </r>
       <r>   -3.0728    0.6096 </r>
       <r>   -2.9507    0.2792 </r>
       <r>   -2.6950    0.0084 </r>
       <r>   -2.6554    0.0038 </r>
       <r>   -2.5038    0.0001 </r>
       <r>   -2.4504    0.0000 </r>
       <r>   -2.4177    0.0000 </r>
       <r>   -2.3674    0.0000 </r>
       <r>   -2.3400    0.0000 </r>
       <r>   -2.2070    0.0000 </r>
       <r>   -2.1413    0.0000 </r>
       <r>   -1.7923    0.0000 </r>
       <r>   -1.7540    0.0000 </r>
       <r>   -1.4416    0.0000 </r>
       <r>   -1.3936    0.0000 </r>
       <r>   -1.2682    0.0000 </r>
       <r>   -1.1311    0.0000 </r>
       <r>   -1.0030    0.0000 </r>
       <r>   -0.8409    0.0000 </r>
       <r>   -0.7994    0.0000 </r>
       <r>   -0.7573    0.0000 </r>
       <r>   -0.6827    0.0000 </r>
       <r>   -0.6265    0.0000 </r>
       <r>   -0.5376    0.0000 </r>
       <r>   -0.4421    0.0000 </r>
       <r>   -0.3874    0.0000 </r>
       <r>   -0.2829    0.0000 </r>
       <r>   -0.2512    0.0000 </r>
       <r>   -0.0066    0.0000 </r>
       <r>    0.0781    0.0000 </r>
       <r>    0.3525    0.0000 </r>
       <r>    0.5029    0.0000 </r>
       <r>    0.6156    0.0000 </r>
       <r>    0.8110    0.0000 </r>
       <r>    1.2329    0.0000 </r>
       <r>    1.2898    0.0000 </r>
       <r>    1.3872    0.0000 </r>
       <r>    1.5995    0.0000 </r>
       <r>    2.1705    0.0000 </r>
       <r>    2.3151    0.0000 </r>
       <r>    2.4325    0.0000 </r>
      </set>
      <set comment="kpoint 34">
       <r>  -17.5201    1.0000 </r>
       <r>  -17.3153    1.0000 </r>
       <r>  -16.7452    1.0000 </r>
       <r>  -16.6192    1.0000 </r>
       <r>  -16.5465    1.0000 </r>
       <r>  -16.4160    1.0000 </r>
       <r>  -16.2525    1.0000 </r>
       <r>  -16.2024    1.0000 </r>
       <r>  -16.0887    1.0000 </r>
       <r>  -16.0081    1.0000 </r>
       <r>  -15.9443    1.0000 </r>
       <r>  -15.8243    1.0000 </r>
       <r>  -15.7275    1.0000 </r>
       <r>  -15.6805    1.0000 </r>
       <r>  -15.6520    1.0000 </r>
       <r>  -15.5139    1.0000 </r>
       <r>  -15.4702    1.0000 </r>
       <r>  -15.4600    1.0000 </r>
       <r>   -9.8156    1.0000 </r>
       <r>   -9.3544    1.0000 </r>
       <r>   -9.2212    1.0000 </r>
       <r>   -9.0721    1.0000 </r>
       <r>   -8.9785    1.0000 </r>
       <r>   -8.8176    1.0000 </r>
       <r>   -8.5650    1.0000 </r>
       <r>   -8.4142    1.0000 </r>
       <r>   -8.3763    1.0000 </r>
       <r>   -8.3281    1.0000 </r>
       <r>   -8.2568    1.0000 </r>
       <r>   -8.1675    1.0000 </r>
       <r>   -8.1338    1.0000 </r>
       <r>   -7.9427    1.0000 </r>
       <r>   -7.9054    1.0000 </r>
       <r>   -7.8542    1.0000 </r>
       <r>   -7.7615    1.0000 </r>
       <r>   -7.6070    1.0000 </r>
       <r>   -7.5400    1.0000 </r>
       <r>   -7.4479    1.0000 </r>
       <r>   -7.2752    1.0000 </r>
       <r>   -7.2433    1.0000 </r>
       <r>   -7.1151    1.0000 </r>
       <r>   -7.0492    1.0000 </r>
       <r>   -6.9157    1.0000 </r>
       <r>   -6.8842    1.0000 </r>
       <r>   -6.8310    1.0000 </r>
       <r>   -6.7472    1.0000 </r>
       <r>   -6.6939    1.0000 </r>
       <r>   -6.6228    1.0000 </r>
       <r>   -6.5730    1.0000 </r>
       <r>   -6.4609    1.0000 </r>
       <r>   -6.3630    1.0000 </r>
       <r>   -6.3250    1.0000 </r>
       <r>   -6.2704    1.0000 </r>
       <r>   -6.1089    1.0000 </r>
       <r>   -6.1003    1.0000 </r>
       <r>   -6.0277    1.0000 </r>
       <r>   -6.0102    1.0000 </r>
       <r>   -5.8925    1.0000 </r>
       <r>   -5.8276    1.0000 </r>
       <r>   -5.7890    1.0000 </r>
       <r>   -5.7610    1.0000 </r>
       <r>   -5.7211    1.0000 </r>
       <r>   -5.6820    1.0000 </r>
       <r>   -5.6240    1.0000 </r>
       <r>   -5.3767    1.0000 </r>
       <r>   -5.0717    1.0000 </r>
       <r>   -4.9658    1.0000 </r>
       <r>   -4.8637    1.0000 </r>
       <r>   -4.7209    1.0000 </r>
       <r>   -4.6154    1.0000 </r>
       <r>   -4.4990    1.0000 </r>
       <r>   -4.4743    1.0000 </r>
       <r>   -4.3051    1.0000 </r>
       <r>   -3.9591    1.0000 </r>
       <r>   -3.7385    1.0000 </r>
       <r>   -3.6823    1.0000 </r>
       <r>   -3.5726    0.9999 </r>
       <r>   -3.3138    0.9763 </r>
       <r>   -3.1840    0.8564 </r>
       <r>   -3.1574    0.8096 </r>
       <r>   -3.0153    0.4488 </r>
       <r>   -2.7282    0.0154 </r>
       <r>   -2.6530    0.0036 </r>
       <r>   -2.4946    0.0001 </r>
       <r>   -2.4525    0.0000 </r>
       <r>   -2.3434    0.0000 </r>
       <r>   -2.3251    0.0000 </r>
       <r>   -2.3088    0.0000 </r>
       <r>   -2.2061    0.0000 </r>
       <r>   -2.1768    0.0000 </r>
       <r>   -1.7712    0.0000 </r>
       <r>   -1.7685    0.0000 </r>
       <r>   -1.4493    0.0000 </r>
       <r>   -1.3862    0.0000 </r>
       <r>   -1.2841    0.0000 </r>
       <r>   -1.1318    0.0000 </r>
       <r>   -1.0187    0.0000 </r>
       <r>   -0.8191    0.0000 </r>
       <r>   -0.7683    0.0000 </r>
       <r>   -0.7364    0.0000 </r>
       <r>   -0.6591    0.0000 </r>
       <r>   -0.6094    0.0000 </r>
       <r>   -0.5711    0.0000 </r>
       <r>   -0.4935    0.0000 </r>
       <r>   -0.4091    0.0000 </r>
       <r>   -0.3568    0.0000 </r>
       <r>   -0.3291    0.0000 </r>
       <r>    0.0482    0.0000 </r>
       <r>    0.0947    0.0000 </r>
       <r>    0.4510    0.0000 </r>
       <r>    0.4728    0.0000 </r>
       <r>    0.6250    0.0000 </r>
       <r>    0.8367    0.0000 </r>
       <r>    1.2175    0.0000 </r>
       <r>    1.2677    0.0000 </r>
       <r>    1.4105    0.0000 </r>
       <r>    1.6319    0.0000 </r>
       <r>    2.2627    0.0000 </r>
       <r>    2.2723    0.0000 </r>
       <r>    2.3993    0.0000 </r>
      </set>
     </set>
    </set>
   </array>
  </eigenvalues>
  <separator name="orbital magnetization" >
   <v name="MAGDIPOLOUT">      0.00000000      0.00000000      0.00000000</v>
  </separator>
 </calculation>
 <structure name="finalpos" >
  <crystal>
   <varray name="basis" >
    <v>       8.27555354       4.75547506       0.00000000 </v>
    <v>      -8.29377369       4.78705395       0.00000000 </v>
    <v>       0.00000000       0.00000000      30.00000000 </v>
   </varray>
   <i name="volume">   2371.69065580 </i>
   <varray name="rec_basis" >
    <v>       0.06055242       0.10490964       0.00000000 </v>
    <v>      -0.06015298       0.10467917       0.00000000 </v>
    <v>       0.00000000       0.00000000       0.03333333 </v>
   </varray>
  </crystal>
  <varray name="positions" >
   <v>       0.33060431      -0.00490123       0.00009374 </v>
   <v>       1.00156359       0.33127687      -0.00001576 </v>
   <v>       0.66727028       0.33762575      -0.00005565 </v>
   <v>       0.01019279       0.67221330      -0.00027212 </v>
   <v>       0.32492997       0.33221422       0.00026049 </v>
   <v>       0.66711097      -0.02133092       0.00002804 </v>
   <v>      -0.01193519      -0.00471171      -0.00033311 </v>
   <v>       0.34424416       0.67287898       0.00037456 </v>
   <v>       0.66526295       0.68356801      -0.00005162 </v>
   <v>       0.10372524       0.22298362       0.94785558 </v>
   <v>       0.22097155       0.10539405       0.05022407 </v>
   <v>       0.11229849       0.55038219       0.94948341 </v>
   <v>       0.21446031       0.44379208       0.05195869 </v>
   <v>       0.11854627       0.89559276       0.94817944 </v>
   <v>       0.22948030       0.78572233       0.05232496 </v>
   <v>       0.44552191       0.21941817       0.95067944 </v>
   <v>       0.55622027       0.11229826       0.04804799 </v>
   <v>       0.44513293       0.55635125       0.94703998 </v>
   <v>       0.55812353       0.44560593       0.04989511 </v>
   <v>       0.44321569       0.89117553       0.94805534 </v>
   <v>       0.55438312       0.77486356       0.05658260 </v>
   <v>       0.77701997       0.22253015       0.95184713 </v>
   <v>       0.89007724       0.11455945       0.05208456 </v>
   <v>       0.77546541       0.55431881       0.95016871 </v>
   <v>       0.88772143       0.44031146       0.04963105 </v>
   <v>       0.77875893       0.88687315       0.94341201 </v>
   <v>       0.88784802       0.77720845       0.05250128 </v>
  </varray>
 </structure>
</modeling>
