       N       E                     dE             d eps       ncg     rms          rms(c)
DAV:   1     0.112389530491E+04    0.11239E+04   -0.35869E+04  8160   0.577E+02
DAV:   2    -0.180000593664E+01   -0.11257E+04   -0.10819E+04 11200   0.173E+02
DAV:   3    -0.199878697795E+03   -0.19808E+03   -0.19014E+03 10880   0.822E+01
DAV:   4    -0.209047371853E+03   -0.91687E+01   -0.88935E+01 11840   0.262E+01
DAV:   5    -0.209403690522E+03   -0.35632E+00   -0.35545E+00 11480   0.391E+00    0.278E+01
DAV:   6    -0.241343408793E+03   -0.31940E+02   -0.11351E+02 12440   0.600E+01    0.607E+01
DAV:   7    -0.196117778030E+03    0.45226E+02   -0.18038E+02 13200   0.151E+02    0.198E+01
DAV:   8    -0.189357978925E+03    0.67598E+01   -0.18453E+01 12000   0.126E+01    0.123E+01
DAV:   9    -0.188081921091E+03    0.12761E+01   -0.30326E+00 13040   0.612E+00    0.891E+00
DAV:  10    -0.186949824957E+03    0.11321E+01   -0.15904E+00 13240   0.729E+00    0.205E+00
DAV:  11    -0.187054583742E+03   -0.10476E+00   -0.57929E-01 13480   0.338E+00    0.415E+00
DAV:  12    -0.186949554163E+03    0.10503E+00   -0.57807E-01 13040   0.415E+00    0.293E+00
DAV:  13    -0.186874137398E+03    0.75417E-01   -0.19810E-01 12560   0.238E+00    0.131E+00
DAV:  14    -0.186852996822E+03    0.21141E-01   -0.72898E-02 12720   0.123E+00    0.822E-01
DAV:  15    -0.186850693746E+03    0.23031E-02   -0.21408E-02 13120   0.721E-01    0.710E-01
DAV:  16    -0.186846654139E+03    0.40396E-02   -0.10882E-02 13000   0.469E-01    0.308E-01
DAV:  17    -0.186845432846E+03    0.12213E-02   -0.53911E-03 12600   0.333E-01    0.235E-01
DAV:  18    -0.186844821430E+03    0.61142E-03   -0.17103E-03 12480   0.202E-01    0.681E-02
DAV:  19    -0.186845203606E+03   -0.38218E-03   -0.63785E-04 10560   0.691E-02    0.887E-02
DAV:  20    -0.186845753190E+03   -0.54958E-03   -0.63017E-04  9400   0.767E-02    0.599E-02
DAV:  21    -0.186846552912E+03   -0.79972E-03   -0.22341E-04  8080   0.442E-02    0.392E-02
DAV:  22    -0.186847476741E+03   -0.92383E-03   -0.14908E-04  7560   0.441E-02    0.251E-02
DAV:  23    -0.186848556551E+03   -0.10798E-02   -0.87737E-05  7440   0.238E-02    0.117E-02
DAV:  24    -0.186849215975E+03   -0.65942E-03   -0.30256E-05  6480   0.171E-02    0.764E-03
DAV:  25    -0.186849581095E+03   -0.36512E-03   -0.14119E-05  6000   0.118E-02    0.254E-03
DAV:  26    -0.186849798682E+03   -0.21759E-03   -0.81223E-06  6800   0.616E-03    0.145E-03
DAV:  27    -0.186849872712E+03   -0.74031E-04   -0.31780E-06  7240   0.407E-03
   1 F= -.18684987E+03 E0= -.18667649E+03  d E =-.186850E+03
       N       E                     dE             d eps       ncg     rms          rms(c)
DAV:   1    -0.187532199146E+03   -0.68240E+00   -0.27394E+02  8160   0.351E+01    0.477E+00
DAV:   2    -0.190021642695E+03   -0.24894E+01   -0.21016E+01 12280   0.169E+01    0.131E+01
DAV:   3    -0.189244390481E+03    0.77725E+00   -0.59835E+00 12440   0.138E+01    0.561E+00
DAV:   4    -0.188849960953E+03    0.39443E+00   -0.63598E-01 12520   0.439E+00    0.333E+00
DAV:   5    -0.188857721455E+03   -0.77605E-02   -0.52645E-01 12000   0.412E+00    0.428E+00
DAV:   6    -0.188763178770E+03    0.94543E-01   -0.52778E-01 12240   0.329E+00    0.217E+00
DAV:   7    -0.188710448553E+03    0.52730E-01   -0.20263E-01 10600   0.133E+00    0.118E+00
DAV:   8    -0.188695737224E+03    0.14711E-01   -0.60648E-02 12320   0.100E+00    0.973E-01
DAV:   9    -0.188689879005E+03    0.58582E-02   -0.23978E-02 12520   0.835E-01    0.663E-01
DAV:  10    -0.188687268126E+03    0.26109E-02   -0.81499E-03 12040   0.434E-01    0.315E-01
DAV:  11    -0.188686402927E+03    0.86520E-03   -0.26382E-03 13080   0.224E-01    0.105E-01
DAV:  12    -0.188686406818E+03   -0.38907E-05   -0.98922E-04 11720   0.943E-02
   2 F= -.18868641E+03 E0= -.18854467E+03  d E =-.183653E+01
       N       E                     dE             d eps       ncg     rms          rms(c)
DAV:   1    -0.190635660349E+03   -0.19493E+01   -0.31709E+01  8960   0.143E+01    0.447E+00
DAV:   2    -0.190562268259E+03    0.73392E-01   -0.28062E+00 11480   0.917E+00    0.724E+00
DAV:   3    -0.190126067518E+03    0.43620E+00   -0.15280E+00 12320   0.846E+00    0.438E+00
DAV:   4    -0.189895620687E+03    0.23045E+00   -0.72889E-01 12680   0.439E+00    0.249E+00
DAV:   5    -0.189870662472E+03    0.24958E-01   -0.37559E-01 12240   0.304E+00    0.285E+00
DAV:   6    -0.189797301361E+03    0.73361E-01   -0.16057E-01 12560   0.247E+00    0.761E-01
DAV:   7    -0.189791402349E+03    0.58990E-02   -0.16260E-02 11640   0.612E-01    0.403E-01
DAV:   8    -0.189791412819E+03   -0.10470E-04   -0.67118E-03 12720   0.483E-01    0.377E-01
DAV:   9    -0.189790380586E+03    0.10322E-02   -0.25650E-03 11400   0.268E-01    0.128E-01
DAV:  10    -0.189790805952E+03   -0.42537E-03   -0.10509E-03 10720   0.111E-01    0.139E-01
DAV:  11    -0.189790494090E+03    0.31186E-03   -0.56712E-04  9720   0.864E-02    0.205E-02
DAV:  12    -0.189790517692E+03   -0.23602E-04   -0.71153E-05  7160   0.265E-02
   3 F= -.18979052E+03 E0= -.18967037E+03  d E =-.110411E+01
       N       E                     dE             d eps       ncg     rms          rms(c)
DAV:   1    -0.191368373077E+03   -0.15779E+01   -0.79176E+01  8160   0.202E+01    0.456E+00
DAV:   2    -0.191121191988E+03    0.24718E+00   -0.52620E+00 13280   0.671E+00    0.377E+00
DAV:   3    -0.191426196578E+03   -0.30500E+00   -0.14961E+00 12120   0.855E+00    0.797E+00
DAV:   4    -0.190989258724E+03    0.43694E+00   -0.20568E+00 11240   0.912E+00    0.365E+00
DAV:   5    -0.190980934655E+03    0.83241E-02   -0.71710E-01 11920   0.535E+00    0.362E+00
DAV:   6    -0.190806192704E+03    0.17474E+00   -0.22714E-01 12080   0.321E+00    0.704E-01
DAV:   7    -0.190806278071E+03   -0.85367E-04   -0.36061E-02 12440   0.834E-01    0.657E-01
DAV:   8    -0.190804451364E+03    0.18267E-02   -0.18062E-02 11800   0.850E-01    0.611E-01
DAV:   9    -0.190800867138E+03    0.35842E-02   -0.63520E-03 11480   0.513E-01    0.175E-01
DAV:  10    -0.190801174558E+03   -0.30742E-03   -0.15865E-03 11080   0.149E-01    0.125E-01
DAV:  11    -0.190800951759E+03    0.22280E-03   -0.67431E-04 10520   0.101E-01    0.418E-02
DAV:  12    -0.190800961748E+03   -0.99894E-05   -0.96154E-05  7200   0.342E-02
   4 F= -.19080096E+03 E0= -.19069775E+03  d E =-.101044E+01
       N       E                     dE             d eps       ncg     rms          rms(c)
DAV:   1    -0.192287286444E+03   -0.14863E+01   -0.17975E+02  8160   0.299E+01    0.591E+00
DAV:   2    -0.191995483881E+03    0.29180E+00   -0.98964E+00 11080   0.776E+00    0.398E+00
DAV:   3    -0.192421392452E+03   -0.42591E+00   -0.31157E+00 12120   0.109E+01    0.733E+00
DAV:   4    -0.191706571735E+03    0.71482E+00   -0.12025E+00 12240   0.855E+00    0.302E+00
DAV:   5    -0.191730943374E+03   -0.24372E-01   -0.59509E-01 11960   0.554E+00    0.463E+00
DAV:   6    -0.191543827727E+03    0.18712E+00   -0.55939E-01 12240   0.493E+00    0.117E+00
DAV:   7    -0.191543254661E+03    0.57307E-03   -0.80725E-02 11840   0.157E+00    0.120E+00
DAV:   8    -0.191531135027E+03    0.12120E-01   -0.41439E-02 11600   0.131E+00    0.534E-01
DAV:   9    -0.191527740470E+03    0.33946E-02   -0.75960E-03 11920   0.482E-01    0.161E-01
DAV:  10    -0.191527800484E+03   -0.60014E-04   -0.25563E-03 10480   0.147E-01    0.677E-02
DAV:  11    -0.191527830395E+03   -0.29911E-04   -0.34314E-04  9120   0.765E-02
   5 F= -.19152783E+03 E0= -.19143033E+03  d E =-.726869E+00
       N       E                     dE             d eps       ncg     rms          rms(c)
DAV:   1    -0.191586323461E+03   -0.58523E-01   -0.39321E+00  8160   0.424E+00    0.721E-01
DAV:   2    -0.191663041911E+03   -0.76718E-01   -0.29647E-01 12400   0.327E+00    0.256E+00
DAV:   3    -0.191594074355E+03    0.68968E-01   -0.11612E-01 12400   0.254E+00    0.369E-01
DAV:   4    -0.191597951418E+03   -0.38771E-02   -0.18610E-02 11640   0.843E-01    0.817E-01
DAV:   5    -0.191591873584E+03    0.60778E-02   -0.14745E-02 11600   0.776E-01    0.235E-01
DAV:   6    -0.191592280591E+03   -0.40701E-03   -0.48392E-03 11320   0.356E-01    0.319E-01
DAV:   7    -0.191591571142E+03    0.70945E-03   -0.40198E-03 11440   0.397E-01    0.193E-01
DAV:   8    -0.191591191672E+03    0.37947E-03   -0.86570E-04  9160   0.166E-01    0.414E-02
DAV:   9    -0.191591183464E+03    0.82078E-05   -0.97254E-05  6240   0.386E-02
   6 F= -.19159118E+03 E0= -.19149135E+03  d E =-.633531E-01
       N       E                     dE             d eps       ncg     rms          rms(c)
DAV:   1    -0.191677297583E+03   -0.86106E-01   -0.10486E+01  8160   0.682E+00    0.913E-01
DAV:   2    -0.191778154082E+03   -0.10086E+00   -0.39460E-01 12720   0.324E+00    0.292E+00
DAV:   3    -0.191689019643E+03    0.89134E-01   -0.19286E-01 12400   0.319E+00    0.705E-01
DAV:   4    -0.191693851440E+03   -0.48318E-02   -0.38130E-02 11560   0.116E+00    0.105E+00
DAV:   5    -0.191683477027E+03    0.10374E-01   -0.25765E-02 11640   0.101E+00    0.297E-01
DAV:   6    -0.191683497982E+03   -0.20955E-04   -0.56006E-03 11520   0.375E-01    0.319E-01
DAV:   7    -0.191683340889E+03    0.15709E-03   -0.60646E-03 11480   0.492E-01    0.312E-01
DAV:   8    -0.191682449195E+03    0.89169E-03   -0.22203E-03 10080   0.281E-01    0.672E-02
DAV:   9    -0.191682391726E+03    0.57469E-04   -0.20138E-04  6600   0.595E-02
   7 F= -.19168239E+03 E0= -.19158180E+03  d E =-.912083E-01
       N       E                     dE             d eps       ncg     rms          rms(c)
DAV:   1    -0.191713664623E+03   -0.31215E-01   -0.98529E-01  8160   0.215E+00    0.326E-01
DAV:   2    -0.191723740836E+03   -0.10076E-01   -0.49775E-02 12680   0.121E+00    0.967E-01
DAV:   3    -0.191714413897E+03    0.93269E-02   -0.19689E-02 12080   0.989E-01    0.241E-01
DAV:   4    -0.191715691086E+03   -0.12772E-02   -0.68656E-03 11440   0.503E-01    0.455E-01
DAV:   5    -0.191713639672E+03    0.20514E-02   -0.45744E-03 11120   0.427E-01    0.104E-01
DAV:   6    -0.191713600103E+03    0.39569E-04   -0.87375E-04  9880   0.114E-01
   8 F= -.19171360E+03 E0= -.19161306E+03  d E =-.312084E-01
       N       E                     dE             d eps       ncg     rms          rms(c)
DAV:   1    -0.191778215209E+03   -0.64576E-01   -0.46148E+00  8160   0.459E+00    0.581E-01
DAV:   2    -0.191820328725E+03   -0.42114E-01   -0.18053E-01 13440   0.232E+00    0.193E+00
DAV:   3    -0.191784707201E+03    0.35622E-01   -0.77217E-02 12400   0.195E+00    0.487E-01
DAV:   4    -0.191787225838E+03   -0.25186E-02   -0.19445E-02 11280   0.868E-01    0.701E-01
DAV:   5    -0.191782002128E+03    0.52237E-02   -0.96808E-03 11360   0.654E-01    0.149E-01
DAV:   6    -0.191782374372E+03   -0.37224E-03   -0.24317E-03 11560   0.231E-01    0.208E-01
DAV:   7    -0.191782166083E+03    0.20829E-03   -0.22885E-03 11160   0.319E-01    0.209E-01
DAV:   8    -0.191781719552E+03    0.44653E-03   -0.83757E-04  8440   0.186E-01    0.288E-02
DAV:   9    -0.191781727513E+03   -0.79613E-05   -0.67733E-05  6160   0.320E-02
   9 F= -.19178173E+03 E0= -.19168260E+03  d E =-.681274E-01
       N       E                     dE             d eps       ncg     rms          rms(c)
DAV:   1    -0.191798106243E+03   -0.16387E-01   -0.24425E-01  8160   0.106E+00    0.124E-01
DAV:   2    -0.191799593413E+03   -0.14872E-02   -0.86223E-03 12320   0.431E-01    0.350E-01
DAV:   3    -0.191798450403E+03    0.11430E-02   -0.29355E-03 11560   0.365E-01    0.111E-01
DAV:   4    -0.191798578684E+03   -0.12828E-03   -0.80089E-04  8640   0.184E-01    0.150E-01
DAV:   5    -0.191798337047E+03    0.24164E-03   -0.44032E-04  8120   0.154E-01    0.367E-02
DAV:   6    -0.191798356854E+03   -0.19807E-04   -0.10818E-04  6280   0.473E-02
  10 F= -.19179836E+03 E0= -.19169985E+03  d E =-.166293E-01
       N       E                     dE             d eps       ncg     rms          rms(c)
DAV:   1    -0.191762740798E+03    0.35596E-01   -0.12048E+00  8160   0.242E+00    0.387E-01
DAV:   2    -0.191768746700E+03   -0.60059E-02   -0.57153E-02 12560   0.105E+00    0.817E-01
DAV:   3    -0.191763445501E+03    0.53012E-02   -0.21465E-02 12400   0.966E-01    0.401E-01
DAV:   4    -0.191763175175E+03    0.27033E-03   -0.86009E-03 10720   0.564E-01    0.417E-01
DAV:   5    -0.191761717839E+03    0.14573E-02   -0.55515E-03 10240   0.521E-01    0.209E-01
DAV:   6    -0.191761371644E+03    0.34620E-03   -0.20188E-03 11440   0.251E-01    0.148E-01
DAV:   7    -0.191761289720E+03    0.81924E-04   -0.10290E-03  9160   0.215E-01    0.119E-01
DAV:   8    -0.191761160016E+03    0.12970E-03   -0.29835E-04  7360   0.110E-01    0.255E-02
DAV:   9    -0.191761159980E+03    0.35548E-07   -0.39885E-05  6520   0.269E-02
  11 F= -.19176116E+03 E0= -.19166145E+03  d E =0.371969E-01
       N       E                     dE             d eps       ncg     rms          rms(c)
DAV:   1    -0.191870991583E+03   -0.10983E+00   -0.10578E+01  8160   0.710E+00    0.909E-01
DAV:   2    -0.191932453372E+03   -0.61462E-01   -0.40431E-01 12760   0.291E+00    0.240E+00
DAV:   3    -0.191886808217E+03    0.45645E-01   -0.14192E-01 12360   0.256E+00    0.836E-01
DAV:   4    -0.191890759670E+03   -0.39515E-02   -0.42493E-02 12240   0.143E+00    0.109E+00
DAV:   5    -0.191877219094E+03    0.13541E-01   -0.24802E-02 11320   0.120E+00    0.325E-01
DAV:   6    -0.191878333433E+03   -0.11143E-02   -0.98937E-03 11640   0.558E-01    0.468E-01
DAV:   7    -0.191876594230E+03    0.17392E-02   -0.69847E-03 11600   0.599E-01    0.263E-01
DAV:   8    -0.191875784818E+03    0.80941E-03   -0.15471E-03  9920   0.241E-01    0.540E-02
DAV:   9    -0.191875741582E+03    0.43236E-04   -0.17314E-04  6760   0.501E-02
  12 F= -.19187574E+03 E0= -.19178075E+03  d E =-.114582E+00
       N       E                     dE             d eps       ncg     rms          rms(c)
DAV:   1    -0.191920719417E+03   -0.44935E-01   -0.16764E+00  8160   0.280E+00    0.320E-01
DAV:   2    -0.191927671987E+03   -0.69526E-02   -0.54634E-02 11880   0.949E-01    0.737E-01
DAV:   3    -0.191923506833E+03    0.41652E-02   -0.14936E-02 12440   0.845E-01    0.322E-01
DAV:   4    -0.191923005893E+03    0.50094E-03   -0.32356E-03 11440   0.382E-01    0.258E-01
DAV:   5    -0.191922414123E+03    0.59177E-03   -0.19033E-03 10560   0.360E-01    0.151E-01
DAV:   6    -0.191922422463E+03   -0.83404E-05   -0.11643E-03  9920   0.206E-01    0.139E-01
DAV:   7    -0.191922270065E+03    0.15240E-03   -0.70057E-04  8840   0.197E-01    0.107E-01
DAV:   8    -0.191922145755E+03    0.12431E-03   -0.22305E-04  6800   0.105E-01    0.161E-02
DAV:   9    -0.191922149436E+03   -0.36802E-05   -0.33313E-05  6160   0.227E-02
  13 F= -.19192215E+03 E0= -.19182944E+03  d E =-.464079E-01
       N       E                     dE             d eps       ncg     rms          rms(c)
DAV:   1    -0.191899940671E+03    0.22205E-01   -0.37122E-01  8160   0.134E+00    0.188E-01
DAV:   2    -0.191900839030E+03   -0.89836E-03   -0.14545E-02 11280   0.436E-01    0.277E-01
DAV:   3    -0.191900637695E+03    0.20134E-03   -0.34630E-03 12120   0.430E-01    0.256E-01
DAV:   4    -0.191900139542E+03    0.49815E-03   -0.18956E-03  9880   0.286E-01    0.157E-01
DAV:   5    -0.191900005924E+03    0.13362E-03   -0.93356E-04  9720   0.234E-01    0.115E-01
DAV:   6    -0.191899863554E+03    0.14237E-03   -0.39391E-04  8760   0.128E-01    0.359E-02
DAV:   7    -0.191899857643E+03    0.59115E-05   -0.91394E-05  6440   0.460E-02
  14 F= -.19189986E+03 E0= -.19180621E+03  d E =0.222918E-01
       N       E                     dE             d eps       ncg     rms          rms(c)
DAV:   1    -0.191901231888E+03   -0.13683E-02   -0.16173E-03  8440   0.985E-02    0.262E-02
DAV:   2    -0.191901416702E+03   -0.18481E-03   -0.37423E-04  9720   0.140E-01    0.134E-01
DAV:   3    -0.191901219482E+03    0.19722E-03   -0.24447E-04  6880   0.121E-01    0.757E-03
DAV:   4    -0.191901232124E+03   -0.12642E-04   -0.11076E-05  5840   0.125E-02
  15 F= -.19190123E+03 E0= -.19180769E+03  d E =-.137448E-02
       N       E                     dE             d eps       ncg     rms          rms(c)
DAV:   1    -0.191852675914E+03    0.48544E-01   -0.31922E+00  8160   0.385E+00    0.576E-01
DAV:   2    -0.191900055506E+03   -0.47380E-01   -0.17395E-01 12280   0.232E+00    0.219E+00
DAV:   3    -0.191856955674E+03    0.43100E-01   -0.87883E-02 12120   0.204E+00    0.356E-01
DAV:   4    -0.191857894668E+03   -0.93899E-03   -0.86716E-03 11480   0.613E-01    0.518E-01
DAV:   5    -0.191855544652E+03    0.23500E-02   -0.70022E-03 11120   0.596E-01    0.267E-01
DAV:   6    -0.191855819663E+03   -0.27501E-03   -0.43622E-03 11560   0.400E-01    0.305E-01
DAV:   7    -0.191855133476E+03    0.68619E-03   -0.30308E-03 11440   0.388E-01    0.154E-01
DAV:   8    -0.191854776836E+03    0.35664E-03   -0.53395E-04  9240   0.137E-01    0.227E-02
DAV:   9    -0.191854780029E+03   -0.31925E-05   -0.66566E-05  7440   0.280E-02
  16 F= -.19185478E+03 E0= -.19175786E+03  d E =0.464521E-01
       N       E                     dE             d eps       ncg     rms          rms(c)
DAV:   1    -0.191916685059E+03   -0.61908E-01   -0.42237E+00  8160   0.438E+00    0.497E-01
DAV:   2    -0.191935364365E+03   -0.18679E-01   -0.17550E-01 11720   0.142E+00    0.983E-01
DAV:   3    -0.191930517462E+03    0.48469E-02   -0.39458E-02 12320   0.131E+00    0.642E-01
DAV:   4    -0.191926129049E+03    0.43884E-02   -0.65168E-03 12000   0.516E-01    0.186E-01
DAV:   5    -0.191927181971E+03   -0.10529E-02   -0.39114E-03 12680   0.446E-01    0.391E-01
DAV:   6    -0.191926114275E+03    0.10677E-02   -0.40872E-03 12360   0.454E-01    0.174E-01
DAV:   7    -0.191925691283E+03    0.42299E-03   -0.97249E-04 10040   0.170E-01    0.575E-02
DAV:   8    -0.191925672222E+03    0.19061E-04   -0.15188E-04  8000   0.889E-02
  17 F= -.19192567E+03 E0= -.19183214E+03  d E =-.708922E-01
       N       E                     dE             d eps       ncg     rms          rms(c)
DAV:   1    -0.191962521628E+03   -0.36830E-01   -0.12499E+00  8160   0.243E+00    0.290E-01
DAV:   2    -0.191967088005E+03   -0.45664E-02   -0.42439E-02 11880   0.771E-01    0.603E-01
DAV:   3    -0.191964724567E+03    0.23634E-02   -0.11432E-02 12400   0.737E-01    0.321E-01
DAV:   4    -0.191963627834E+03    0.10967E-02   -0.21109E-03 11360   0.288E-01    0.126E-01
DAV:   5    -0.191963836569E+03   -0.20874E-03   -0.11916E-03 10560   0.278E-01    0.196E-01
DAV:   6    -0.191963529392E+03    0.30718E-03   -0.10604E-03 10240   0.242E-01    0.988E-02
DAV:   7    -0.191963455706E+03    0.73687E-04   -0.35752E-04  7880   0.138E-01
  18 F= -.19196346E+03 E0= -.19187158E+03  d E =-.377835E-01
       N       E                     dE             d eps       ncg     rms          rms(c)
DAV:   1    -0.192034245598E+03   -0.70716E-01   -0.48892E+00  8160   0.478E+00    0.535E-01
DAV:   2    -0.192046979618E+03   -0.12734E-01   -0.15100E-01 12200   0.126E+00    0.826E-01
DAV:   3    -0.192045631643E+03    0.13480E-02   -0.32441E-02 12360   0.131E+00    0.734E-01
DAV:   4    -0.192039846898E+03    0.57847E-02   -0.81537E-03 12280   0.639E-01    0.214E-01
DAV:   5    -0.192040115536E+03   -0.26864E-03   -0.37487E-03 11840   0.416E-01    0.288E-01
DAV:   6    -0.192039786918E+03    0.32862E-03   -0.31473E-03 11280   0.459E-01    0.225E-01
DAV:   7    -0.192039144542E+03    0.64238E-03   -0.12421E-03  9800   0.249E-01    0.941E-02
DAV:   8    -0.192039075253E+03    0.69289E-04   -0.24406E-04  7840   0.118E-01
  19 F= -.19203908E+03 E0= -.19194994E+03  d E =-.756195E-01
       N       E                     dE             d eps       ncg     rms          rms(c)
DAV:   1    -0.192052340029E+03   -0.13195E-01   -0.14851E-01  8160   0.840E-01    0.103E-01
DAV:   2    -0.192052621522E+03   -0.28149E-03   -0.48805E-03 10680   0.198E-01    0.107E-01
DAV:   3    -0.192052755607E+03   -0.13409E-03   -0.10031E-03 11520   0.241E-01    0.164E-01
DAV:   4    -0.192052500413E+03    0.25519E-03   -0.46563E-04  8440   0.170E-01    0.663E-02
DAV:   5    -0.192052494325E+03    0.60879E-05   -0.16745E-04  7320   0.110E-01
  20 F= -.19205249E+03 E0= -.19196384E+03  d E =-.134191E-01
       N       E                     dE             d eps       ncg     rms          rms(c)
DAV:   1    -0.191998793055E+03    0.53707E-01   -0.26496E+00  8160   0.353E+00    0.447E-01
DAV:   2    -0.192003871953E+03   -0.50789E-02   -0.83217E-02 11800   0.963E-01    0.593E-01
DAV:   3    -0.192004226273E+03   -0.35432E-03   -0.19871E-02 12360   0.106E+00    0.637E-01
DAV:   4    -0.191999806030E+03    0.44202E-02   -0.76801E-03 12120   0.636E-01    0.205E-01
DAV:   5    -0.192000540502E+03   -0.73447E-03   -0.40335E-03 11440   0.450E-01    0.369E-01
DAV:   6    -0.191999392473E+03    0.11480E-02   -0.31711E-03 11320   0.412E-01    0.133E-01
DAV:   7    -0.191999283071E+03    0.10940E-03   -0.61186E-04  9080   0.182E-01    0.991E-02
DAV:   8    -0.191999170625E+03    0.11245E-03   -0.20354E-04  9600   0.120E-01    0.275E-02
DAV:   9    -0.191999168176E+03    0.24486E-05   -0.42282E-05  6160   0.343E-02
  21 F= -.19199917E+03 E0= -.19190846E+03  d E =0.533261E-01
       N       E                     dE             d eps       ncg     rms          rms(c)
DAV:   1    -0.191985855243E+03    0.13315E-01   -0.20614E-01  8160   0.979E-01    0.113E-01
DAV:   2    -0.191986253503E+03   -0.39826E-03   -0.55164E-03 11160   0.244E-01    0.142E-01
DAV:   3    -0.191986242063E+03    0.11440E-04   -0.97763E-04 11200   0.254E-01
  22 F= -.19198624E+03 E0= -.19189523E+03  d E =0.129261E-01
       N       E                     dE             d eps       ncg     rms          rms(c)
DAV:   1    -0.192009588087E+03   -0.23335E-01   -0.16552E+00  8160   0.273E+00    0.328E-01
DAV:   2    -0.192021272522E+03   -0.11684E-01   -0.65105E-02 10920   0.114E+00    0.102E+00
DAV:   3    -0.192012671016E+03    0.86015E-02   -0.22166E-02 12280   0.103E+00    0.282E-01
DAV:   4    -0.192011809708E+03    0.86131E-03   -0.20614E-03 11040   0.253E-01    0.141E-01
DAV:   5    -0.192012061060E+03   -0.25135E-03   -0.14755E-03 11320   0.302E-01    0.229E-01
DAV:   6    -0.192011595394E+03    0.46567E-03   -0.12415E-03  9760   0.258E-01    0.799E-02
DAV:   7    -0.192011555132E+03    0.40262E-04   -0.36745E-04  8600   0.115E-01
  23 F= -.19201156E+03 E0= -.19192106E+03  d E =-.253131E-01
       N       E                     dE             d eps       ncg     rms          rms(c)
DAV:   1    -0.192048259008E+03   -0.36664E-01   -0.15667E+00  8160   0.281E+00    0.424E-01
DAV:   2    -0.192048396691E+03   -0.13768E-03   -0.44675E-02 11360   0.682E-01    0.461E-01
DAV:   3    -0.192050416298E+03   -0.20196E-02   -0.15232E-02 12360   0.979E-01    0.677E-01
DAV:   4    -0.192045329716E+03    0.50866E-02   -0.74540E-03 11360   0.679E-01    0.145E-01
DAV:   5    -0.192045545954E+03   -0.21624E-03   -0.24258E-03 11200   0.293E-01    0.252E-01
DAV:   6    -0.192045013837E+03    0.53212E-03   -0.16704E-03 10360   0.304E-01    0.107E-01
DAV:   7    -0.192044918061E+03    0.95776E-04   -0.28573E-04  7800   0.106E-01
  24 F= -.19204492E+03 E0= -.19195524E+03  d E =-.333629E-01
       N       E                     dE             d eps       ncg     rms          rms(c)
DAV:   1    -0.192114170399E+03   -0.69157E-01   -0.46824E+00  8160   0.470E+00    0.560E-01
DAV:   2    -0.192121304884E+03   -0.71345E-02   -0.14166E-01 12200   0.101E+00    0.478E-01
DAV:   3    -0.192127417522E+03   -0.61126E-02   -0.24620E-02 12240   0.122E+00    0.956E-01
DAV:   4    -0.192118080749E+03    0.93368E-02   -0.14775E-02 12280   0.973E-01    0.271E-01
DAV:   5    -0.192118458668E+03   -0.37792E-03   -0.47188E-03 11040   0.518E-01    0.346E-01
DAV:   6    -0.192117422432E+03    0.10362E-02   -0.30184E-03 11760   0.467E-01    0.160E-01
DAV:   7    -0.192117035811E+03    0.38662E-03   -0.91431E-04 10240   0.194E-01    0.653E-02
DAV:   8    -0.192117020813E+03    0.14997E-04   -0.21512E-04  8200   0.111E-01
  25 F= -.19211702E+03 E0= -.19202897E+03  d E =-.721028E-01
       N       E                     dE             d eps       ncg     rms          rms(c)
DAV:   1    -0.192171807339E+03   -0.54772E-01   -0.29938E+00  8160   0.373E+00    0.426E-01
DAV:   2    -0.192177077527E+03   -0.52702E-02   -0.87407E-02 11760   0.813E-01    0.388E-01
DAV:   3    -0.192178799254E+03   -0.17217E-02   -0.12016E-02 12320   0.916E-01    0.568E-01
DAV:   4    -0.192174787004E+03    0.40122E-02   -0.52058E-03 12120   0.627E-01    0.159E-01
DAV:   5    -0.192175493155E+03   -0.70615E-03   -0.25846E-03 11640   0.404E-01    0.305E-01
DAV:   6    -0.192174654006E+03    0.83915E-03   -0.19919E-03 10720   0.381E-01    0.112E-01
DAV:   7    -0.192174450020E+03    0.20399E-03   -0.37813E-04  8800   0.113E-01    0.243E-02
DAV:   8    -0.192174465888E+03   -0.15868E-04   -0.90577E-05  7320   0.601E-02
  26 F= -.19217447E+03 E0= -.19208694E+03  d E =-.574451E-01
       N       E                     dE             d eps       ncg     rms          rms(c)
DAV:   1    -0.192210006081E+03   -0.35556E-01   -0.12011E+00  8160   0.237E+00    0.283E-01
DAV:   2    -0.192212065068E+03   -0.20590E-02   -0.36035E-02 11400   0.527E-01    0.269E-01
DAV:   3    -0.192212828957E+03   -0.76389E-03   -0.56529E-03 12360   0.621E-01    0.397E-01
DAV:   4    -0.192211067839E+03    0.17611E-02   -0.25831E-03 11640   0.427E-01    0.146E-01
DAV:   5    -0.192211222072E+03   -0.15423E-03   -0.12396E-03 10200   0.304E-01    0.195E-01
DAV:   6    -0.192210857996E+03    0.36408E-03   -0.80867E-04  9560   0.222E-01    0.537E-02
DAV:   7    -0.192210823714E+03    0.34282E-04   -0.15506E-04  6320   0.805E-02
  27 F= -.19221082E+03 E0= -.19212329E+03  d E =-.363578E-01
       N       E                     dE             d eps       ncg     rms          rms(c)
DAV:   1    -0.192340903054E+03   -0.13005E+00   -0.28667E+01  8160   0.117E+01    0.131E+00
DAV:   2    -0.192392123289E+03   -0.51220E-01   -0.88142E-01 11040   0.243E+00    0.105E+00
DAV:   3    -0.192412359709E+03   -0.20236E-01   -0.11158E-01 12360   0.267E+00    0.180E+00
DAV:   4    -0.192373732282E+03    0.38627E-01   -0.63380E-02 11800   0.215E+00    0.546E-01
DAV:   5    -0.192378195076E+03   -0.44628E-02   -0.23702E-02 12720   0.126E+00    0.878E-01
DAV:   6    -0.192371021520E+03    0.71736E-02   -0.18746E-02 12560   0.117E+00    0.361E-01
DAV:   7    -0.192368787252E+03    0.22343E-02   -0.45233E-03 11680   0.382E-01    0.804E-02
DAV:   8    -0.192368736152E+03    0.51100E-04   -0.70004E-04 10680   0.897E-02
  28 F= -.19236874E+03 E0= -.19227930E+03  d E =-.157912E+00
       N       E                     dE             d eps       ncg     rms          rms(c)
DAV:   1    -0.192424419135E+03   -0.55632E-01   -0.30152E+01  8160   0.120E+01    0.137E+00
DAV:   2    -0.192490370317E+03   -0.65951E-01   -0.10498E+00 11400   0.270E+00    0.117E+00
DAV:   3    -0.192507782536E+03   -0.17412E-01   -0.13122E-01 12360   0.286E+00    0.183E+00
DAV:   4    -0.192467278317E+03    0.40504E-01   -0.66515E-02 11760   0.222E+00    0.512E-01
DAV:   5    -0.192469058283E+03   -0.17800E-02   -0.23605E-02 12520   0.110E+00    0.718E-01
DAV:   6    -0.192464981054E+03    0.40772E-02   -0.17470E-02 11680   0.115E+00    0.453E-01
DAV:   7    -0.192462019667E+03    0.29614E-02   -0.52427E-03 11720   0.507E-01    0.929E-02
DAV:   8    -0.192461934744E+03    0.84923E-04   -0.81352E-04 10640   0.101E-01
  29 F= -.19246193E+03 E0= -.19237034E+03  d E =-.931986E-01
       N       E                     dE             d eps       ncg     rms          rms(c)
DAV:   1    -0.192466870988E+03   -0.48513E-02   -0.44241E-01  8160   0.142E+00    0.191E-01
DAV:   2    -0.192468766458E+03   -0.18955E-02   -0.23112E-02 12400   0.583E-01    0.277E-01
DAV:   3    -0.192468209454E+03    0.55700E-03   -0.30719E-03 12280   0.454E-01    0.180E-01
DAV:   4    -0.192467772147E+03    0.43731E-03   -0.93339E-04 10240   0.239E-01    0.929E-02
DAV:   5    -0.192467895867E+03   -0.12372E-03   -0.68060E-04 11200   0.213E-01    0.145E-01
DAV:   6    -0.192467668572E+03    0.22729E-03   -0.50986E-04  9120   0.184E-01    0.352E-02
DAV:   7    -0.192467656723E+03    0.11849E-04   -0.73582E-05  6520   0.415E-02
  30 F= -.19246766E+03 E0= -.19237685E+03  d E =-.572198E-02
       N       E                     dE             d eps       ncg     rms          rms(c)
DAV:   1    -0.192473015521E+03   -0.53469E-02   -0.28544E-01  8160   0.115E+00    0.168E-01
DAV:   2    -0.192473654306E+03   -0.63879E-03   -0.14426E-02 10640   0.364E-01    0.142E-01
DAV:   3    -0.192473802432E+03   -0.14813E-03   -0.16905E-03 11480   0.336E-01    0.190E-01
DAV:   4    -0.192473337029E+03    0.46540E-03   -0.96914E-04 10440   0.266E-01    0.804E-02
DAV:   5    -0.192473315442E+03    0.21586E-04   -0.41035E-04  8560   0.134E-01
  31 F= -.19247332E+03 E0= -.19238254E+03  d E =-.565872E-02
       N       E                     dE             d eps       ncg     rms          rms(c)
DAV:   1    -0.192478570851E+03   -0.52338E-02   -0.55820E-01  8160   0.157E+00    0.181E-01
DAV:   2    -0.192480134186E+03   -0.15633E-02   -0.23570E-02 12120   0.429E-01    0.121E-01
DAV:   3    -0.192480493160E+03   -0.35897E-03   -0.17215E-03 12640   0.320E-01    0.221E-01
DAV:   4    -0.192479890373E+03    0.60279E-03   -0.93244E-04 10160   0.278E-01    0.714E-02
DAV:   5    -0.192479930612E+03   -0.40239E-04   -0.37101E-04  8800   0.108E-01
  32 F= -.19247993E+03 E0= -.19238947E+03  d E =-.661517E-02
       N       E                     dE             d eps       ncg     rms          rms(c)
DAV:   1    -0.192484459365E+03   -0.45690E-02   -0.10137E+00  8160   0.212E+00    0.234E-01
DAV:   2    -0.192487287956E+03   -0.28286E-02   -0.39601E-02 12160   0.583E-01    0.179E-01
DAV:   3    -0.192487815556E+03   -0.52760E-03   -0.36227E-03 12080   0.451E-01    0.289E-01
DAV:   4    -0.192486838871E+03    0.97668E-03   -0.16203E-03 11240   0.360E-01    0.103E-01
DAV:   5    -0.192486784674E+03    0.54197E-04   -0.57089E-04 10320   0.138E-01
  33 F= -.19248678E+03 E0= -.19239739E+03  d E =-.685406E-02
       N       E                     dE             d eps       ncg     rms          rms(c)
DAV:   1    -0.192489793489E+03   -0.29546E-02   -0.15505E+00  8160   0.262E+00    0.286E-01
DAV:   2    -0.192494547417E+03   -0.47539E-02   -0.58605E-02 11960   0.753E-01    0.325E-01
DAV:   3    -0.192494620205E+03   -0.72788E-04   -0.72741E-03 12480   0.694E-01    0.343E-01
DAV:   4    -0.192493129479E+03    0.14907E-02   -0.19803E-03 12560   0.394E-01    0.107E-01
DAV:   5    -0.192493376623E+03   -0.24714E-03   -0.10042E-03 10360   0.249E-01    0.177E-01
DAV:   6    -0.192493103200E+03    0.27342E-03   -0.91738E-04 11320   0.249E-01    0.782E-02
DAV:   7    -0.192492992601E+03    0.11060E-03   -0.21832E-04  7240   0.842E-02    0.149E-02
DAV:   8    -0.192492991930E+03    0.67020E-06   -0.35509E-05  7520   0.222E-02
  34 F= -.19249299E+03 E0= -.19240502E+03  d E =-.620726E-02
       N       E                     dE             d eps       ncg     rms          rms(c)
DAV:   1    -0.192494472882E+03   -0.14803E-02   -0.19337E-01  8160   0.930E-01    0.104E-01
DAV:   2    -0.192495100741E+03   -0.62786E-03   -0.72320E-03 11640   0.282E-01    0.142E-01
DAV:   3    -0.192494986680E+03    0.11406E-03   -0.10911E-03 11800   0.266E-01    0.117E-01
DAV:   4    -0.192494834032E+03    0.15265E-03   -0.26279E-04  8200   0.142E-01    0.435E-02
DAV:   5    -0.192494832744E+03    0.12882E-05   -0.10542E-04  6160   0.704E-02
  35 F= -.19249483E+03 E0= -.19240762E+03  d E =-.184081E-02
       N       E                     dE             d eps       ncg     rms          rms(c)
DAV:   1    -0.192496014042E+03   -0.11800E-02   -0.65952E-01  8160   0.171E+00    0.178E-01
DAV:   2    -0.192497774093E+03   -0.17601E-02   -0.23407E-02 12080   0.467E-01    0.157E-01
DAV:   3    -0.192498014498E+03   -0.24040E-03   -0.20811E-03 12320   0.379E-01    0.213E-01
DAV:   4    -0.192497410065E+03    0.60443E-03   -0.82487E-04 10240   0.253E-01    0.563E-02
DAV:   5    -0.192497457945E+03   -0.47880E-04   -0.37101E-04  9080   0.724E-02
  36 F= -.19249746E+03 E0= -.19241164E+03  d E =-.262520E-02
       N       E                     dE             d eps       ncg     rms          rms(c)
DAV:   1    -0.192497979892E+03   -0.56983E-03   -0.55824E-02  8160   0.502E-01    0.674E-02
DAV:   2    -0.192498458033E+03   -0.47814E-03   -0.22100E-03 13480   0.253E-01    0.183E-01
DAV:   3    -0.192498039249E+03    0.41878E-03   -0.74933E-04  9760   0.237E-01    0.436E-02
DAV:   4    -0.192498033879E+03    0.53694E-05   -0.67597E-05  5640   0.501E-02
  37 F= -.19249803E+03 E0= -.19241262E+03  d E =-.575935E-03
