       N       E                     dE             d eps       ncg     rms          rms(c)
DAV:   1     0.112600646099E+04    0.11260E+04   -0.35977E+04  8160   0.577E+02
DAV:   2    -0.284505667230E+01   -0.11289E+04   -0.10870E+04 11280   0.173E+02
DAV:   3    -0.199780974740E+03   -0.19694E+03   -0.18923E+03 10880   0.821E+01
DAV:   4    -0.209001239069E+03   -0.92203E+01   -0.89459E+01 12400   0.262E+01
DAV:   5    -0.209290235016E+03   -0.28900E+00   -0.28812E+00 11320   0.329E+00    0.275E+01
DAV:   6    -0.236814984477E+03   -0.27525E+02   -0.11039E+02 12880   0.603E+01    0.594E+01
DAV:   7    -0.196668827553E+03    0.40146E+02   -0.17892E+02 13240   0.152E+02    0.203E+01
DAV:   8    -0.190029611312E+03    0.66392E+01   -0.20792E+01 11760   0.134E+01    0.135E+01
DAV:   9    -0.188240117225E+03    0.17895E+01   -0.30914E+00 11800   0.626E+00    0.918E+00
DAV:  10    -0.187056428043E+03    0.11837E+01   -0.18236E+00 13360   0.773E+00    0.297E+00
DAV:  11    -0.186999452058E+03    0.56976E-01   -0.61025E-01 12560   0.239E+00    0.250E+00
DAV:  12    -0.187083412656E+03   -0.83961E-01   -0.62571E-01 12480   0.424E+00    0.459E+00
DAV:  13    -0.186908869452E+03    0.17454E+00   -0.43866E-01 12920   0.367E+00    0.186E+00
DAV:  14    -0.186897799129E+03    0.11070E-01   -0.12161E-01 13000   0.212E+00    0.182E+00
DAV:  15    -0.186872319261E+03    0.25480E-01   -0.59359E-02 12760   0.150E+00    0.722E-01
DAV:  16    -0.186867838955E+03    0.44803E-02   -0.84878E-03 12760   0.366E-01    0.389E-01
DAV:  17    -0.186866091605E+03    0.17474E-02   -0.71395E-03 12920   0.349E-01    0.222E-01
DAV:  18    -0.186865427341E+03    0.66426E-03   -0.17595E-03 11680   0.126E-01    0.132E-01
DAV:  19    -0.186865302503E+03    0.12484E-03   -0.61376E-04 10080   0.102E-01    0.448E-02
DAV:  20    -0.186866146323E+03   -0.84382E-03   -0.75924E-04  9080   0.505E-02    0.379E-02
DAV:  21    -0.186866831056E+03   -0.68473E-03   -0.19315E-04  8200   0.396E-02    0.340E-02
DAV:  22    -0.186867852999E+03   -0.10219E-02   -0.15985E-04  7520   0.448E-02    0.391E-02
DAV:  23    -0.186869013073E+03   -0.11601E-02   -0.13548E-04  7440   0.476E-02    0.162E-02
DAV:  24    -0.186869587319E+03   -0.57425E-03   -0.28592E-05  6800   0.171E-02    0.445E-03
DAV:  25    -0.186869951225E+03   -0.36391E-03   -0.16797E-05  5440   0.958E-03    0.430E-03
DAV:  26    -0.186870195286E+03   -0.24406E-03   -0.93667E-06  6800   0.717E-03    0.158E-03
DAV:  27    -0.186870284978E+03   -0.89692E-04   -0.32566E-06  7240   0.415E-03
   1 F= -.18687028E+03 E0= -.18669809E+03  d E =-.186870E+03
       N       E                     dE             d eps       ncg     rms          rms(c)
DAV:   1    -0.187505786690E+03   -0.63559E+00   -0.27129E+02  8160   0.350E+01    0.465E+00
DAV:   2    -0.189498214014E+03   -0.19924E+01   -0.20355E+01 12240   0.156E+01    0.969E+00
DAV:   3    -0.189355494919E+03    0.14272E+00   -0.46641E+00 12400   0.124E+01    0.654E+00
DAV:   4    -0.188794788381E+03    0.56071E+00   -0.63691E-01 12440   0.461E+00    0.236E+00
DAV:   5    -0.188868201269E+03   -0.73413E-01   -0.43557E-01 11440   0.356E+00    0.490E+00
DAV:   6    -0.188782738028E+03    0.85463E-01   -0.71972E-01 12560   0.414E+00    0.267E+00
DAV:   7    -0.188700009704E+03    0.82728E-01   -0.24014E-01 11640   0.154E+00    0.116E+00
DAV:   8    -0.188683088436E+03    0.16921E-01   -0.63032E-02 11560   0.878E-01    0.826E-01
DAV:   9    -0.188680226588E+03    0.28618E-02   -0.21946E-02 11520   0.806E-01    0.810E-01
DAV:  10    -0.188675981933E+03    0.42447E-02   -0.85876E-03 11760   0.523E-01    0.314E-01
DAV:  11    -0.188675352354E+03    0.62958E-03   -0.29714E-03 13120   0.241E-01    0.138E-01
DAV:  12    -0.188675190327E+03    0.16203E-03   -0.12182E-03 12040   0.112E-01    0.990E-02
DAV:  13    -0.188675223208E+03   -0.32882E-04   -0.28932E-04  7680   0.669E-02
   2 F= -.18867522E+03 E0= -.18853383E+03  d E =-.180494E+01
       N       E                     dE             d eps       ncg     rms          rms(c)
DAV:   1    -0.190594587465E+03   -0.19194E+01   -0.31163E+01  9120   0.142E+01    0.444E+00
DAV:   2    -0.190559516902E+03    0.35071E-01   -0.28008E+00 11160   0.952E+00    0.733E+00
DAV:   3    -0.190079117017E+03    0.48040E+00   -0.13978E+00 12320   0.859E+00    0.422E+00
DAV:   4    -0.189875143319E+03    0.20397E+00   -0.75879E-01 12680   0.419E+00    0.264E+00
DAV:   5    -0.189914580373E+03   -0.39437E-01   -0.47354E-01 12240   0.403E+00    0.373E+00
DAV:   6    -0.189770956157E+03    0.14362E+00   -0.21358E-01 12280   0.315E+00    0.668E-01
DAV:   7    -0.189764419280E+03    0.65369E-02   -0.16435E-02 12200   0.499E-01    0.230E-01
DAV:   8    -0.189765112130E+03   -0.69285E-03   -0.40501E-03 11760   0.314E-01    0.326E-01
DAV:   9    -0.189764487526E+03    0.62460E-03   -0.22043E-03 10360   0.308E-01    0.168E-01
DAV:  10    -0.189764638616E+03   -0.15109E-03   -0.99379E-04  9920   0.152E-01    0.129E-01
DAV:  11    -0.189764455843E+03    0.18277E-03   -0.45309E-04  8880   0.805E-02    0.176E-02
DAV:  12    -0.189764476019E+03   -0.20176E-04   -0.66529E-05  7400   0.260E-02
   3 F= -.18976448E+03 E0= -.18964432E+03  d E =-.108925E+01
       N       E                     dE             d eps       ncg     rms          rms(c)
DAV:   1    -0.191333690511E+03   -0.15692E+01   -0.76226E+01  8160   0.199E+01    0.461E+00
DAV:   2    -0.191179775684E+03    0.15391E+00   -0.54189E+00 13160   0.793E+00    0.486E+00
DAV:   3    -0.191278493783E+03   -0.98718E-01   -0.16086E+00 12240   0.914E+00    0.647E+00
DAV:   4    -0.190880428029E+03    0.39807E+00   -0.12556E+00 12920   0.730E+00    0.269E+00
DAV:   5    -0.190805318017E+03    0.75110E-01   -0.33986E-01 12240   0.301E+00    0.213E+00
DAV:   6    -0.190772287340E+03    0.33031E-01   -0.17567E-01 12520   0.278E+00    0.156E+00
DAV:   7    -0.190752940590E+03    0.19347E-01   -0.60292E-02 11800   0.144E+00    0.470E-01
DAV:   8    -0.190749809194E+03    0.31314E-02   -0.80935E-03 11080   0.421E-01    0.269E-01
DAV:   9    -0.190749586765E+03    0.22243E-03   -0.24408E-03 11080   0.334E-01    0.224E-01
DAV:  10    -0.190749663272E+03   -0.76507E-04   -0.15727E-03 11240   0.224E-01    0.139E-01
DAV:  11    -0.190749431438E+03    0.23183E-03   -0.89498E-04 10040   0.114E-01    0.476E-02
DAV:  12    -0.190749425709E+03    0.57292E-05   -0.13843E-04  7360   0.440E-02
   4 F= -.19074943E+03 E0= -.19064446E+03  d E =-.984950E+00
       N       E                     dE             d eps       ncg     rms          rms(c)
DAV:   1    -0.192121185979E+03   -0.13718E+01   -0.16531E+02  8160   0.287E+01    0.571E+00
DAV:   2    -0.191853477746E+03    0.26771E+00   -0.95845E+00 11240   0.814E+00    0.380E+00
DAV:   3    -0.191981780221E+03   -0.12830E+00   -0.19897E+00 11920   0.844E+00    0.721E+00
DAV:   4    -0.191747851419E+03    0.23393E+00   -0.24200E+00 11440   0.106E+01    0.452E+00
DAV:   5    -0.191576900249E+03    0.17095E+00   -0.75415E-01 12280   0.571E+00    0.338E+00
DAV:   6    -0.191435646339E+03    0.14125E+00   -0.26972E-01 12320   0.375E+00    0.122E+00
DAV:   7    -0.191427918349E+03    0.77280E-02   -0.74503E-02 12280   0.147E+00    0.864E-01
DAV:   8    -0.191425681834E+03    0.22365E-02   -0.35451E-02 12080   0.125E+00    0.776E-01
DAV:   9    -0.191419010167E+03    0.66717E-02   -0.10564E-02 12440   0.696E-01    0.181E-01
DAV:  10    -0.191419317299E+03   -0.30713E-03   -0.23418E-03 11040   0.178E-01    0.109E-01
DAV:  11    -0.191419167624E+03    0.14968E-03   -0.64396E-04 11160   0.969E-02    0.547E-02
DAV:  12    -0.191419150901E+03    0.16722E-04   -0.10637E-04  6960   0.458E-02
   5 F= -.19141915E+03 E0= -.19131664E+03  d E =-.669725E+00
       N       E                     dE             d eps       ncg     rms          rms(c)
DAV:   1    -0.191488097036E+03   -0.68929E-01   -0.56327E+00  8160   0.500E+00    0.664E-01
DAV:   2    -0.191555458850E+03   -0.67362E-01   -0.30372E-01 13520   0.309E+00    0.232E+00
DAV:   3    -0.191501328144E+03    0.54131E-01   -0.11323E-01 12360   0.236E+00    0.477E-01
DAV:   4    -0.191503089050E+03   -0.17609E-02   -0.17315E-02 11400   0.844E-01    0.674E-01
DAV:   5    -0.191498645056E+03    0.44440E-02   -0.99698E-03 11360   0.664E-01    0.220E-01
DAV:   6    -0.191498518710E+03    0.12635E-03   -0.26510E-03 10600   0.241E-01    0.189E-01
DAV:   7    -0.191499077825E+03   -0.55912E-03   -0.35134E-03 11520   0.391E-01    0.328E-01
DAV:   8    -0.191498016102E+03    0.10617E-02   -0.19131E-03  9640   0.288E-01    0.403E-02
DAV:   9    -0.191498027530E+03   -0.11428E-04   -0.98657E-05  5680   0.409E-02
   6 F= -.19149803E+03 E0= -.19139315E+03  d E =-.788766E-01
       N       E                     dE             d eps       ncg     rms          rms(c)
DAV:   1    -0.191544925378E+03   -0.46909E-01   -0.23504E+00  8160   0.322E+00    0.370E-01
DAV:   2    -0.191561583303E+03   -0.16658E-01   -0.78725E-02 13600   0.135E+00    0.115E+00
DAV:   3    -0.191548168723E+03    0.13415E-01   -0.32387E-02 12280   0.123E+00    0.323E-01
DAV:   4    -0.191548692669E+03   -0.52395E-03   -0.63971E-03 11080   0.498E-01    0.403E-01
DAV:   5    -0.191547127874E+03    0.15648E-02   -0.36808E-03 11040   0.404E-01    0.126E-01
DAV:   6    -0.191547070842E+03    0.57032E-04   -0.81373E-04 10120   0.124E-01
   7 F= -.19154707E+03 E0= -.19144132E+03  d E =-.490433E-01
       N       E                     dE             d eps       ncg     rms          rms(c)
DAV:   1    -0.191506649519E+03    0.40478E-01   -0.14585E+00  8160   0.255E+00    0.325E-01
DAV:   2    -0.191522415443E+03   -0.15766E-01   -0.62108E-02 13560   0.141E+00    0.113E+00
DAV:   3    -0.191508474408E+03    0.13941E-01   -0.23076E-02 11440   0.112E+00    0.229E-01
DAV:   4    -0.191508957592E+03   -0.48318E-03   -0.35859E-03 10040   0.396E-01    0.314E-01
DAV:   5    -0.191507959444E+03    0.99815E-03   -0.21512E-03 10160   0.313E-01    0.988E-02
DAV:   6    -0.191507934609E+03    0.24835E-04   -0.54295E-04 10280   0.106E-01
   8 F= -.19150793E+03 E0= -.19140290E+03  d E =0.391362E-01
       N       E                     dE             d eps       ncg     rms          rms(c)
DAV:   1    -0.191406726550E+03    0.10123E+00   -0.11429E+01  8160   0.716E+00    0.775E-01
DAV:   2    -0.191465473527E+03   -0.58747E-01   -0.33684E-01 12840   0.251E+00    0.199E+00
DAV:   3    -0.191421581943E+03    0.43892E-01   -0.89627E-02 11960   0.219E+00    0.649E-01
DAV:   4    -0.191423832003E+03   -0.22501E-02   -0.23325E-02 11680   0.977E-01    0.833E-01
DAV:   5    -0.191416911503E+03    0.69205E-02   -0.15689E-02 11040   0.873E-01    0.254E-01
DAV:   6    -0.191417000147E+03   -0.88644E-04   -0.37168E-03 10760   0.288E-01    0.195E-01
DAV:   7    -0.191416590418E+03    0.40973E-03   -0.23467E-03 12720   0.291E-01    0.209E-01
DAV:   8    -0.191416189258E+03    0.40116E-03   -0.92822E-04  8720   0.207E-01    0.536E-02
DAV:   9    -0.191416178164E+03    0.11094E-04   -0.10859E-04  5960   0.541E-02
   9 F= -.19141618E+03 E0= -.19131386E+03  d E =0.917564E-01
       N       E                     dE             d eps       ncg     rms          rms(c)
DAV:   1    -0.191434556663E+03   -0.18367E-01   -0.15713E+00  8160   0.269E+00    0.345E-01
DAV:   2    -0.191438631586E+03   -0.40749E-02   -0.57944E-02 11120   0.743E-01    0.469E-01
DAV:   3    -0.191438633077E+03   -0.14909E-05   -0.16943E-02 12160   0.845E-01    0.529E-01
DAV:   4    -0.191436070046E+03    0.25630E-02   -0.65246E-03 11160   0.523E-01    0.234E-01
DAV:   5    -0.191435975302E+03    0.94744E-04   -0.28104E-03  9800   0.382E-01    0.238E-01
DAV:   6    -0.191435422845E+03    0.55246E-03   -0.17227E-03 10200   0.257E-01    0.881E-02
DAV:   7    -0.191435374804E+03    0.48041E-04   -0.52021E-04 10120   0.109E-01
  10 F= -.19143537E+03 E0= -.19133249E+03  d E =-.191966E-01
       N       E                     dE             d eps       ncg     rms          rms(c)
DAV:   1    -0.191486276531E+03   -0.50854E-01   -0.37533E+00  8160   0.412E+00    0.570E-01
DAV:   2    -0.191527141196E+03   -0.40865E-01   -0.16462E-01 13600   0.235E+00    0.197E+00
DAV:   3    -0.191489874405E+03    0.37267E-01   -0.77275E-02 12120   0.197E+00    0.441E-01
DAV:   4    -0.191491265386E+03   -0.13910E-02   -0.13568E-02 10240   0.768E-01    0.590E-01
DAV:   5    -0.191487668175E+03    0.35972E-02   -0.79470E-03 10440   0.603E-01    0.210E-01
DAV:   6    -0.191487268462E+03    0.39971E-03   -0.22534E-03 11320   0.212E-01    0.125E-01
DAV:   7    -0.191487512275E+03   -0.24381E-03   -0.18439E-03 10560   0.263E-01    0.226E-01
DAV:   8    -0.191487014967E+03    0.49731E-03   -0.10482E-03  8520   0.212E-01    0.451E-02
DAV:   9    -0.191487003634E+03    0.11332E-04   -0.76868E-05  5720   0.431E-02
  11 F= -.19148700E+03 E0= -.19138180E+03  d E =-.516288E-01
       N       E                     dE             d eps       ncg     rms          rms(c)
DAV:   1    -0.191528275008E+03   -0.41260E-01   -0.23712E+00  8160   0.325E+00    0.408E-01
DAV:   2    -0.191551178509E+03   -0.22904E-01   -0.96730E-02 13600   0.178E+00    0.137E+00
DAV:   3    -0.191531256894E+03    0.19922E-01   -0.38421E-02 12240   0.142E+00    0.265E-01
DAV:   4    -0.191532148036E+03   -0.89114E-03   -0.56535E-03 11200   0.474E-01    0.413E-01
DAV:   5    -0.191530581184E+03    0.15669E-02   -0.38571E-03 10160   0.414E-01    0.153E-01
DAV:   6    -0.191530402130E+03    0.17905E-03   -0.95252E-04  9840   0.141E-01    0.808E-02
DAV:   7    -0.191530378106E+03    0.24023E-04   -0.52306E-04 10480   0.113E-01
  12 F= -.19153038E+03 E0= -.19142379E+03  d E =-.433745E-01
       N       E                     dE             d eps       ncg     rms          rms(c)
DAV:   1    -0.191402720421E+03    0.12768E+00   -0.16691E+01  8160   0.863E+00    0.105E+00
DAV:   2    -0.191537457698E+03   -0.13474E+00   -0.63428E-01 13600   0.432E+00    0.303E+00
DAV:   3    -0.191423370919E+03    0.11409E+00   -0.17663E-01 12240   0.322E+00    0.572E-01
DAV:   4    -0.191424311756E+03   -0.94084E-03   -0.24010E-02 12240   0.860E-01    0.767E-01
DAV:   5    -0.191420219386E+03    0.40924E-02   -0.21112E-02 11440   0.975E-01    0.516E-01
DAV:   6    -0.191418073192E+03    0.21462E-02   -0.77903E-03 12320   0.506E-01    0.216E-01
DAV:   7    -0.191417335556E+03    0.73764E-03   -0.24273E-03 10600   0.189E-01    0.720E-02
DAV:   8    -0.191417287709E+03    0.47848E-04   -0.43288E-04 10320   0.104E-01
  13 F= -.19141729E+03 E0= -.19131454E+03  d E =0.113090E+00
       N       E                     dE             d eps       ncg     rms          rms(c)
DAV:   1    -0.191377461786E+03    0.39874E-01   -0.34409E+00  8160   0.391E+00    0.415E-01
DAV:   2    -0.191391422219E+03   -0.13960E-01   -0.91065E-02 13520   0.124E+00    0.961E-01
DAV:   3    -0.191382348042E+03    0.90742E-02   -0.27793E-02 12080   0.119E+00    0.466E-01
DAV:   4    -0.191381362619E+03    0.98542E-03   -0.71408E-03 11280   0.521E-01    0.354E-01
DAV:   5    -0.191380385208E+03    0.97741E-03   -0.39376E-03 10360   0.440E-01    0.213E-01
DAV:   6    -0.191379949085E+03    0.43612E-03   -0.14618E-03 10360   0.232E-01    0.987E-02
DAV:   7    -0.191379926241E+03    0.22844E-04   -0.63215E-04 10120   0.120E-01
  14 F= -.19137993E+03 E0= -.19127831E+03  d E =0.373615E-01
       N       E                     dE             d eps       ncg     rms          rms(c)
DAV:   1    -0.191411889299E+03   -0.31940E-01   -0.24651E+00  8160   0.331E+00    0.370E-01
DAV:   2    -0.191425380982E+03   -0.13492E-01   -0.84397E-02 13120   0.112E+00    0.949E-01
DAV:   3    -0.191416811960E+03    0.85690E-02   -0.29826E-02 12040   0.116E+00    0.429E-01
DAV:   4    -0.191415833842E+03    0.97812E-03   -0.63463E-03 10960   0.482E-01    0.330E-01
DAV:   5    -0.191414854847E+03    0.97900E-03   -0.30112E-03 11160   0.377E-01    0.160E-01
DAV:   6    -0.191414654059E+03    0.20079E-03   -0.11152E-03 10000   0.165E-01    0.985E-02
DAV:   7    -0.191414610150E+03    0.43909E-04   -0.67353E-04 10800   0.121E-01
  15 F= -.19141461E+03 E0= -.19131079E+03  d E =-.346839E-01
       N       E                     dE             d eps       ncg     rms          rms(c)
DAV:   1    -0.191436188648E+03   -0.21535E-01   -0.80546E-01  8160   0.192E+00    0.287E-01
DAV:   2    -0.191446831834E+03   -0.10643E-01   -0.40768E-02 13600   0.119E+00    0.101E+00
DAV:   3    -0.191436818081E+03    0.10014E-01   -0.19699E-02 11880   0.999E-01    0.222E-01
DAV:   4    -0.191437098856E+03   -0.28078E-03   -0.30292E-03 10200   0.369E-01    0.274E-01
DAV:   5    -0.191436347034E+03    0.75182E-03   -0.18452E-03  9720   0.297E-01    0.112E-01
DAV:   6    -0.191436220503E+03    0.12653E-03   -0.54303E-04  9720   0.105E-01    0.480E-02
DAV:   7    -0.191436183849E+03    0.36654E-04   -0.15534E-04  6800   0.476E-02
  16 F= -.19143618E+03 E0= -.19133138E+03  d E =-.215737E-01
       N       E                     dE             d eps       ncg     rms          rms(c)
DAV:   1    -0.191489454531E+03   -0.53234E-01   -0.46023E+00  8160   0.453E+00    0.581E-01
DAV:   2    -0.191535880211E+03   -0.46426E-01   -0.19246E-01 13600   0.251E+00    0.203E+00
DAV:   3    -0.191495611194E+03    0.40269E-01   -0.89232E-02 12160   0.204E+00    0.467E-01
DAV:   4    -0.191496910074E+03   -0.12989E-02   -0.15539E-02 11320   0.789E-01    0.614E-01
DAV:   5    -0.191493190369E+03    0.37197E-02   -0.87308E-03 11560   0.600E-01    0.196E-01
DAV:   6    -0.191492946156E+03    0.24421E-03   -0.21322E-03 10360   0.207E-01    0.146E-01
DAV:   7    -0.191493431789E+03   -0.48563E-03   -0.24579E-03 10920   0.324E-01    0.286E-01
DAV:   8    -0.191492627526E+03    0.80426E-03   -0.13897E-03  8920   0.248E-01    0.374E-02
DAV:   9    -0.191492635341E+03   -0.78148E-05   -0.79770E-05  5680   0.374E-02
  17 F= -.19149264E+03 E0= -.19138537E+03  d E =-.564515E-01
       N       E                     dE             d eps       ncg     rms          rms(c)
DAV:   1    -0.191449230489E+03    0.43397E-01   -0.24564E+00  8160   0.329E+00    0.359E-01
DAV:   2    -0.191463909724E+03   -0.14679E-01   -0.73652E-02 13560   0.130E+00    0.103E+00
DAV:   3    -0.191452205339E+03    0.11704E-01   -0.23623E-02 11800   0.112E+00    0.294E-01
DAV:   4    -0.191452754143E+03   -0.54880E-03   -0.53446E-03 10360   0.452E-01    0.388E-01
DAV:   5    -0.191451337471E+03    0.14167E-02   -0.34807E-03 10160   0.393E-01    0.132E-01
DAV:   6    -0.191451248796E+03    0.88674E-04   -0.80120E-04 10360   0.129E-01
  18 F= -.19145125E+03 E0= -.19134527E+03  d E =0.413865E-01
       N       E                     dE             d eps       ncg     rms          rms(c)
DAV:   1    -0.191387589967E+03    0.63748E-01   -0.79772E+00  8160   0.599E+00    0.748E-01
DAV:   2    -0.191439675228E+03   -0.52085E-01   -0.27678E-01 13600   0.285E+00    0.199E+00
DAV:   3    -0.191394842655E+03    0.44833E-01   -0.80340E-02 12040   0.215E+00    0.513E-01
DAV:   4    -0.191397493665E+03   -0.26510E-02   -0.19618E-02 11320   0.897E-01    0.804E-01
DAV:   5    -0.191392119162E+03    0.53745E-02   -0.17312E-02 10320   0.884E-01    0.347E-01
DAV:   6    -0.191391082625E+03    0.10365E-02   -0.42863E-03 11280   0.323E-01    0.152E-01
DAV:   7    -0.191390806731E+03    0.27589E-03   -0.15589E-03 10920   0.190E-01    0.129E-01
DAV:   8    -0.191390718958E+03    0.87773E-04   -0.73337E-04  8680   0.184E-01
  19 F= -.19139072E+03 E0= -.19128755E+03  d E =0.605298E-01
       N       E                     dE             d eps       ncg     rms          rms(c)
DAV:   1    -0.191461502999E+03   -0.70696E-01   -0.10755E+01  8160   0.696E+00    0.898E-01
DAV:   2    -0.191557718730E+03   -0.96216E-01   -0.43281E-01 13600   0.365E+00    0.296E+00
DAV:   3    -0.191474889810E+03    0.82829E-01   -0.19191E-01 12160   0.304E+00    0.718E-01
DAV:   4    -0.191478495065E+03   -0.36053E-02   -0.36921E-02 10800   0.124E+00    0.977E-01
DAV:   5    -0.191468593585E+03    0.99015E-02   -0.21741E-02 11320   0.982E-01    0.338E-01
DAV:   6    -0.191467695286E+03    0.89830E-03   -0.62686E-03 11640   0.363E-01    0.235E-01
DAV:   7    -0.191468675057E+03   -0.97977E-03   -0.61948E-03 11880   0.502E-01    0.431E-01
DAV:   8    -0.191466894942E+03    0.17801E-02   -0.34286E-03  9760   0.380E-01    0.649E-02
DAV:   9    -0.191466862668E+03    0.32275E-04   -0.18507E-04  5600   0.596E-02
  20 F= -.19146686E+03 E0= -.19135975E+03  d E =-.761437E-01
       N       E                     dE             d eps       ncg     rms          rms(c)
DAV:   1    -0.191474157282E+03   -0.72623E-02   -0.15665E-01  8160   0.838E-01    0.106E-01
DAV:   2    -0.191475511915E+03   -0.13546E-02   -0.63262E-03 13280   0.430E-01    0.324E-01
DAV:   3    -0.191474375371E+03    0.11365E-02   -0.22538E-03 11120   0.345E-01    0.745E-02
DAV:   4    -0.191474445347E+03   -0.69976E-04   -0.39341E-04  8000   0.125E-01
  21 F= -.19147445E+03 E0= -.19136695E+03  d E =-.758268E-02
       N       E                     dE             d eps       ncg     rms          rms(c)
DAV:   1    -0.191524563974E+03   -0.50189E-01   -0.41421E+00  8160   0.428E+00    0.459E-01
DAV:   2    -0.191546582491E+03   -0.22019E-01   -0.11746E-01 13480   0.148E+00    0.134E+00
DAV:   3    -0.191530351849E+03    0.16231E-01   -0.48168E-02 12280   0.146E+00    0.482E-01
DAV:   4    -0.191530441922E+03   -0.90073E-04   -0.10796E-02 11000   0.633E-01    0.491E-01
DAV:   5    -0.191528045195E+03    0.23967E-02   -0.57574E-03 10560   0.510E-01    0.182E-01
DAV:   6    -0.191527898636E+03    0.14656E-03   -0.16301E-03 11200   0.191E-01    0.134E-01
DAV:   7    -0.191528167812E+03   -0.26918E-03   -0.17823E-03 10840   0.262E-01    0.231E-01
DAV:   8    -0.191527666916E+03    0.50090E-03   -0.10579E-03  8680   0.213E-01    0.446E-02
DAV:   9    -0.191527663144E+03    0.37718E-05   -0.74348E-05  5720   0.411E-02
  22 F= -.19152766E+03 E0= -.19141901E+03  d E =-.532178E-01
       N       E                     dE             d eps       ncg     rms          rms(c)
DAV:   1    -0.191497553097E+03    0.30114E-01   -0.12808E+00  8160   0.239E+00    0.273E-01
DAV:   2    -0.191505266436E+03   -0.77133E-02   -0.39011E-02 13360   0.102E+00    0.792E-01
DAV:   3    -0.191498800144E+03    0.64663E-02   -0.13548E-02 11600   0.827E-01    0.230E-01
DAV:   4    -0.191499173458E+03   -0.37331E-03   -0.35119E-03 10680   0.368E-01    0.305E-01
DAV:   5    -0.191498307827E+03    0.86563E-03   -0.24010E-03  9800   0.321E-01    0.111E-01
DAV:   6    -0.191498220638E+03    0.87189E-04   -0.56520E-04 10120   0.111E-01
  23 F= -.19149822E+03 E0= -.19139010E+03  d E =0.294425E-01
       N       E                     dE             d eps       ncg     rms          rms(c)
DAV:   1    -0.191307843967E+03    0.19046E+00   -0.67840E+01  8160   0.175E+01    0.183E+00
DAV:   2    -0.191608012866E+03   -0.30017E+00   -0.18365E+00 13400   0.579E+00    0.429E+00
DAV:   3    -0.191403012508E+03    0.20500E+00   -0.43856E-01 12120   0.500E+00    0.169E+00
DAV:   4    -0.191407328153E+03   -0.43156E-02   -0.12424E-01 11240   0.241E+00    0.196E+00
DAV:   5    -0.191372420175E+03    0.34908E-01   -0.92950E-02 11160   0.218E+00    0.732E-01
DAV:   6    -0.191371125950E+03    0.12942E-02   -0.26000E-02 12600   0.917E-01    0.649E-01
DAV:   7    -0.191372377194E+03   -0.12512E-02   -0.28006E-02 11600   0.116E+00    0.832E-01
DAV:   8    -0.191365248684E+03    0.71285E-02   -0.12534E-02 11480   0.759E-01    0.120E-01
DAV:   9    -0.191365144719E+03    0.10397E-03   -0.99467E-04 10240   0.120E-01    0.598E-02
DAV:  10    -0.191365077374E+03    0.67345E-04   -0.35122E-04 10240   0.570E-02
  24 F= -.19136508E+03 E0= -.19126332E+03  d E =0.133143E+00
       N       E                     dE             d eps       ncg     rms          rms(c)
DAV:   1    -0.191369086592E+03   -0.39419E-02   -0.89689E-01  8160   0.201E+00    0.211E-01
DAV:   2    -0.191371609116E+03   -0.25225E-02   -0.20260E-02 13440   0.584E-01    0.451E-01
DAV:   3    -0.191370086153E+03    0.15230E-02   -0.62138E-03 12000   0.554E-01    0.236E-01
DAV:   4    -0.191369573230E+03    0.51292E-03   -0.12198E-03 10000   0.209E-01    0.882E-02
DAV:   5    -0.191369559801E+03    0.13430E-04   -0.58261E-04 10680   0.132E-01
  25 F= -.19136956E+03 E0= -.19126787E+03  d E =-.448243E-02
       N       E                     dE             d eps       ncg     rms          rms(c)
DAV:   1    -0.191385244616E+03   -0.15671E-01   -0.68206E-01  8160   0.178E+00    0.317E-01
DAV:   2    -0.191395756568E+03   -0.10512E-01   -0.39614E-02 12320   0.123E+00    0.100E+00
DAV:   3    -0.191385091638E+03    0.10665E-01   -0.18891E-02 11720   0.105E+00    0.225E-01
DAV:   4    -0.191385591410E+03   -0.49977E-03   -0.40029E-03 11400   0.422E-01    0.331E-01
DAV:   5    -0.191384601764E+03    0.98965E-03   -0.28270E-03 10920   0.372E-01    0.144E-01
DAV:   6    -0.191384294659E+03    0.30710E-03   -0.77103E-04  9560   0.138E-01    0.393E-02
DAV:   7    -0.191384305880E+03   -0.11221E-04   -0.16407E-04  6520   0.650E-02
  26 F= -.19138431E+03 E0= -.19128171E+03  d E =-.147461E-01
       N       E                     dE             d eps       ncg     rms          rms(c)
DAV:   1    -0.191420358493E+03   -0.36064E-01   -0.49811E+00  8160   0.476E+00    0.594E-01
DAV:   2    -0.191454801503E+03   -0.34443E-01   -0.18794E-01 13600   0.214E+00    0.168E+00
DAV:   3    -0.191428201388E+03    0.26600E-01   -0.68128E-02 12280   0.188E+00    0.557E-01
DAV:   4    -0.191427801612E+03    0.39978E-03   -0.14276E-02 11200   0.791E-01    0.559E-01
DAV:   5    -0.191424967869E+03    0.28337E-02   -0.79607E-03 10720   0.656E-01    0.285E-01
DAV:   6    -0.191423914124E+03    0.10537E-02   -0.31002E-03 11400   0.298E-01    0.112E-01
DAV:   7    -0.191424379209E+03   -0.46509E-03   -0.18590E-03 10840   0.266E-01    0.241E-01
DAV:   8    -0.191423783247E+03    0.59596E-03   -0.10982E-03  9000   0.236E-01    0.475E-02
DAV:   9    -0.191423779113E+03    0.41342E-05   -0.85130E-05  5920   0.486E-02
  27 F= -.19142378E+03 E0= -.19131963E+03  d E =-.394732E-01
       N       E                     dE             d eps       ncg     rms          rms(c)
DAV:   1    -0.191413854477E+03    0.99288E-02   -0.54160E-01  8160   0.156E+00    0.190E-01
DAV:   2    -0.191417504725E+03   -0.36502E-02   -0.18816E-02 13600   0.683E-01    0.540E-01
DAV:   3    -0.191414534947E+03    0.29698E-02   -0.65973E-03 11400   0.597E-01    0.177E-01
DAV:   4    -0.191414483687E+03    0.51260E-04   -0.13645E-03  9560   0.243E-01    0.168E-01
DAV:   5    -0.191414237148E+03    0.24654E-03   -0.78884E-04  9440   0.206E-01    0.906E-02
DAV:   6    -0.191414128070E+03    0.10908E-03   -0.27009E-04  7520   0.924E-02    0.280E-02
DAV:   7    -0.191414142356E+03   -0.14286E-04   -0.93583E-05  6520   0.495E-02
  28 F= -.19141414E+03 E0= -.19131056E+03  d E =0.963676E-02
       N       E                     dE             d eps       ncg     rms          rms(c)
DAV:   1    -0.191431727102E+03   -0.17599E-01   -0.10243E+00  8160   0.217E+00    0.229E-01
DAV:   2    -0.191433633245E+03   -0.19061E-02   -0.24670E-02 13600   0.563E-01    0.309E-01
DAV:   3    -0.191433176784E+03    0.45646E-03   -0.49106E-03 12280   0.514E-01    0.258E-01
DAV:   4    -0.191432573898E+03    0.60289E-03   -0.19189E-03  9800   0.294E-01    0.151E-01
DAV:   5    -0.191432579132E+03   -0.52342E-05   -0.12167E-03  9520   0.252E-01    0.177E-01
DAV:   6    -0.191432324125E+03    0.25501E-03   -0.82839E-04  9240   0.196E-01    0.676E-02
DAV:   7    -0.191432263361E+03    0.60764E-04   -0.13073E-04  5720   0.609E-02
  29 F= -.19143226E+03 E0= -.19132899E+03  d E =-.181210E-01
       N       E                     dE             d eps       ncg     rms          rms(c)
DAV:   1    -0.191381553536E+03    0.50771E-01   -0.81282E+00  8160   0.613E+00    0.643E-01
DAV:   2    -0.191397157577E+03   -0.15604E-01   -0.20207E-01 13360   0.146E+00    0.882E-01
DAV:   3    -0.191397805035E+03   -0.64746E-03   -0.46497E-02 12240   0.148E+00    0.985E-01
DAV:   4    -0.191389459335E+03    0.83457E-02   -0.20564E-02 12080   0.954E-01    0.360E-01
DAV:   5    -0.191388224361E+03    0.12350E-02   -0.59898E-03 11320   0.477E-01    0.311E-01
DAV:   6    -0.191388377171E+03   -0.15281E-03   -0.54325E-03 12080   0.531E-01    0.319E-01
DAV:   7    -0.191387286824E+03    0.10903E-02   -0.24220E-03 10240   0.332E-01    0.142E-01
DAV:   8    -0.191387134218E+03    0.15261E-03   -0.61544E-04  8280   0.172E-01    0.739E-02
DAV:   9    -0.191387092497E+03    0.41720E-04   -0.15101E-04  7120   0.801E-02
  30 F= -.19138709E+03 E0= -.19128312E+03  d E =0.451709E-01
       N       E                     dE             d eps       ncg     rms          rms(c)
DAV:   1    -0.191383373401E+03    0.37608E-02   -0.26785E+00  8160   0.350E+00    0.368E-01
DAV:   2    -0.191389225873E+03   -0.58525E-02   -0.61502E-02 13480   0.901E-01    0.628E-01
DAV:   3    -0.191387628496E+03    0.15974E-02   -0.16779E-02 12480   0.900E-01    0.513E-01
DAV:   4    -0.191385494290E+03    0.21342E-02   -0.56136E-03 11200   0.471E-01    0.209E-01
DAV:   5    -0.191385316248E+03    0.17804E-03   -0.23434E-03 11200   0.349E-01    0.215E-01
DAV:   6    -0.191385058213E+03    0.25804E-03   -0.17428E-03 11280   0.293E-01    0.126E-01
DAV:   7    -0.191384833963E+03    0.22425E-03   -0.49209E-04  8800   0.123E-01    0.418E-02
DAV:   8    -0.191384834342E+03   -0.37976E-06   -0.11049E-04  6520   0.687E-02
  31 F= -.19138483E+03 E0= -.19128009E+03  d E =0.225815E-02
       N       E                     dE             d eps       ncg     rms          rms(c)
DAV:   1    -0.191388073083E+03   -0.32391E-02   -0.36385E-01  8160   0.128E+00    0.136E-01
DAV:   2    -0.191389253741E+03   -0.11807E-02   -0.87671E-03 13400   0.390E-01    0.295E-01
DAV:   3    -0.191388496703E+03    0.75704E-03   -0.25100E-03 10960   0.360E-01    0.141E-01
DAV:   4    -0.191388514927E+03   -0.18224E-04   -0.79520E-04  8200   0.188E-01
  32 F= -.19138851E+03 E0= -.19128360E+03  d E =-.368058E-02
       N       E                     dE             d eps       ncg     rms          rms(c)
DAV:   1    -0.191372549228E+03    0.15947E-01   -0.98515E-01  8160   0.211E+00    0.248E-01
DAV:   2    -0.191378179483E+03   -0.56303E-02   -0.31309E-02 13560   0.790E-01    0.615E-01
DAV:   3    -0.191373714581E+03    0.44649E-02   -0.93421E-03 11720   0.711E-01    0.176E-01
DAV:   4    -0.191373542808E+03    0.17177E-03   -0.12285E-03 10680   0.179E-01    0.108E-01
DAV:   5    -0.191373435244E+03    0.10756E-03   -0.65948E-04 10640   0.145E-01    0.116E-01
DAV:   6    -0.191373465064E+03   -0.29819E-04   -0.73348E-04  8560   0.188E-01
  33 F= -.19137347E+03 E0= -.19126884E+03  d E =0.150499E-01
       N       E                     dE             d eps       ncg     rms          rms(c)
DAV:   1    -0.191375047468E+03   -0.16122E-02   -0.68506E-01  8160   0.178E+00    0.215E-01
DAV:   2    -0.191380050628E+03   -0.50032E-02   -0.22849E-02 13600   0.782E-01    0.693E-01
DAV:   3    -0.191375681864E+03    0.43688E-02   -0.10275E-02 11520   0.683E-01    0.178E-01
DAV:   4    -0.191375566155E+03    0.11571E-03   -0.12622E-03  9960   0.192E-01    0.129E-01
DAV:   5    -0.191375484862E+03    0.81293E-04   -0.81810E-04 11080   0.194E-01
  34 F= -.19137548E+03 E0= -.19127042E+03  d E =-.201980E-02
       N       E                     dE             d eps       ncg     rms          rms(c)
DAV:   1    -0.191374919108E+03    0.64705E-03   -0.61344E-02  8160   0.557E-01    0.941E-02
DAV:   2    -0.191376019479E+03   -0.11004E-02   -0.32762E-03 12720   0.339E-01    0.337E-01
DAV:   3    -0.191374884900E+03    0.11346E-02   -0.19642E-03 10120   0.315E-01    0.691E-02
DAV:   4    -0.191374939543E+03   -0.54643E-04   -0.24320E-04  7240   0.103E-01
  35 F= -.19137494E+03 E0= -.19126971E+03  d E =0.545319E-03
       N       E                     dE             d eps       ncg     rms          rms(c)
DAV:   1    -0.191373966490E+03    0.91841E-03   -0.24781E-02  8160   0.346E-01    0.690E-02
DAV:   2    -0.191374466175E+03   -0.49969E-03   -0.15465E-03 11360   0.240E-01    0.218E-01
DAV:   3    -0.191373912791E+03    0.55338E-03   -0.92048E-04  8760   0.219E-01    0.487E-02
DAV:   4    -0.191373947176E+03   -0.34385E-04   -0.15186E-04  5640   0.826E-02
  36 F= -.19137395E+03 E0= -.19126866E+03  d E =0.992367E-03
       N       E                     dE             d eps       ncg     rms          rms(c)
DAV:   1    -0.191395889602E+03   -0.21977E-01   -0.18872E+00  8160   0.291E+00    0.337E-01
DAV:   2    -0.191408337043E+03   -0.12447E-01   -0.68779E-02 13600   0.131E+00    0.955E-01
DAV:   3    -0.191399020171E+03    0.93169E-02   -0.21802E-02 12200   0.105E+00    0.276E-01
DAV:   4    -0.191399377026E+03   -0.35685E-03   -0.45671E-03 10720   0.424E-01    0.354E-01
DAV:   5    -0.191398253260E+03    0.11238E-02   -0.33415E-03 10120   0.387E-01    0.155E-01
DAV:   6    -0.191398053134E+03    0.20013E-03   -0.87171E-04 10080   0.141E-01    0.647E-02
DAV:   7    -0.191398084548E+03   -0.31414E-04   -0.42049E-04  8920   0.117E-01
  37 F= -.19139808E+03 E0= -.19129153E+03  d E =-.241374E-01
       N       E                     dE             d eps       ncg     rms          rms(c)
DAV:   1    -0.191380899220E+03    0.17154E-01   -0.84969E-01  8160   0.194E+00    0.205E-01
DAV:   2    -0.191385649267E+03   -0.47500E-02   -0.26109E-02 13440   0.699E-01    0.574E-01
DAV:   3    -0.191382278526E+03    0.33707E-02   -0.77930E-03 11400   0.632E-01    0.198E-01
DAV:   4    -0.191382296978E+03   -0.18451E-04   -0.17888E-03  9560   0.265E-01    0.206E-01
DAV:   5    -0.191381878220E+03    0.41876E-03   -0.10352E-03  9520   0.222E-01    0.776E-02
DAV:   6    -0.191381837058E+03    0.41162E-04   -0.23257E-04  6000   0.788E-02
  38 F= -.19138184E+03 E0= -.19127590E+03  d E =0.162475E-01
       N       E                     dE             d eps       ncg     rms          rms(c)
DAV:   1    -0.191338919384E+03    0.42959E-01   -0.71217E+00  8160   0.562E+00    0.651E-01
DAV:   2    -0.191384949572E+03   -0.46030E-01   -0.24341E-01 13560   0.253E+00    0.178E+00
DAV:   3    -0.191349578742E+03    0.35371E-01   -0.65063E-02 11720   0.194E+00    0.522E-01
DAV:   4    -0.191350776022E+03   -0.11973E-02   -0.15633E-02 11280   0.803E-01    0.658E-01
DAV:   5    -0.191346845736E+03    0.39303E-02   -0.11053E-02 10440   0.716E-01    0.268E-01
DAV:   6    -0.191346360240E+03    0.48550E-03   -0.28272E-03 11560   0.274E-01    0.148E-01
DAV:   7    -0.191346698134E+03   -0.33789E-03   -0.21980E-03 12360   0.302E-01    0.265E-01
DAV:   8    -0.191346017902E+03    0.68023E-03   -0.12255E-03  9520   0.249E-01    0.514E-02
DAV:   9    -0.191346013497E+03    0.44050E-05   -0.79488E-05  5560   0.454E-02
  39 F= -.19134601E+03 E0= -.19124145E+03  d E =0.358236E-01
       N       E                     dE             d eps       ncg     rms          rms(c)
DAV:   1    -0.191332573308E+03    0.13445E-01   -0.26831E+00  8160   0.343E+00    0.352E-01
DAV:   2    -0.191342710408E+03   -0.10137E-01   -0.66816E-02 13560   0.103E+00    0.859E-01
DAV:   3    -0.191336420151E+03    0.62903E-02   -0.21318E-02 12320   0.102E+00    0.399E-01
DAV:   4    -0.191335529098E+03    0.89105E-03   -0.46142E-03 10680   0.407E-01    0.269E-01
DAV:   5    -0.191334888941E+03    0.64016E-03   -0.23438E-03 11560   0.357E-01    0.170E-01
DAV:   6    -0.191334687161E+03    0.20178E-03   -0.11443E-03 10440   0.207E-01    0.899E-02
DAV:   7    -0.191334587008E+03    0.10015E-03   -0.38682E-04  8800   0.876E-02    0.293E-02
DAV:   8    -0.191334569843E+03    0.17165E-04   -0.48244E-05  6920   0.330E-02
  40 F= -.19133457E+03 E0= -.19123042E+03  d E =0.114437E-01
       N       E                     dE             d eps       ncg     rms          rms(c)
DAV:   1    -0.191346461122E+03   -0.11874E-01   -0.95449E-01  8160   0.207E+00    0.284E-01
DAV:   2    -0.191359589376E+03   -0.13128E-01   -0.48390E-02 13400   0.119E+00    0.108E+00
DAV:   3    -0.191348397700E+03    0.11192E-01   -0.21637E-02 11840   0.106E+00    0.231E-01
DAV:   4    -0.191348381081E+03    0.16620E-04   -0.28004E-03 11440   0.331E-01    0.225E-01
DAV:   5    -0.191347876625E+03    0.50446E-03   -0.14362E-03  9960   0.267E-01    0.108E-01
DAV:   6    -0.191347762502E+03    0.11412E-03   -0.43990E-04  8400   0.113E-01    0.602E-02
DAV:   7    -0.191347949311E+03   -0.18681E-03   -0.53730E-04  9160   0.159E-01    0.149E-01
DAV:   8    -0.191347724098E+03    0.22521E-03   -0.35059E-04  7360   0.135E-01    0.194E-02
DAV:   9    -0.191347736744E+03   -0.12646E-04   -0.36030E-05  5760   0.242E-02
  41 F= -.19134774E+03 E0= -.19124286E+03  d E =-.131669E-01
       N       E                     dE             d eps       ncg     rms          rms(c)
DAV:   1    -0.191359234235E+03   -0.11510E-01   -0.86852E-01  8160   0.198E+00    0.276E-01
DAV:   2    -0.191369228536E+03   -0.99943E-02   -0.39704E-02 13240   0.111E+00    0.950E-01
DAV:   3    -0.191360509812E+03    0.87187E-02   -0.17883E-02 11280   0.961E-01    0.244E-01
DAV:   4    -0.191360482461E+03    0.27351E-04   -0.31954E-03 11120   0.364E-01    0.248E-01
DAV:   5    -0.191359916801E+03    0.56566E-03   -0.18087E-03 10080   0.292E-01    0.120E-01
DAV:   6    -0.191359724857E+03    0.19194E-03   -0.50819E-04  8680   0.113E-01    0.379E-02
DAV:   7    -0.191359745777E+03   -0.20920E-04   -0.17461E-04  6400   0.644E-02
  42 F= -.19135975E+03 E0= -.19125417E+03  d E =-.120090E-01
       N       E                     dE             d eps       ncg     rms          rms(c)
DAV:   1    -0.191370302397E+03   -0.10578E-01   -0.75063E-01  8160   0.184E+00    0.235E-01
DAV:   2    -0.191377089172E+03   -0.67868E-02   -0.29635E-02 13480   0.854E-01    0.762E-01
DAV:   3    -0.191371595331E+03    0.54938E-02   -0.12603E-02 11200   0.796E-01    0.231E-01
DAV:   4    -0.191371451090E+03    0.14424E-03   -0.23586E-03 10600   0.292E-01    0.196E-01
DAV:   5    -0.191371118908E+03    0.33218E-03   -0.12160E-03 10080   0.244E-01    0.110E-01
DAV:   6    -0.191370976729E+03    0.14218E-03   -0.38598E-04  8240   0.114E-01    0.431E-02
DAV:   7    -0.191371044390E+03   -0.67661E-04   -0.22541E-04  6880   0.919E-02
  43 F= -.19137104E+03 E0= -.19126501E+03  d E =-.112986E-01
       N       E                     dE             d eps       ncg     rms          rms(c)
DAV:   1    -0.191367315954E+03    0.36608E-02   -0.78310E-02  8160   0.603E-01    0.845E-02
DAV:   2    -0.191368286803E+03   -0.97085E-03   -0.36391E-03 12720   0.333E-01    0.300E-01
DAV:   3    -0.191367382870E+03    0.90393E-03   -0.17096E-03 10120   0.295E-01    0.711E-02
DAV:   4    -0.191367389834E+03   -0.69646E-05   -0.24670E-04  7480   0.101E-01
  44 F= -.19136739E+03 E0= -.19126145E+03  d E =0.365456E-02
       N       E                     dE             d eps       ncg     rms          rms(c)
DAV:   1    -0.191333946345E+03    0.33437E-01   -0.56849E+00  8160   0.507E+00    0.619E-01
DAV:   2    -0.191371572434E+03   -0.37626E-01   -0.19969E-01 13560   0.206E+00    0.169E+00
DAV:   3    -0.191343132925E+03    0.28440E-01   -0.70619E-02 12280   0.187E+00    0.635E-01
DAV:   4    -0.191341476936E+03    0.16560E-02   -0.15848E-02 11320   0.759E-01    0.510E-01
DAV:   5    -0.191339501750E+03    0.19752E-02   -0.87198E-03 12040   0.656E-01    0.337E-01
DAV:   6    -0.191338208662E+03    0.12931E-02   -0.37068E-03 11520   0.375E-01    0.152E-01
DAV:   7    -0.191339191816E+03   -0.98315E-03   -0.29563E-03 11760   0.375E-01    0.346E-01
DAV:   8    -0.191338006319E+03    0.11855E-02   -0.18863E-03  9680   0.314E-01    0.560E-02
DAV:   9    -0.191337992163E+03    0.14155E-04   -0.11513E-04  5560   0.527E-02
  45 F= -.19133799E+03 E0= -.19123313E+03  d E =0.293977E-01
       N       E                     dE             d eps       ncg     rms          rms(c)
DAV:   1    -0.191336298298E+03    0.17080E-02   -0.48171E-02  8160   0.469E-01    0.549E-02
DAV:   2    -0.191336537779E+03   -0.23948E-03   -0.14424E-03 13600   0.171E-01    0.147E-01
DAV:   3    -0.191336345851E+03    0.19193E-03   -0.54013E-04  8320   0.160E-01    0.558E-02
DAV:   4    -0.191336333532E+03    0.12319E-04   -0.85067E-05  5440   0.548E-02
  46 F= -.19133633E+03 E0= -.19123138E+03  d E =0.165863E-02
       N       E                     dE             d eps       ncg     rms          rms(c)
DAV:   1    -0.191352212785E+03   -0.15867E-01   -0.32721E+00  8160   0.382E+00    0.522E-01
DAV:   2    -0.191397543561E+03   -0.45331E-01   -0.16410E-01 12880   0.224E+00    0.210E+00
DAV:   3    -0.191358771846E+03    0.38772E-01   -0.88309E-02 11640   0.202E+00    0.476E-01
DAV:   4    -0.191358077072E+03    0.69477E-03   -0.10952E-02 11480   0.669E-01    0.434E-01
DAV:   5    -0.191356216309E+03    0.18608E-02   -0.51150E-03 11760   0.490E-01    0.192E-01
DAV:   6    -0.191355791417E+03    0.42489E-03   -0.15426E-03 10360   0.190E-01    0.112E-01
DAV:   7    -0.191356445419E+03   -0.65400E-03   -0.18336E-03 10800   0.297E-01    0.279E-01
DAV:   8    -0.191355680174E+03    0.76525E-03   -0.11207E-03  9040   0.235E-01    0.291E-02
DAV:   9    -0.191355699190E+03   -0.19016E-04   -0.60952E-05  5640   0.326E-02
  47 F= -.19135570E+03 E0= -.19124900E+03  d E =-.193657E-01
       N       E                     dE             d eps       ncg     rms          rms(c)
DAV:   1    -0.191358816865E+03   -0.31367E-02   -0.31443E+00  8160   0.379E+00    0.460E-01
DAV:   2    -0.191384574576E+03   -0.25758E-01   -0.10457E-01 13520   0.170E+00    0.157E+00
DAV:   3    -0.191362110384E+03    0.22464E-01   -0.47074E-02 12360   0.155E+00    0.354E-01
DAV:   4    -0.191361641755E+03    0.46863E-03   -0.53673E-03 11400   0.439E-01    0.305E-01
DAV:   5    -0.191361158868E+03    0.48289E-03   -0.43880E-03 11800   0.469E-01    0.277E-01
DAV:   6    -0.191360585715E+03    0.57315E-03   -0.25895E-03 10840   0.306E-01    0.169E-01
DAV:   7    -0.191360786991E+03   -0.20128E-03   -0.18446E-03  9880   0.293E-01    0.216E-01
DAV:   8    -0.191360290464E+03    0.49653E-03   -0.77955E-04  8160   0.190E-01    0.300E-02
DAV:   9    -0.191360299323E+03   -0.88590E-05   -0.64690E-05  6000   0.338E-02
  48 F= -.19136030E+03 E0= -.19125216E+03  d E =-.460013E-02
       N       E                     dE             d eps       ncg     rms          rms(c)
DAV:   1    -0.191358163033E+03    0.21274E-02   -0.11068E-01  8160   0.705E-01    0.762E-02
DAV:   2    -0.191358710953E+03   -0.54792E-03   -0.28512E-03 13560   0.251E-01    0.219E-01
DAV:   3    -0.191358260401E+03    0.45055E-03   -0.99639E-04  8920   0.229E-01    0.696E-02
DAV:   4    -0.191358249955E+03    0.10446E-04   -0.15900E-04  5440   0.749E-02
  49 F= -.19135825E+03 E0= -.19125021E+03  d E =0.204937E-02
       N       E                     dE             d eps       ncg     rms          rms(c)
DAV:   1    -0.191364686765E+03   -0.64264E-02   -0.50946E-01  8160   0.152E+00    0.239E-01
DAV:   2    -0.191372006308E+03   -0.73195E-02   -0.27112E-02 12840   0.967E-01    0.837E-01
DAV:   3    -0.191365121711E+03    0.68846E-02   -0.13318E-02 11200   0.817E-01    0.200E-01
DAV:   4    -0.191365306945E+03   -0.18523E-03   -0.24746E-03 10240   0.326E-01    0.241E-01
DAV:   5    -0.191364754322E+03    0.55262E-03   -0.15564E-03  9680   0.264E-01    0.992E-02
DAV:   6    -0.191364640868E+03    0.11345E-03   -0.41371E-04  7680   0.102E-01    0.484E-02
DAV:   7    -0.191364701041E+03   -0.60173E-04   -0.30199E-04  7560   0.113E-01
  50 F= -.19136470E+03 E0= -.19125619E+03  d E =-.645109E-02
       N       E                     dE             d eps       ncg     rms          rms(c)
DAV:   1    -0.191368655105E+03   -0.40142E-02   -0.23074E-01  8160   0.102E+00    0.123E-01
DAV:   2    -0.191369952643E+03   -0.12975E-02   -0.73186E-03 12960   0.359E-01    0.337E-01
DAV:   3    -0.191368950050E+03    0.10026E-02   -0.28965E-03 10040   0.374E-01    0.138E-01
DAV:   4    -0.191368819057E+03    0.13099E-03   -0.51951E-04  8200   0.122E-01    0.651E-02
DAV:   5    -0.191368807248E+03    0.11810E-04   -0.28554E-04  7480   0.101E-01
  51 F= -.19136881E+03 E0= -.19126007E+03  d E =-.410621E-02
       N       E                     dE             d eps       ncg     rms          rms(c)
DAV:   1    -0.191361844526E+03    0.69745E-02   -0.40970E-01  8160   0.136E+00    0.173E-01
DAV:   2    -0.191367038627E+03   -0.51941E-02   -0.18873E-02 13520   0.705E-01    0.700E-01
DAV:   3    -0.191362429852E+03    0.46088E-02   -0.94108E-03 11320   0.649E-01    0.140E-01
DAV:   4    -0.191362329027E+03    0.10083E-03   -0.82556E-04  9960   0.138E-01    0.912E-02
DAV:   5    -0.191362281865E+03    0.47162E-04   -0.37274E-04  9360   0.133E-01
  52 F= -.19136228E+03 E0= -.19125415E+03  d E =0.652538E-02
       N       E                     dE             d eps       ncg     rms          rms(c)
DAV:   1    -0.191367986925E+03   -0.56579E-02   -0.39418E-01  8160   0.133E+00    0.165E-01
DAV:   2    -0.191370262242E+03   -0.22753E-02   -0.14647E-02 13040   0.498E-01    0.428E-01
DAV:   3    -0.191368756697E+03    0.15055E-02   -0.58006E-03 11320   0.506E-01    0.221E-01
DAV:   4    -0.191368318621E+03    0.43808E-03   -0.12289E-03  9520   0.192E-01    0.822E-02
DAV:   5    -0.191368273734E+03    0.44887E-04   -0.39578E-04  8440   0.116E-01
  53 F= -.19136827E+03 E0= -.19125992E+03  d E =-.599187E-02
       N       E                     dE             d eps       ncg     rms          rms(c)
DAV:   1    -0.191372739617E+03   -0.44210E-02   -0.17629E-01  8160   0.895E-01    0.152E-01
DAV:   2    -0.191376348386E+03   -0.36088E-02   -0.10688E-02 12280   0.658E-01    0.586E-01
DAV:   3    -0.191372839187E+03    0.35092E-02   -0.58333E-03 10760   0.557E-01    0.117E-01
DAV:   4    -0.191372928180E+03   -0.88993E-04   -0.79701E-04  8320   0.194E-01
  54 F= -.19137293E+03 E0= -.19126426E+03  d E =-.465445E-02
       N       E                     dE             d eps       ncg     rms          rms(c)
DAV:   1    -0.191365398909E+03    0.74403E-02   -0.43608E-01  8160   0.141E+00    0.152E-01
DAV:   2    -0.191368303175E+03   -0.29043E-02   -0.15033E-02 13600   0.578E-01    0.448E-01
DAV:   3    -0.191366093118E+03    0.22101E-02   -0.45000E-03 11200   0.482E-01    0.123E-01
DAV:   4    -0.191366211303E+03   -0.11819E-03   -0.95047E-04  8400   0.190E-01    0.161E-01
DAV:   5    -0.191365969713E+03    0.24159E-03   -0.61009E-04  8240   0.167E-01    0.583E-02
DAV:   6    -0.191365945720E+03    0.23993E-04   -0.12415E-04  5520   0.602E-02
  55 F= -.19136595E+03 E0= -.19125783E+03  d E =0.698246E-02
       N       E                     dE             d eps       ncg     rms          rms(c)
DAV:   1    -0.191359925959E+03    0.60438E-02   -0.72957E-01  8160   0.180E+00    0.199E-01
DAV:   2    -0.191363860238E+03   -0.39343E-02   -0.21975E-02 13520   0.668E-01    0.553E-01
DAV:   3    -0.191360965285E+03    0.28950E-02   -0.67518E-03 11280   0.596E-01    0.188E-01
DAV:   4    -0.191360940938E+03    0.24347E-04   -0.12912E-03  9640   0.229E-01    0.176E-01
DAV:   5    -0.191360621531E+03    0.31941E-03   -0.78595E-04  8960   0.205E-01    0.775E-02
DAV:   6    -0.191360639160E+03   -0.17629E-04   -0.35086E-04  8520   0.110E-01
  56 F= -.19136064E+03 E0= -.19125312E+03  d E =0.530656E-02
       N       E                     dE             d eps       ncg     rms          rms(c)
DAV:   1    -0.191360287957E+03    0.33357E-03   -0.82018E-03  8320   0.234E-01    0.114E-01
DAV:   2    -0.191364195880E+03   -0.39079E-02   -0.74764E-03 10880   0.621E-01    0.634E-01
DAV:   3    -0.191360134338E+03    0.40615E-02   -0.53025E-03 10080   0.526E-01    0.419E-02
DAV:   4    -0.191360178319E+03   -0.43981E-04   -0.91919E-05  5800   0.617E-02
  57 F= -.19136018E+03 E0= -.19125255E+03  d E =0.460842E-03
       N       E                     dE             d eps       ncg     rms          rms(c)
DAV:   1    -0.191352932116E+03    0.72022E-02   -0.65676E-01  8160   0.171E+00    0.240E-01
DAV:   2    -0.191361515104E+03   -0.85830E-02   -0.27194E-02 12520   0.968E-01    0.878E-01
DAV:   3    -0.191353410637E+03    0.81045E-02   -0.13405E-02 11440   0.856E-01    0.198E-01
DAV:   4    -0.191353282205E+03    0.12843E-03   -0.18308E-03 10040   0.248E-01    0.165E-01
DAV:   5    -0.191353116254E+03    0.16595E-03   -0.11286E-03 10520   0.233E-01    0.125E-01
DAV:   6    -0.191352922397E+03    0.19386E-03   -0.45832E-04  8200   0.131E-01    0.498E-02
DAV:   7    -0.191353023893E+03   -0.10150E-03   -0.31211E-04  7680   0.120E-01    0.108E-01
DAV:   8    -0.191352907951E+03    0.11594E-03   -0.19258E-04  5960   0.104E-01    0.233E-02
DAV:   9    -0.191352910603E+03   -0.26518E-05   -0.27472E-05  5560   0.253E-02
  58 F= -.19135291E+03 E0= -.19124567E+03  d E =0.726772E-02
       N       E                     dE             d eps       ncg     rms          rms(c)
DAV:   1    -0.191340396559E+03    0.12511E-01   -0.15579E+00  8160   0.264E+00    0.376E-01
DAV:   2    -0.191363029179E+03   -0.22633E-01   -0.71557E-02 13040   0.157E+00    0.139E+00
DAV:   3    -0.191341983909E+03    0.21045E-01   -0.33028E-02 11480   0.137E+00    0.290E-01
DAV:   4    -0.191341687012E+03    0.29690E-03   -0.41433E-03 11080   0.375E-01    0.247E-01
DAV:   5    -0.191341237489E+03    0.44952E-03   -0.22999E-03 12360   0.334E-01    0.169E-01
DAV:   6    -0.191340867885E+03    0.36960E-03   -0.84175E-04  9400   0.175E-01    0.552E-02
DAV:   7    -0.191340900629E+03   -0.32743E-04   -0.26372E-04  7920   0.671E-02
  59 F= -.19134090E+03 E0= -.19123404E+03  d E =0.120100E-01
       N       E                     dE             d eps       ncg     rms          rms(c)
DAV:   1    -0.191344866562E+03   -0.39987E-02   -0.18538E-01  8160   0.914E-01    0.128E-01
DAV:   2    -0.191347675101E+03   -0.28085E-02   -0.94836E-03 13520   0.536E-01    0.522E-01
DAV:   3    -0.191345109796E+03    0.25653E-02   -0.50033E-03 11000   0.487E-01    0.998E-02
DAV:   4    -0.191345068353E+03    0.41443E-04   -0.43594E-04  8360   0.107E-01
  60 F= -.19134507E+03 E0= -.19123821E+03  d E =-.416772E-02
       N       E                     dE             d eps       ncg     rms          rms(c)
DAV:   1    -0.191351129113E+03   -0.60193E-02   -0.59021E-01  8160   0.164E+00    0.265E-01
DAV:   2    -0.191360451653E+03   -0.93225E-02   -0.30017E-02 13440   0.104E+00    0.982E-01
DAV:   3    -0.191351451135E+03    0.90005E-02   -0.17304E-02 11760   0.956E-01    0.222E-01
DAV:   4    -0.191351220513E+03    0.23062E-03   -0.21783E-03 10920   0.279E-01    0.182E-01
DAV:   5    -0.191351120670E+03    0.99842E-04   -0.18098E-03 10280   0.289E-01    0.182E-01
DAV:   6    -0.191350800819E+03    0.31985E-03   -0.97100E-04  9520   0.184E-01    0.985E-02
DAV:   7    -0.191350806922E+03   -0.61033E-05   -0.47228E-04  8240   0.151E-01
  61 F= -.19135081E+03 E0= -.19124318E+03  d E =-.573857E-02
       N       E                     dE             d eps       ncg     rms          rms(c)
DAV:   1    -0.191341195314E+03    0.96055E-02   -0.12723E+00  8160   0.241E+00    0.319E-01
DAV:   2    -0.191353044174E+03   -0.11849E-01   -0.52462E-02 13600   0.113E+00    0.100E+00
DAV:   3    -0.191343080188E+03    0.99640E-02   -0.21398E-02 11560   0.103E+00    0.310E-01
DAV:   4    -0.191342654718E+03    0.42547E-03   -0.39643E-03 10960   0.351E-01    0.231E-01
DAV:   5    -0.191342262119E+03    0.39260E-03   -0.21416E-03 10520   0.310E-01    0.181E-01
DAV:   6    -0.191341933144E+03    0.32898E-03   -0.97148E-04  9480   0.203E-01    0.858E-02
DAV:   7    -0.191342142579E+03   -0.20944E-03   -0.72631E-04  9200   0.188E-01    0.165E-01
DAV:   8    -0.191341874417E+03    0.26816E-03   -0.47588E-04  8240   0.158E-01    0.339E-02
DAV:   9    -0.191341871088E+03    0.33295E-05   -0.46353E-05  5560   0.344E-02
  62 F= -.19134187E+03 E0= -.19123440E+03  d E =0.893583E-02
       N       E                     dE             d eps       ncg     rms          rms(c)
DAV:   1    -0.191350785599E+03   -0.89112E-02   -0.93725E-01  8160   0.205E+00    0.293E-01
DAV:   2    -0.191363229185E+03   -0.12444E-01   -0.43641E-02 13280   0.113E+00    0.109E+00
DAV:   3    -0.191352199133E+03    0.11030E-01   -0.23171E-02 11200   0.107E+00    0.284E-01
DAV:   4    -0.191351737708E+03    0.46142E-03   -0.32684E-03 11000   0.321E-01    0.207E-01
DAV:   5    -0.191351494851E+03    0.24286E-03   -0.18482E-03 10440   0.292E-01    0.167E-01
DAV:   6    -0.191351183529E+03    0.31132E-03   -0.81299E-04  8560   0.176E-01    0.796E-02
DAV:   7    -0.191351347578E+03   -0.16405E-03   -0.62520E-04  8520   0.171E-01    0.147E-01
DAV:   8    -0.191351141800E+03    0.20578E-03   -0.37180E-04  7680   0.138E-01    0.297E-02
DAV:   9    -0.191351140649E+03    0.11508E-05   -0.43117E-05  5720   0.312E-02
  63 F= -.19135114E+03 E0= -.19124323E+03  d E =-.926956E-02
       N       E                     dE             d eps       ncg     rms          rms(c)
DAV:   1    -0.191360360735E+03   -0.92189E-02   -0.12498E+00  8160   0.236E+00    0.315E-01
DAV:   2    -0.191375462479E+03   -0.15102E-01   -0.55877E-02 13320   0.124E+00    0.121E+00
DAV:   3    -0.191362512444E+03    0.12950E-01   -0.29327E-02 11520   0.116E+00    0.295E-01
DAV:   4    -0.191362073503E+03    0.43894E-03   -0.36227E-03 11000   0.335E-01    0.223E-01
DAV:   5    -0.191361708346E+03    0.36516E-03   -0.18957E-03 10480   0.297E-01    0.162E-01
DAV:   6    -0.191361452280E+03    0.25607E-03   -0.80728E-04  8680   0.173E-01    0.872E-02
DAV:   7    -0.191361653017E+03   -0.20074E-03   -0.70473E-04  8600   0.185E-01    0.160E-01
DAV:   8    -0.191361404218E+03    0.24880E-03   -0.42627E-04  8120   0.147E-01    0.304E-02
DAV:   9    -0.191361403320E+03    0.89723E-06   -0.46896E-05  5640   0.319E-02
  64 F= -.19136140E+03 E0= -.19125290E+03  d E =-.102627E-01
       N       E                     dE             d eps       ncg     rms          rms(c)
DAV:   1    -0.191370613564E+03   -0.92093E-02   -0.12761E+00  8160   0.239E+00    0.307E-01
DAV:   2    -0.191384059638E+03   -0.13446E-01   -0.53525E-02 13360   0.119E+00    0.114E+00
DAV:   3    -0.191372758830E+03    0.11301E-01   -0.27082E-02 11440   0.110E+00    0.294E-01
DAV:   4    -0.191372402659E+03    0.35617E-03   -0.36128E-03 10960   0.348E-01    0.234E-01
DAV:   5    -0.191371965990E+03    0.43667E-03   -0.19522E-03 10560   0.304E-01    0.155E-01
DAV:   6    -0.191371736502E+03    0.22949E-03   -0.79941E-04  8840   0.166E-01    0.862E-02
DAV:   7    -0.191371943362E+03   -0.20686E-03   -0.71262E-04  9200   0.187E-01    0.163E-01
DAV:   8    -0.191371681682E+03    0.26168E-03   -0.41973E-04  7920   0.146E-01    0.275E-02
DAV:   9    -0.191371685600E+03   -0.39188E-05   -0.43020E-05  5520   0.292E-02
  65 F= -.19137169E+03 E0= -.19126226E+03  d E =-.102823E-01
       N       E                     dE             d eps       ncg     rms          rms(c)
DAV:   1    -0.191371779706E+03   -0.98025E-04   -0.12557E-04  8840   0.283E-02    0.561E-03
DAV:   2    -0.191371780519E+03   -0.81270E-06   -0.12326E-05  5280   0.124E-02
  66 F= -.19137178E+03 E0= -.19126234E+03  d E =-.949187E-04
       N       E                     dE             d eps       ncg     rms          rms(c)
DAV:   1    -0.191379234612E+03   -0.74549E-02   -0.78386E-01  8160   0.188E+00    0.244E-01
DAV:   2    -0.191384328528E+03   -0.50939E-02   -0.25359E-02 13600   0.839E-01    0.713E-01
DAV:   3    -0.191379776302E+03    0.45522E-02   -0.12000E-02 11240   0.743E-01    0.248E-01
DAV:   4    -0.191379737747E+03    0.38554E-04   -0.29455E-03 10360   0.343E-01    0.246E-01
DAV:   5    -0.191379257414E+03    0.48033E-03   -0.20838E-03  9680   0.305E-01    0.142E-01
DAV:   6    -0.191379015639E+03    0.24178E-03   -0.73164E-04  9600   0.138E-01    0.538E-02
DAV:   7    -0.191379100396E+03   -0.84757E-04   -0.34376E-04  7880   0.125E-01
  67 F= -.19137910E+03 E0= -.19126838E+03  d E =-.731988E-02
       N       E                     dE             d eps       ncg     rms          rms(c)
DAV:   1    -0.191377394732E+03    0.16209E-02   -0.17120E-01  8160   0.903E-01    0.140E-01
DAV:   2    -0.191378008006E+03   -0.61327E-03   -0.62019E-03 11840   0.401E-01    0.281E-01
DAV:   3    -0.191377311864E+03    0.69614E-03   -0.23622E-03 10480   0.353E-01    0.143E-01
DAV:   4    -0.191377246829E+03    0.65035E-04   -0.80126E-04  8160   0.197E-01
  68 F= -.19137725E+03 E0= -.19126712E+03  d E =0.185357E-02
       N       E                     dE             d eps       ncg     rms          rms(c)
DAV:   1    -0.191380297291E+03   -0.29854E-02   -0.24535E-01  8160   0.111E+00    0.199E-01
DAV:   2    -0.191383792867E+03   -0.34956E-02   -0.16523E-02 12360   0.623E-01    0.608E-01
DAV:   3    -0.191380511845E+03    0.32810E-02   -0.86025E-03 10800   0.637E-01    0.207E-01
DAV:   4    -0.191380247641E+03    0.26420E-03   -0.14319E-03 10000   0.195E-01    0.135E-01
DAV:   5    -0.191380167189E+03    0.80452E-04   -0.96194E-04  9480   0.202E-01
  69 F= -.19138017E+03 E0= -.19127043E+03  d E =-.292036E-02
       N       E                     dE             d eps       ncg     rms          rms(c)
DAV:   1    -0.191385667798E+03   -0.54202E-02   -0.41906E-01  8160   0.137E+00    0.157E-01
DAV:   2    -0.191387830997E+03   -0.21632E-02   -0.11388E-02 13600   0.511E-01    0.431E-01
DAV:   3    -0.191386063830E+03    0.17672E-02   -0.41623E-03 11360   0.465E-01    0.152E-01
DAV:   4    -0.191386067915E+03   -0.40850E-05   -0.10286E-03  9680   0.209E-01    0.144E-01
DAV:   5    -0.191385914014E+03    0.15390E-03   -0.65235E-04  8600   0.185E-01    0.945E-02
DAV:   6    -0.191385816984E+03    0.97030E-04   -0.26658E-04  6880   0.937E-02
  70 F= -.19138582E+03 E0= -.19127521E+03  d E =-.564980E-02
       N       E                     dE             d eps       ncg     rms          rms(c)
DAV:   1    -0.191377294118E+03    0.86199E-02   -0.14484E+00  8160   0.253E+00    0.266E-01
DAV:   2    -0.191382326616E+03   -0.50325E-02   -0.35184E-02 13320   0.858E-01    0.599E-01
DAV:   3    -0.191378711934E+03    0.36147E-02   -0.94666E-03 11200   0.710E-01    0.248E-01
DAV:   4    -0.191378824689E+03   -0.11276E-03   -0.26833E-03 10960   0.362E-01    0.280E-01
DAV:   5    -0.191378178648E+03    0.64604E-03   -0.20181E-03  9560   0.331E-01    0.146E-01
DAV:   6    -0.191377970220E+03    0.20843E-03   -0.74256E-04  9920   0.141E-01    0.528E-02
DAV:   7    -0.191378018604E+03   -0.48384E-04   -0.28819E-04  7640   0.102E-01
  71 F= -.19137802E+03 E0= -.19126920E+03  d E =0.779838E-02
       N       E                     dE             d eps       ncg     rms          rms(c)
DAV:   1    -0.191378064914E+03   -0.94694E-04   -0.36661E-02  8160   0.415E-01    0.531E-02
DAV:   2    -0.191378304438E+03   -0.23952E-03   -0.11460E-03 12760   0.161E-01    0.152E-01
DAV:   3    -0.191378088751E+03    0.21569E-03   -0.47587E-04  8240   0.161E-01    0.486E-02
DAV:   4    -0.191378078376E+03    0.10375E-04   -0.62436E-05  5480   0.474E-02
  72 F= -.19137808E+03 E0= -.19126946E+03  d E =-.597715E-04
       N       E                     dE             d eps       ncg     rms          rms(c)
DAV:   1    -0.191380842791E+03   -0.27540E-02   -0.25207E-01  8160   0.107E+00    0.133E-01
DAV:   2    -0.191382444048E+03   -0.16013E-02   -0.10336E-02 13200   0.427E-01    0.346E-01
DAV:   3    -0.191381395295E+03    0.10488E-02   -0.29438E-03 11480   0.386E-01    0.136E-01
DAV:   4    -0.191381289218E+03    0.10608E-03   -0.60613E-04  8480   0.147E-01    0.844E-02
DAV:   5    -0.191381241843E+03    0.47374E-04   -0.31149E-04  7880   0.121E-01
  73 F= -.19138124E+03 E0= -.19127274E+03  d E =-.316347E-02
       N       E                     dE             d eps       ncg     rms          rms(c)
DAV:   1    -0.191382909837E+03   -0.16206E-02   -0.51479E-01  8160   0.150E+00    0.168E-01
DAV:   2    -0.191386465199E+03   -0.35554E-02   -0.14817E-02 13600   0.637E-01    0.578E-01
DAV:   3    -0.191383329109E+03    0.31361E-02   -0.67843E-03 11520   0.566E-01    0.150E-01
DAV:   4    -0.191383380299E+03   -0.51191E-04   -0.11687E-03  9520   0.218E-01    0.154E-01
DAV:   5    -0.191383172266E+03    0.20803E-03   -0.69927E-04  8240   0.185E-01    0.825E-02
DAV:   6    -0.191383123798E+03    0.48468E-04   -0.27353E-04  7240   0.967E-02
  74 F= -.19138312E+03 E0= -.19127355E+03  d E =-.188195E-02
       N       E                     dE             d eps       ncg     rms          rms(c)
DAV:   1    -0.191389360427E+03   -0.61882E-02   -0.46854E-01  8160   0.146E+00    0.218E-01
DAV:   2    -0.191396911897E+03   -0.75515E-02   -0.24653E-02 13320   0.850E-01    0.872E-01
DAV:   3    -0.191389955694E+03    0.69562E-02   -0.14195E-02 10840   0.807E-01    0.194E-01
DAV:   4    -0.191389931009E+03    0.24686E-04   -0.18675E-03  9720   0.260E-01    0.178E-01
DAV:   5    -0.191389686574E+03    0.24443E-03   -0.11079E-03 10520   0.223E-01    0.110E-01
DAV:   6    -0.191389593786E+03    0.92788E-04   -0.44195E-04  7960   0.126E-01
  75 F= -.19138959E+03 E0= -.19127932E+03  d E =-.646999E-02
       N       E                     dE             d eps       ncg     rms          rms(c)
DAV:   1    -0.191371040442E+03    0.18646E-01   -0.31237E+00  8160   0.375E+00    0.443E-01
DAV:   2    -0.191390123204E+03   -0.19083E-01   -0.10823E-01 13440   0.147E+00    0.119E+00
DAV:   3    -0.191376556724E+03    0.13566E-01   -0.36745E-02 11440   0.133E+00    0.503E-01
DAV:   4    -0.191374988863E+03    0.15679E-02   -0.84688E-03 11320   0.532E-01    0.307E-01
DAV:   5    -0.191374430674E+03    0.55819E-03   -0.43523E-03 11040   0.448E-01    0.263E-01
DAV:   6    -0.191373715351E+03    0.71532E-03   -0.20792E-03 10240   0.285E-01    0.114E-01
DAV:   7    -0.191374214161E+03   -0.49881E-03   -0.15390E-03 10520   0.271E-01    0.247E-01
DAV:   8    -0.191373606744E+03    0.60742E-03   -0.92485E-04  8680   0.220E-01    0.394E-02
DAV:   9    -0.191373610205E+03   -0.34607E-05   -0.72218E-05  5600   0.401E-02
  76 F= -.19137361E+03 E0= -.19126514E+03  d E =0.159836E-01
       N       E                     dE             d eps       ncg     rms          rms(c)
DAV:   1    -0.191365118104E+03    0.84886E-02   -0.10461E+00  8160   0.217E+00    0.260E-01
DAV:   2    -0.191372667383E+03   -0.75493E-02   -0.37872E-02 13480   0.928E-01    0.810E-01
DAV:   3    -0.191366774757E+03    0.58926E-02   -0.15292E-02 11840   0.836E-01    0.261E-01
DAV:   4    -0.191366565291E+03    0.20947E-03   -0.25865E-03 10400   0.305E-01    0.210E-01
DAV:   5    -0.191366164108E+03    0.40118E-03   -0.14250E-03 10280   0.269E-01    0.120E-01
DAV:   6    -0.191366013162E+03    0.15095E-03   -0.50657E-04  8720   0.130E-01    0.481E-02
DAV:   7    -0.191366014311E+03   -0.11492E-05   -0.15954E-04  6400   0.653E-02
  77 F= -.19136601E+03 E0= -.19125856E+03  d E =0.759589E-02
       N       E                     dE             d eps       ncg     rms          rms(c)
DAV:   1    -0.191366253125E+03   -0.23996E-03   -0.79634E-02  8160   0.599E-01    0.712E-02
DAV:   2    -0.191366959758E+03   -0.70663E-03   -0.29087E-03 13600   0.299E-01    0.255E-01
DAV:   3    -0.191366340107E+03    0.61965E-03   -0.11270E-03  9240   0.246E-01    0.507E-02
DAV:   4    -0.191366338893E+03    0.12135E-05   -0.93263E-05  5480   0.525E-02
  78 F= -.19136634E+03 E0= -.19125899E+03  d E =-.324583E-03
       N       E                     dE             d eps       ncg     rms          rms(c)
DAV:   1    -0.191369713074E+03   -0.33730E-02   -0.20150E-01  8160   0.952E-01    0.129E-01
DAV:   2    -0.191371559262E+03   -0.18462E-02   -0.82802E-03 13560   0.484E-01    0.395E-01
DAV:   3    -0.191369962157E+03    0.15971E-02   -0.32648E-03 11320   0.416E-01    0.113E-01
DAV:   4    -0.191369993950E+03   -0.31793E-04   -0.67907E-04  8240   0.172E-01
  79 F= -.19136999E+03 E0= -.19126220E+03  d E =-.365506E-02
       N       E                     dE             d eps       ncg     rms          rms(c)
DAV:   1    -0.191370927322E+03   -0.96517E-03   -0.63006E-02  8160   0.556E-01    0.103E-01
DAV:   2    -0.191372320582E+03   -0.13933E-02   -0.44167E-03 13480   0.365E-01    0.360E-01
DAV:   3    -0.191371006321E+03    0.13143E-02   -0.25954E-03 10120   0.375E-01    0.107E-01
DAV:   4    -0.191370918238E+03    0.88083E-04   -0.36275E-04  7760   0.998E-02
  80 F= -.19137092E+03 E0= -.19126311E+03  d E =-.924288E-03
       N       E                     dE             d eps       ncg     rms          rms(c)
DAV:   1    -0.191374732189E+03   -0.37259E-02   -0.27493E-01  8160   0.112E+00    0.201E-01
DAV:   2    -0.191381743802E+03   -0.70116E-02   -0.20834E-02 12440   0.862E-01    0.857E-01
DAV:   3    -0.191374977217E+03    0.67666E-02   -0.13278E-02 11280   0.775E-01    0.165E-01
DAV:   4    -0.191374981676E+03   -0.44591E-05   -0.14179E-03  9960   0.241E-01    0.157E-01
DAV:   5    -0.191374756600E+03    0.22508E-03   -0.74466E-04  9520   0.187E-01    0.772E-02
DAV:   6    -0.191374687087E+03    0.69513E-04   -0.20687E-04  5880   0.818E-02
  81 F= -.19137469E+03 E0= -.19126613E+03  d E =-.376885E-02
       N       E                     dE             d eps       ncg     rms          rms(c)
DAV:   1    -0.191379964941E+03   -0.52083E-02   -0.52912E-01  8160   0.154E+00    0.235E-01
DAV:   2    -0.191390452692E+03   -0.10488E-01   -0.30086E-02 13440   0.996E-01    0.105E+00
DAV:   3    -0.191380538798E+03    0.99139E-02   -0.18013E-02 11040   0.930E-01    0.158E-01
DAV:   4    -0.191380747526E+03   -0.20873E-03   -0.17109E-03 10080   0.241E-01    0.206E-01
DAV:   5    -0.191380387259E+03    0.36027E-03   -0.11417E-03 10080   0.224E-01    0.103E-01
DAV:   6    -0.191380332978E+03    0.54281E-04   -0.38663E-04  7440   0.124E-01
  82 F= -.19138033E+03 E0= -.19127117E+03  d E =-.564589E-02
       N       E                     dE             d eps       ncg     rms          rms(c)
DAV:   1    -0.191378916821E+03    0.14704E-02   -0.33243E-02  8160   0.409E-01    0.814E-02
DAV:   2    -0.191380159565E+03   -0.12427E-02   -0.33180E-03 12280   0.361E-01    0.333E-01
DAV:   3    -0.191378925183E+03    0.12344E-02   -0.20122E-03  9640   0.330E-01    0.736E-02
DAV:   4    -0.191378907902E+03    0.17281E-04   -0.17509E-04  6080   0.861E-02
  83 F= -.19137891E+03 E0= -.19127001E+03  d E =0.142508E-02
       N       E                     dE             d eps       ncg     rms          rms(c)
DAV:   1    -0.191383725745E+03   -0.48006E-02   -0.48701E-01  8160   0.147E+00    0.177E-01
DAV:   2    -0.191388204375E+03   -0.44786E-02   -0.18956E-02 13560   0.682E-01    0.660E-01
DAV:   3    -0.191384454810E+03    0.37496E-02   -0.90298E-03 11200   0.626E-01    0.158E-01
DAV:   4    -0.191384304177E+03    0.15063E-03   -0.86242E-04  9600   0.141E-01    0.892E-02
DAV:   5    -0.191384283258E+03    0.20919E-04   -0.43378E-04  9080   0.141E-01
  84 F= -.19138428E+03 E0= -.19127457E+03  d E =-.537536E-02
       N       E                     dE             d eps       ncg     rms          rms(c)
DAV:   1    -0.191384656523E+03   -0.35235E-03   -0.45180E-03  8200   0.192E-01    0.561E-02
DAV:   2    -0.191385290683E+03   -0.63416E-03   -0.12023E-03 10040   0.254E-01    0.258E-01
DAV:   3    -0.191384609487E+03    0.68120E-03   -0.85719E-04  8480   0.226E-01    0.283E-02
DAV:   4    -0.191384640440E+03   -0.30953E-04   -0.46558E-05  5760   0.298E-02
  85 F= -.19138464E+03 E0= -.19127498E+03  d E =-.357181E-03
       N       E                     dE             d eps       ncg     rms          rms(c)
DAV:   1    -0.191389519777E+03   -0.49103E-02   -0.50495E-01  8160   0.151E+00    0.181E-01
DAV:   2    -0.191392228816E+03   -0.27090E-02   -0.16751E-02 13400   0.516E-01    0.488E-01
DAV:   3    -0.191390354376E+03    0.18744E-02   -0.67792E-03 11320   0.539E-01    0.217E-01
DAV:   4    -0.191390070521E+03    0.28386E-03   -0.12837E-03  9600   0.196E-01    0.125E-01
DAV:   5    -0.191389986080E+03    0.84441E-04   -0.71359E-04  8520   0.189E-01
  86 F= -.19138999E+03 E0= -.19127988E+03  d E =-.534564E-02
       N       E                     dE             d eps       ncg     rms          rms(c)
DAV:   1    -0.191385006371E+03    0.50641E-02   -0.44882E-01  8160   0.142E+00    0.175E-01
DAV:   2    -0.191387962076E+03   -0.29557E-02   -0.16587E-02 13200   0.544E-01    0.523E-01
DAV:   3    -0.191385640702E+03    0.23214E-02   -0.73421E-03 11400   0.550E-01    0.203E-01
DAV:   4    -0.191385289169E+03    0.35153E-03   -0.11931E-03  9600   0.176E-01    0.786E-02
DAV:   5    -0.191385262877E+03    0.26293E-04   -0.45855E-04  8840   0.126E-01
  87 F= -.19138526E+03 E0= -.19127535E+03  d E =0.472320E-02
       N       E                     dE             d eps       ncg     rms          rms(c)
DAV:   1    -0.191375550634E+03    0.97385E-02   -0.21583E+00  8160   0.312E+00    0.413E-01
DAV:   2    -0.191388415206E+03   -0.12865E-01   -0.74456E-02 13280   0.125E+00    0.117E+00
DAV:   3    -0.191377386854E+03    0.11028E-01   -0.35127E-02 12200   0.121E+00    0.420E-01
DAV:   4    -0.191375990354E+03    0.13965E-02   -0.54345E-03 11480   0.419E-01    0.239E-01
DAV:   5    -0.191376080653E+03   -0.90299E-04   -0.38564E-03 10720   0.437E-01    0.307E-01
DAV:   6    -0.191375183089E+03    0.89756E-03   -0.24679E-03 10000   0.339E-01    0.124E-01
DAV:   7    -0.191375350783E+03   -0.16769E-03   -0.10643E-03  9520   0.232E-01    0.179E-01
DAV:   8    -0.191375012749E+03    0.33803E-03   -0.48782E-04  8200   0.166E-01    0.288E-02
DAV:   9    -0.191375013060E+03   -0.31175E-06   -0.41974E-05  5640   0.298E-02
  88 F= -.19137501E+03 E0= -.19126587E+03  d E =0.102498E-01
       N       E                     dE             d eps       ncg     rms          rms(c)
DAV:   1    -0.191372774698E+03    0.22381E-02   -0.25080E-01  8160   0.107E+00    0.145E-01
DAV:   2    -0.191373424295E+03   -0.64960E-03   -0.75517E-03 13400   0.336E-01    0.283E-01
DAV:   3    -0.191372984909E+03    0.43939E-03   -0.32019E-03 10800   0.365E-01    0.196E-01
DAV:   4    -0.191372662027E+03    0.32288E-03   -0.95707E-04  8640   0.190E-01    0.885E-02
DAV:   5    -0.191372688910E+03   -0.26883E-04   -0.50341E-04  8760   0.160E-01
  89 F= -.19137269E+03 E0= -.19126338E+03  d E =0.232415E-02
       N       E                     dE             d eps       ncg     rms          rms(c)
DAV:   1    -0.191373061556E+03   -0.39953E-03   -0.86530E-01  8160   0.199E+00    0.295E-01
DAV:   2    -0.191378687803E+03   -0.56262E-02   -0.31534E-02 13400   0.898E-01    0.799E-01
DAV:   3    -0.191373113129E+03    0.55747E-02   -0.13841E-02 11520   0.849E-01    0.264E-01
DAV:   4    -0.191372646449E+03    0.46668E-03   -0.28047E-03 11240   0.300E-01    0.187E-01
DAV:   5    -0.191372672163E+03   -0.25714E-04   -0.24476E-03 11240   0.317E-01    0.242E-01
DAV:   6    -0.191372194090E+03    0.47807E-03   -0.17132E-03  9560   0.259E-01    0.114E-01
DAV:   7    -0.191372165307E+03    0.28783E-04   -0.54700E-04  8160   0.155E-01
  90 F= -.19137217E+03 E0= -.19126292E+03  d E =0.523603E-03
       N       E                     dE             d eps       ncg     rms          rms(c)
DAV:   1    -0.191378663773E+03   -0.64697E-02   -0.20932E+00  8160   0.308E+00    0.391E-01
DAV:   2    -0.191380574578E+03   -0.19108E-02   -0.52232E-02 13080   0.777E-01    0.500E-01
DAV:   3    -0.191381288863E+03   -0.71429E-03   -0.16557E-02 11160   0.874E-01    0.638E-01
DAV:   4    -0.191378032456E+03    0.32564E-02   -0.98518E-03 10800   0.639E-01    0.281E-01
DAV:   5    -0.191378136969E+03   -0.10451E-03   -0.45202E-03 10440   0.456E-01    0.324E-01
DAV:   6    -0.191377052164E+03    0.10848E-02   -0.24978E-03 10840   0.337E-01    0.114E-01
DAV:   7    -0.191377211231E+03   -0.15907E-03   -0.93642E-04  8800   0.208E-01    0.163E-01
DAV:   8    -0.191376958774E+03    0.25246E-03   -0.48616E-04  8160   0.159E-01    0.342E-02
DAV:   9    -0.191376959704E+03   -0.92976E-06   -0.48588E-05  6360   0.368E-02
  91 F= -.19137696E+03 E0= -.19126752E+03  d E =-.479440E-02
       N       E                     dE             d eps       ncg     rms          rms(c)
DAV:   1    -0.191385337716E+03   -0.83789E-02   -0.16642E+00  8160   0.274E+00    0.328E-01
DAV:   2    -0.191391089648E+03   -0.57519E-02   -0.45586E-02 13440   0.834E-01    0.756E-01
DAV:   3    -0.191387224871E+03    0.38648E-02   -0.19334E-02 12000   0.888E-01    0.418E-01
DAV:   4    -0.191385668088E+03    0.15568E-02   -0.39825E-03 10680   0.346E-01    0.140E-01
DAV:   5    -0.191385581877E+03    0.86211E-04   -0.15672E-03 10680   0.223E-01    0.184E-01
DAV:   6    -0.191385487508E+03    0.94369E-04   -0.13635E-03 10000   0.270E-01    0.153E-01
DAV:   7    -0.191385262515E+03    0.22499E-03   -0.40253E-04  8320   0.134E-01    0.278E-02
DAV:   8    -0.191385264910E+03   -0.23952E-05   -0.52703E-05  6440   0.319E-02
  92 F= -.19138526E+03 E0= -.19127524E+03  d E =-.830521E-02
       N       E                     dE             d eps       ncg     rms          rms(c)
DAV:   1    -0.191388609653E+03   -0.33471E-02   -0.20797E-01  8160   0.965E-01    0.124E-01
DAV:   2    -0.191390855832E+03   -0.22462E-02   -0.91880E-03 13520   0.477E-01    0.471E-01
DAV:   3    -0.191388918480E+03    0.19374E-02   -0.45398E-03 11000   0.438E-01    0.107E-01
DAV:   4    -0.191388861432E+03    0.57048E-04   -0.39692E-04  8120   0.989E-02
  93 F= -.19138886E+03 E0= -.19127849E+03  d E =-.359652E-02
       N       E                     dE             d eps       ncg     rms          rms(c)
DAV:   1    -0.191374595053E+03    0.14323E-01   -0.23679E+00  8160   0.327E+00    0.402E-01
DAV:   2    -0.191395906792E+03   -0.21312E-01   -0.94594E-02 13600   0.147E+00    0.131E+00
DAV:   3    -0.191378599467E+03    0.17307E-01   -0.38090E-02 11880   0.134E+00    0.394E-01
DAV:   4    -0.191377765236E+03    0.83423E-03   -0.60270E-03 11000   0.424E-01    0.277E-01
DAV:   5    -0.191377223604E+03    0.54163E-03   -0.30175E-03 12080   0.377E-01    0.210E-01
DAV:   6    -0.191376830807E+03    0.39280E-03   -0.14983E-03  9960   0.243E-01    0.131E-01
DAV:   7    -0.191377090516E+03   -0.25971E-03   -0.12483E-03  9760   0.250E-01    0.198E-01
DAV:   8    -0.191376679560E+03    0.41096E-03   -0.62874E-04  8280   0.180E-01    0.327E-02
DAV:   9    -0.191376680089E+03   -0.52902E-06   -0.57085E-05  6200   0.344E-02
  94 F= -.19137668E+03 E0= -.19126751E+03  d E =0.121813E-01
       N       E                     dE             d eps       ncg     rms          rms(c)
DAV:   1    -0.191359903390E+03    0.16776E-01   -0.34517E+00  8160   0.394E+00    0.508E-01
DAV:   2    -0.191394159886E+03   -0.34256E-01   -0.14188E-01 13600   0.191E+00    0.169E+00
DAV:   3    -0.191365204109E+03    0.28956E-01   -0.60303E-02 11960   0.170E+00    0.466E-01
DAV:   4    -0.191364250565E+03    0.95354E-03   -0.89533E-03 10720   0.543E-01    0.373E-01
DAV:   5    -0.191363379386E+03    0.87118E-03   -0.52058E-03 11840   0.503E-01    0.286E-01
DAV:   6    -0.191362669233E+03    0.71015E-03   -0.24167E-03 11520   0.318E-01    0.171E-01
DAV:   7    -0.191362910405E+03   -0.24117E-03   -0.17944E-03  9920   0.302E-01    0.211E-01
DAV:   8    -0.191362417315E+03    0.49309E-03   -0.77036E-04  9240   0.193E-01    0.342E-02
DAV:   9    -0.191362418798E+03   -0.14829E-05   -0.69411E-05  6360   0.363E-02
  95 F= -.19136242E+03 E0= -.19125482E+03  d E =0.142613E-01
       N       E                     dE             d eps       ncg     rms          rms(c)
DAV:   1    -0.191364365745E+03   -0.19484E-02   -0.74179E-02  8160   0.576E-01    0.748E-02
DAV:   2    -0.191365207363E+03   -0.84162E-03   -0.31298E-03 13600   0.291E-01    0.288E-01
DAV:   3    -0.191364441628E+03    0.76574E-03   -0.16091E-03  9640   0.270E-01    0.621E-02
DAV:   4    -0.191364428611E+03    0.13017E-04   -0.12450E-04  5520   0.600E-02
  96 F= -.19136443E+03 E0= -.19125669E+03  d E =-.200981E-02
       N       E                     dE             d eps       ncg     rms          rms(c)
DAV:   1    -0.191370011263E+03   -0.55696E-02   -0.82096E-01  8160   0.192E+00    0.285E-01
DAV:   2    -0.191384646617E+03   -0.14635E-01   -0.45824E-02 13360   0.121E+00    0.123E+00
DAV:   3    -0.191371264465E+03    0.13382E-01   -0.27055E-02 11480   0.112E+00    0.234E-01
DAV:   4    -0.191370902467E+03    0.36200E-03   -0.23927E-03 10880   0.235E-01    0.172E-01
DAV:   5    -0.191370870672E+03    0.31795E-04   -0.14888E-03 10440   0.262E-01    0.190E-01
DAV:   6    -0.191370529863E+03    0.34081E-03   -0.75436E-04  8160   0.179E-01    0.600E-02
DAV:   7    -0.191370587457E+03   -0.57594E-04   -0.27817E-04  7480   0.106E-01
  97 F= -.19137059E+03 E0= -.19126215E+03  d E =-.615885E-02
       N       E                     dE             d eps       ncg     rms          rms(c)
DAV:   1    -0.191378302572E+03   -0.77727E-02   -0.19933E+00  8160   0.298E+00    0.417E-01
DAV:   2    -0.191411024762E+03   -0.32722E-01   -0.10545E-01 13520   0.176E+00    0.189E+00
DAV:   3    -0.191381538713E+03    0.29486E-01   -0.65966E-02 11800   0.166E+00    0.342E-01
DAV:   4    -0.191381088955E+03    0.44976E-03   -0.56521E-03 11160   0.378E-01    0.299E-01
DAV:   5    -0.191380556887E+03    0.53207E-03   -0.32378E-03 10840   0.382E-01    0.238E-01
DAV:   6    -0.191380055637E+03    0.50125E-03   -0.14511E-03  9720   0.239E-01    0.113E-01
DAV:   7    -0.191380292958E+03   -0.23732E-03   -0.97231E-04 10360   0.217E-01    0.167E-01
DAV:   8    -0.191379975155E+03    0.31780E-03   -0.51907E-04  8400   0.171E-01    0.320E-02
DAV:   9    -0.191379972056E+03    0.30985E-05   -0.53073E-05  5720   0.368E-02
  98 F= -.19137997E+03 E0= -.19127063E+03  d E =-.938460E-02
       N       E                     dE             d eps       ncg     rms          rms(c)
DAV:   1    -0.191386176788E+03   -0.62016E-02   -0.12801E+00  8160   0.239E+00    0.318E-01
DAV:   2    -0.191404005405E+03   -0.17829E-01   -0.60977E-02 13600   0.131E+00    0.138E+00
DAV:   3    -0.191388100771E+03    0.15905E-01   -0.35716E-02 11680   0.122E+00    0.259E-01
DAV:   4    -0.191387877417E+03    0.22335E-03   -0.31360E-03 10400   0.282E-01    0.225E-01
DAV:   5    -0.191387590760E+03    0.28666E-03   -0.18851E-03 10400   0.295E-01    0.186E-01
DAV:   6    -0.191387287047E+03    0.30371E-03   -0.82721E-04  8360   0.180E-01    0.772E-02
DAV:   7    -0.191387444665E+03   -0.15762E-03   -0.54103E-04  9600   0.161E-01    0.127E-01
DAV:   8    -0.191387253809E+03    0.19086E-03   -0.29888E-04  7560   0.132E-01    0.227E-02
DAV:   9    -0.191387257098E+03   -0.32891E-05   -0.34014E-05  5720   0.291E-02
  99 F= -.19138726E+03 E0= -.19127712E+03  d E =-.728504E-02
       N       E                     dE             d eps       ncg     rms          rms(c)
DAV:   1    -0.191390176224E+03   -0.29224E-02   -0.21568E-01  8160   0.981E-01    0.125E-01
DAV:   2    -0.191392554425E+03   -0.23782E-02   -0.92371E-03 13520   0.486E-01    0.488E-01
DAV:   3    -0.191390470269E+03    0.20842E-02   -0.46805E-03 10880   0.449E-01    0.106E-01
DAV:   4    -0.191390440151E+03    0.30118E-04   -0.43280E-04  8160   0.105E-01
 100 F= -.19139044E+03 E0= -.19128014E+03  d E =-.318305E-02
