unknown system                          
           1
     8.858382    5.103438    0.000000
    -8.858446    5.103548    0.000000
     0.000000    0.000000   30.000000
   V    Mo   W    S 
   3   3   3  18
Direct configuration=     1
   0.00000000  0.00000000  0.00000000
   0.66666669  0.33333334  0.00000000
   0.00000000  0.66666669  0.00000000
   0.66666669  0.00000000  0.00000000
   1.00000000  0.33333334  0.00000000
   0.33333334  0.33333334  0.00000000
   0.33333334  0.00000000  0.00000000
   0.33333334  0.66666669  0.00000000
   0.66666669  0.66666669  0.00000000
   0.11068511  0.22244981  0.95539999
   0.22244981  0.11068511  0.04460000
   0.11068511  0.55578315  0.95539999
   0.22244981  0.44401845  0.04460000
   0.11068511  0.88911647  0.95539999
   0.22244981  0.77735180  0.04460000
   0.44401845  0.22244981  0.95539999
   0.55578315  0.11068511  0.04460000
   0.44401845  0.55578315  0.95539999
   0.55578315  0.44401845  0.04460000
   0.44401845  0.88911647  0.95539999
   0.55578315  0.77735180  0.04460000
   0.77735180  0.22244981  0.95539999
   0.88911647  0.11068511  0.04460000
   0.77735180  0.55578315  0.95539999
   0.88911647  0.44401845  0.04460000
   0.77735180  0.88911647  0.95539999
   0.88911647  0.77735180  0.04460000
unknown system                          
           1
     8.669443    4.997110    0.000000
    -8.669620    4.997416    0.000000
     0.000000    0.000000   30.000000
   V    Mo   W    S 
   3   3   3  18
Direct configuration=     2
  -0.00006310  0.00196835 -0.00016749
   0.66705460  0.33242397  0.00019103
  -0.00030245  0.66558165  0.00002351
   0.66797567  0.00128137  0.00012326
   0.99980721  0.33194029  0.00003590
   0.33201571  0.33348948 -0.00016212
   0.33435327  0.00160902 -0.00007908
   0.33310010  0.66492114 -0.00003064
   0.66596318  0.66667860  0.00003780
   0.10880176  0.21751376  0.95186632
   0.21807066  0.10829701  0.04804394
   0.10965081  0.55840894  0.95202053
   0.22259184  0.44544318  0.04925641
   0.10751482  0.88734200  0.95313325
   0.21849568  0.77592510  0.04806378
   0.44826086  0.22334467  0.95194603
   0.55682363  0.11514550  0.04815133
   0.44470421  0.55618809  0.95064274
   0.55847724  0.44287018  0.04796288
   0.44344775  0.88821812  0.95081474
   0.55499101  0.77700476  0.04930897
   0.77535309  0.22458879  0.95200334
   0.89112199  0.10861749  0.04803517
   0.77940422  0.55370505  0.95305903
   0.88646761  0.44645605  0.04695209
   0.78188681  0.89008946  0.95192854
   0.89224629  0.77916243  0.04683864
unknown system                          
           1
     8.486763    4.898158    0.000000
    -8.486757    4.898149    0.000000
     0.000000    0.000000   30.000000
   V    Mo   W    S 
   3   3   3  18
Direct configuration=     3
  -0.00001977  0.00263172 -0.00018483
   0.66710288  0.33199970  0.00021447
  -0.00031516  0.66531269  0.00003324
   0.66815199  0.00152464  0.00009932
   1.00000124  0.33153665  0.00003309
   0.33161428  0.33387583 -0.00014146
   0.33484390  0.00204843 -0.00012788
   0.33331763  0.66430843 -0.00003382
   0.66522095  0.66665476  0.00009423
   0.10867525  0.21733248  0.95175403
   0.21806583  0.10808363  0.04800226
   0.10981998  0.55853951  0.95203448
   0.22270177  0.44565913  0.04933938
   0.10769285  0.88742183  0.95324170
   0.21866524  0.77599051  0.04796799
   0.44825994  0.22319647  0.95196438
   0.55669344  0.11518745  0.04820619
   0.44478639  0.55641269  0.95056170
   0.55863368  0.44307935  0.04791005
   0.44320258  0.88811677  0.95087823
   0.55489177  0.77677813  0.04932332
   0.77531946  0.22467276  0.95197263
   0.89119158  0.10854820  0.04812890
   0.77929857  0.55379583  0.95316113
   0.88641849  0.44646314  0.04691748
   0.78191415  0.88993447  0.95194112
   0.89206558  0.77910927  0.04670858
unknown system                          
           1
     8.277609    4.771409    0.000000
    -8.278586    4.773101    0.000000
     0.000000    0.000000   30.000000
   V    Mo   W    S 
   3   3   3  18
Direct configuration=     4
   0.00014689  0.00515682 -0.00017415
   0.66694604  0.32992290  0.00021717
  -0.00004673  0.66447802  0.00005491
   0.66821244  0.00203675 -0.00001858
   1.00119702  0.33024462  0.00000400
   0.33027455  0.33603459 -0.00002280
   0.33695898  0.00340207 -0.00025372
   0.33467687  0.66202965 -0.00003720
   0.66153800  0.66647540  0.00025912
   0.10784734  0.21597137  0.94983728
   0.21696796  0.10735069  0.04928129
   0.10925809  0.55886886  0.95064800
   0.22254682  0.44561071  0.05129730
   0.10679337  0.88694209  0.95231881
   0.21797029  0.77559915  0.04904897
   0.44947658  0.22405969  0.95058457
   0.55739806  0.11646080  0.04992583
   0.44479175  0.55645963  0.94853537
   0.55911515  0.44262928  0.04915547
   0.44299595  0.88799036  0.94953075
   0.55483517  0.77681186  0.05103607
   0.77493601  0.22545686  0.95044102
   0.89182663  0.10792273  0.04992742
   0.77958859  0.55336125  0.95223267
   0.88593356  0.44678075  0.04810929
   0.78308257  0.89042488  0.95052860
   0.89294651  0.77973267  0.04753244
unknown system                          
           1
     8.287752    4.771606    0.000000
    -8.287949    4.771944    0.000000
     0.000000    0.000000   30.000000
   V    Mo   W    S 
   3   3   3  18
Direct configuration=     5
   0.00052064  0.00958259  0.00001521
   0.66686336  0.32537662  0.00004564
   0.00055758  0.66321740  0.00006949
   0.66789993  0.00296451 -0.00016622
   1.00382640  0.32810872 -0.00005251
   0.32778743  0.34122159  0.00010511
   0.34106707  0.00577048 -0.00034199
   0.33747426  0.65718269  0.00000070
   0.65410382  0.66592096  0.00036718
   0.10731384  0.21493024  0.94703446
   0.21617378  0.10729387  0.05074774
   0.10882822  0.55849791  0.94886287
   0.22168605  0.44515370  0.05414395
   0.10602371  0.88679365  0.95111049
   0.21778514  0.77522110  0.05029422
   0.45062881  0.22571816  0.94894141
   0.55864683  0.11787190  0.05240434
   0.44450489  0.55580586  0.94545919
   0.55897612  0.44198052  0.05071194
   0.44300622  0.88750312  0.94782509
   0.55462987  0.77762849  0.05352715
   0.77519112  0.22629899  0.94836721
   0.89233024  0.10743463  0.05232570
   0.77938068  0.55286779  0.95117752
   0.88565065  0.44645831  0.04988252
   0.78406975  0.89090848  0.94872048
   0.89328803  0.78050216  0.04842102
unknown system                          
           1
     8.278323    4.763903    0.000000
    -8.279059    4.765176    0.000000
     0.000000    0.000000   30.000000
   V    Mo   W    S 
   3   3   3  18
Direct configuration=     6
   0.00063495  0.01053841  0.00000879
   0.66770068  0.32395108  0.00002860
   0.00063187  0.66285493  0.00006796
   0.66757719  0.00329865 -0.00011492
   1.00430102  0.32814042 -0.00001950
   0.32731510  0.34249133  0.00001312
   0.34211047  0.00590663 -0.00035865
   0.33772293  0.65619905  0.00012512
   0.65247401  0.66571740  0.00033094
   0.10768764  0.21539262  0.94681954
   0.21689048  0.10817926  0.05061967
   0.10937745  0.55806610  0.94885381
   0.22118829  0.44510116  0.05448822
   0.10642104  0.88727232  0.95122864
   0.21863915  0.77521158  0.05016668
   0.45033178  0.22625077  0.94909041
   0.55895354  0.11777070  0.05263212
   0.44418886  0.55537822  0.94496257
   0.55836163  0.44200781  0.05054978
   0.44288273  0.88687863  0.94783959
   0.55433297  0.77805266  0.05378628
   0.77582894  0.22614656  0.94821518
   0.89214957  0.10758673  0.05243626
   0.77874262  0.55284028  0.95136156
   0.88576358  0.44582553  0.04992217
   0.78360907  0.89072813  0.94873256
   0.89239691  0.78042749  0.04821339
unknown system                          
           1
     8.288972    4.767900    0.000000
    -8.289895    4.769497    0.000000
     0.000000    0.000000   30.000000
   V    Mo   W    S 
   3   3   3  18
Direct configuration=     7
   0.00090033  0.01228812  0.00002752
   0.66916795  0.32163886 -0.00002341
   0.00070482  0.66220825  0.00002013
   0.66704410  0.00388934 -0.00008321
   1.00513472  0.32799472  0.00001209
   0.32615055  0.34479616 -0.00002376
   0.34408569  0.00622255 -0.00043257
   0.33843143  0.65427410  0.00019912
   0.64934880  0.66552771  0.00031923
   0.10790006  0.21579489  0.94641233
   0.21766282  0.10908259  0.05043984
   0.10991683  0.55769137  0.94877268
   0.22059757  0.44496072  0.05502629
   0.10682044  0.88777459  0.95140429
   0.21943653  0.77518153  0.05010673
   0.45028056  0.22694722  0.94928818
   0.55940350  0.11779085  0.05307780
   0.44371685  0.55509801  0.94429269
   0.55773669  0.44186832  0.05031671
   0.44270526  0.88615524  0.94780618
   0.55402836  0.77849145  0.05416942
   0.77647929  0.22597757  0.94790438
   0.89201804  0.10764199  0.05267126
   0.77804877  0.55269018  0.95161684
   0.88582835  0.44517466  0.05008463
   0.78319142  0.89066148  0.94868336
   0.89147472  0.78039202  0.04791116
unknown system                          
           1
     8.293295    4.766915    0.000000
    -8.294770    4.769472    0.000000
     0.000000    0.000000   30.000000
   V    Mo   W    S 
   3   3   3  18
Direct configuration=     8
   0.00091719  0.01247312  0.00002455
   0.66954915  0.32148464 -0.00001682
   0.00067574  0.66208222  0.00001391
   0.66699381  0.00398975 -0.00008010
   1.00506149  0.32805005  0.00002655
   0.32596936  0.34479384 -0.00004771
   0.34435077  0.00612187 -0.00043441
   0.33830803  0.65430265  0.00024442
   0.64925301  0.66562645  0.00030753
   0.10791260  0.21584226  0.94644940
   0.21775468  0.10915933  0.05034538
   0.10997169  0.55771355  0.94880774
   0.22052572  0.44500096  0.05501132
   0.10688684  0.88780934  0.95149007
   0.21944577  0.77518277  0.05006161
   0.45031684  0.22699672  0.94940121
   0.55941108  0.11776020  0.05306657
   0.44366743  0.55507360  0.94429583
   0.55770931  0.44182360  0.05020090
   0.44268403  0.88605753  0.94783941
   0.55396980  0.77851699  0.05413955
   0.77653474  0.22589681  0.94791102
   0.89199309  0.10763823  0.05262276
   0.77799278  0.55264938  0.95170437
   0.88582817  0.44517154  0.05006324
   0.78314905  0.89063006  0.94873854
   0.89138225  0.78036702  0.04781303
unknown system                          
           1
     8.295789    4.767429    0.000000
    -8.297398    4.770218    0.000000
     0.000000    0.000000   30.000000
   V    Mo   W    S 
   3   3   3  18
Direct configuration=     9
   0.00106641  0.01367552  0.00003241
   0.67087432  0.32023239 -0.00002153
   0.00068888  0.66154706 -0.00002963
   0.66667171  0.00440003 -0.00006686
   1.00533220  0.32801681  0.00005687
   0.32502772  0.34586562 -0.00008801
   0.34573261  0.00602313 -0.00048097
   0.33845638  0.65347470  0.00032252
   0.64764914  0.66575279  0.00029254
   0.10796567  0.21605841  0.94630671
   0.21819818  0.10959570  0.05011127
   0.11025081  0.55760715  0.94881611
   0.22015152  0.44498193  0.05522915
   0.10717271  0.88807578  0.95171357
   0.21973268  0.77517862  0.04999549
   0.45040330  0.22737450  0.94967567
   0.55962964  0.11772223  0.05326758
   0.44334830  0.55494882  0.94403156
   0.55743052  0.44168311  0.04989254
   0.44259123  0.88561815  0.94785679
   0.55375841  0.77873474  0.05426832
   0.77688480  0.22569736  0.94775417
   0.89191216  0.10763681  0.05267120
   0.77759574  0.55249620  0.95195111
   0.88585903  0.44492017  0.05013649
   0.78294221  0.89056262  0.94878592
   0.89088817  0.78033410  0.04751890
unknown system                          
           1
     8.300680    4.768897    0.000000
    -8.302328    4.771753    0.000000
     0.000000    0.000000   30.000000
   V    Mo   W    S 
   3   3   3  18
Direct configuration=    10
   0.00108412  0.01394656  0.00003368
   0.67117745  0.31997606 -0.00002017
   0.00069528  0.66138801 -0.00003947
   0.66660687  0.00449762 -0.00006626
   1.00536797  0.32803198  0.00006462
   0.32482313  0.34606811 -0.00010047
   0.34606148  0.00597343 -0.00048975
   0.33845496  0.65333615  0.00034580
   0.64732617  0.66580005  0.00028642
   0.10797083  0.21610131  0.94626365
   0.21828833  0.10968406  0.05006465
   0.11029737  0.55758690  0.94880633
   0.22005865  0.44498092  0.05528640
   0.10723105  0.88812607  0.95176034
   0.21976853  0.77517401  0.04999155
   0.45043668  0.22746628  0.94973579
   0.55968537  0.11771907  0.05331952
   0.44327530  0.55491659  0.94396510
   0.55737723  0.44163771  0.04982782
   0.44258369  0.88552429  0.94784545
   0.55371311  0.77878958  0.05430589
   0.77696026  0.22565137  0.94771163
   0.89189079  0.10763531  0.05269284
   0.77751229  0.55245432  0.95200241
   0.88586615  0.44487203  0.05016266
   0.78290744  0.89054758  0.94878685
   0.89079397  0.78032907  0.04745661
unknown system                          
           1
     8.302554    4.771705    0.000000
    -8.303043    4.772546    0.000000
     0.000000    0.000000   30.000000
   V    Mo   W    S 
   3   3   3  18
Direct configuration=    11
   0.00116798  0.01455459  0.00003567
   0.67181753  0.31938217 -0.00001718
   0.00065628  0.66113620 -0.00005919
   0.66651503  0.00475638 -0.00006518
   1.00542124  0.32796569  0.00007913
   0.32432289  0.34643153 -0.00012570
   0.34674532  0.00593617 -0.00050816
   0.33847717  0.65303149  0.00039148
   0.64667973  0.66590325  0.00027417
   0.10796663  0.21615915  0.94618595
   0.21845457  0.10986160  0.04995402
   0.11040618  0.55754360  0.94879557
   0.21986579  0.44497513  0.05540546
   0.10734528  0.88826312  0.95186461
   0.21987271  0.77517486  0.04997517
   0.45053686  0.22767019  0.94987397
   0.55980515  0.11773085  0.05341804
   0.44313050  0.55485266  0.94382804
   0.55727799  0.44152785  0.04967430
   0.44254772  0.88531850  0.94783742
   0.55361529  0.77889873  0.05437932
   0.77710374  0.22556291  0.94763127
   0.89186584  0.10761326  0.05272279
   0.77730950  0.55233025  0.95211441
   0.88584911  0.44474637  0.05020680
   0.78285812  0.89052964  0.94880621
   0.89060031  0.78035831  0.04732152
unknown system                          
           1
     8.306474    4.768640    0.000000
    -8.309039    4.773088    0.000000
     0.000000    0.000000   30.000000
   V    Mo   W    S 
   3   3   3  18
Direct configuration=    12
   0.00167901  0.01613871  0.00000478
   0.67273963  0.31767975  0.00004730
   0.00005832  0.66077092 -0.00009229
   0.66670052  0.00596566 -0.00008514
   1.00521767  0.32731140  0.00011747
   0.32306649  0.34650072 -0.00018897
   0.34844539  0.00652546 -0.00054718
   0.33850052  0.65239961  0.00049032
   0.64568348  0.66606636  0.00023706
   0.10784548  0.21602726  0.94606429
   0.21855275  0.11010653  0.04967557
   0.11063547  0.55744025  0.94879304
   0.21951993  0.44495018  0.05558580
   0.10762337  0.88881823  0.95212999
   0.22015069  0.77529919  0.04992541
   0.45114562  0.22823061  0.95025085
   0.56016704  0.11803282  0.05353369
   0.44284424  0.55473178  0.94364457
   0.55724010  0.44110560  0.04921357
   0.44244397  0.88498111  0.94787611
   0.55342931  0.77898871  0.05446967
   0.77720432  0.22554354  0.94752525
   0.89195322  0.10745930  0.05275908
   0.77662868  0.55162983  0.95236873
   0.88543639  0.44423390  0.05022716
   0.78301229  0.89052494  0.94892916
   0.89029055  0.78075204  0.04704462
unknown system                          
           1
     8.312423    4.768851    0.000000
    -8.315560    4.774294    0.000000
     0.000000    0.000000   30.000000
   V    Mo   W    S 
   3   3   3  18
Direct configuration=    13
   0.00120675  0.01569746  0.00003674
   0.67313586  0.31839932  0.00000624
   0.00071492  0.66029806 -0.00011350
   0.66618717  0.00515409 -0.00006501
   1.00553114  0.32816373  0.00011487
   0.32349390  0.34727860 -0.00017344
   0.34821597  0.00559051 -0.00055510
   0.33838710  0.65252596  0.00047652
   0.64535513  0.66613746  0.00025025
   0.10797489  0.21638139  0.94605588
   0.21885735  0.11018473  0.04970778
   0.11057763  0.55748951  0.94878989
   0.21950347  0.44497924  0.05555497
   0.10765958  0.88845948  0.95211765
   0.21993706  0.77517295  0.04994803
   0.45068564  0.22800044  0.95019260
   0.56002264  0.11768442  0.05358626
   0.44278038  0.55476639  0.94367095
   0.55707991  0.44135287  0.04933144
   0.44255214  0.88497932  0.94781345
   0.55343906  0.77907651  0.05446460
   0.77739953  0.22534825  0.94748505
   0.89175529  0.10762981  0.05277934
   0.77696478  0.55215579  0.95237335
   0.88589130  0.44458795  0.05029684
   0.78269192  0.89042978  0.94883784
   0.89021395  0.78029042  0.04701640
unknown system                          
           1
     8.305836    4.768310    0.000000
    -8.308439    4.772826    0.000000
     0.000000    0.000000   30.000000
   V    Mo   W    S 
   3   3   3  18
Direct configuration=    14
   0.00106991  0.01701266  0.00004302
   0.67441901  0.31764471  0.00002983
   0.00093929  0.65927010 -0.00016423
   0.66601366  0.00544819 -0.00007887
   1.00559293  0.32826242  0.00014316
   0.32256450  0.34797009 -0.00022676
   0.34970350  0.00494364 -0.00059048
   0.33815749  0.65227350  0.00057840
   0.64418400  0.66655215  0.00022482
   0.10792282  0.21658339  0.94593514
   0.21922384  0.11044588  0.04942455
   0.11069699  0.55743929  0.94873309
   0.21911822  0.44499826  0.05571103
   0.10797706  0.88865430  0.95240011
   0.21990479  0.77518975  0.04997417
   0.45081834  0.22831319  0.95052948
   0.56023736  0.11759531  0.05378231
   0.44239783  0.55470157  0.94350841
   0.55692497  0.44116497  0.04899033
   0.44263904  0.88465278  0.94772914
   0.55326064  0.77928833  0.05456044
   0.77772589  0.22509988  0.94732593
   0.89165444  0.10765685  0.05283230
   0.77659710  0.55198223  0.95263189
   0.88599429  0.44447589  0.05044214
   0.78258968  0.89035896  0.94885657
   0.88988686  0.78023616  0.04667400
unknown system                          
           1
     8.313735    4.768907    0.000000
    -8.316929    4.774450    0.000000
     0.000000    0.000000   30.000000
   V    Mo   W    S 
   3   3   3  18
Direct configuration=    15
   0.00144907  0.01542203  0.00004391
   0.67303640  0.31841344 -0.00001782
   0.00043250  0.66079962 -0.00010990
   0.66615180  0.00516185 -0.00005375
   1.00556450  0.32805046  0.00010559
   0.32356936  0.34716215 -0.00016350
   0.34790283  0.00600560 -0.00055781
   0.33859358  0.65233368  0.00047259
   0.64547851  0.66600526  0.00026182
   0.10800581  0.21635697  0.94608586
   0.21881429  0.11020553  0.04979863
   0.11060751  0.55751201  0.94885562
   0.21954630  0.44495232  0.05554856
   0.10759387  0.88843149  0.95202661
   0.22003815  0.77513199  0.04987250
   0.45071117  0.22802628  0.95009297
   0.55995553  0.11768398  0.05358389
   0.44288403  0.55471371  0.94365165
   0.55707708  0.44136793  0.04939727
   0.44242687  0.88497847  0.94788615
   0.55347240  0.77905227  0.05444425
   0.77737528  0.22537593  0.94748753
   0.89177306  0.10758424  0.05274110
   0.77702644  0.55215159  0.95231316
   0.88587013  0.44458833  0.05024959
   0.78264061  0.89043658  0.94886825
   0.89021736  0.78031074  0.04711518
unknown system                          
           1
     8.308168    4.765362    0.000000
    -8.311112    4.770470    0.000000
     0.000000    0.000000   30.000000
   V    Mo   W    S 
   3   3   3  18
Direct configuration=    16
   0.00229990  0.01545148  0.00004410
   0.67357730  0.31797458  0.00000939
  -0.00064030  0.66166544 -0.00012954
   0.66590227  0.00549554 -0.00005326
   1.00562448  0.32782181  0.00010514
   0.32330243  0.34710143 -0.00019564
   0.34811210  0.00708806 -0.00055410
   0.33903226  0.65155390  0.00047668
   0.64511265  0.66578812  0.00023515
   0.10798623  0.21630284  0.94605844
   0.21892247  0.11046795  0.04988049
   0.11083409  0.55759596  0.94904814
   0.21932129  0.44485706  0.05566997
   0.10764860  0.88856724  0.95194423
   0.22030427  0.77505455  0.04963364
   0.45095849  0.22833788  0.95007501
   0.55994341  0.11770487  0.05363753
   0.44287507  0.55449274  0.94353381
   0.55703556  0.44123610  0.04928662
   0.44206458  0.88465054  0.94805337
   0.55346006  0.77917128  0.05450137
   0.77757844  0.22520824  0.94738286
   0.89175450  0.10743837  0.05268849
   0.77688613  0.55194202  0.95230497
   0.88586906  0.44447964  0.05017704
   0.78247499  0.89038800  0.94899763
   0.88997413  0.78037882  0.04718836
unknown system                          
           1
     8.316861    4.768445    0.000000
    -8.320075    4.774020    0.000000
     0.000000    0.000000   30.000000
   V    Mo   W    S 
   3   3   3  18
Direct configuration=    17
   0.00330199  0.01522631  0.00003825
   0.67386114  0.31786735  0.00001012
  -0.00205945  0.66281926 -0.00013935
   0.66563756  0.00568698 -0.00004928
   1.00577528  0.32749385  0.00009457
   0.32311628  0.34684955 -0.00017433
   0.34795163  0.00823009 -0.00054421
   0.33957591  0.65081556  0.00052060
   0.64505995  0.66557002  0.00025838
   0.10794418  0.21620822  0.94606946
   0.21897032  0.11063704  0.05003634
   0.11098932  0.55771383  0.94928944
   0.21927312  0.44474818  0.05566117
   0.10769308  0.88869602  0.95180406
   0.22054761  0.77502868  0.04933780
   0.45120024  0.22852465  0.94998176
   0.55989646  0.11768329  0.05364905
   0.44289896  0.55425170  0.94348249
   0.55707184  0.44116770  0.04923424
   0.44167037  0.88447656  0.94826829
   0.55350513  0.77915397  0.05445453
   0.77769274  0.22509151  0.94735417
   0.89173467  0.10727840  0.05259137
   0.77679873  0.55175532  0.95220015
   0.88593828  0.44443050  0.05008062
   0.78234094  0.89033238  0.94913380
   0.88982814  0.78047755  0.04735638
unknown system                          
           1
     8.324370    4.770357    0.000000
    -8.327899    4.776478    0.000000
     0.000000    0.000000   30.000000
   V    Mo   W    S 
   3   3   3  18
Direct configuration=    18
   0.00280450  0.01659087  0.00002981
   0.67490254  0.31733955  0.00005100
  -0.00148748  0.66127717 -0.00017990
   0.66561059  0.00588190 -0.00007437
   1.00575807  0.32770919  0.00012376
   0.32231437  0.34746035 -0.00023375
   0.34943822  0.00706866 -0.00056427
   0.33906469  0.65101420  0.00060019
   0.64412428  0.66608209  0.00021926
   0.10788072  0.21639023  0.94593179
   0.21926991  0.11076231  0.04971233
   0.11099642  0.55764674  0.94913332
   0.21896190  0.44480060  0.05578701
   0.10799778  0.88885750  0.95213761
   0.22032868  0.77509182  0.04949293
   0.45126202  0.22871705  0.95034935
   0.56016682  0.11762940  0.05381463
   0.44247637  0.55428587  0.94339135
   0.55697174  0.44099223  0.04892387
   0.44195370  0.88427795  0.94807389
   0.55333971  0.77934044  0.05455727
   0.77792968  0.22492095  0.94723855
   0.89163896  0.10736150  0.05269901
   0.77646162  0.55163319  0.95245533
   0.88603453  0.44436779  0.05027005
   0.78237645  0.89028270  0.94908029
   0.88963767  0.78043219  0.04697958
unknown system                          
           1
     8.325775    4.770788    0.000000
    -8.329320    4.776936    0.000000
     0.000000    0.000000   30.000000
   V    Mo   W    S 
   3   3   3  18
Direct configuration=    19
   0.00275663  0.01801581  0.00002841
   0.67616254  0.31674832  0.00010948
  -0.00179199  0.66007714 -0.00024824
   0.66546657  0.00619902 -0.00009621
   1.00580578  0.32782145  0.00015024
   0.32136415  0.34793867 -0.00030118
   0.35107069  0.00636937 -0.00058652
   0.33879117  0.65090604  0.00069027
   0.64311659  0.66651060  0.00018376
   0.10779627  0.21654440  0.94578121
   0.21960997  0.11098110  0.04943491
   0.11107478  0.55765512  0.94910194
   0.21858655  0.44478823  0.05592139
   0.10838501  0.88910776  0.95244193
   0.22016565  0.77512789  0.04952435
   0.45149377  0.22904264  0.95072035
   0.56048478  0.11758089  0.05399505
   0.44199121  0.55420192  0.94329683
   0.55689506  0.44074159  0.04853855
   0.44208549  0.88398426  0.94796067
   0.55319807  0.77954683  0.05464386
   0.77824431  0.22469342  0.94710135
   0.89154238  0.10736096  0.05276424
   0.77600820  0.55133412  0.95266744
   0.88617769  0.44426609  0.05043096
   0.78236624  0.89018809  0.94908590
   0.88936690  0.78048273  0.04665897
unknown system                          
           1
     8.317155    4.767402    0.000000
    -8.320037    4.772394    0.000000
     0.000000    0.000000   30.000000
   V    Mo   W    S 
   3   3   3  18
Direct configuration=    20
   0.00280324  0.01815771  0.00002521
   0.67630154  0.31669018  0.00011939
  -0.00196069  0.65998599 -0.00025594
   0.66544334  0.00624169 -0.00010163
   1.00581599  0.32781779  0.00015186
   0.32125915  0.34796153 -0.00030959
   0.35124620  0.00634325 -0.00058304
   0.33878526  0.65087517  0.00070553
   0.64303032  0.66654421  0.00017925
   0.10778445  0.21655472  0.94576348
   0.21965052  0.11101028  0.04941300
   0.11108813  0.55766812  0.94911228
   0.21854679  0.44478477  0.05593539
   0.10843634  0.88914498  0.95247032
   0.22014618  0.77513106  0.04951066
   0.45153400  0.22908737  0.95075670
   0.56052700  0.11758080  0.05401698
   0.44193513  0.55417852  0.94328386
   0.55689458  0.44070557  0.04849317
   0.44209158  0.88394360  0.94795307
   0.55318712  0.77957098  0.05465247
   0.77828647  0.22466590  0.94708597
   0.89153316  0.10735615  0.05276890
   0.77594610  0.55127953  0.95267850
   0.88620171  0.44425726  0.05044488
   0.78236608  0.89017436  0.94909318
   0.88933476  0.78050296  0.04663602
unknown system                          
           1
     8.320529    4.768127    0.000000
    -8.323583    4.773419    0.000000
     0.000000    0.000000   30.000000
   V    Mo   W    S 
   3   3   3  18
Direct configuration=    21
   0.00238598  0.01850753  0.00004300
   0.67619598  0.31667430  0.00009184
  -0.00062891  0.65978058 -0.00023071
   0.66577907  0.00622265 -0.00010005
   1.00576082  0.32768158  0.00015920
   0.32106882  0.34785487 -0.00029487
   0.35107891  0.00594584 -0.00060961
   0.33842795  0.65109902  0.00071467
   0.64304500  0.66671006  0.00018446
   0.10773883  0.21645960  0.94577827
   0.21947378  0.11089866  0.04936092
   0.11098460  0.55756508  0.94896238
   0.21856674  0.44482548  0.05595173
   0.10825384  0.88908831  0.95248957
   0.22016658  0.77517142  0.04965809
   0.45144023  0.22903330  0.95074799
   0.56040836  0.11757692  0.05400507
   0.44203188  0.55427421  0.94325499
   0.55687933  0.44076954  0.04855697
   0.44216561  0.88402467  0.94789248
   0.55312207  0.77954919  0.05468035
   0.77818259  0.22472454  0.94708470
   0.89158591  0.10732975  0.05279431
   0.77606942  0.55145433  0.95275630
   0.88610233  0.44425855  0.05047785
   0.78249461  0.89026667  0.94905051
   0.88943414  0.78046778  0.04653947
unknown system                          
           1
     8.327822    4.771324    0.000000
    -8.332071    4.778698    0.000000
     0.000000    0.000000   30.000000
   V    Mo   W    S 
   3   3   3  18
Direct configuration=    22
   0.00265102  0.01863421  0.00003462
   0.67654693  0.31655023  0.00012022
  -0.00171146  0.65962112 -0.00026458
   0.66553339  0.00631086 -0.00010996
   1.00584201  0.32776871  0.00015685
   0.32091612  0.34801571 -0.00031496
   0.35159139  0.00601294 -0.00058708
   0.33862436  0.65094317  0.00075033
   0.64284485  0.66670808  0.00017683
   0.10774598  0.21655897  0.94575992
   0.21967020  0.11102199  0.04931301
   0.11106996  0.55765095  0.94906729
   0.21850110  0.44482148  0.05595375
   0.10847165  0.88918171  0.95255540
   0.22011268  0.77515382  0.04954855
   0.45154994  0.22911941  0.95084729
   0.56056557  0.11757166  0.05404909
   0.44187111  0.55419997  0.94324744
   0.55688591  0.44068594  0.04842483
   0.44215159  0.88391476  0.94790535
   0.55313425  0.77959950  0.05466943
   0.77830543  0.22463474  0.94707229
   0.89155299  0.10735411  0.05276552
   0.77587174  0.55125031  0.95274454
   0.88620062  0.44424053  0.05048778
   0.78240599  0.89017839  0.94909414
   0.88930912  0.78051117  0.04653199
unknown system                          
           1
     8.330546    4.771096    0.000000
    -8.334983    4.778797    0.000000
     0.000000    0.000000   30.000000
   V    Mo   W    S 
   3   3   3  18
Direct configuration=    23
   0.00189685  0.01951787  0.00002604
   0.67686662  0.31634039  0.00014457
   0.00032032  0.65857418 -0.00025667
   0.66580122  0.00629872 -0.00011594
   1.00565410  0.32793587  0.00019987
   0.32070494  0.34839332 -0.00033728
   0.35213231  0.00507649 -0.00065868
   0.33791950  0.65120963  0.00074364
   0.64221522  0.66709594  0.00016643
   0.10768603  0.21660688  0.94559721
   0.21968761  0.11095638  0.04915182
   0.11095901  0.55743708  0.94880075
   0.21825714  0.44480205  0.05604099
   0.10851900  0.88925139  0.95274914
   0.21999386  0.77526240  0.04984093
   0.45148758  0.22921479  0.95102259
   0.56058247  0.11749952  0.05412639
   0.44163985  0.55428571  0.94323762
   0.55676360  0.44061685  0.04828902
   0.44243978  0.88390049  0.94775702
   0.55296782  0.77968229  0.05474635
   0.77843078  0.22459502  0.94695532
   0.89144700  0.10739217  0.05295918
   0.77580870  0.55140472  0.95299030
   0.88621181  0.44419061  0.05063575
   0.78254468  0.89024174  0.94897667
   0.88927665  0.78043194  0.04621085
unknown system                          
           1
     8.328457    4.769524    0.000000
    -8.333180    4.777724    0.000000
     0.000000    0.000000   30.000000
   V    Mo   W    S 
   3   3   3  18
Direct configuration=    24
   0.00183776  0.02030832  0.00001221
   0.67763611  0.31598574  0.00019202
  -0.00044415  0.65755742 -0.00030462
   0.66570221  0.00655052 -0.00014448
   1.00566825  0.32808270  0.00020318
   0.32016136  0.34877439 -0.00038732
   0.35331144  0.00454877 -0.00063083
   0.33776572  0.65118439  0.00083742
   0.64167863  0.66736818  0.00013920
   0.10765313  0.21680331  0.94554509
   0.21999655  0.11110959  0.04892345
   0.11101937  0.55747286  0.94882919
   0.21807302  0.44484451  0.05607326
   0.10889612  0.88943326  0.95300123
   0.21981803  0.77530466  0.04980359
   0.45161957  0.22934883  0.95131115
   0.56088609  0.11747802  0.05422795
   0.44127800  0.55425589  0.94319716
   0.55675102  0.44046228  0.04800460
   0.44261673  0.88372762  0.94767149