   27   27  100    1
  0.9710400E+02  0.1002848E-08  0.1002848E-08  0.3000000E-08  0.5000000E-15
  1.000000000000000E-004
  CAR 
 unknown system                          
    159     34    120
 
  0.0000000E+00  0.0000000E+00  0.0000000E+00  0.1562500E-01
    1      -17.797266   1.000000
    2      -16.750142   1.000000
    3      -16.654603   1.000000
    4      -16.571240   1.000000
    5      -16.512733   1.000000
    6      -16.462113   1.000000
    7      -16.391669   1.000000
    8      -16.312038   1.000000
    9      -16.216576   1.000000
   10      -16.160546   1.000000
   11      -16.065133   1.000000
   12      -16.015072   1.000000
   13      -15.869228   1.000000
   14      -15.604772   1.000000
   15      -15.566641   1.000000
   16      -15.457296   1.000000
   17      -15.370243   1.000000
   18      -15.240574   1.000000
   19       -9.303265   1.000000
   20       -9.080558   1.000000
   21       -8.963431   1.000000
   22       -8.902841   1.000000
   23       -8.814431   1.000000
   24       -8.739598   1.000000
   25       -8.625379   1.000000
   26       -8.602817   1.000000
   27       -8.506766   1.000000
   28       -8.402763   1.000000
   29       -8.338232   1.000000
   30       -8.292122   1.000000
   31       -8.235921   1.000000
   32       -8.114096   1.000000
   33       -8.024059   1.000000
   34       -7.943434   1.000000
   35       -7.903913   1.000000
   36       -7.804526   1.000000
   37       -7.678355   1.000000
   38       -7.516059   1.000000
   39       -7.481989   1.000000
   40       -7.448536   1.000000
   41       -7.280715   1.000000
   42       -7.165385   1.000000
   43       -7.131450   1.000000
   44       -7.000025   1.000000
   45       -6.839017   1.000000
   46       -6.808331   1.000000
   47       -6.642106   1.000000
   48       -6.607396   1.000000
   49       -6.569269   1.000000
   50       -6.536731   1.000000
   51       -6.493888   1.000000
   52       -6.414292   1.000000
   53       -6.320096   1.000000
   54       -6.252096   1.000000
   55       -6.201892   1.000000
   56       -6.193816   1.000000
   57       -6.077185   1.000000
   58       -5.920613   1.000000
   59       -5.721955   1.000000
   60       -5.556603   1.000000
   61       -5.523586   1.000000
   62       -5.437442   1.000000
   63       -5.214681   1.000000
   64       -5.120812   1.000000
   65       -5.040874   1.000000
   66       -4.981660   1.000000
   67       -4.884713   1.000000
   68       -4.866427   1.000000
   69       -4.813868   1.000000
   70       -4.733922   1.000000
   71       -4.643453   1.000000
   72       -4.608188   1.000000
   73       -4.503598   1.000000
   74       -4.332521   1.000000
   75       -4.279016   1.000000
   76       -4.116641   1.000000
   77       -3.803114   0.999330
   78       -3.583110   0.950705
   79       -3.515485   0.879711
   80       -3.403688   0.649148
   81       -3.294001   0.347313
   82       -2.859875   0.000268
   83       -2.728000   0.000006
   84       -2.616389   0.000000
   85       -2.514387   0.000000
   86       -2.476222   0.000000
   87       -2.357574   0.000000
   88       -2.261753   0.000000
   89       -2.214197   0.000000
   90       -2.070004   0.000000
   91       -2.042009   0.000000
   92       -1.393530   0.000000
   93       -1.334391   0.000000
   94       -1.263014   0.000000
   95       -1.105024   0.000000
   96       -1.068423   0.000000
   97       -0.988855   0.000000
   98       -0.857770   0.000000
   99       -0.714531   0.000000
  100       -0.697194   0.000000
  101       -0.625285   0.000000
  102       -0.518497   0.000000
  103       -0.485937   0.000000
  104       -0.337229   0.000000
  105       -0.211218   0.000000
  106       -0.119359   0.000000
  107       -0.073509   0.000000
  108       -0.003092   0.000000
  109        0.072738   0.000000
  110        0.278741   0.000000
  111        0.329366   0.000000
  112        0.598899   0.000000
  113        0.760609   0.000000
  114        0.781671   0.000000
  115        0.845095   0.000000
  116        1.040059   0.000000
  117        1.119814   0.000000
  118        1.640102   0.000000
  119        1.837281   0.000000
  120        2.144834   0.000000
 
  0.1250000E+00  0.2775558E-16  0.0000000E+00  0.3125000E-01
    1      -17.773489   1.000000
    2      -16.791006   1.000000
    3      -16.705057   1.000000
    4      -16.647424   1.000000
    5      -16.522190   1.000000
    6      -16.415225   1.000000
    7      -16.365432   1.000000
    8      -16.284827   1.000000
    9      -16.204957   1.000000
   10      -16.163466   1.000000
   11      -16.056816   1.000000
   12      -15.945135   1.000000
   13      -15.854565   1.000000
   14      -15.621648   1.000000
   15      -15.580809   1.000000
   16      -15.458139   1.000000
   17      -15.373747   1.000000
   18      -15.244146   1.000000
   19       -9.322759   1.000000
   20       -9.149385   1.000000
   21       -9.021308   1.000000
   22       -8.962229   1.000000
   23       -8.877433   1.000000
   24       -8.763498   1.000000
   25       -8.675019   1.000000
   26       -8.597563   1.000000
   27       -8.497436   1.000000
   28       -8.393521   1.000000
   29       -8.367014   1.000000
   30       -8.218736   1.000000
   31       -8.104908   1.000000
   32       -8.029682   1.000000
   33       -7.958188   1.000000
   34       -7.904300   1.000000
   35       -7.830499   1.000000
   36       -7.737502   1.000000
   37       -7.639427   1.000000
   38       -7.559342   1.000000
   39       -7.510921   1.000000
   40       -7.490932   1.000000
   41       -7.247625   1.000000
   42       -7.172724   1.000000
   43       -7.104819   1.000000
   44       -7.057362   1.000000
   45       -6.911602   1.000000
   46       -6.786116   1.000000
   47       -6.642544   1.000000
   48       -6.607743   1.000000
   49       -6.582109   1.000000
   50       -6.531658   1.000000
   51       -6.472410   1.000000
   52       -6.409697   1.000000
   53       -6.374322   1.000000
   54       -6.228905   1.000000
   55       -6.199614   1.000000
   56       -6.181686   1.000000
   57       -5.988388   1.000000
   58       -5.911361   1.000000
   59       -5.722900   1.000000
   60       -5.552678   1.000000
   61       -5.527919   1.000000
   62       -5.490253   1.000000
   63       -5.308813   1.000000
   64       -5.267276   1.000000
   65       -5.099035   1.000000
   66       -4.982449   1.000000
   67       -4.921672   1.000000
   68       -4.855796   1.000000
   69       -4.720095   1.000000
   70       -4.671982   1.000000
   71       -4.609972   1.000000
   72       -4.600220   1.000000
   73       -4.461643   1.000000
   74       -4.272675   1.000000
   75       -4.233019   1.000000
   76       -4.133712   1.000000
   77       -3.902667   0.999954
   78       -3.712437   0.994859
   79       -3.514560   0.878396
   80       -3.347245   0.493580
   81       -3.261385   0.266573
   82       -2.815300   0.000079
   83       -2.709024   0.000003
   84       -2.603248   0.000000
   85       -2.507435   0.000000
   86       -2.456274   0.000000
   87       -2.331497   0.000000
   88       -2.229403   0.000000
   89       -2.204770   0.000000
   90       -2.091805   0.000000
   91       -2.024977   0.000000
   92       -1.405266   0.000000
   93       -1.357047   0.000000
   94       -1.250883   0.000000
   95       -1.116365   0.000000
   96       -1.071292   0.000000
   97       -0.976544   0.000000
   98       -0.873858   0.000000
   99       -0.810093   0.000000
  100       -0.739953   0.000000
  101       -0.649432   0.000000
  102       -0.572875   0.000000
  103       -0.514754   0.000000
  104       -0.400162   0.000000
  105       -0.268853   0.000000
  106       -0.130558   0.000000
  107       -0.094280   0.000000
  108        0.004804   0.000000
  109        0.075481   0.000000
  110        0.270307   0.000000
  111        0.325155   0.000000
  112        0.576215   0.000000
  113        0.760592   0.000000
  114        0.812197   0.000000
  115        0.925580   0.000000
  116        1.074584   0.000000
  117        1.131397   0.000000
  118        1.682025   0.000000
  119        1.877305   0.000000
  120        2.179462   0.000000
 
  0.2500000E+00  0.5551115E-16  0.0000000E+00  0.3125000E-01
    1      -17.704214   1.000000
    2      -16.971303   1.000000
    3      -16.736514   1.000000
    4      -16.689275   1.000000
    5      -16.584060   1.000000
    6      -16.362467   1.000000
    7      -16.320810   1.000000
    8      -16.273257   1.000000
    9      -16.159890   1.000000
   10      -16.136924   1.000000
   11      -16.018080   1.000000
   12      -15.866637   1.000000
   13      -15.784079   1.000000
   14      -15.662458   1.000000
   15      -15.615689   1.000000
   16      -15.460379   1.000000
   17      -15.384426   1.000000
   18      -15.253783   1.000000
   19       -9.483179   1.000000
   20       -9.197142   1.000000
   21       -9.137618   1.000000
   22       -9.055146   1.000000
   23       -8.981684   1.000000
   24       -8.830975   1.000000
   25       -8.625815   1.000000
   26       -8.538464   1.000000
   27       -8.495217   1.000000
   28       -8.355166   1.000000
   29       -8.286679   1.000000
   30       -8.172212   1.000000
   31       -8.086940   1.000000
   32       -8.026157   1.000000
   33       -7.856519   1.000000
   34       -7.769829   1.000000
   35       -7.708350   1.000000
   36       -7.684807   1.000000
   37       -7.589367   1.000000
   38       -7.517403   1.000000
   39       -7.482563   1.000000
   40       -7.448841   1.000000
   41       -7.246830   1.000000
   42       -7.183519   1.000000
   43       -7.101463   1.000000
   44       -7.054165   1.000000
   45       -6.957461   1.000000
   46       -6.758463   1.000000
   47       -6.689941   1.000000
   48       -6.615610   1.000000
   49       -6.587695   1.000000
   50       -6.564237   1.000000
   51       -6.432187   1.000000
   52       -6.371816   1.000000
   53       -6.361204   1.000000
   54       -6.223234   1.000000
   55       -6.166131   1.000000
   56       -6.132868   1.000000
   57       -5.920611   1.000000
   58       -5.884870   1.000000
   59       -5.722845   1.000000
   60       -5.678309   1.000000
   61       -5.605244   1.000000
   62       -5.563133   1.000000
   63       -5.546378   1.000000
   64       -5.391537   1.000000
   65       -5.238192   1.000000
   66       -4.993941   1.000000
   67       -4.850603   1.000000
   68       -4.779370   1.000000
   69       -4.697426   1.000000
   70       -4.598707   1.000000
   71       -4.571817   1.000000
   72       -4.523179   1.000000
   73       -4.391157   1.000000
   74       -4.276851   1.000000
   75       -4.171961   1.000000
   76       -4.151585   1.000000
   77       -3.995146   0.999998
   78       -3.905578   0.999958
   79       -3.511204   0.873537
   80       -3.319729   0.416577
   81       -3.198861   0.143364
   82       -2.731278   0.000006
   83       -2.656144   0.000000
   84       -2.560290   0.000000
   85       -2.486585   0.000000
   86       -2.419499   0.000000
   87       -2.266126   0.000000
   88       -2.198162   0.000000
   89       -2.153507   0.000000
   90       -2.088147   0.000000
   91       -1.985587   0.000000
   92       -1.439085   0.000000
   93       -1.400976   0.000000
   94       -1.255028   0.000000
   95       -1.164709   0.000000
   96       -1.078487   0.000000
   97       -1.001872   0.000000
   98       -0.957561   0.000000
   99       -0.894777   0.000000
  100       -0.848734   0.000000
  101       -0.733087   0.000000
  102       -0.663226   0.000000
  103       -0.583900   0.000000
  104       -0.504760   0.000000
  105       -0.394887   0.000000
  106       -0.209393   0.000000
  107       -0.110897   0.000000
  108       -0.014603   0.000000
  109        0.051044   0.000000
  110        0.193847   0.000000
  111        0.388608   0.000000
  112        0.522507   0.000000
  113        0.783666   0.000000
  114        0.872286   0.000000
  115        1.030403   0.000000
  116        1.142923   0.000000
  117        1.230377   0.000000
  118        1.800780   0.000000
  119        1.990418   0.000000
  120        2.282165   0.000000
 
  0.3750000E+00  0.0000000E+00  0.0000000E+00  0.3125000E-01
    1      -17.599514   1.000000
    2      -17.167730   1.000000
    3      -16.770528   1.000000
    4      -16.685747   1.000000
    5      -16.630793   1.000000
    6      -16.346007   1.000000
    7      -16.324903   1.000000
    8      -16.262654   1.000000
    9      -16.092866   1.000000
   10      -16.064366   1.000000
   11      -15.983158   1.000000
   12      -15.848065   1.000000
   13      -15.758937   1.000000
   14      -15.680269   1.000000
   15      -15.615769   1.000000
   16      -15.462721   1.000000
   17      -15.400935   1.000000
   18      -15.264903   1.000000
   19       -9.663169   1.000000
   20       -9.237828   1.000000
   21       -9.227913   1.000000
   22       -9.086251   1.000000
   23       -9.031682   1.000000
   24       -8.884193   1.000000
   25       -8.511932   1.000000
   26       -8.475132   1.000000
   27       -8.443197   1.000000
   28       -8.296510   1.000000
   29       -8.236187   1.000000
   30       -8.165255   1.000000
   31       -8.123328   1.000000
   32       -8.088918   1.000000
   33       -7.917391   1.000000
   34       -7.813084   1.000000
   35       -7.754181   1.000000
   36       -7.570293   1.000000
   37       -7.529562   1.000000
   38       -7.456628   1.000000
   39       -7.406997   1.000000
   40       -7.310102   1.000000
   41       -7.225182   1.000000
   42       -7.180517   1.000000
   43       -7.084142   1.000000
   44       -6.970917   1.000000
   45       -6.843132   1.000000
   46       -6.765892   1.000000
   47       -6.707921   1.000000
   48       -6.622008   1.000000
   49       -6.563446   1.000000
   50       -6.481910   1.000000
   51       -6.399056   1.000000
   52       -6.361292   1.000000
   53       -6.331327   1.000000
   54       -6.187838   1.000000
   55       -6.143308   1.000000
   56       -6.076283   1.000000
   57       -5.955199   1.000000
   58       -5.925193   1.000000
   59       -5.898990   1.000000
   60       -5.834719   1.000000
   61       -5.737793   1.000000
   62       -5.656743   1.000000
   63       -5.584435   1.000000
   64       -5.436431   1.000000
   65       -5.270680   1.000000
   66       -4.952591   1.000000
   67       -4.832416   1.000000
   68       -4.782933   1.000000
   69       -4.707727   1.000000
   70       -4.663611   1.000000
   71       -4.548215   1.000000
   72       -4.517659   1.000000
   73       -4.374464   1.000000
   74       -4.227332   1.000000
   75       -4.167127   1.000000
   76       -4.096889   1.000000
   77       -4.073427   1.000000
   78       -3.916562   0.999970
   79       -3.491282   0.841926
   80       -3.329857   0.444708
   81       -3.157080   0.086795
   82       -2.690910   0.000002
   83       -2.583346   0.000000
   84       -2.531731   0.000000
   85       -2.424207   0.000000
   86       -2.386810   0.000000
   87       -2.235411   0.000000
   88       -2.169143   0.000000
   89       -2.122769   0.000000
   90       -1.994694   0.000000
   91       -1.917343   0.000000
   92       -1.500311   0.000000
   93       -1.447836   0.000000
   94       -1.298408   0.000000
   95       -1.256546   0.000000
   96       -1.140636   0.000000
   97       -1.050423   0.000000
   98       -0.955839   0.000000
   99       -0.953453   0.000000
  100       -0.926873   0.000000
  101       -0.855939   0.000000
  102       -0.728551   0.000000
  103       -0.681245   0.000000
  104       -0.527279   0.000000
  105       -0.489392   0.000000
  106       -0.311921   0.000000
  107       -0.118135   0.000000
  108       -0.050268   0.000000
  109       -0.006237   0.000000
  110        0.126589   0.000000
  111        0.416003   0.000000
  112        0.498145   0.000000
  113        0.819284   0.000000
  114        0.922479   0.000000
  115        1.057094   0.000000
  116        1.247489   0.000000
  117        1.344003   0.000000
  118        1.979830   0.000000
  119        2.159929   0.000000
  120        2.448681   0.000000
 
  0.5000000E+00  0.1110223E-15  0.0000000E+00  0.1562500E-01
    1      -17.520928   1.000000
    2      -17.279149   1.000000
    3      -16.783974   1.000000
    4      -16.677885   1.000000
    5      -16.650560   1.000000
    6      -16.348057   1.000000
    7      -16.327685   1.000000
    8      -16.258929   1.000000
    9      -16.060447   1.000000
   10      -16.015276   1.000000
   11      -15.967081   1.000000
   12      -15.858355   1.000000
   13      -15.780787   1.000000
   14      -15.694456   1.000000
   15      -15.581351   1.000000
   16      -15.462066   1.000000
   17      -15.412698   1.000000
   18      -15.269951   1.000000
   19       -9.731796   1.000000
   20       -9.270592   1.000000
   21       -9.253934   1.000000
   22       -9.104395   1.000000
   23       -9.024145   1.000000
   24       -8.899038   1.000000
   25       -8.467366   1.000000
   26       -8.425619   1.000000
   27       -8.401612   1.000000
   28       -8.272863   1.000000
   29       -8.237195   1.000000
   30       -8.167809   1.000000
   31       -8.133963   1.000000
   32       -8.114033   1.000000
   33       -7.947807   1.000000
   34       -7.892867   1.000000
   35       -7.800730   1.000000
   36       -7.545143   1.000000
   37       -7.499961   1.000000
   38       -7.425677   1.000000
   39       -7.381394   1.000000
   40       -7.297266   1.000000
   41       -7.160505   1.000000
   42       -7.118747   1.000000
   43       -7.047924   1.000000
   44       -6.974931   1.000000
   45       -6.867411   1.000000
   46       -6.764345   1.000000
   47       -6.605556   1.000000
   48       -6.548821   1.000000
   49       -6.532264   1.000000
   50       -6.454713   1.000000
   51       -6.421838   1.000000
   52       -6.327355   1.000000
   53       -6.269031   1.000000
   54       -6.233604   1.000000
   55       -6.226513   1.000000
   56       -6.117664   1.000000
   57       -6.054130   1.000000
   58       -5.945275   1.000000
   59       -5.895647   1.000000
   60       -5.850676   1.000000
   61       -5.748919   1.000000
   62       -5.657403   1.000000
   63       -5.564214   1.000000
   64       -5.508887   1.000000
   65       -5.221005   1.000000
   66       -5.097257   1.000000
   67       -4.921544   1.000000
   68       -4.760055   1.000000
   69       -4.686683   1.000000
   70       -4.640232   1.000000
   71       -4.543262   1.000000
   72       -4.494118   1.000000
   73       -4.343689   1.000000
   74       -4.229230   1.000000
   75       -4.170739   1.000000
   76       -4.141400   1.000000
   77       -4.043218   1.000000
   78       -3.883266   0.999920
   79       -3.469341   0.801575
   80       -3.347938   0.495536
   81       -3.143059   0.072158
   82       -2.682455   0.000001
   83       -2.547146   0.000000
   84       -2.530764   0.000000
   85       -2.384688   0.000000
   86       -2.367578   0.000000
   87       -2.239236   0.000000
   88       -2.159213   0.000000
   89       -2.095099   0.000000
   90       -1.940661   0.000000
   91       -1.875550   0.000000
   92       -1.553770   0.000000
   93       -1.464073   0.000000
   94       -1.325958   0.000000
   95       -1.292207   0.000000
   96       -1.188762   0.000000
   97       -1.043598   0.000000
   98       -0.992114   0.000000
   99       -0.966093   0.000000
  100       -0.953940   0.000000
  101       -0.899364   0.000000
  102       -0.751262   0.000000
  103       -0.716324   0.000000
  104       -0.546123   0.000000
  105       -0.503278   0.000000
  106       -0.358701   0.000000
  107       -0.125413   0.000000
  108       -0.067524   0.000000
  109       -0.029602   0.000000
  110        0.100083   0.000000
  111        0.409770   0.000000
  112        0.504480   0.000000
  113        0.832646   0.000000
  114        0.941364   0.000000
  115        1.064081   0.000000
  116        1.289904   0.000000
  117        1.389929   0.000000
  118        2.185713   0.000000
  119        2.224448   0.000000
  120        2.364268   0.000000
 
  0.0000000E+00  0.1250000E+00  0.0000000E+00  0.3125000E-01
    1      -17.772083   1.000000
    2      -16.784585   1.000000
    3      -16.731873   1.000000
    4      -16.638116   1.000000
    5      -16.489669   1.000000
    6      -16.411609   1.000000
    7      -16.370564   1.000000
    8      -16.328754   1.000000
    9      -16.240079   1.000000
   10      -16.088573   1.000000
   11      -16.042511   1.000000
   12      -15.989758   1.000000
   13      -15.850522   1.000000
   14      -15.611751   1.000000
   15      -15.578315   1.000000
   16      -15.450617   1.000000
   17      -15.379272   1.000000
   18      -15.248258   1.000000
   19       -9.285258   1.000000
   20       -9.190176   1.000000
   21       -9.069540   1.000000
   22       -9.019274   1.000000
   23       -8.797228   1.000000
   24       -8.711233   1.000000
   25       -8.670130   1.000000
   26       -8.565071   1.000000
   27       -8.498983   1.000000
   28       -8.414159   1.000000
   29       -8.380429   1.000000
   30       -8.194013   1.000000
   31       -8.138704   1.000000
   32       -8.071234   1.000000
   33       -8.026090   1.000000
   34       -7.879559   1.000000
   35       -7.816611   1.000000
   36       -7.705477   1.000000
   37       -7.657752   1.000000
   38       -7.570655   1.000000
   39       -7.487153   1.000000
   40       -7.360473   1.000000
   41       -7.313345   1.000000
   42       -7.238333   1.000000
   43       -7.138339   1.000000
   44       -7.011876   1.000000
   45       -6.859037   1.000000
   46       -6.820885   1.000000
   47       -6.726212   1.000000
   48       -6.662335   1.000000
   49       -6.561781   1.000000
   50       -6.475494   1.000000
   51       -6.457531   1.000000
   52       -6.387048   1.000000
   53       -6.308927   1.000000
   54       -6.253444   1.000000
   55       -6.193335   1.000000
   56       -6.160605   1.000000
   57       -6.022845   1.000000
   58       -5.926183   1.000000
   59       -5.713388   1.000000
   60       -5.558733   1.000000
   61       -5.522609   1.000000
   62       -5.451435   1.000000
   63       -5.341539   1.000000
   64       -5.169257   1.000000
   65       -5.143168   1.000000
   66       -5.030577   1.000000
   67       -4.915304   1.000000
   68       -4.877576   1.000000
   69       -4.785627   1.000000
   70       -4.687744   1.000000
   71       -4.619150   1.000000
   72       -4.526597   1.000000
   73       -4.446699   1.000000
   74       -4.319407   1.000000
   75       -4.225153   1.000000
   76       -4.072024   1.000000
   77       -3.878870   0.999909
   78       -3.692602   0.992366
   79       -3.559327   0.931037
   80       -3.458432   0.779385
   81       -3.135906   0.065460
   82       -2.846674   0.000189
   83       -2.733093   0.000007
   84       -2.617561   0.000000
   85       -2.511174   0.000000
   86       -2.450183   0.000000
   87       -2.353396   0.000000
   88       -2.240113   0.000000
   89       -2.183751   0.000000
   90       -2.061408   0.000000
   91       -2.055508   0.000000
   92       -1.400032   0.000000
   93       -1.320019   0.000000
   94       -1.253666   0.000000
   95       -1.103165   0.000000
   96       -1.058042   0.000000
   97       -0.981008   0.000000
   98       -0.866018   0.000000
   99       -0.791607   0.000000
  100       -0.723430   0.000000
  101       -0.670072   0.000000
  102       -0.541940   0.000000
  103       -0.515009   0.000000
  104       -0.345881   0.000000
  105       -0.263658   0.000000
  106       -0.200652   0.000000
  107       -0.116965   0.000000
  108       -0.064651   0.000000
  109        0.118734   0.000000
  110        0.272643   0.000000
  111        0.301251   0.000000
  112        0.572912   0.000000
  113        0.739116   0.000000
  114        0.831879   0.000000
  115        0.919400   0.000000
  116        1.089032   0.000000
  117        1.147546   0.000000
  118        1.684317   0.000000
  119        1.875944   0.000000
  120        2.179999   0.000000
 
  0.1250000E+00  0.1250000E+00  0.0000000E+00  0.3125000E-01
    1      -17.725421   1.000000
    2      -16.873510   1.000000
    3      -16.818682   1.000000
    4      -16.696685   1.000000
    5      -16.444734   1.000000
    6      -16.395301   1.000000
    7      -16.336213   1.000000
    8      -16.307185   1.000000
    9      -16.243654   1.000000
   10      -16.081894   1.000000
   11      -16.014619   1.000000
   12      -15.909893   1.000000
   13      -15.806880   1.000000
   14      -15.642745   1.000000
   15      -15.595756   1.000000
   16      -15.456083   1.000000
   17      -15.391941   1.000000
   18      -15.249141   1.000000
   19       -9.355296   1.000000
   20       -9.289761   1.000000
   21       -9.176656   1.000000
   22       -9.049359   1.000000
   23       -8.856164   1.000000
   24       -8.695544   1.000000
   25       -8.676147   1.000000
   26       -8.583107   1.000000
   27       -8.531016   1.000000
   28       -8.369673   1.000000
   29       -8.288527   1.000000
   30       -8.197097   1.000000
   31       -8.098721   1.000000
   32       -8.015435   1.000000
   33       -7.923131   1.000000
   34       -7.873792   1.000000
   35       -7.730281   1.000000
   36       -7.642077   1.000000
   37       -7.604161   1.000000
   38       -7.539848   1.000000
   39       -7.443890   1.000000
   40       -7.401802   1.000000
   41       -7.290308   1.000000
   42       -7.204724   1.000000
   43       -7.136834   1.000000
   44       -6.993203   1.000000
   45       -6.978538   1.000000
   46       -6.825088   1.000000
   47       -6.711691   1.000000
   48       -6.637079   1.000000
   49       -6.579247   1.000000
   50       -6.509669   1.000000
   51       -6.447233   1.000000
   52       -6.379591   1.000000
   53       -6.308540   1.000000
   54       -6.257055   1.000000
   55       -6.168547   1.000000
   56       -6.103325   1.000000
   57       -5.944353   1.000000
   58       -5.888957   1.000000
   59       -5.723562   1.000000
   60       -5.644382   1.000000
   61       -5.584788   1.000000
   62       -5.553945   1.000000
   63       -5.430984   1.000000
   64       -5.284707   1.000000
   65       -5.174044   1.000000
   66       -5.125539   1.000000
   67       -4.915465   1.000000
   68       -4.798069   1.000000
   69       -4.778209   1.000000
   70       -4.611555   1.000000
   71       -4.539581   1.000000
   72       -4.453175   1.000000
   73       -4.393513   1.000000
   74       -4.282024   1.000000
   75       -4.189687   1.000000
   76       -4.130764   1.000000
   77       -4.014329   0.999999
   78       -3.850583   0.999802
   79       -3.498566   0.854038
   80       -3.420313   0.691665
   81       -3.112503   0.046872
   82       -2.778345   0.000027
   83       -2.711072   0.000003
   84       -2.574697   0.000000
   85       -2.505300   0.000000
   86       -2.416950   0.000000
   87       -2.300422   0.000000
   88       -2.220396   0.000000
   89       -2.150881   0.000000
   90       -2.070768   0.000000
   91       -2.028635   0.000000
   92       -1.427042   0.000000
   93       -1.332082   0.000000
   94       -1.263639   0.000000
   95       -1.121196   0.000000
   96       -1.062986   0.000000
   97       -0.987716   0.000000
   98       -0.930268   0.000000
   99       -0.859469   0.000000
  100       -0.787017   0.000000
  101       -0.713359   0.000000
  102       -0.608246   0.000000
  103       -0.591723   0.000000
  104       -0.416500   0.000000
  105       -0.339773   0.000000
  106       -0.278152   0.000000
  107       -0.148687   0.000000
  108       -0.072860   0.000000
  109        0.108090   0.000000
  110        0.174309   0.000000
  111        0.370397   0.000000
  112        0.541164   0.000000
  113        0.756658   0.000000
  114        0.845674   0.000000
  115        1.031851   0.000000
  116        1.140900   0.000000
  117        1.217084   0.000000
  118        1.762910   0.000000
  119        1.953299   0.000000
  120        2.248372   0.000000
 
  0.2500000E+00  0.1250000E+00  0.0000000E+00  0.3125000E-01
    1      -17.636786   1.000000
    2      -17.056923   1.000000
    3      -16.899550   1.000000
    4      -16.690272   1.000000
    5      -16.470722   1.000000
    6      -16.355551   1.000000
    7      -16.317245   1.000000
    8      -16.274172   1.000000
    9      -16.203896   1.000000
   10      -16.055918   1.000000
   11      -15.983693   1.000000
   12      -15.858854   1.000000
   13      -15.751389   1.000000
   14      -15.679701   1.000000
   15      -15.610446   1.000000
   16      -15.462371   1.000000
   17      -15.403090   1.000000
   18      -15.255324   1.000000
   19       -9.557509   1.000000
   20       -9.374205   1.000000
   21       -9.270287   1.000000
   22       -9.055181   1.000000
   23       -8.905290   1.000000
   24       -8.736666   1.000000
   25       -8.571072   1.000000
   26       -8.492368   1.000000
   27       -8.468708   1.000000
   28       -8.348582   1.000000
   29       -8.214219   1.000000
   30       -8.185420   1.000000
   31       -8.127800   1.000000
   32       -8.069159   1.000000
   33       -7.959367   1.000000
   34       -7.876043   1.000000
   35       -7.737035   1.000000
   36       -7.625823   1.000000
   37       -7.511894   1.000000
   38       -7.451618   1.000000
   39       -7.422939   1.000000
   40       -7.334165   1.000000
   41       -7.181990   1.000000
   42       -7.134867   1.000000
   43       -7.094949   1.000000
   44       -7.008176   1.000000
   45       -6.931013   1.000000
   46       -6.801245   1.000000
   47       -6.731743   1.000000