   27   27  100    1
  0.9710400E+02  0.1002848E-08  0.1002848E-08  0.3000000E-08  0.5000000E-15
  1.000000000000000E-004
  CAR 
 unknown system                          
    159     34    120
 
  0.0000000E+00  0.0000000E+00  0.0000000E+00  0.1562500E-01
    1      -17.834251   1.000000
    2      -16.738052   1.000000
    3      -16.645893   1.000000
    4      -16.610402   1.000000
    5      -16.535098   1.000000
    6      -16.425136   1.000000
    7      -16.371388   1.000000
    8      -16.345731   1.000000
    9      -16.187517   1.000000
   10      -16.142011   1.000000
   11      -16.081768   1.000000
   12      -15.958680   1.000000
   13      -15.940963   1.000000
   14      -15.742770   1.000000
   15      -15.561184   1.000000
   16      -15.499694   1.000000
   17      -15.253909   1.000000
   18      -15.122062   1.000000
   19       -9.311904   1.000000
   20       -9.068312   1.000000
   21       -8.844239   1.000000
   22       -8.823516   1.000000
   23       -8.766649   1.000000
   24       -8.744385   1.000000
   25       -8.741660   1.000000
   26       -8.604176   1.000000
   27       -8.583249   1.000000
   28       -8.424050   1.000000
   29       -8.409062   1.000000
   30       -8.365133   1.000000
   31       -8.297112   1.000000
   32       -8.267574   1.000000
   33       -8.173666   1.000000
   34       -8.164282   1.000000
   35       -7.762094   1.000000
   36       -7.689582   1.000000
   37       -7.684166   1.000000
   38       -7.587951   1.000000
   39       -7.515093   1.000000
   40       -7.381208   1.000000
   41       -7.212319   1.000000
   42       -7.181147   1.000000
   43       -7.121720   1.000000
   44       -6.894552   1.000000
   45       -6.804652   1.000000
   46       -6.767298   1.000000
   47       -6.756266   1.000000
   48       -6.700534   1.000000
   49       -6.630119   1.000000
   50       -6.545122   1.000000
   51       -6.532763   1.000000
   52       -6.247011   1.000000
   53       -6.203407   1.000000
   54       -6.118651   1.000000
   55       -6.051067   1.000000
   56       -6.027368   1.000000
   57       -5.929961   1.000000
   58       -5.915436   1.000000
   59       -5.834111   1.000000
   60       -5.824777   1.000000
   61       -5.641673   1.000000
   62       -5.366520   1.000000
   63       -5.322827   1.000000
   64       -5.045742   1.000000
   65       -4.985532   1.000000
   66       -4.913455   1.000000
   67       -4.802789   1.000000
   68       -4.777325   1.000000
   69       -4.760784   1.000000
   70       -4.656062   1.000000
   71       -4.620804   1.000000
   72       -4.614177   1.000000
   73       -4.522369   1.000000
   74       -4.376226   1.000000
   75       -4.312881   1.000000
   76       -3.980993   1.000000
   77       -3.764374   0.999884
   78       -3.635482   0.997193
   79       -3.514997   0.972418
   80       -3.147337   0.247568
   81       -3.122672   0.195841
   82       -2.726750   0.000128
   83       -2.710879   0.000082
   84       -2.609662   0.000004
   85       -2.493569   0.000000
   86       -2.430020   0.000000
   87       -2.254230   0.000000
   88       -2.166624   0.000000
   89       -2.146702   0.000000
   90       -1.981771   0.000000
   91       -1.969763   0.000000
   92       -1.637150   0.000000
   93       -1.391622   0.000000
   94       -1.284107   0.000000
   95       -1.224536   0.000000
   96       -0.961928   0.000000
   97       -0.899211   0.000000
   98       -0.835710   0.000000
   99       -0.832618   0.000000
  100       -0.639790   0.000000
  101       -0.635853   0.000000
  102       -0.543979   0.000000
  103       -0.252461   0.000000
  104       -0.177377   0.000000
  105       -0.132097   0.000000
  106       -0.017982   0.000000
  107       -0.003258   0.000000
  108        0.057848   0.000000
  109        0.129964   0.000000
  110        0.144069   0.000000
  111        0.194547   0.000000
  112        0.311806   0.000000
  113        0.526719   0.000000
  114        0.918888   0.000000
  115        0.955128   0.000000
  116        1.239636   0.000000
  117        1.285331   0.000000
  118        1.662126   0.000000
  119        1.850399   0.000000
  120        2.180804   0.000000
 
  0.1250000E+00  0.2775558E-16  0.0000000E+00  0.3125000E-01
    1      -17.808812   1.000000
    2      -16.798614   1.000000
    3      -16.703891   1.000000
    4      -16.634544   1.000000
    5      -16.572600   1.000000
    6      -16.385707   1.000000
    7      -16.344949   1.000000
    8      -16.319845   1.000000
    9      -16.180227   1.000000
   10      -16.126963   1.000000
   11      -16.043788   1.000000
   12      -15.932823   1.000000
   13      -15.927201   1.000000
   14      -15.733632   1.000000
   15      -15.576711   1.000000
   16      -15.512748   1.000000
   17      -15.256351   1.000000
   18      -15.125457   1.000000
   19       -9.310766   1.000000
   20       -9.255919   1.000000
   21       -8.979866   1.000000
   22       -8.923914   1.000000
   23       -8.814695   1.000000
   24       -8.776147   1.000000
   25       -8.702839   1.000000
   26       -8.522783   1.000000
   27       -8.486574   1.000000
   28       -8.407151   1.000000
   29       -8.402060   1.000000
   30       -8.290227   1.000000
   31       -8.239063   1.000000
   32       -8.219499   1.000000
   33       -8.084147   1.000000
   34       -8.073198   1.000000
   35       -7.734923   1.000000
   36       -7.650210   1.000000
   37       -7.640959   1.000000
   38       -7.596305   1.000000
   39       -7.548457   1.000000
   40       -7.409626   1.000000
   41       -7.209847   1.000000
   42       -7.205317   1.000000
   43       -7.160475   1.000000
   44       -6.984629   1.000000
   45       -6.838006   1.000000
   46       -6.758832   1.000000
   47       -6.719722   1.000000
   48       -6.679230   1.000000
   49       -6.562850   1.000000
   50       -6.482443   1.000000
   51       -6.477750   1.000000
   52       -6.303117   1.000000
   53       -6.222693   1.000000
   54       -6.200967   1.000000
   55       -6.047778   1.000000
   56       -6.040452   1.000000
   57       -5.995972   1.000000
   58       -5.868696   1.000000
   59       -5.772299   1.000000
   60       -5.746160   1.000000
   61       -5.603794   1.000000
   62       -5.465295   1.000000
   63       -5.436711   1.000000
   64       -5.133713   1.000000
   65       -5.065553   1.000000
   66       -4.914613   1.000000
   67       -4.829818   1.000000
   68       -4.790945   1.000000
   69       -4.695324   1.000000
   70       -4.637415   1.000000
   71       -4.573014   1.000000
   72       -4.533065   1.000000
   73       -4.489731   1.000000
   74       -4.334729   1.000000
   75       -4.300821   1.000000
   76       -4.045169   1.000000
   77       -3.770089   0.999901
   78       -3.704212   0.999434
   79       -3.560905   0.987526
   80       -3.117421   0.185741
   81       -3.087700   0.134827
   82       -2.694202   0.000051
   83       -2.678280   0.000032
   84       -2.604991   0.000003
   85       -2.484206   0.000000
   86       -2.420248   0.000000
   87       -2.235316   0.000000
   88       -2.132948   0.000000
   89       -2.121731   0.000000
   90       -1.974433   0.000000
   91       -1.964503   0.000000
   92       -1.626883   0.000000
   93       -1.390400   0.000000
   94       -1.289546   0.000000
   95       -1.242144   0.000000
   96       -0.975391   0.000000
   97       -0.918599   0.000000
   98       -0.822753   0.000000
   99       -0.800819   0.000000
  100       -0.704307   0.000000
  101       -0.698589   0.000000
  102       -0.635288   0.000000
  103       -0.376881   0.000000
  104       -0.328708   0.000000
  105       -0.163412   0.000000
  106       -0.075308   0.000000
  107       -0.044688   0.000000
  108        0.066199   0.000000
  109        0.137089   0.000000
  110        0.239997   0.000000
  111        0.310457   0.000000
  112        0.379573   0.000000
  113        0.642704   0.000000
  114        0.907914   0.000000
  115        0.963121   0.000000
  116        1.198226   0.000000
  117        1.218960   0.000000
  118        1.705133   0.000000
  119        1.892655   0.000000
  120        2.215819   0.000000
 
  0.2500000E+00  0.5551115E-16  0.0000000E+00  0.3125000E-01
    1      -17.733660   1.000000
    2      -17.006678   1.000000
    3      -16.720276   1.000000
    4      -16.678958   1.000000
    5      -16.600614   1.000000
    6      -16.399512   1.000000
    7      -16.286579   1.000000
    8      -16.274963   1.000000
    9      -16.143116   1.000000
   10      -16.136363   1.000000
   11      -15.948527   1.000000
   12      -15.910251   1.000000
   13      -15.850198   1.000000
   14      -15.707477   1.000000
   15      -15.617347   1.000000
   16      -15.543671   1.000000
   17      -15.263286   1.000000
   18      -15.134994   1.000000
   19       -9.589609   1.000000
   20       -9.221687   1.000000
   21       -9.162615   1.000000
   22       -9.070330   1.000000
   23       -8.857720   1.000000
   24       -8.852273   1.000000
   25       -8.650576   1.000000
   26       -8.476218   1.000000
   27       -8.460945   1.000000
   28       -8.354792   1.000000
   29       -8.339829   1.000000
   30       -8.200434   1.000000
   31       -8.195004   1.000000
   32       -8.125149   1.000000
   33       -7.897434   1.000000
   34       -7.841577   1.000000
   35       -7.812803   1.000000
   36       -7.677098   1.000000
   37       -7.600043   1.000000
   38       -7.539208   1.000000
   39       -7.443391   1.000000
   40       -7.375666   1.000000
   41       -7.274118   1.000000
   42       -7.248663   1.000000
   43       -7.118526   1.000000
   44       -7.047065   1.000000
   45       -6.829113   1.000000
   46       -6.777795   1.000000
   47       -6.737108   1.000000
   48       -6.612011   1.000000
   49       -6.523092   1.000000
   50       -6.454435   1.000000
   51       -6.367176   1.000000
   52       -6.310929   1.000000
   53       -6.250072   1.000000
   54       -6.229179   1.000000
   55       -6.092372   1.000000
   56       -6.073215   1.000000
   57       -6.039838   1.000000
   58       -5.823312   1.000000
   59       -5.738003   1.000000
   60       -5.717476   1.000000
   61       -5.635239   1.000000
   62       -5.612444   1.000000
   63       -5.478075   1.000000
   64       -5.338461   1.000000
   65       -5.286343   1.000000
   66       -4.947986   1.000000
   67       -4.780094   1.000000
   68       -4.774292   1.000000
   69       -4.691261   1.000000
   70       -4.523717   1.000000
   71       -4.519001   1.000000
   72       -4.430520   1.000000
   73       -4.390447   1.000000
   74       -4.373887   1.000000
   75       -4.262590   1.000000
   76       -4.165175   1.000000
   77       -3.846024   0.999990
   78       -3.763248   0.999880
   79       -3.597111   0.993759
   80       -3.076668   0.118629
   81       -3.023839   0.059922
   82       -2.664113   0.000021
   83       -2.644614   0.000011
   84       -2.547634   0.000000
   85       -2.445249   0.000000
   86       -2.384405   0.000000
   87       -2.195821   0.000000
   88       -2.059298   0.000000
   89       -2.047558   0.000000
   90       -1.955969   0.000000
   91       -1.889774   0.000000
   92       -1.613918   0.000000
   93       -1.402798   0.000000
   94       -1.313879   0.000000
   95       -1.310008   0.000000
   96       -1.035139   0.000000
   97       -0.948197   0.000000
   98       -0.878462   0.000000
   99       -0.833610   0.000000
  100       -0.788392   0.000000
  101       -0.751540   0.000000
  102       -0.745285   0.000000
  103       -0.568802   0.000000
  104       -0.560239   0.000000
  105       -0.216884   0.000000
  106       -0.162804   0.000000
  107       -0.141158   0.000000
  108        0.103105   0.000000
  109        0.119209   0.000000
  110        0.309151   0.000000
  111        0.375851   0.000000
  112        0.586165   0.000000
  113        0.792972   0.000000
  114        0.922123   0.000000
  115        0.977601   0.000000
  116        1.117482   0.000000
  117        1.127490   0.000000
  118        1.825045   0.000000
  119        2.011966   0.000000
  120        2.319285   0.000000
 
  0.3750000E+00  0.0000000E+00  0.0000000E+00  0.3125000E-01
    1      -17.613558   1.000000
    2      -17.226288   1.000000
    3      -16.732378   1.000000
    4      -16.713211   1.000000
    5      -16.608720   1.000000
    6      -16.415312   1.000000
    7      -16.276852   1.000000
    8      -16.246441   1.000000
    9      -16.131990   1.000000
   10      -16.081389   1.000000
   11      -15.890417   1.000000
   12      -15.869993   1.000000
   13      -15.790960   1.000000
   14      -15.690038   1.000000
   15      -15.665045   1.000000
   16      -15.556208   1.000000
   17      -15.271675   1.000000
   18      -15.147018   1.000000
   19       -9.802479   1.000000
   20       -9.286447   1.000000
   21       -9.249595   1.000000
   22       -9.069146   1.000000
   23       -8.920119   1.000000
   24       -8.885026   1.000000
   25       -8.555356   1.000000
   26       -8.471158   1.000000
   27       -8.439926   1.000000
   28       -8.327680   1.000000
   29       -8.276852   1.000000
   30       -8.217109   1.000000
   31       -8.151982   1.000000
   32       -8.110543   1.000000
   33       -7.914259   1.000000
   34       -7.842238   1.000000
   35       -7.759692   1.000000
   36       -7.667873   1.000000
   37       -7.537942   1.000000
   38       -7.500315   1.000000
   39       -7.334499   1.000000
   40       -7.249911   1.000000
   41       -7.246454   1.000000
   42       -7.188157   1.000000
   43       -7.074273   1.000000
   44       -7.033372   1.000000
   45       -6.795640   1.000000
   46       -6.736711   1.000000
   47       -6.720605   1.000000
   48       -6.609801   1.000000
   49       -6.514428   1.000000
   50       -6.455531   1.000000
   51       -6.351564   1.000000
   52       -6.322519   1.000000
   53       -6.232159   1.000000
   54       -6.224347   1.000000
   55       -6.119417   1.000000
   56       -6.070192   1.000000
   57       -6.057928   1.000000
   58       -5.888355   1.000000
   59       -5.863038   1.000000
   60       -5.746879   1.000000
   61       -5.673227   1.000000
   62       -5.626966   1.000000
   63       -5.506920   1.000000
   64       -5.471954   1.000000
   65       -5.333791   1.000000
   66       -4.995000   1.000000
   67       -4.806533   1.000000
   68       -4.787608   1.000000
   69       -4.695175   1.000000
   70       -4.652250   1.000000
   71       -4.485144   1.000000
   72       -4.402439   1.000000
   73       -4.372377   1.000000
   74       -4.314073   1.000000
   75       -4.219370   1.000000
   76       -4.101184   1.000000
   77       -3.964629   1.000000
   78       -3.735036   0.999743
   79       -3.583917   0.991912
   80       -3.058183   0.094662
   81       -2.974490   0.028430
   82       -2.665059   0.000021
   83       -2.637613   0.000009
   84       -2.507873   0.000000
   85       -2.403106   0.000000
   86       -2.301058   0.000000
   87       -2.129109   0.000000
   88       -2.011676   0.000000
   89       -1.951588   0.000000
   90       -1.897908   0.000000
   91       -1.743477   0.000000
   92       -1.617833   0.000000
   93       -1.462155   0.000000
   94       -1.442741   0.000000
   95       -1.355463   0.000000
   96       -1.126921   0.000000
   97       -1.005856   0.000000
   98       -0.990101   0.000000
   99       -0.920151   0.000000
  100       -0.864205   0.000000
  101       -0.806665   0.000000
  102       -0.745328   0.000000
  103       -0.661367   0.000000
  104       -0.626380   0.000000
  105       -0.277846   0.000000
  106       -0.246718   0.000000
  107       -0.192015   0.000000
  108        0.067166   0.000000
  109        0.073888   0.000000
  110        0.344469   0.000000
  111        0.403044   0.000000
  112        0.718308   0.000000
  113        0.818951   0.000000
  114        0.899764   0.000000
  115        0.978461   0.000000
  116        1.126818   0.000000
  117        1.161808   0.000000
  118        2.004708   0.000000
  119        2.193209   0.000000
  120        2.391500   0.000000
 
  0.5000000E+00  0.1110223E-15  0.0000000E+00  0.1562500E-01
    1      -17.495291   1.000000
    2      -17.379616   1.000000
    3      -16.738403   1.000000
    4      -16.725584   1.000000
    5      -16.608293   1.000000
    6      -16.422457   1.000000
    7      -16.276158   1.000000
    8      -16.242768   1.000000
    9      -16.124665   1.000000
   10      -16.049269   1.000000
   11      -15.883350   1.000000
   12      -15.824801   1.000000
   13      -15.779399   1.000000
   14      -15.704842   1.000000
   15      -15.688222   1.000000
   16      -15.543584   1.000000
   17      -15.275583   1.000000
   18      -15.153033   1.000000
   19       -9.878381   1.000000
   20       -9.329381   1.000000
   21       -9.285841   1.000000
   22       -9.027159   1.000000
   23       -8.944867   1.000000
   24       -8.888807   1.000000
   25       -8.531511   1.000000
   26       -8.465085   1.000000
   27       -8.425100   1.000000
   28       -8.325350   1.000000
   29       -8.253443   1.000000
   30       -8.233558   1.000000
   31       -8.119216   1.000000
   32       -8.089700   1.000000
   33       -7.951469   1.000000
   34       -7.891361   1.000000
   35       -7.813019   1.000000
   36       -7.709523   1.000000
   37       -7.490738   1.000000
   38       -7.361488   1.000000
   39       -7.325169   1.000000
   40       -7.234882   1.000000
   41       -7.129307   1.000000
   42       -7.124398   1.000000
   43       -7.063910   1.000000
   44       -7.050562   1.000000
   45       -6.801393   1.000000
   46       -6.746151   1.000000
   47       -6.659210   1.000000
   48       -6.562349   1.000000
   49       -6.558708   1.000000
   50       -6.444460   1.000000
   51       -6.321252   1.000000
   52       -6.314280   1.000000
   53       -6.246194   1.000000
   54       -6.237333   1.000000
   55       -6.158445   1.000000
   56       -6.140960   1.000000
   57       -6.088768   1.000000
   58       -5.900305   1.000000
   59       -5.879810   1.000000
   60       -5.788248   1.000000
   61       -5.688156   1.000000
   62       -5.565126   1.000000
   63       -5.540208   1.000000
   64       -5.405961   1.000000
   65       -5.274669   1.000000
   66       -5.220267   1.000000
   67       -4.909347   1.000000
   68       -4.789556   1.000000
   69       -4.717018   1.000000
   70       -4.638046   1.000000
   71       -4.470012   1.000000
   72       -4.350231   1.000000
   73       -4.336850   1.000000
   74       -4.323584   1.000000
   75       -4.212549   1.000000
   76       -4.063977   1.000000
   77       -4.003947   1.000000
   78       -3.720202   0.999622
   79       -3.565628   0.988565
   80       -3.055369   0.091351
   81       -2.956554   0.021117
   82       -2.666749   0.000022
   83       -2.638321   0.000009
   84       -2.499633   0.000000
   85       -2.390630   0.000000
   86       -2.252325   0.000000
   87       -2.083881   0.000000
   88       -1.999991   0.000000
   89       -1.925889   0.000000
   90       -1.812612   0.000000
   91       -1.652356   0.000000
   92       -1.628229   0.000000
   93       -1.569224   0.000000
   94       -1.475362   0.000000
   95       -1.394960   0.000000
   96       -1.175001   0.000000
   97       -1.055634   0.000000
   98       -1.005017   0.000000
   99       -0.966150   0.000000
  100       -0.896925   0.000000
  101       -0.849070   0.000000
  102       -0.741263   0.000000
  103       -0.668551   0.000000
  104       -0.616507   0.000000
  105       -0.329920   0.000000
  106       -0.237416   0.000000
  107       -0.226017   0.000000
  108        0.037812   0.000000
  109        0.050791   0.000000
  110        0.352698   0.000000
  111        0.409187   0.000000
  112        0.744760   0.000000
  113        0.823967   0.000000
  114        0.874203   0.000000
  115        0.976539   0.000000
  116        1.159578   0.000000
  117        1.196783   0.000000
  118        2.201863   0.000000
  119        2.253037   0.000000
  120        2.379364   0.000000
 
  0.0000000E+00  0.1250000E+00  0.0000000E+00  0.3125000E-01
    1      -17.808597   1.000000
    2      -16.779085   1.000000
    3      -16.735795   1.000000
    4      -16.603260   1.000000
    5      -16.558054   1.000000
    6      -16.439782   1.000000
    7      -16.374266   1.000000
    8      -16.284870   1.000000
    9      -16.206579   1.000000
   10      -16.087041   1.000000
   11      -16.038963   1.000000
   12      -15.988731   1.000000
   13      -15.873408   1.000000
   14      -15.737875   1.000000
   15      -15.565920   1.000000
   16      -15.503353   1.000000
   17      -15.268899   1.000000
   18      -15.130026   1.000000
   19       -9.289226   1.000000
   20       -9.184893   1.000000
   21       -9.047293   1.000000
   22       -8.969703   1.000000
   23       -8.820671   1.000000
   24       -8.720177   1.000000
   25       -8.676889   1.000000
   26       -8.580240   1.000000
   27       -8.518825   1.000000
   28       -8.472617   1.000000
   29       -8.413469   1.000000
   30       -8.346962   1.000000
   31       -8.280173   1.000000
   32       -8.086857   1.000000
   33       -8.023069   1.000000
   34       -7.988027   1.000000
   35       -7.829544   1.000000
   36       -7.717854   1.000000
   37       -7.685742   1.000000
   38       -7.525054   1.000000
   39       -7.445400   1.000000
   40       -7.364398   1.000000
   41       -7.256778   1.000000
   42       -7.196199   1.000000
   43       -7.156278   1.000000
   44       -6.924263   1.000000
   45       -6.883232   1.000000
   46       -6.829957   1.000000
   47       -6.751165   1.000000
   48       -6.654837   1.000000
   49       -6.606134   1.000000
   50       -6.544859   1.000000
   51       -6.497209   1.000000
   52       -6.260080   1.000000
   53       -6.224647   1.000000
   54       -6.124236   1.000000
   55       -6.086047   1.000000
   56       -6.036911   1.000000
   57       -5.930325   1.000000
   58       -5.861619   1.000000
   59       -5.835005   1.000000
   60       -5.699509   1.000000
   61       -5.585480   1.000000
   62       -5.396831   1.000000
   63       -5.340749   1.000000
   64       -5.125669   1.000000
   65       -5.068914   1.000000
   66       -4.979846   1.000000
   67       -4.967834   1.000000
   68       -4.870731   1.000000
   69       -4.777862   1.000000
   70       -4.689555   1.000000
   71       -4.539027   1.000000
   72       -4.425396   1.000000
   73       -4.385004   1.000000
   74       -4.357053   1.000000
   75       -4.284894   1.000000
   76       -3.900290   0.999998
   77       -3.812781   0.999971
   78       -3.715019   0.999569
   79       -3.496663   0.963107
   80       -3.387901   0.845870
   81       -2.902006   0.007826
   82       -2.788609   0.000644
   83       -2.706130   0.000072
   84       -2.631425   0.000007
   85       -2.501423   0.000000
   86       -2.451605   0.000000
   87       -2.223010   0.000000
   88       -2.113367   0.000000
   89       -2.075403   0.000000
   90       -1.993431   0.000000
   91       -1.935173   0.000000
   92       -1.640731   0.000000
   93       -1.389808   0.000000
   94       -1.295018   0.000000
   95       -1.212899   0.000000
   96       -0.971216   0.000000
   97       -0.910044   0.000000
   98       -0.830840   0.000000
   99       -0.807055   0.000000
  100       -0.704611   0.000000
  101       -0.666132   0.000000
  102       -0.599972   0.000000
  103       -0.343536   0.000000
  104       -0.291133   0.000000
  105       -0.216168   0.000000
  106       -0.119159   0.000000
  107       -0.029237   0.000000
  108       -0.004589   0.000000
  109        0.108353   0.000000
  110        0.195608   0.000000
  111        0.262862   0.000000
  112        0.464410   0.000000
  113        0.620793   0.000000
  114        0.771253   0.000000
  115        1.059393   0.000000
  116        1.238949   0.000000
  117        1.321336   0.000000
  118        1.707147   0.000000
  119        1.889934   0.000000
  120        2.216395   0.000000
 
  0.1250000E+00  0.1250000E+00  0.0000000E+00  0.3125000E-01
    1      -17.758311   1.000000
    2      -16.910275   1.000000
    3      -16.803038   1.000000
    4      -16.657296   1.000000
    5      -16.530030   1.000000
    6      -16.395738   1.000000
    7      -16.358672   1.000000
    8      -16.262544   1.000000
    9      -16.194997   1.000000
   10      -16.061102   1.000000
   11      -16.003403   1.000000
   12      -15.944383   1.000000
   13      -15.838629   1.000000
   14      -15.720071   1.000000
   15      -15.596366   1.000000
   16      -15.521101   1.000000
   17      -15.273434   1.000000
   18      -15.134990   1.000000
   19       -9.452496   1.000000
   20       -9.303462   1.000000
   21       -9.160512   1.000000
   22       -9.031900   1.000000
   23       -8.843085   1.000000
   24       -8.766393   1.000000
   25       -8.657584   1.000000
   26       -8.507476   1.000000
   27       -8.446363   1.000000
   28       -8.404079   1.000000
   29       -8.363655   1.000000
   30       -8.287735   1.000000
   31       -8.151600   1.000000
   32       -8.121441   1.000000
   33       -7.974623   1.000000
   34       -7.890213   1.000000
   35       -7.804524   1.000000
   36       -7.685483   1.000000
   37       -7.617117   1.000000
   38       -7.547557   1.000000
   39       -7.426307   1.000000
   40       -7.372141   1.000000
   41       -7.269846   1.000000
   42       -7.206147   1.000000
   43       -7.152112   1.000000
   44       -7.000757   1.000000
   45       -6.845814   1.000000
   46       -6.812363   1.000000
   47       -6.778621   1.000000
   48       -6.647962   1.000000
   49       -6.564193   1.000000
   50       -6.435417   1.000000
   51       -6.394406   1.000000
   52       -6.334637   1.000000
   53       -6.256748   1.000000
   54       -6.185443   1.000000
   55       -6.096402   1.000000
   56       -6.040283   1.000000
   57       -5.983303   1.000000
   58       -5.839639   1.000000
   59       -5.797446   1.000000
   60       -5.640807   1.000000
   61       -5.564567   1.000000
   62       -5.528820   1.000000
   63       -5.488019   1.000000
   64       -5.249048   1.000000
   65       -5.145814   1.000000
   66       -5.084417   1.000000
   67       -4.870162   1.000000
   68       -4.859577   1.000000
   69       -4.730534   1.000000
   70       -4.607980   1.000000
   71       -4.505542   1.000000
   72       -4.386949   1.000000
   73       -4.343313   1.000000
   74       -4.286722   1.000000
   75       -4.263478   1.000000
   76       -4.082499   1.000000
   77       -3.913446   0.999999
   78       -3.711832   0.999533
   79       -3.540869   0.982159
   80       -3.277144   0.593172
   81       -2.887926   0.005927
   82       -2.769617   0.000400
   83       -2.665892   0.000022
   84       -2.580461   0.000001
   85       -2.488468   0.000000
   86       -2.428916   0.000000
   87       -2.161882   0.000000
   88       -2.074320   0.000000
   89       -2.024583   0.000000
   90       -1.978022   0.000000
   91       -1.927708   0.000000
   92       -1.623453   0.000000
   93       -1.389674   0.000000
   94       -1.321011   0.000000
   95       -1.243013   0.000000
   96       -0.997977   0.000000
   97       -0.933728   0.000000
   98       -0.854671   0.000000
   99       -0.801558   0.000000
  100       -0.769590   0.000000
  101       -0.744203   0.000000
  102       -0.715007   0.000000
  103       -0.552481   0.000000
  104       -0.437085   0.000000
  105       -0.263842   0.000000
  106       -0.151068   0.000000
  107       -0.076918   0.000000
  108        0.033444   0.000000
  109        0.119691   0.000000
  110        0.228400   0.000000
  111        0.411592   0.000000
  112        0.486688   0.000000
  113        0.770094   0.000000
  114        0.821950   0.000000
  115        1.025490   0.000000
  116        1.183277   0.000000
  117        1.242041   0.000000
  118        1.788979   0.000000
  119        1.970805   0.000000
  120        2.285950   0.000000
 
  0.2500000E+00  0.1250000E+00  0.0000000E+00  0.3125000E-01
    1      -17.660348   1.000000
    2      -17.112208   1.000000
    3      -16.877494   1.000000
    4      -16.663346   1.000000
    5      -16.520598   1.000000
    6      -16.392598   1.000000
    7      -16.280172   1.000000
    8      -16.266031   1.000000
    9      -16.172334   1.000000
   10      -16.069500   1.000000
   11      -15.969362   1.000000
   12      -15.844422   1.000000
   13      -15.810472   1.000000
   14      -15.695963   1.000000
   15      -15.645151   1.000000
   16      -15.530911   1.000000
   17      -15.280657   1.000000
   18      -15.143707   1.000000
   19       -9.701282   1.000000
   20       -9.403983   1.000000
   21       -9.215297   1.000000
   22       -9.086081   1.000000
   23       -8.885126   1.000000
   24       -8.735278   1.000000
   25       -8.564246   1.000000
   26       -8.493235   1.000000
   27       -8.417919   1.000000
   28       -8.334533   1.000000
   29       -8.290411   1.000000
   30       -8.228620   1.000000
   31       -8.187300   1.000000
   32       -8.130379   1.000000
   33       -7.961826   1.000000
   34       -7.841780   1.000000
   35       -7.761057   1.000000
   36       -7.681573   1.000000
   37       -7.571066   1.000000
   38       -7.523573   1.000000
   39       -7.397065   1.000000
   40       -7.322101   1.000000
   41       -7.201405   1.000000
   42       -7.166391   1.000000
   43       -7.137452   1.000000
   44       -6.939090   1.000000
   45       -6.843830   1.000000
   46       -6.800420   1.000000
   47       -6.732360   1.000000