   27   27  100    1
  0.9710400E+02  0.1002848E-08  0.1002848E-08  0.3000000E-08  0.5000000E-15
  1.000000000000000E-004
  CAR 
 unknown system                          
    159     34    120
 
  0.0000000E+00  0.0000000E+00  0.0000000E+00  0.1562500E-01
    1      -17.815838   1.000000
    2      -16.621444   1.000000
    3      -16.595752   1.000000
    4      -16.469290   1.000000
    5      -16.460293   1.000000
    6      -16.449720   1.000000
    7      -16.392952   1.000000
    8      -16.310540   1.000000
    9      -16.117762   1.000000
   10      -16.060758   1.000000
   11      -16.011680   1.000000
   12      -15.972598   1.000000
   13      -15.932746   1.000000
   14      -15.868264   1.000000
   15      -15.612492   1.000000
   16      -15.535216   1.000000
   17      -15.457497   1.000000
   18      -15.429025   1.000000
   19       -9.293151   1.000000
   20       -8.900695   1.000000
   21       -8.821454   1.000000
   22       -8.758022   1.000000
   23       -8.666674   1.000000
   24       -8.634519   1.000000
   25       -8.615223   1.000000
   26       -8.519569   1.000000
   27       -8.500626   1.000000
   28       -8.412295   1.000000
   29       -8.383804   1.000000
   30       -8.301153   1.000000
   31       -8.269807   1.000000
   32       -8.177679   1.000000
   33       -8.147683   1.000000
   34       -8.023821   1.000000
   35       -7.938839   1.000000
   36       -7.886793   1.000000
   37       -7.725512   1.000000
   38       -7.613502   1.000000
   39       -7.515886   1.000000
   40       -7.394392   1.000000
   41       -7.347709   1.000000
   42       -7.237325   1.000000
   43       -7.208581   1.000000
   44       -6.860729   1.000000
   45       -6.808287   1.000000
   46       -6.745208   1.000000
   47       -6.706154   1.000000
   48       -6.672955   1.000000
   49       -6.558985   1.000000
   50       -6.512418   1.000000
   51       -6.456783   1.000000
   52       -6.382118   1.000000
   53       -6.322654   1.000000
   54       -6.266245   1.000000
   55       -6.241367   1.000000
   56       -6.137834   1.000000
   57       -6.051560   1.000000
   58       -5.853856   1.000000
   59       -5.623515   1.000000
   60       -5.580509   1.000000
   61       -5.481042   1.000000
   62       -5.417384   1.000000
   63       -5.347620   1.000000
   64       -5.272172   1.000000
   65       -4.965083   1.000000
   66       -4.923891   1.000000
   67       -4.795559   1.000000
   68       -4.727327   1.000000
   69       -4.663827   1.000000
   70       -4.577761   1.000000
   71       -4.545507   1.000000
   72       -4.481816   1.000000
   73       -4.455578   1.000000
   74       -4.305240   1.000000
   75       -4.141074   1.000000
   76       -4.063138   1.000000
   77       -3.537468   0.999783
   78       -3.490935   0.999289
   79       -3.427509   0.996942
   80       -3.107821   0.684720
   81       -3.041687   0.505306
   82       -2.683622   0.005891
   83       -2.572209   0.000472
   84       -2.519424   0.000117
   85       -2.506048   0.000080
   86       -2.457175   0.000019
   87       -2.266140   0.000000
   88       -2.223739   0.000000
   89       -2.017965   0.000000
   90       -2.001962   0.000000
   91       -1.862824   0.000000
   92       -1.833935   0.000000
   93       -1.673247   0.000000
   94       -1.599146   0.000000
   95       -1.383809   0.000000
   96       -1.273566   0.000000
   97       -1.098707   0.000000
   98       -1.028654   0.000000
   99       -0.900338   0.000000
  100       -0.445480   0.000000
  101       -0.355255   0.000000
  102       -0.321494   0.000000
  103       -0.298248   0.000000
  104       -0.220860   0.000000
  105       -0.146001   0.000000
  106        0.115183   0.000000
  107        0.255933   0.000000
  108        0.302884   0.000000
  109        0.345535   0.000000
  110        0.369754   0.000000
  111        0.431026   0.000000
  112        0.700858   0.000000
  113        0.810296   0.000000
  114        0.875732   0.000000
  115        0.939290   0.000000
  116        0.994607   0.000000
  117        1.023571   0.000000
  118        1.678710   0.000000
  119        1.835539   0.000000
  120        2.186982   0.000000
 
  0.1250000E+00  0.2775558E-16  0.0000000E+00  0.3125000E-01
    1      -17.789928   1.000000
    2      -16.724850   1.000000
    3      -16.625344   1.000000
    4      -16.564327   1.000000
    5      -16.489451   1.000000
    6      -16.369165   1.000000
    7      -16.316907   1.000000
    8      -16.271483   1.000000
    9      -16.149226   1.000000
   10      -16.049988   1.000000
   11      -16.007410   1.000000
   12      -15.956168   1.000000
   13      -15.905786   1.000000
   14      -15.796149   1.000000
   15      -15.624411   1.000000
   16      -15.563819   1.000000
   17      -15.459272   1.000000
   18      -15.436214   1.000000
   19       -9.284575   1.000000
   20       -9.091572   1.000000
   21       -8.911237   1.000000
   22       -8.857783   1.000000
   23       -8.757910   1.000000
   24       -8.695184   1.000000
   25       -8.605733   1.000000
   26       -8.546669   1.000000
   27       -8.477621   1.000000
   28       -8.406410   1.000000
   29       -8.365884   1.000000
   30       -8.229865   1.000000
   31       -8.193209   1.000000
   32       -8.140952   1.000000
   33       -8.014799   1.000000
   34       -7.907826   1.000000
   35       -7.819338   1.000000
   36       -7.764027   1.000000
   37       -7.683517   1.000000
   38       -7.575284   1.000000
   39       -7.531942   1.000000
   40       -7.460352   1.000000
   41       -7.320643   1.000000
   42       -7.219933   1.000000
   43       -7.161846   1.000000
   44       -6.934581   1.000000
   45       -6.903651   1.000000
   46       -6.744253   1.000000
   47       -6.725011   1.000000
   48       -6.667222   1.000000
   49       -6.588561   1.000000
   50       -6.490636   1.000000
   51       -6.431439   1.000000
   52       -6.379805   1.000000
   53       -6.332346   1.000000
   54       -6.287434   1.000000
   55       -6.240602   1.000000
   56       -6.158605   1.000000
   57       -6.038961   1.000000
   58       -5.798254   1.000000
   59       -5.697683   1.000000
   60       -5.532098   1.000000
   61       -5.466898   1.000000
   62       -5.391694   1.000000
   63       -5.259278   1.000000
   64       -5.140452   1.000000
   65       -5.118465   1.000000
   66       -5.043279   1.000000
   67       -4.998933   1.000000
   68       -4.909257   1.000000
   69       -4.729980   1.000000
   70       -4.667144   1.000000
   71       -4.604171   1.000000
   72       -4.343792   1.000000
   73       -4.221624   1.000000
   74       -4.175008   1.000000
   75       -4.022160   1.000000
   76       -3.900553   1.000000
   77       -3.745603   1.000000
   78       -3.627896   0.999984
   79       -3.463728   0.998639
   80       -3.002801   0.396790
   81       -2.917410   0.193389
   82       -2.727204   0.013538
   83       -2.588037   0.000700
   84       -2.556420   0.000315
   85       -2.495685   0.000060
   86       -2.446678   0.000014
   87       -2.286249   0.000000
   88       -2.261338   0.000000
   89       -2.084420   0.000000
   90       -2.065618   0.000000
   91       -1.855023   0.000000
   92       -1.747272   0.000000
   93       -1.621095   0.000000
   94       -1.540870   0.000000
   95       -1.360953   0.000000
   96       -1.255174   0.000000
   97       -1.104440   0.000000
   98       -1.001928   0.000000
   99       -0.874615   0.000000
  100       -0.495237   0.000000
  101       -0.453614   0.000000
  102       -0.399057   0.000000
  103       -0.384895   0.000000
  104       -0.254765   0.000000
  105       -0.131731   0.000000
  106        0.029638   0.000000
  107        0.083821   0.000000
  108        0.254442   0.000000
  109        0.275912   0.000000
  110        0.378530   0.000000
  111        0.487882   0.000000
  112        0.745324   0.000000
  113        0.782609   0.000000
  114        0.938721   0.000000
  115        1.006602   0.000000
  116        1.062264   0.000000
  117        1.120809   0.000000
  118        1.722037   0.000000
  119        1.874584   0.000000
  120        2.222422   0.000000
 
  0.2500000E+00  0.5551115E-16  0.0000000E+00  0.3125000E-01
    1      -17.713578   1.000000
    2      -16.951548   1.000000
    3      -16.670818   1.000000
    4      -16.607206   1.000000
    5      -16.517239   1.000000
    6      -16.320137   1.000000
    7      -16.249568   1.000000
    8      -16.234397   1.000000
    9      -16.136094   1.000000
   10      -16.049026   1.000000
   11      -16.016284   1.000000
   12      -15.880545   1.000000
   13      -15.830527   1.000000
   14      -15.710219   1.000000
   15      -15.634946   1.000000
   16      -15.604566   1.000000
   17      -15.486424   1.000000
   18      -15.452587   1.000000
   19       -9.463317   1.000000
   20       -9.232794   1.000000
   21       -9.019572   1.000000
   22       -8.972536   1.000000
   23       -8.906018   1.000000
   24       -8.835207   1.000000
   25       -8.562931   1.000000
   26       -8.525498   1.000000
   27       -8.422002   1.000000
   28       -8.351455   1.000000
   29       -8.299315   1.000000
   30       -8.229456   1.000000
   31       -8.171127   1.000000
   32       -8.081287   1.000000
   33       -7.873400   1.000000
   34       -7.773597   1.000000
   35       -7.715826   1.000000
   36       -7.635139   1.000000
   37       -7.593579   1.000000
   38       -7.524476   1.000000
   39       -7.440051   1.000000
   40       -7.318067   1.000000
   41       -7.231881   1.000000
   42       -7.141674   1.000000
   43       -7.070985   1.000000
   44       -7.021473   1.000000
   45       -6.968571   1.000000
   46       -6.823807   1.000000
   47       -6.748778   1.000000
   48       -6.664588   1.000000
   49       -6.637162   1.000000
   50       -6.541808   1.000000
   51       -6.468285   1.000000
   52       -6.377510   1.000000
   53       -6.318702   1.000000
   54       -6.263646   1.000000
   55       -6.137719   1.000000
   56       -6.128126   1.000000
   57       -5.999147   1.000000
   58       -5.802890   1.000000
   59       -5.672959   1.000000
   60       -5.581571   1.000000
   61       -5.515049   1.000000
   62       -5.461942   1.000000
   63       -5.404055   1.000000
   64       -5.311659   1.000000
   65       -5.237662   1.000000
   66       -5.155467   1.000000
   67       -5.053173   1.000000
   68       -4.946892   1.000000
   69       -4.710045   1.000000
   70       -4.668188   1.000000
   71       -4.647394   1.000000
   72       -4.278141   1.000000
   73       -4.091571   1.000000
   74       -4.052960   1.000000
   75       -3.944909   1.000000
   76       -3.898353   1.000000
   77       -3.772368   1.000000
   78       -3.623411   0.999982
   79       -3.433928   0.997339
   80       -2.954937   0.274214
   81       -2.844986   0.084165
   82       -2.750045   0.020235
   83       -2.630883   0.001917
   84       -2.567120   0.000415
   85       -2.481592   0.000040
   86       -2.433360   0.000009
   87       -2.366362   0.000001
   88       -2.300927   0.000000
   89       -2.169200   0.000000
   90       -2.128136   0.000000
   91       -1.833825   0.000000
   92       -1.699403   0.000000
   93       -1.514127   0.000000
   94       -1.431682   0.000000
   95       -1.297954   0.000000
   96       -1.200625   0.000000
   97       -1.099086   0.000000
   98       -0.952931   0.000000
   99       -0.839166   0.000000
  100       -0.652925   0.000000
  101       -0.594267   0.000000
  102       -0.555387   0.000000
  103       -0.493981   0.000000
  104       -0.356832   0.000000
  105       -0.254194   0.000000
  106       -0.130400   0.000000
  107       -0.080007   0.000000
  108        0.069358   0.000000
  109        0.163040   0.000000
  110        0.355350   0.000000
  111        0.539819   0.000000
  112        0.707348   0.000000
  113        0.872761   0.000000
  114        1.021195   0.000000
  115        1.130352   0.000000
  116        1.244546   0.000000
  117        1.312581   0.000000
  118        1.843916   0.000000
  119        1.988042   0.000000
  120        2.327700   0.000000
 
  0.3750000E+00  0.0000000E+00  0.0000000E+00  0.3125000E-01
    1      -17.593133   1.000000
    2      -17.177171   1.000000
    3      -16.716449   1.000000
    4      -16.633796   1.000000
    5      -16.494009   1.000000
    6      -16.378791   1.000000
    7      -16.211375   1.000000
    8      -16.176492   1.000000
    9      -16.108310   1.000000
   10      -16.036446   1.000000
   11      -15.959595   1.000000
   12      -15.829019   1.000000
   13      -15.789440   1.000000
   14      -15.723227   1.000000
   15      -15.674021   1.000000
   16      -15.538105   1.000000
   17      -15.511327   1.000000
   18      -15.479821   1.000000
   19       -9.700390   1.000000
   20       -9.276183   1.000000
   21       -9.114667   1.000000
   22       -9.014096   1.000000
   23       -8.945858   1.000000
   24       -8.919082   1.000000
   25       -8.511408   1.000000
   26       -8.488695   1.000000
   27       -8.403974   1.000000
   28       -8.307966   1.000000
   29       -8.265219   1.000000
   30       -8.249070   1.000000
   31       -8.159825   1.000000
   32       -8.015947   1.000000
   33       -7.880518   1.000000
   34       -7.821160   1.000000
   35       -7.693072   1.000000
   36       -7.590242   1.000000
   37       -7.547484   1.000000
   38       -7.435432   1.000000
   39       -7.323382   1.000000
   40       -7.238953   1.000000
   41       -7.168589   1.000000
   42       -7.092892   1.000000
   43       -7.039750   1.000000
   44       -6.915462   1.000000
   45       -6.873754   1.000000
   46       -6.782313   1.000000
   47       -6.692510   1.000000
   48       -6.649369   1.000000
   49       -6.596014   1.000000
   50       -6.573884   1.000000
   51       -6.395742   1.000000
   52       -6.326504   1.000000
   53       -6.248125   1.000000
   54       -6.230732   1.000000
   55       -6.106912   1.000000
   56       -5.969900   1.000000
   57       -5.929074   1.000000
   58       -5.891078   1.000000
   59       -5.863489   1.000000
   60       -5.775953   1.000000
   61       -5.706913   1.000000
   62       -5.668245   1.000000
   63       -5.658359   1.000000
   64       -5.564372   1.000000
   65       -5.192153   1.000000
   66       -5.031930   1.000000
   67       -4.931519   1.000000
   68       -4.874142   1.000000
   69       -4.773701   1.000000
   70       -4.685353   1.000000
   71       -4.630791   1.000000
   72       -4.586613   1.000000
   73       -4.192075   1.000000
   74       -3.981720   1.000000
   75       -3.882367   1.000000
   76       -3.719402   0.999999
   77       -3.594282   0.999956
   78       -3.499187   0.999420
   79       -3.319705   0.976102
   80       -3.006139   0.405916
   81       -2.954151   0.272365
   82       -2.764518   0.025793
   83       -2.616783   0.001389
   84       -2.589752   0.000730
   85       -2.465234   0.000024
   86       -2.433054   0.000009
   87       -2.370246   0.000001
   88       -2.309974   0.000000
   89       -2.222816   0.000000
   90       -2.150493   0.000000
   91       -1.810744   0.000000
   92       -1.688560   0.000000
   93       -1.449459   0.000000
   94       -1.384872   0.000000
   95       -1.239999   0.000000
   96       -1.141820   0.000000
   97       -1.064051   0.000000
   98       -0.935818   0.000000
   99       -0.872606   0.000000
  100       -0.738124   0.000000
  101       -0.678228   0.000000
  102       -0.642635   0.000000
  103       -0.581601   0.000000
  104       -0.488169   0.000000
  105       -0.418954   0.000000
  106       -0.298827   0.000000
  107       -0.192495   0.000000
  108       -0.049211   0.000000
  109        0.063344   0.000000
  110        0.307659   0.000000
  111        0.579392   0.000000
  112        0.672231   0.000000
  113        0.969712   0.000000
  114        1.063697   0.000000
  115        1.247436   0.000000
  116        1.402006   0.000000
  117        1.456788   0.000000
  118        2.029113   0.000000
  119        2.167299   0.000000
  120        2.499784   0.000000
 
  0.5000000E+00  0.1110223E-15  0.0000000E+00  0.1562500E-01
    1      -17.485170   1.000000
    2      -17.321978   1.000000
    3      -16.732622   1.000000
    4      -16.645084   1.000000
    5      -16.454656   1.000000
    6      -16.429602   1.000000
    7      -16.210168   1.000000
    8      -16.165555   1.000000
    9      -16.072861   1.000000
   10      -16.026038   1.000000
   11      -15.912076   1.000000
   12      -15.842272   1.000000
   13      -15.792435   1.000000
   14      -15.717548   1.000000
   15      -15.677827   1.000000
   16      -15.550731   1.000000
   17      -15.515603   1.000000
   18      -15.463446   1.000000
   19       -9.786545   1.000000
   20       -9.302592   1.000000
   21       -9.152806   1.000000
   22       -9.045223   1.000000
   23       -8.984158   1.000000
   24       -8.844025   1.000000
   25       -8.564578   1.000000
   26       -8.469995   1.000000
   27       -8.405055   1.000000
   28       -8.309411   1.000000
   29       -8.248746   1.000000
   30       -8.191040   1.000000
   31       -8.144486   1.000000
   32       -7.979059   1.000000
   33       -7.909124   1.000000
   34       -7.819261   1.000000
   35       -7.736281   1.000000
   36       -7.634099   1.000000
   37       -7.540970   1.000000
   38       -7.372381   1.000000
   39       -7.345025   1.000000
   40       -7.311314   1.000000
   41       -7.103110   1.000000
   42       -7.009323   1.000000
   43       -6.960191   1.000000
   44       -6.857240   1.000000
   45       -6.833485   1.000000
   46       -6.718328   1.000000
   47       -6.670796   1.000000
   48       -6.637481   1.000000
   49       -6.502509   1.000000
   50       -6.431324   1.000000
   51       -6.419105   1.000000
   52       -6.387207   1.000000
   53       -6.291103   1.000000
   54       -6.180711   1.000000
   55       -6.088401   1.000000
   56       -6.058063   1.000000
   57       -6.010979   1.000000
   58       -5.854896   1.000000
   59       -5.816942   1.000000
   60       -5.766977   1.000000
   61       -5.752679   1.000000
   62       -5.716489   1.000000
   63       -5.663949   1.000000
   64       -5.581814   1.000000
   65       -5.544334   1.000000
   66       -4.984205   1.000000
   67       -4.977969   1.000000
   68       -4.843364   1.000000
   69       -4.831737   1.000000
   70       -4.690877   1.000000
   71       -4.618874   1.000000
   72       -4.489175   1.000000
   73       -4.350473   1.000000
   74       -3.947817   1.000000
   75       -3.804342   1.000000
   76       -3.639803   0.999989
   77       -3.535293   0.999771
   78       -3.455080   0.998340
   79       -3.245938   0.927521
   80       -3.067691   0.578156
   81       -2.982574   0.342851
   82       -2.766084   0.026464
   83       -2.689952   0.006683
   84       -2.592230   0.000776
   85       -2.460209   0.000021
   86       -2.406674   0.000004
   87       -2.339697   0.000000
   88       -2.309169   0.000000
   89       -2.244051   0.000000
   90       -2.155190   0.000000
   91       -1.800167   0.000000
   92       -1.687576   0.000000
   93       -1.411325   0.000000
   94       -1.399449   0.000000
   95       -1.224947   0.000000
   96       -1.141481   0.000000
   97       -1.029880   0.000000
   98       -0.939675   0.000000
   99       -0.909805   0.000000
  100       -0.737652   0.000000
  101       -0.682822   0.000000
  102       -0.650261   0.000000
  103       -0.607099   0.000000
  104       -0.572186   0.000000
  105       -0.484712   0.000000
  106       -0.394955   0.000000
  107       -0.227922   0.000000
  108       -0.092049   0.000000
  109        0.033570   0.000000
  110        0.287705   0.000000
  111        0.593218   0.000000
  112        0.660636   0.000000
  113        1.006170   0.000000
  114        1.079006   0.000000
  115        1.292960   0.000000
  116        1.459551   0.000000
  117        1.504890   0.000000
  118        2.257970   0.000000
  119        2.275961   0.000000
  120        2.392219   0.000000
 
  0.0000000E+00  0.1250000E+00  0.0000000E+00  0.3125000E-01
    1      -17.789631   1.000000
    2      -16.742909   1.000000
    3      -16.620098   1.000000
    4      -16.547927   1.000000
    5      -16.499886   1.000000
    6      -16.340242   1.000000
    7      -16.307098   1.000000
    8      -16.275473   1.000000
    9      -16.161952   1.000000
   10      -16.095023   1.000000
   11      -16.014581   1.000000
   12      -15.926909   1.000000
   13      -15.860635   1.000000
   14      -15.835392   1.000000
   15      -15.635101   1.000000
   16      -15.543193   1.000000
   17      -15.469951   1.000000
   18      -15.434269   1.000000
   19       -9.285446   1.000000
   20       -9.116009   1.000000
   21       -8.910248   1.000000
   22       -8.851714   1.000000
   23       -8.771710   1.000000
   24       -8.648515   1.000000
   25       -8.621641   1.000000
   26       -8.545391   1.000000
   27       -8.486623   1.000000
   28       -8.386967   1.000000
   29       -8.318532   1.000000
   30       -8.238431   1.000000
   31       -8.168972   1.000000
   32       -8.141828   1.000000
   33       -8.014376   1.000000
   34       -7.959738   1.000000
   35       -7.855443   1.000000
   36       -7.753797   1.000000
   37       -7.716283   1.000000
   38       -7.575705   1.000000
   39       -7.498708   1.000000
   40       -7.469183   1.000000
   41       -7.315659   1.000000
   42       -7.211003   1.000000
   43       -7.152920   1.000000
   44       -6.966802   1.000000
   45       -6.860404   1.000000
   46       -6.805210   1.000000
   47       -6.722675   1.000000
   48       -6.621990   1.000000
   49       -6.553783   1.000000
   50       -6.493956   1.000000
   51       -6.429948   1.000000
   52       -6.373372   1.000000
   53       -6.349346   1.000000
   54       -6.310614   1.000000
   55       -6.225913   1.000000
   56       -6.155881   1.000000
   57       -6.081943   1.000000
   58       -5.827272   1.000000
   59       -5.626887   1.000000
   60       -5.578909   1.000000
   61       -5.487202   1.000000
   62       -5.332380   1.000000
   63       -5.259479   1.000000
   64       -5.179485   1.000000
   65       -5.126852   1.000000
   66       -5.087474   1.000000
   67       -4.993732   1.000000
   68       -4.876634   1.000000
   69       -4.678779   1.000000
   70       -4.644262   1.000000
   71       -4.568927   1.000000
   72       -4.397399   1.000000
   73       -4.285498   1.000000
   74       -4.120154   1.000000
   75       -4.022536   1.000000
   76       -3.927538   1.000000
   77       -3.689034   0.999998
   78       -3.638524   0.999988
   79       -3.518695   0.999646
   80       -2.983777   0.345985
   81       -2.924829   0.208106
   82       -2.716070   0.011035
   83       -2.640704   0.002386
   84       -2.519533   0.000117
   85       -2.514018   0.000100
   86       -2.424690   0.000007
   87       -2.266189   0.000000
   88       -2.237797   0.000000
   89       -2.062120   0.000000
   90       -2.005483   0.000000
   91       -1.853050   0.000000
   92       -1.812665   0.000000
   93       -1.672723   0.000000
   94       -1.543759   0.000000
   95       -1.360148   0.000000
   96       -1.260244   0.000000
   97       -1.094849   0.000000
   98       -1.005225   0.000000
   99       -0.862174   0.000000
  100       -0.517075   0.000000
  101       -0.471964   0.000000
  102       -0.403535   0.000000
  103       -0.342576   0.000000
  104       -0.267570   0.000000
  105       -0.131001   0.000000
  106       -0.018578   0.000000
  107        0.144771   0.000000
  108        0.258967   0.000000
  109        0.311703   0.000000
  110        0.443953   0.000000
  111        0.462962   0.000000
  112        0.698415   0.000000
  113        0.818672   0.000000
  114        0.917862   0.000000
  115        0.982323   0.000000
  116        1.059984   0.000000
  117        1.090280   0.000000
  118        1.721897   0.000000
  119        1.875114   0.000000
  120        2.222235   0.000000
 
  0.1250000E+00  0.1250000E+00  0.0000000E+00  0.3125000E-01
    1      -17.737996   1.000000
    2      -16.877339   1.000000
    3      -16.745116   1.000000
    4      -16.560036   1.000000
    5      -16.417172   1.000000
    6      -16.345916   1.000000
    7      -16.274163   1.000000
    8      -16.245518   1.000000
    9      -16.141094   1.000000
   10      -16.102018   1.000000
   11      -16.002634   1.000000
   12      -15.924122   1.000000
   13      -15.803377   1.000000
   14      -15.735160   1.000000
   15      -15.654644   1.000000
   16      -15.581888   1.000000
   17      -15.492530   1.000000
   18      -15.435878   1.000000
   19       -9.325905   1.000000
   20       -9.300607   1.000000
   21       -9.108229   1.000000
   22       -8.952990   1.000000
   23       -8.772488   1.000000
   24       -8.679060   1.000000
   25       -8.561294   1.000000
   26       -8.546167   1.000000
   27       -8.492813   1.000000
   28       -8.360607   1.000000
   29       -8.271006   1.000000
   30       -8.232036   1.000000
   31       -8.169894   1.000000
   32       -8.116104   1.000000
   33       -7.986508   1.000000
   34       -7.801651   1.000000
   35       -7.755140   1.000000
   36       -7.685554   1.000000
   37       -7.592912   1.000000
   38       -7.467594   1.000000
   39       -7.419235   1.000000
   40       -7.313919   1.000000
   41       -7.301040   1.000000
   42       -7.227033   1.000000
   43       -7.111101   1.000000
   44       -7.025888   1.000000
   45       -6.953312   1.000000
   46       -6.810927   1.000000
   47       -6.760210   1.000000
   48       -6.659082   1.000000
   49       -6.578958   1.000000
   50       -6.554275   1.000000
   51       -6.429088   1.000000
   52       -6.389991   1.000000
   53       -6.338159   1.000000
   54       -6.275815   1.000000
   55       -6.188306   1.000000
   56       -6.131461   1.000000
   57       -6.051664   1.000000
   58       -5.808114   1.000000
   59       -5.716094   1.000000
   60       -5.464743   1.000000
   61       -5.436559   1.000000
   62       -5.404186   1.000000
   63       -5.390365   1.000000
   64       -5.341259   1.000000
   65       -5.129740   1.000000
   66       -5.095395   1.000000
   67       -5.023781   1.000000
   68       -4.951988   1.000000
   69       -4.913287   1.000000
   70       -4.750760   1.000000
   71       -4.429028   1.000000
   72       -4.279112   1.000000
   73       -4.132305   1.000000
   74       -4.057505   1.000000
   75       -3.938605   1.000000
   76       -3.885388   1.000000
   77       -3.794106   1.000000
   78       -3.709692   0.999999
   79       -3.484414   0.999166
   80       -2.944161   0.249421
   81       -2.812345   0.053875
   82       -2.753165   0.021338
   83       -2.615032   0.001334
   84       -2.561644   0.000361
   85       -2.525844   0.000139
   86       -2.433068   0.000009
   87       -2.321605   0.000000
   88       -2.264899   0.000000
   89       -2.137229   0.000000
   90       -2.053602   0.000000
   91       -1.833524   0.000000
   92       -1.737715   0.000000
   93       -1.615962   0.000000
   94       -1.456011   0.000000
   95       -1.319720   0.000000
   96       -1.233786   0.000000
   97       -1.092345   0.000000
   98       -0.980552   0.000000
   99       -0.828494   0.000000
  100       -0.601653   0.000000
  101       -0.562513   0.000000
  102       -0.525496   0.000000
  103       -0.500349   0.000000
  104       -0.344764   0.000000
  105       -0.150233   0.000000
  106       -0.126751   0.000000
  107       -0.037777   0.000000
  108        0.163058   0.000000
  109        0.278226   0.000000
  110        0.361031   0.000000
  111        0.578820   0.000000
  112        0.667820   0.000000
  113        0.852728   0.000000
  114        0.928509   0.000000
  115        1.064494   0.000000
  116        1.207296   0.000000
  117        1.244457   0.000000
  118        1.804282   0.000000
  119        1.951288   0.000000
  120        2.292343   0.000000
 
  0.2500000E+00  0.1250000E+00  0.0000000E+00  0.3125000E-01
    1      -17.638175   1.000000
    2      -17.068831   1.000000
    3      -16.856294   1.000000
    4      -16.530880   1.000000
    5      -16.429836   1.000000
    6      -16.329021   1.000000
    7      -16.265194   1.000000
    8      -16.198323   1.000000
    9      -16.116582   1.000000
   10      -16.053812   1.000000
   11      -15.992317   1.000000
   12      -15.892257   1.000000
   13      -15.767299   1.000000
   14      -15.714404   1.000000
   15      -15.642297   1.000000
   16      -15.569643   1.000000
   17      -15.537130   1.000000
   18      -15.439228   1.000000
   19       -9.581134   1.000000
   20       -9.389953   1.000000
   21       -9.219329   1.000000
   22       -8.984401   1.000000
   23       -8.814334   1.000000
   24       -8.723812   1.000000
   25       -8.510604   1.000000
   26       -8.471415   1.000000
   27       -8.404793   1.000000
   28       -8.343977   1.000000
   29       -8.279890   1.000000
   30       -8.247377   1.000000
   31       -8.191874   1.000000
   32       -8.086327   1.000000
   33       -7.973922   1.000000
   34       -7.838022   1.000000
   35       -7.780789   1.000000
   36       -7.537090   1.000000
   37       -7.449923   1.000000
   38       -7.366154   1.000000
   39       -7.327600   1.000000
   40       -7.273646   1.000000
   41       -7.203333   1.000000
   42       -7.122318   1.000000
   43       -7.039885   1.000000
   44       -6.985216   1.000000
   45       -6.918999   1.000000
   46       -6.793822   1.000000
   47       -6.737898   1.000000