unknown system                          
           1
     8.853186    5.104053    0.000000
    -8.855646    5.108284    0.000000
     0.000000    0.000000   30.000000
   V    Mo   W    S 
   3   3   3  18
Direct configuration=     1
   0.33333334  0.66666669  0.00000000
   0.66666669  0.66666669  0.00000000
   0.33333334  0.00000000  0.00000000
   0.66666669  0.00000000  0.00000000
   1.00000000  0.33333334  0.00000000
   0.33333334  0.33333334  0.00000000
   0.00000000  0.00000000  0.00000000
   0.00000000  0.66666669  0.00000000
   0.66666669  0.33333334  0.00000000
   0.11068511  0.22244981  0.95539999
   0.22244981  0.11068511  0.04460000
   0.11068511  0.55578315  0.95539999
   0.22244981  0.44401845  0.04460000
   0.11068511  0.88911647  0.95539999
   0.22244981  0.77735180  0.04460000
   0.44401845  0.22244981  0.95539999
   0.55578315  0.11068511  0.04460000
   0.44401845  0.55578315  0.95539999
   0.55578315  0.44401845  0.04460000
   0.44401845  0.88911647  0.95539999
   0.55578315  0.77735180  0.04460000
   0.77735180  0.22244981  0.95539999
   0.88911647  0.11068511  0.04460000
   0.77735180  0.55578315  0.95539999
   0.88911647  0.44401845  0.04460000
   0.77735180  0.88911647  0.95539999
   0.88911647  0.77735180  0.04460000
unknown system                          
           1
     8.665620    4.998163    0.000000
    -8.667890    5.002067    0.000000
     0.000000    0.000000   30.000000
   V    Mo   W    S 
   3   3   3  18
Direct configuration=     2
   0.33380729  0.66594530 -0.00003041
   0.66517153  0.66675542 -0.00011544
   0.33454921  0.00072829  0.00009536
   0.66758774  0.00092492 -0.00006844
   1.00010798  0.33196986  0.00003156
   0.33181582  0.33349401  0.00003703
  -0.00005583  0.00302358  0.00020521
   0.00044260  0.66526488  0.00003860
   0.66643618  0.33178646 -0.00016360
   0.11060377  0.22127065  0.95067720
   0.22355654  0.10795355  0.04802103
   0.11497393  0.55808635  0.95192869
   0.22430520  0.44876928  0.04806265
   0.11470999  0.89048240  0.95200569
   0.22560640  0.77930113  0.04691398
   0.44321703  0.21822880  0.95196694
   0.55127891  0.10963788  0.04811286
   0.44642709  0.55995785  0.95306439
   0.55807068  0.44839387  0.04799317
   0.43997619  0.88684210  0.95316165
   0.55347937  0.77327684  0.04688082
   0.77726530  0.22273656  0.95073019
   0.88935177  0.11054095  0.04933875
   0.77557560  0.55748372  0.95194033
   0.88847636  0.44480199  0.04924173
   0.77629797  0.88457323  0.95193098
   0.88517984  0.77598460  0.04799898
unknown system                          
           1
     8.484435    4.899086    0.000000
    -8.485621    4.901117    0.000000
     0.000000    0.000000   30.000000
   V    Mo   W    S 
   3   3   3  18
Direct configuration=     3
   0.33384669  0.66569124 -0.00003359
   0.66481524  0.66670258 -0.00008295
   0.33493440  0.00101667  0.00005256
   0.66839833  0.00173913 -0.00011446
   0.99988950  0.33119865  0.00003678
   0.33105843  0.33323880  0.00008748
  -0.00001696  0.00424075  0.00022664
   0.00030385  0.66461920  0.00002826
   0.66664368  0.33144975 -0.00018704
   0.11046562  0.22104173  0.95054617
   0.22333613  0.10777702  0.04803354
   0.11496265  0.55827401  0.95194642
   0.22441602  0.44894118  0.04810423
   0.11453856  0.89041708  0.95217441
   0.22544794  0.77923019  0.04685368
   0.44337658  0.21824058  0.95199660
   0.55126163  0.10977299  0.04814604
   0.44647060  0.56005109  0.95304730
   0.55825805  0.44837164  0.04789370
   0.43990949  0.88676916  0.95324363
   0.55339561  0.77321521  0.04683394
   0.77715664  0.22289891  0.95063361
   0.88950049  0.11042369  0.04949465
   0.77563957  0.55738135  0.95198968
   0.88838186  0.44488022  0.04924798
   0.77647502  0.88458399  0.95194432
   0.88534884  0.77604763  0.04785635
unknown system                          
           1
     8.272653    4.776447    0.000000
    -8.278166    4.785971    0.000000
     0.000000    0.000000   30.000000
   V    Mo   W    S 
   3   3   3  18
Direct configuration=     4
   0.33367013  0.66463563 -0.00002811
   0.66391728  0.66636445  0.00008683
   0.33641376  0.00235404 -0.00013812
   0.67217664  0.00556585 -0.00023187
   0.99851407  0.32774457  0.00004062
   0.32786463  0.33174285  0.00024513
   0.00014319  0.00897513  0.00019460
  -0.00082222  0.66186601 -0.00002671
   0.66797312  0.33053690 -0.00017341
   0.11038031  0.22103112  0.94839071
   0.22364679  0.10710726  0.04956410
   0.11609640  0.55872001  0.95053834
   0.22509189  0.45038841  0.04970301
   0.11514488  0.89092677  0.95141695
   0.22651886  0.77975772  0.04798383
   0.44276296  0.21726867  0.95067027
   0.55016791  0.10911465  0.04974123
   0.44692070  0.56102664  0.95165190
   0.55887369  0.44926199  0.04890747
   0.43904774  0.88613044  0.95226869
   0.55278113  0.77248238  0.04793224
   0.77729126  0.22315649  0.94860535
   0.88950654  0.11045025  0.05179847
   0.77503902  0.55767180  0.95067035
   0.88831873  0.44460582  0.05090839
   0.77613188  0.88359002  0.95054993
   0.88464316  0.77573859  0.04872971
unknown system                          
           1
     8.270678    4.778468    0.000000
    -8.281041    4.796399    0.000000
     0.000000    0.000000   30.000000
   V    Mo   W    S 
   3   3   3  18
Direct configuration=     5
   0.33312835  0.66289860  0.00000741
   0.66263008  0.66540514  0.00042128
   0.33959396  0.00517090 -0.00048182
   0.67953189  0.01322748 -0.00027289
   0.99527096  0.32094785  0.00003400
   0.32137514  0.32863802  0.00041530
   0.00041538  0.01824955  0.00002989
  -0.00345771  0.65566167 -0.00015831
   0.67139906  0.32912228 -0.00002634
   0.11042627  0.22167404  0.94525403
   0.22356083  0.10652735  0.05169930
   0.11716052  0.55810544  0.94868810
   0.22512476  0.45139496  0.05188961
   0.11514792  0.89153111  0.95089304
   0.22767115  0.78008688  0.04944235
   0.44217879  0.21682571  0.94904718
   0.54954863  0.10834192  0.05187368
   0.44678575  0.56133889  0.94967918
   0.55858076  0.44930738  0.05003156
   0.43940349  0.88590605  0.95099520
   0.55249922  0.77285092  0.04932878
   0.77806220  0.22350427  0.94556002
   0.88932215  0.11090284  0.05529621
   0.77390486  0.55749619  0.94883079
   0.88844734  0.44343334  0.05320442
   0.77608318  0.88339483  0.94874808
   0.88441953  0.77627086  0.04956983
unknown system                          
           1
     8.267836    4.777753    0.000000
    -8.277925    4.795212    0.000000
     0.000000    0.000000   30.000000
   V    Mo   W    S 
   3   3   3  18
Direct configuration=     6
   0.33295484  0.66249515  0.00003896
   0.66218332  0.66486046  0.00044945
   0.34128622  0.00655572 -0.00051408
   0.68022530  0.01453610 -0.00018936
   0.99488987  0.32113562 -0.00002052
   0.31969538  0.32815695  0.00038591
   0.00044813  0.01962383  0.00012275
  -0.00470055  0.65263370 -0.00025916
   0.67318631  0.32895862 -0.00011235
   0.11037805  0.22226148  0.94482898
   0.22288858  0.10646984  0.05175950
   0.11674831  0.55718031  0.94861181
   0.22428618  0.45057425  0.05196992
   0.11408522  0.89143102  0.95143490
   0.22739445  0.77983481  0.04930763
   0.44260790  0.21764808  0.94917824
   0.55014719  0.10852467  0.05203629
   0.44637475  0.56077874  0.94966791
   0.55763523  0.44804731  0.04981895
   0.44074120  0.88652523  0.95108821
   0.55294326  0.77385311  0.04919464
   0.77848261  0.22372801  0.94520990
   0.88927402  0.11110082  0.05571395
   0.77351326  0.55689975  0.94875954
   0.88859304  0.44266080  0.05354947
   0.77658027  0.88441909  0.94879238
   0.88537211  0.77732098  0.04917607
unknown system                          
           1
     8.267509    4.776917    0.000000
    -8.277128    4.793562    0.000000
     0.000000    0.000000   30.000000
   V    Mo   W    S 
   3   3   3  18
Direct configuration=     7
   0.33289831  0.66225340  0.00007953
   0.66190536  0.66464398  0.00049085
   0.34245707  0.00746074 -0.00054272
   0.68067918  0.01538653 -0.00016669
   0.99465097  0.32111174 -0.00002005
   0.31843780  0.32777608  0.00037740
   0.00055044  0.02087634  0.00010633
  -0.00551140  0.65068957 -0.00029049
   0.67433579  0.32881480 -0.00011961
   0.11026162  0.22238473  0.94465717
   0.22270389  0.10646730  0.05180029
   0.11669097  0.55689525  0.94850478
   0.22399914  0.45033725  0.05202908
   0.11366071  0.89124712  0.95175513
   0.22723402  0.77972406  0.04920887
   0.44281681  0.21800888  0.94923988
   0.55034477  0.10866603  0.05215254
   0.44623468  0.56060063  0.94964761
   0.55727849  0.44752338  0.04967455
   0.44119127  0.88673084  0.95113917
   0.55309055  0.77420087  0.04912280
   0.77862785  0.22376481  0.94500937
   0.88927542  0.11126798  0.05589596
   0.77333499  0.55663102  0.94869159
   0.88859195  0.44235697  0.05376722
   0.77673316  0.88475159  0.94882369
   0.88574066  0.77764256  0.04896565
unknown system                          
           1
     8.270389    4.777140    0.000000
    -8.276430    4.787585    0.000000
     0.000000    0.000000   30.000000
   V    Mo   W    S 
   3   3   3  18
Direct configuration=     8
   0.33292414  0.66242374  0.00006021
   0.66209203  0.66474327  0.00046069
   0.34165043  0.00684746 -0.00052204
   0.68052898  0.01497841 -0.00017970
   0.99469130  0.32098935 -0.00001325
   0.31919818  0.32796647  0.00037527
   0.00048956  0.02021038  0.00009879
  -0.00499496  0.65189795 -0.00025475
   0.67364077  0.32888914 -0.00011042
   0.11032494  0.22228156  0.94477089
   0.22280908  0.10646487  0.05178666
   0.11668714  0.55700610  0.94857411
   0.22413533  0.45044590  0.05198735
   0.11389453  0.89138697  0.95154566
   0.22734768  0.77979382  0.04927686
   0.44267715  0.21776011  0.94919627
   0.55024225  0.10858313  0.05207117
   0.44631176  0.56068756  0.94965485
   0.55749276  0.44784328  0.04977914
   0.44097547  0.88663428  0.95110816
   0.55302525  0.77403573  0.04916358
   0.77854695  0.22374476  0.94512698
   0.88928819  0.11118096  0.05579658
   0.77342414  0.55679020  0.94872716
   0.88861887  0.44254833  0.05361386
   0.77666163  0.88459359  0.94880406
   0.88553090  0.77748714  0.04910176
unknown system                          
           1
     8.262976    4.772090    0.000000
    -8.271514    4.786853    0.000000
     0.000000    0.000000   30.000000
   V    Mo   W    S 
   3   3   3  18
Direct configuration=     9
   0.33274175  0.66380422 -0.00003623
   0.66325284  0.66457152  0.00025876
   0.33678933  0.00319966 -0.00040575
   0.68099894  0.01449009 -0.00018576
   0.99352935  0.31949217  0.00002381
   0.32289688  0.32835600  0.00033245
   0.00017695  0.01750779  0.00005705
  -0.00214109  0.65777282 -0.00004601
   0.67057915  0.32912805 -0.00008640
   0.11054150  0.22187765  0.94517757
   0.22323558  0.10617832  0.05185743
   0.11631663  0.55687255  0.94895507
   0.22428932  0.45061092  0.05175190
   0.11469385  0.89230449  0.95043450
   0.22815830  0.78030413  0.04974174
   0.44196881  0.21619758  0.94893147
   0.54971142  0.10805976  0.05163289
   0.44666840  0.56099350  0.94961878
   0.55848277  0.44923918  0.05046881
   0.44051752  0.88642511  0.95098298
   0.55296453  0.77376745  0.04931922
   0.77837217  0.22380407  0.94550239
   0.88949964  0.11086491  0.05554287
   0.77367434  0.55762145  0.94881539
   0.88902409  0.44329363  0.05289232
   0.77644042  0.88422407  0.94863219
   0.88483110  0.77725335  0.04983046
unknown system                          
           1
     8.258247    4.770659    0.000000
    -8.268487    4.788372    0.000000
     0.000000    0.000000   30.000000
   V    Mo   W    S 
   3   3   3  18
Direct configuration=    10
   0.33275349  0.66470204 -0.00008410
   0.66342581  0.66348398  0.00023281
   0.33259470  0.00033731 -0.00039121
   0.68196566  0.01438779 -0.00017890
   0.99270180  0.31791164 -0.00001141
   0.32576707  0.32871350  0.00036168
   0.00014683  0.01586530  0.00007268
   0.00012999  0.66255082  0.00001561
   0.66835289  0.32962169 -0.00007122
   0.11082068  0.22194355  0.94537305
   0.22335552  0.10606157  0.05193762
   0.11585301  0.55660819  0.94922825
   0.22429720  0.45046269  0.05150645
   0.11488531  0.89274408  0.94970604
   0.22854856  0.78048593  0.05013825
   0.44152764  0.21520374  0.94875532
   0.54950409  0.10779489  0.05137790
   0.44684649  0.56108620  0.94963689
   0.55896412  0.44996828  0.05088016
   0.44063734  0.88651514  0.95096233
   0.55306200  0.77377846  0.04927969
   0.77823702  0.22405645  0.94555324
   0.88964705  0.11063219  0.05560999
   0.77400261  0.55809135  0.94886529
   0.88924858  0.44367366  0.05247566
   0.77642893  0.88433568  0.94855242
   0.88451007  0.77719833  0.05021543
unknown system                          
           1
     8.258173    4.774374    0.000000
    -8.271421    4.797309    0.000000
     0.000000    0.000000   30.000000
   V    Mo   W    S 
   3   3   3  18
Direct configuration=    11
   0.33272283  0.66503798 -0.00009622
   0.66196126  0.66056069  0.00026297
   0.32909647 -0.00167440 -0.00035318
   0.68469922  0.01631942 -0.00019134
   0.99111353  0.31523440 -0.00003781
   0.32747895  0.32889576  0.00031152
   0.00035385  0.01641511  0.00010536
   0.00189290  0.66583729  0.00009472
   0.66767439  0.32978182 -0.00000615
   0.11128257  0.22243016  0.94532588
   0.22328314  0.10614091  0.05213432
   0.11521387  0.55592245  0.94941952
   0.22386462  0.44985178  0.05126428
   0.11419949  0.89266367  0.94935153
   0.22849653  0.78046520  0.05040710
   0.44132406  0.21478676  0.94865392
   0.54955005  0.10783184  0.05117340
   0.44684215  0.56079002  0.94968695
   0.55870451  0.44967097  0.05113382
   0.44170198  0.88712703  0.95117418
   0.55348131  0.77443120  0.04902050
   0.77815652  0.22449448  0.94529668
   0.88991829  0.11067129  0.05606223
   0.77419063  0.55814621  0.94879180
   0.88953617  0.44382076  0.05218541
   0.77674780  0.88497135  0.94864354
   0.88472734  0.77759030  0.05018495
unknown system                          
           1
     8.260357    4.777860    0.000000
    -8.275975    4.804904    0.000000
     0.000000    0.000000   30.000000
   V    Mo   W    S 
   3   3   3  18
Direct configuration=    12
   0.33275009  0.66479742 -0.00009048
   0.65951519  0.65679173  0.00027350
   0.32685113 -0.00259461 -0.00033937
   0.68734729  0.01874307 -0.00017144
   0.98976892  0.31312259 -0.00012735
   0.32809268  0.32917833  0.00028745
   0.00106291  0.01816849  0.00016608
   0.00279235  0.66716706  0.00007083
   0.66815733  0.32983558 -0.00004945
   0.11159502  0.22293877  0.94517330
   0.22321209  0.10640354  0.05228014
   0.11470562  0.55537514  0.94961460
   0.22332460  0.44929921  0.05109011
   0.11343002  0.89261893  0.94928826
   0.22832619  0.78039012  0.05049583
   0.44131253  0.21469156  0.94869698
   0.54967799  0.10785842  0.05104351
   0.44681508  0.56054667  0.94964003
   0.55829459  0.44897073  0.05128358
   0.44276855  0.88782669  0.95155566
   0.55389469  0.77505873  0.04867901
   0.77829151  0.22502437  0.94502057
   0.89020142  0.11078103  0.05651704
   0.77425932  0.55802352  0.94878403
   0.88987238  0.44387057  0.05202835
   0.77712467  0.88544597  0.94890638
   0.88477031  0.77788081  0.04988276
unknown system                          
           1
     8.259304    4.776718    0.000000
    -8.274331    4.802736    0.000000
     0.000000    0.000000   30.000000
   V    Mo   W    S 
   3   3   3  18
Direct configuration=    13
   0.33291949  0.66436138 -0.00003929
   0.65678448  0.65302854  0.00027610
   0.32560588 -0.00279371 -0.00034275
   0.68891530  0.02089539 -0.00011274
   0.98893937  0.31214777 -0.00014355
   0.32773307  0.32941965  0.00025781
   0.00243052  0.02034573  0.00022602
   0.00315961  0.66702704  0.00010292
   0.66938001  0.32976359 -0.00005862
   0.11179062  0.22337474  0.94499660
   0.22326401  0.10674658  0.05237288
   0.11450255  0.55506588  0.94970080
   0.22283661  0.44897987  0.05099879
   0.11287396  0.89272188  0.94942034
   0.22816469  0.78034876  0.05039110
   0.44139598  0.21477271  0.94887364
   0.54987709  0.10798908  0.05093896
   0.44663307  0.56028553  0.94948674
   0.55788573  0.44802613  0.05135575
   0.44351495  0.88841434  0.95199752
   0.55420250  0.77547202  0.04833510
   0.77855740  0.22545031  0.94474519
   0.89051258  0.11104994  0.05678326
   0.77415695  0.55775774  0.94876165
   0.89014318  0.44384083  0.05195464
   0.77745814  0.88569713  0.94931194
   0.88457670  0.77802558  0.04940910
unknown system                          
           1
     8.260430    4.772210    0.000000
    -8.271636    4.791592    0.000000
     0.000000    0.000000   30.000000
   V    Mo   W    S 
   3   3   3  18
Direct configuration=    14
   0.33285672  0.66450156 -0.00004976
   0.65745099  0.65390471  0.00029257
   0.32587736 -0.00274775 -0.00033113
   0.68879612  0.02050611 -0.00012764
   0.98900679  0.31209879 -0.00012769
   0.32795163  0.32931128  0.00026865
   0.00196149  0.01985997  0.00021047
   0.00310559  0.66723903  0.00010176
   0.66896270  0.32971214 -0.00003551
   0.11177047  0.22327119  0.94502802
   0.22321025  0.10664768  0.05234544
   0.11447364  0.55505004  0.94969694
   0.22291392  0.44898841  0.05100120
   0.11295424  0.89266744  0.94938623
   0.22815864  0.78035346  0.05042253
   0.44136636  0.21474713  0.94880531
   0.54982948  0.10795110  0.05094884
   0.44672107  0.56034548  0.94954426
   0.55797183  0.44828435  0.05133168
   0.44343531  0.88833304  0.95189637
   0.55416078  0.77544559  0.04841323
   0.77847324  0.22536512  0.94479144
   0.89043476  0.11098197  0.05676616
   0.77419510  0.55782957  0.94876070
   0.89008181  0.44384656  0.05194149
   0.77739959  0.88569280  0.94917916
   0.88469456  0.77802768  0.04953919
unknown system                          
           1
     8.258556    4.775606    0.000000
    -8.272607    4.799930    0.000000
     0.000000    0.000000   30.000000
   V    Mo   W    S 
   3   3   3  18
Direct configuration=    15
   0.33263138  0.66556535 -0.00012105
   0.66184727  0.65975990  0.00036027
   0.32809773 -0.00212646 -0.00028748
   0.68731650  0.01743426 -0.00023854
   0.98978893  0.31236135 -0.00009127
   0.32940286  0.32863003  0.00030613
  -0.00097604  0.01644825  0.00006774
   0.00263297  0.66843430  0.00004114
   0.66600790  0.32918311  0.00003832
   0.11155555  0.22253446  0.94524352
   0.22288097  0.10589410  0.05211222
   0.11436369  0.55492172  0.94972591
   0.22341959  0.44918167  0.05101945
   0.11374017  0.89260377  0.94927628
   0.22824196  0.78055780  0.05052917
   0.44114439  0.21447738  0.94838339
   0.54940985  0.10748937  0.05104705
   0.44739767  0.56088635  0.94991657
   0.55863943  0.45002198  0.05120487
   0.44285613  0.88788569  0.95133873
   0.55391683  0.77519262  0.04889350
   0.77801151  0.22479495  0.94511788
   0.88985354  0.11046914  0.05665518
   0.77423749  0.55827740  0.94883853
   0.88970567  0.44384625  0.05187479
   0.77692602  0.88554590  0.94838447
   0.88516446  0.77794381  0.05036314
unknown system                          
           1
     8.261160    4.777206    0.000000
    -8.275807    4.802562    0.000000
     0.000000    0.000000   30.000000
   V    Mo   W    S 
   3   3   3  18
Direct configuration=    16
   0.33258638  0.66515269 -0.00007032
   0.66047058  0.65805634  0.00033004
   0.32812385 -0.00170243 -0.00030668
   0.68812340  0.01871335 -0.00018145
   0.98957966  0.31201793 -0.00009899
   0.32876551  0.32859385  0.00027564
  -0.00033263  0.01781624  0.00015231
   0.00274553  0.66788128  0.00005776
   0.66663245  0.32881862 -0.00001540
   0.11168523  0.22281985  0.94515860
   0.22285947  0.10615285  0.05214213
   0.11428395  0.55479538  0.94981522
   0.22317094  0.44903203  0.05092305
   0.11338978  0.89275757  0.94942128
   0.22811681  0.78047693  0.05040448
   0.44128390  0.21462191  0.94848677
   0.54964805  0.10759757  0.05104469
   0.44715034  0.56069494  0.94982736
   0.55833597  0.44919685  0.05125980
   0.44326925  0.88815885  0.95163061
   0.55399169  0.77540962  0.04867635
   0.77821270  0.22509010  0.94501406
   0.89007202  0.11063865  0.05673121
   0.77408199  0.55796601  0.94886154
   0.88979920  0.44373957  0.05179691
   0.77713174  0.88567630  0.94863517
   0.88503669  0.77804156  0.05002776
unknown system                          
           1
     8.260916    4.776968    0.000000
    -8.275348    4.801951    0.000000
     0.000000    0.000000   30.000000
   V    Mo   W    S 
   3   3   3  18
Direct configuration=    17
   0.33262647  0.66491273 -0.00005413
   0.65959006  0.65687471  0.00032726
   0.32804102 -0.00152058 -0.00032194
   0.68844829  0.01937811 -0.00016969
   0.98945901  0.31192254 -0.00012153
   0.32849227  0.32867208  0.00026565
   0.00017236  0.01855358  0.00015498
   0.00274880  0.66755978  0.00004895
   0.66702447  0.32874667 -0.00003250
   0.11172448  0.22294293  0.94510123
   0.22287679  0.10629008  0.05218196
   0.11427566  0.55474652  0.94982041
   0.22304032  0.44896206  0.05091462
   0.11322513  0.89280097  0.94950924
   0.22807435  0.78047593  0.05035975
   0.44133688  0.21468965  0.94853802
   0.54974959  0.10766226  0.05106267
   0.44702965  0.56058324  0.94976613
   0.55818252  0.44882083  0.05126048
   0.44347981  0.88830207  0.95176779
   0.55405978  0.77550719  0.04856816
   0.77835117  0.22521303  0.94493770
   0.89017225  0.11077102  0.05680848
   0.77401060  0.55781959  0.94886931
   0.88984956  0.44370058  0.05179620
   0.77724234  0.88574686  0.94879253
   0.88493083  0.77808001  0.04984817
unknown system                          
           1
     8.264089    4.777102    0.000000
    -8.271840    4.790523    0.000000
     0.000000    0.000000   30.000000
   V    Mo   W    S 
   3   3   3  18
Direct configuration=    18
   0.33261283  0.66497201 -0.00005848
   0.65981506  0.65717531  0.00032933
   0.32807011 -0.00155532 -0.00032090
   0.68837489  0.01921219 -0.00017634
   0.98949261  0.31193968 -0.00011790
   0.32856391  0.32864672  0.00026864
   0.00004054  0.01836585  0.00014705
   0.00274634  0.66764954  0.00004818
   0.66691395  0.32875890 -0.00002710
   0.11171471  0.22290799  0.94511683
   0.22286913  0.10625895  0.05217221
   0.11426846  0.55474786  0.94982433
   0.22306869  0.44897433  0.05091390
   0.11325958  0.89279324  0.94949073
   0.22808107  0.78047629  0.05037120
   0.44132592  0.21467257  0.94852413
   0.54972860  0.10764665  0.05105910
   0.44705990  0.56060968  0.94978263
   0.55822068  0.44891073  0.05125853
   0.44343619  0.88827091  0.95173713
   0.55404198  0.77548667  0.04859469
   0.77832062  0.22518469  0.94495632
   0.89014766  0.11074165  0.05679879
   0.77402661  0.55785203  0.94886997
   0.88983817  0.44370991  0.05179206
   0.77722089  0.88573393  0.94875178
   0.88495535  0.77807150  0.04989311
unknown system                          
           1
     8.262937    4.775526    0.000000
    -8.268211    4.784659    0.000000
     0.000000    0.000000   30.000000
   V    Mo   W    S 
   3   3   3  18
Direct configuration=    19
   0.33248814  0.66582907 -0.00012886
   0.66249257  0.66117897  0.00037701
   0.32874318 -0.00209697 -0.00023153
   0.68788890  0.01716175 -0.00020277
   0.98956743  0.31161428 -0.00004005
   0.32992636  0.32882071  0.00033072
  -0.00239451  0.01563440  0.00014186
   0.00293473  0.66916934  0.00001116
   0.66512273  0.32852441  0.00006333
   0.11165298  0.22256053  0.94527982
   0.22276780  0.10576231  0.05191633
   0.11426389  0.55447384  0.95002007
   0.22344791  0.44922531  0.05077863
   0.11379099  0.89291258  0.94921334
   0.22836622  0.78064954  0.05050092
   0.44124106  0.21447954  0.94829833
   0.54933520  0.10732699  0.05096063
   0.44756306  0.56114000  0.95013819
   0.55886712  0.45030176  0.05117306
   0.44295440  0.88782160  0.95135664
   0.55383876  0.77512896  0.04891832
   0.77801570  0.22488735  0.94519896
   0.88985508  0.11035203  0.05664060
   0.77401705  0.55830981  0.94898347
   0.88970939  0.44374071  0.05162567
   0.77675808  0.88533426  0.94814830
   0.88500023  0.77797137  0.05052776
unknown system                          
           1
     8.263230    4.777813    0.000000
    -8.273292    4.795234    0.000000
     0.000000    0.000000   30.000000
   V    Mo   W    S 
   3   3   3  18
Direct configuration=    20
   0.33232244  0.66673621 -0.00017590
   0.66549523  0.66544506  0.00042439
   0.32935471 -0.00250182 -0.00023700
   0.68716935  0.01496678 -0.00030375
   0.98990386  0.31142636 -0.00002010
   0.33109990  0.32854483  0.00035862
  -0.00457780  0.01295713  0.00001010
   0.00316130  0.67088828 -0.00001821
   0.66320601  0.32826076  0.00011932
   0.11153708  0.22207197  0.94551682
   0.22259250  0.10532006  0.05171895
   0.11408291  0.55430130  0.95017086
   0.22376529  0.44937232  0.05070811
   0.11425869  0.89294518  0.94899441
   0.22845271  0.78069451  0.05064246
   0.44113552  0.21426781  0.94809531
   0.54908131  0.10702251  0.05091394
   0.44799379  0.56156449  0.95039116
   0.55941737  0.45148084  0.05113676
   0.44254651  0.88746962  0.95099998
   0.55360795  0.77491335  0.04925987
   0.77766838  0.22455470  0.94545966
   0.88952920  0.10995423  0.05658988
   0.77415112  0.55872239  0.94906828
   0.88957456  0.44384365  0.05147224
   0.77644269  0.88515063  0.94757130
   0.88524186  0.77784128  0.05113246
unknown system                          
           1
     8.265076    4.779618    0.000000
    -8.277103    4.800440    0.000000
     0.000000    0.000000   30.000000
   V    Mo   W    S 
   3   3   3  18
Direct configuration=    21
   0.33238599  0.66639351 -0.00011308
   0.66421193  0.66373119  0.00041903
   0.32942755 -0.00182498 -0.00032341
   0.68792769  0.01621997 -0.00026844
   0.98983325  0.31088244 -0.00005769
   0.33051205  0.32823847  0.00033114
  -0.00383150  0.01430010  0.00003158
   0.00345921  0.67098576 -0.00000026
   0.66332888  0.32761848  0.00007751
   0.11161814  0.22217238  0.94543135
   0.22245262  0.10557407  0.05176851
   0.11379977  0.55419289  0.95019875
   0.22340638  0.44909530  0.05070082
   0.11389660  0.89306123  0.94919746
   0.22816164  0.78064465  0.05054746
   0.44123786  0.21437124  0.94817181
   0.54946103  0.10708098  0.05097171
   0.44772605  0.56128144  0.95022526
   0.55905118  0.45055363  0.05115482
   0.44315862  0.88789210  0.95132328
   0.55377179  0.77529581  0.04903028
   0.77793062  0.22478728  0.94532420
   0.88972206  0.11015353  0.05678248
   0.77405035  0.55837303  0.94913137
   0.88967651  0.44384555  0.05135323
   0.77669286  0.88536447  0.94785968
   0.88514530  0.77792995  0.05073105
unknown system                          
           1
     8.267989    4.781589    0.000000
    -8.281183    4.804429    0.000000
     0.000000    0.000000   30.000000
   V    Mo   W    S 
   3   3   3  18
Direct configuration=    22
   0.33229869  0.66586070 -0.00009389
   0.66279883  0.66200526  0.00038478
   0.32965871 -0.00117435 -0.00030084
   0.68881308  0.01755757 -0.00021665
   0.98982459  0.31027762 -0.00005226
   0.33014243  0.32820487  0.00032774
  -0.00325127  0.01550165  0.00009028
   0.00394867  0.67134606 -0.00000378
   0.66309431  0.32675287  0.00008313
   0.11173639  0.22223011  0.94531633
   0.22235671  0.10577955  0.05180837
   0.11362186  0.55408015  0.95028998
   0.22315872  0.44890731  0.05065605
   0.11366640  0.89326079  0.94929511
   0.22802597  0.78074296  0.05045956
   0.44127295  0.21443734  0.94814412
   0.54970606  0.10709076  0.05103137
   0.44741305  0.56100097  0.95015209
   0.55872818  0.44981424  0.05113992
   0.44369268  0.88818357  0.95160209
   0.55382246  0.77555270  0.04883795
   0.77821059  0.22498184  0.94522274
   0.88993301  0.11036837  0.05691390
   0.77391464  0.55803039  0.94923198
   0.88979407  0.44388006  0.05114841
   0.77687151  0.88551106  0.94807577
   0.88496116  0.77803004  0.05045564
unknown system                          
           1
     8.268458    4.781972    0.000000
    -8.282967    4.807088    0.000000
     0.000000    0.000000   30.000000
   V    Mo   W    S 
   3   3   3  18
Direct configuration=    23
   0.33218805  0.66563214 -0.00009454
   0.66231424  0.66151091  0.00036827
   0.33000937 -0.00067477 -0.00029080
   0.68931357  0.01811930 -0.00020103
   0.98996906  0.30971169 -0.00007621
   0.33021132  0.32808654  0.00031076
  -0.00330987  0.01570540  0.00009964
   0.00458860  0.67250627 -0.00001421
   0.66212370  0.32572818  0.00006791
   0.11180811  0.22216828  0.94526498
   0.22227914  0.10580953  0.05181179
   0.11341251  0.55391211  0.95038628
   0.22304374  0.44878484  0.05063856
   0.11372939  0.89351946  0.94929751
   0.22801493  0.78092074  0.05044235
   0.44123631  0.21439237  0.94806030
   0.54976413  0.10695183  0.05110412
   0.44725459  0.56085335  0.95013862
   0.55861478  0.44954835  0.05113843
   0.44402512  0.88838026  0.95174484
   0.55383819  0.77568569  0.04876637
   0.77839822  0.22510302  0.94521038
   0.89002584  0.11044222  0.05702606
   0.77380807  0.55785151  0.94934857
   0.88985996  0.44393888  0.05092239
   0.77690814  0.88557367  0.94812949
   0.88478523  0.77805270  0.05039907
unknown system                          
           1
     8.268738    4.782120    0.000000
    -8.283044    4.806886    0.000000
     0.000000    0.000000   30.000000
   V    Mo   W    S 
   3   3   3  18
Direct configuration=    24
   0.33221050  0.66530218 -0.00008387
   0.66125159  0.66003358  0.00035235
   0.32979432 -0.00057298 -0.00029283
   0.68946938  0.01880228 -0.00019068
   0.98993418  0.30978907 -0.00011372
   0.32992696  0.32822739  0.00028617
  -0.00257937  0.01647412  0.00010187
   0.00468948  0.67228174 -0.00000873
   0.66252730  0.32565132  0.00002930
   0.11183442  0.22231232  0.94520386
   0.22237754  0.10594749  0.05188886
   0.11348149  0.55396628  0.95034446
   0.22296331  0.44875717  0.05067645
   0.11368121  0.89356684  0.94934653
   0.22804789  0.78094491  0.05040766
   0.44124078  0.21443700  0.94811262
   0.54978565  0.10700611  0.05114670
   0.44709328  0.56071421  0.95004656
   0.55844865  0.44918986  0.05116807
   0.44414219  0.88849280  0.95185941