       N       E                     dE             d eps       ncg     rms          rms(c)
DAV:   1     0.112372782984E+04    0.11237E+04   -0.35864E+04  8160   0.577E+02
DAV:   2    -0.492225506158E+01   -0.11287E+04   -0.10877E+04 11440   0.173E+02
DAV:   3    -0.199956137878E+03   -0.19503E+03   -0.18763E+03 10880   0.818E+01
DAV:   4    -0.208922616524E+03   -0.89665E+01   -0.87245E+01 12160   0.260E+01
DAV:   5    -0.209220373280E+03   -0.29776E+00   -0.29699E+00 11160   0.353E+00    0.274E+01
DAV:   6    -0.236284403801E+03   -0.27064E+02   -0.11194E+02 12800   0.601E+01    0.592E+01
DAV:   7    -0.196851967334E+03    0.39432E+02   -0.17547E+02 13360   0.151E+02    0.206E+01
DAV:   8    -0.190316999493E+03    0.65350E+01   -0.21230E+01 12000   0.135E+01    0.140E+01
DAV:   9    -0.188298665979E+03    0.20183E+01   -0.37559E+00 12080   0.646E+00    0.936E+00
DAV:  10    -0.187095818414E+03    0.12028E+01   -0.17508E+00 13360   0.773E+00    0.320E+00
DAV:  11    -0.187019892516E+03    0.75926E-01   -0.64071E-01 12360   0.243E+00    0.252E+00
DAV:  12    -0.187046366668E+03   -0.26474E-01   -0.51571E-01 12480   0.365E+00    0.370E+00
DAV:  13    -0.186924337114E+03    0.12203E+00   -0.27758E-01 13200   0.326E+00    0.177E+00
DAV:  14    -0.186895838710E+03    0.28498E-01   -0.90526E-02 12840   0.169E+00    0.909E-01
DAV:  15    -0.186892558344E+03    0.32804E-02   -0.32657E-02 12560   0.969E-01    0.842E-01
DAV:  16    -0.186887540483E+03    0.50179E-02   -0.12421E-02 13360   0.574E-01    0.395E-01
DAV:  17    -0.186885933279E+03    0.16072E-02   -0.68452E-03 12720   0.319E-01    0.208E-01
DAV:  18    -0.186885102920E+03    0.83036E-03   -0.22194E-03 12280   0.165E-01    0.175E-01
DAV:  19    -0.186884914551E+03    0.18837E-03   -0.86427E-04 11240   0.146E-01    0.486E-02
DAV:  20    -0.186885758276E+03   -0.84373E-03   -0.80182E-04  9040   0.591E-02    0.464E-02
DAV:  21    -0.186886614285E+03   -0.85601E-03   -0.24116E-04  8120   0.515E-02    0.346E-02
DAV:  22    -0.186887428750E+03   -0.81446E-03   -0.11722E-04  7160   0.314E-02    0.365E-02
DAV:  23    -0.186888634966E+03   -0.12062E-02   -0.14399E-04  7520   0.455E-02    0.207E-02
DAV:  24    -0.186889179907E+03   -0.54494E-03   -0.28433E-05  6760   0.221E-02    0.480E-03
DAV:  25    -0.186889567438E+03   -0.38753E-03   -0.18685E-05  5480   0.964E-03    0.465E-03
DAV:  26    -0.186889805786E+03   -0.23835E-03   -0.90975E-06  6800   0.765E-03    0.157E-03
DAV:  27    -0.186889885876E+03   -0.80090E-04   -0.29983E-06  7480   0.380E-03
   1 F= -.18688989E+03 E0= -.18671860E+03  d E =-.186890E+03
       N       E                     dE             d eps       ncg     rms          rms(c)
DAV:   1    -0.187544141023E+03   -0.65434E+00   -0.27361E+02  8160   0.352E+01    0.466E+00
DAV:   2    -0.189533187208E+03   -0.19890E+01   -0.20374E+01 12360   0.156E+01    0.942E+00
DAV:   3    -0.189376949743E+03    0.15624E+00   -0.42516E+00 12400   0.123E+01    0.643E+00
DAV:   4    -0.188803969222E+03    0.57298E+00   -0.61054E-01 12440   0.452E+00    0.181E+00
DAV:   5    -0.188953489671E+03   -0.14952E+00   -0.51622E-01 12440   0.361E+00    0.591E+00
DAV:   6    -0.188772240160E+03    0.18125E+00   -0.85935E-01 12760   0.447E+00    0.201E+00
DAV:   7    -0.188743715497E+03    0.28525E-01   -0.14450E-01 11000   0.142E+00    0.126E+00
DAV:   8    -0.188719735426E+03    0.23980E-01   -0.54879E-02 12080   0.938E-01    0.762E-01
DAV:   9    -0.188716985485E+03    0.27499E-02   -0.13365E-02 11440   0.647E-01    0.436E-01
DAV:  10    -0.188715880634E+03    0.11049E-02   -0.39621E-03 13520   0.296E-01    0.203E-01
DAV:  11    -0.188715254538E+03    0.62610E-03   -0.23130E-03 12000   0.158E-01    0.103E-01
DAV:  12    -0.188715402862E+03   -0.14832E-03   -0.76119E-04 10680   0.814E-02    0.812E-02
DAV:  13    -0.188715339701E+03    0.63160E-04   -0.24184E-04  8160   0.588E-02
   2 F= -.18871534E+03 E0= -.18857570E+03  d E =-.182545E+01
       N       E                     dE             d eps       ncg     rms          rms(c)
DAV:   1    -0.190640336333E+03   -0.19249E+01   -0.31519E+01  9040   0.143E+01    0.441E+00
DAV:   2    -0.190558023766E+03    0.82313E-01   -0.27336E+00 11120   0.924E+00    0.702E+00
DAV:   3    -0.190133283389E+03    0.42474E+00   -0.13597E+00 12320   0.853E+00    0.426E+00
DAV:   4    -0.189920522825E+03    0.21276E+00   -0.75789E-01 12760   0.436E+00    0.251E+00
DAV:   5    -0.189895730880E+03    0.24792E-01   -0.37369E-01 12240   0.306E+00    0.277E+00
DAV:   6    -0.189823609861E+03    0.72121E-01   -0.14977E-01 12520   0.246E+00    0.808E-01
DAV:   7    -0.189815805345E+03    0.78045E-02   -0.16318E-02 11600   0.588E-01    0.237E-01
DAV:   8    -0.189816861578E+03   -0.10562E-02   -0.48693E-03 12360   0.391E-01    0.406E-01
DAV:   9    -0.189815659802E+03    0.12018E-02   -0.26111E-03 11200   0.326E-01    0.120E-01
DAV:  10    -0.189815988430E+03   -0.32863E-03   -0.76313E-04  9760   0.103E-01    0.114E-01
DAV:  11    -0.189815765810E+03    0.22262E-03   -0.38771E-04  9000   0.672E-02    0.234E-02
DAV:  12    -0.189815786215E+03   -0.20405E-04   -0.65080E-05  6840   0.271E-02
   3 F= -.18981579E+03 E0= -.18969624E+03  d E =-.110045E+01
       N       E                     dE             d eps       ncg     rms          rms(c)
DAV:   1    -0.191420055994E+03   -0.16043E+01   -0.82671E+01  8160   0.207E+01    0.460E+00
DAV:   2    -0.191226543302E+03    0.19351E+00   -0.54642E+00 13160   0.748E+00    0.438E+00
DAV:   3    -0.191378821215E+03   -0.15228E+00   -0.16074E+00 12240   0.896E+00    0.657E+00
DAV:   4    -0.190997664232E+03    0.38116E+00   -0.13848E+00 12400   0.778E+00    0.295E+00
DAV:   5    -0.190905943402E+03    0.91721E-01   -0.36851E-01 12360   0.316E+00    0.221E+00
DAV:   6    -0.190873680059E+03    0.32263E-01   -0.19610E-01 12400   0.290E+00    0.176E+00
DAV:   7    -0.190847373959E+03    0.26306E-01   -0.68623E-02 12640   0.151E+00    0.421E-01
DAV:   8    -0.190844676543E+03    0.26974E-02   -0.68289E-03 10200   0.329E-01    0.154E-01
DAV:   9    -0.190845456152E+03   -0.77961E-03   -0.22519E-03 12640   0.283E-01    0.293E-01
DAV:  10    -0.190845060002E+03    0.39615E-03   -0.23872E-03 10560   0.319E-01    0.161E-01
DAV:  11    -0.190844796032E+03    0.26397E-03   -0.74387E-04  9920   0.138E-01    0.476E-02
DAV:  12    -0.190844801296E+03   -0.52644E-05   -0.11124E-04  6600   0.429E-02
   4 F= -.19084480E+03 E0= -.19073676E+03  d E =-.102902E+01
       N       E                     dE             d eps       ncg     rms          rms(c)
DAV:   1    -0.192150685298E+03   -0.13059E+01   -0.17645E+02  8160   0.294E+01    0.552E+00
DAV:   2    -0.191934137986E+03    0.21655E+00   -0.93616E+00 10880   0.778E+00    0.343E+00
DAV:   3    -0.191798421795E+03    0.13572E+00   -0.14731E+00 11720   0.602E+00    0.360E+00
DAV:   4    -0.191826948118E+03   -0.28526E-01   -0.10662E+00 12400   0.748E+00    0.437E+00
DAV:   5    -0.191556372056E+03    0.27058E+00   -0.44551E-01 12360   0.459E+00    0.838E-01
DAV:   6    -0.191546766483E+03    0.96056E-02   -0.82947E-02 11640   0.120E+00    0.590E-01
DAV:   7    -0.191552395135E+03   -0.56287E-02   -0.40644E-02 12040   0.123E+00    0.111E+00
DAV:   8    -0.191541492907E+03    0.10902E-01   -0.20627E-02 11640   0.909E-01    0.177E-01
DAV:   9    -0.191542364696E+03   -0.87179E-03   -0.33122E-03 11520   0.305E-01    0.304E-01
DAV:  10    -0.191541798898E+03    0.56580E-03   -0.33255E-03 11720   0.364E-01    0.174E-01
DAV:  11    -0.191541554201E+03    0.24470E-03   -0.96009E-04 10040   0.162E-01    0.546E-02
DAV:  12    -0.191541520689E+03    0.33512E-04   -0.12085E-04  6480   0.458E-02
   5 F= -.19154152E+03 E0= -.19143076E+03  d E =-.696719E+00
       N       E                     dE             d eps       ncg     rms          rms(c)
DAV:   1    -0.191618552732E+03   -0.76999E-01   -0.58938E+00  8160   0.512E+00    0.657E-01
DAV:   2    -0.191676292196E+03   -0.57739E-01   -0.30625E-01 13600   0.287E+00    0.215E+00
DAV:   3    -0.191631661658E+03    0.44631E-01   -0.10860E-01 12440   0.215E+00    0.486E-01
DAV:   4    -0.191634493846E+03   -0.28322E-02   -0.22867E-02 10240   0.945E-01    0.773E-01
DAV:   5    -0.191628415797E+03    0.60780E-02   -0.13540E-02 11320   0.748E-01    0.235E-01
DAV:   6    -0.191629521448E+03   -0.11057E-02   -0.59123E-03 11160   0.426E-01    0.432E-01
DAV:   7    -0.191628194864E+03    0.13266E-02   -0.53743E-03 11160   0.472E-01    0.210E-01
DAV:   8    -0.191627686995E+03    0.50787E-03   -0.10193E-03  9920   0.169E-01    0.338E-02
DAV:   9    -0.191627699911E+03   -0.12916E-04   -0.10505E-04  6560   0.346E-02
   6 F= -.19162770E+03 E0= -.19151609E+03  d E =-.861792E-01
       N       E                     dE             d eps       ncg     rms          rms(c)
DAV:   1    -0.191697453815E+03   -0.69767E-01   -0.47761E+00  8160   0.460E+00    0.510E-01
DAV:   2    -0.191730251113E+03   -0.32797E-01   -0.16257E-01 12760   0.187E+00    0.168E+00
DAV:   3    -0.191703776758E+03    0.26474E-01   -0.72910E-02 12520   0.170E+00    0.444E-01
DAV:   4    -0.191704509360E+03   -0.73260E-03   -0.13477E-02 11280   0.705E-01    0.533E-01
DAV:   5    -0.191701594376E+03    0.29150E-02   -0.69920E-03 11360   0.565E-01    0.187E-01
DAV:   6    -0.191701871564E+03   -0.27719E-03   -0.30130E-03 11120   0.301E-01    0.284E-01
DAV:   7    -0.191701574027E+03    0.29754E-03   -0.31941E-03 10000   0.364E-01    0.215E-01
DAV:   8    -0.191701088011E+03    0.48602E-03   -0.88632E-04  8680   0.174E-01    0.241E-02
DAV:   9    -0.191701110754E+03   -0.22743E-04   -0.81427E-05  6000   0.312E-02
   7 F= -.19170111E+03 E0= -.19158983E+03  d E =-.734108E-01
       N       E                     dE             d eps       ncg     rms          rms(c)
DAV:   1    -0.191756796140E+03   -0.55708E-01   -0.28541E+00  8160   0.359E+00    0.451E-01
DAV:   2    -0.191786302868E+03   -0.29507E-01   -0.12934E-01 12040   0.193E+00    0.167E+00
DAV:   3    -0.191760440484E+03    0.25862E-01   -0.62110E-02 12400   0.157E+00    0.324E-01
DAV:   4    -0.191761486799E+03   -0.10463E-02   -0.91121E-03 11320   0.616E-01    0.467E-01
DAV:   5    -0.191759222568E+03    0.22642E-02   -0.55024E-03 10920   0.501E-01    0.180E-01
DAV:   6    -0.191759702808E+03   -0.48024E-03   -0.29720E-03 11680   0.322E-01    0.313E-01
DAV:   7    -0.191759015118E+03    0.68769E-03   -0.24782E-03  9880   0.322E-01    0.127E-01
DAV:   8    -0.191758802046E+03    0.21307E-03   -0.40587E-04  8040   0.103E-01    0.170E-02
DAV:   9    -0.191758813266E+03   -0.11220E-04   -0.54358E-05  6800   0.252E-02
   8 F= -.19175881E+03 E0= -.19164857E+03  d E =-.577025E-01
       N       E                     dE             d eps       ncg     rms          rms(c)
DAV:   1    -0.191888308336E+03   -0.12951E+00   -0.24029E+01  8160   0.104E+01    0.121E+00
DAV:   2    -0.192094699498E+03   -0.20639E+00   -0.94892E-01 11600   0.487E+00    0.454E+00
DAV:   3    -0.191924270976E+03    0.17043E+00   -0.50496E-01 12360   0.431E+00    0.911E-01
DAV:   4    -0.191933129339E+03   -0.88584E-02   -0.65571E-02 12120   0.164E+00    0.146E+00
DAV:   5    -0.191913441058E+03    0.19688E-01   -0.47443E-02 11560   0.143E+00    0.569E-01
DAV:   6    -0.191914572209E+03   -0.11312E-02   -0.16970E-02 11680   0.884E-01    0.687E-01
DAV:   7    -0.191910926084E+03    0.36461E-02   -0.13995E-02 11520   0.866E-01    0.306E-01
DAV:   8    -0.191909321762E+03    0.16043E-02   -0.27067E-03 10960   0.283E-01    0.497E-02
DAV:   9    -0.191909348689E+03   -0.26928E-04   -0.37828E-04  9560   0.586E-02
   9 F= -.19190935E+03 E0= -.19180450E+03  d E =-.150535E+00
       N       E                     dE             d eps       ncg     rms          rms(c)
DAV:   1    -0.191965716360E+03   -0.56395E-01   -0.46362E+00  8160   0.462E+00    0.644E-01
DAV:   2    -0.192010493844E+03   -0.44777E-01   -0.22677E-01 12200   0.241E+00    0.211E+00
DAV:   3    -0.191971847112E+03    0.38647E-01   -0.97303E-02 12280   0.204E+00    0.467E-01
DAV:   4    -0.191974347352E+03   -0.25002E-02   -0.17126E-02 12240   0.899E-01    0.759E-01
DAV:   5    -0.191969354764E+03    0.49926E-02   -0.14608E-02 11080   0.822E-01    0.383E-01
DAV:   6    -0.191969860248E+03   -0.50548E-03   -0.64233E-03 11480   0.566E-01    0.437E-01
DAV:   7    -0.191968045971E+03    0.18143E-02   -0.40106E-03 11320   0.453E-01    0.965E-02
DAV:   8    -0.191967884373E+03    0.16160E-03   -0.40120E-04  9160   0.902E-02    0.269E-02
DAV:   9    -0.191967877558E+03    0.68144E-05   -0.67610E-05  8160   0.281E-02
  10 F= -.19196788E+03 E0= -.19186497E+03  d E =-.585289E-01
       N       E                     dE             d eps       ncg     rms          rms(c)
DAV:   1    -0.192029767818E+03   -0.61883E-01   -0.99212E+00  8160   0.664E+00    0.721E-01
DAV:   2    -0.192091065142E+03   -0.61297E-01   -0.32645E-01 11840   0.264E+00    0.231E+00
DAV:   3    -0.192045381673E+03    0.45683E-01   -0.12123E-01 12360   0.232E+00    0.582E-01
DAV:   4    -0.192048726383E+03   -0.33447E-02   -0.20241E-02 11320   0.937E-01    0.912E-01
DAV:   5    -0.192041354679E+03    0.73717E-02   -0.15426E-02 10800   0.873E-01    0.306E-01
DAV:   6    -0.192041345956E+03    0.87231E-05   -0.42365E-03 12200   0.360E-01    0.259E-01
DAV:   7    -0.192040792094E+03    0.55386E-03   -0.28839E-03 11920   0.413E-01    0.186E-01
DAV:   8    -0.192040339583E+03    0.45251E-03   -0.79348E-04  9800   0.204E-01    0.334E-02
DAV:   9    -0.192040337317E+03    0.22659E-05   -0.11217E-04  6640   0.410E-02
  11 F= -.19204034E+03 E0= -.19194074E+03  d E =-.724598E-01
       N       E                     dE             d eps       ncg     rms          rms(c)
DAV:   1    -0.192058932528E+03   -0.18593E-01   -0.79197E-01  8160   0.189E+00    0.205E-01
DAV:   2    -0.192060374625E+03   -0.14421E-02   -0.21146E-02 13520   0.513E-01    0.279E-01
DAV:   3    -0.192060066031E+03    0.30859E-03   -0.37035E-03 12360   0.446E-01    0.236E-01
DAV:   4    -0.192059615462E+03    0.45057E-03   -0.16898E-03  9920   0.285E-01    0.166E-01
DAV:   5    -0.192059534662E+03    0.80800E-04   -0.11925E-03  9920   0.259E-01    0.152E-01
DAV:   6    -0.192059369383E+03    0.16528E-03   -0.70325E-04  8920   0.179E-01    0.923E-02
DAV:   7    -0.192059381179E+03   -0.11797E-04   -0.41665E-04  8600   0.145E-01
  12 F= -.19205938E+03 E0= -.19196068E+03  d E =-.190439E-01
       N       E                     dE             d eps       ncg     rms          rms(c)
DAV:   1    -0.192093033108E+03   -0.33664E-01   -0.23078E+00  8160   0.321E+00    0.330E-01
DAV:   2    -0.192100079148E+03   -0.70460E-02   -0.61488E-02 11600   0.957E-01    0.688E-01
DAV:   3    -0.192096333680E+03    0.37455E-02   -0.14068E-02 12480   0.845E-01    0.322E-01
DAV:   4    -0.192095691749E+03    0.64193E-03   -0.31443E-03 11520   0.383E-01    0.246E-01
DAV:   5    -0.192095412038E+03    0.27971E-03   -0.24438E-03 10720   0.377E-01    0.222E-01
DAV:   6    -0.192095543097E+03   -0.13106E-03   -0.19834E-03 10000   0.299E-01    0.248E-01
DAV:   7    -0.192095041353E+03    0.50174E-03   -0.12168E-03  9920   0.267E-01    0.869E-02
DAV:   8    -0.192094936841E+03    0.10451E-03   -0.15534E-04  6080   0.809E-02    0.148E-02
DAV:   9    -0.192094939813E+03   -0.29718E-05   -0.54437E-05  7520   0.238E-02
  13 F= -.19209494E+03 E0= -.19199803E+03  d E =-.355586E-01
       N       E                     dE             d eps       ncg     rms          rms(c)
DAV:   1    -0.192119332976E+03   -0.24396E-01   -0.10898E+00  8160   0.221E+00    0.210E-01
DAV:   2    -0.192121170053E+03   -0.18371E-02   -0.25150E-02 11840   0.477E-01    0.266E-01
DAV:   3    -0.192121484470E+03   -0.31442E-03   -0.42892E-03 12520   0.477E-01    0.331E-01
DAV:   4    -0.192120531366E+03    0.95310E-03   -0.19039E-03 10200   0.312E-01    0.146E-01
DAV:   5    -0.192120608280E+03   -0.76913E-04   -0.11083E-03  9760   0.231E-01    0.183E-01
DAV:   6    -0.192120381489E+03    0.22679E-03   -0.80336E-04  9120   0.189E-01    0.751E-02
DAV:   7    -0.192120358062E+03    0.23427E-04   -0.25661E-04  7800   0.117E-01
  14 F= -.19212036E+03 E0= -.19202521E+03  d E =-.254182E-01
       N       E                     dE             d eps       ncg     rms          rms(c)
DAV:   1    -0.192109844282E+03    0.10537E-01   -0.19644E-01  8160   0.952E-01    0.109E-01
DAV:   2    -0.192110669447E+03   -0.82516E-03   -0.61861E-03 11840   0.323E-01    0.252E-01
DAV:   3    -0.192110139813E+03    0.52963E-03   -0.16370E-03 10200   0.290E-01    0.114E-01
DAV:   4    -0.192110205301E+03   -0.65488E-04   -0.53553E-04  8320   0.167E-01
  15 F= -.19211021E+03 E0= -.19201390E+03  d E =0.101528E-01
       N       E                     dE             d eps       ncg     rms          rms(c)
DAV:   1    -0.192092363483E+03    0.17776E-01   -0.75233E-01  8160   0.187E+00    0.227E-01
DAV:   2    -0.192094090065E+03   -0.17266E-02   -0.20289E-02 12320   0.516E-01    0.396E-01
DAV:   3    -0.192093513115E+03    0.57695E-03   -0.62444E-03 11960   0.525E-01    0.313E-01
DAV:   4    -0.192092833061E+03    0.68005E-03   -0.22162E-03 10280   0.304E-01    0.185E-01
DAV:   5    -0.192092778670E+03    0.54391E-04   -0.14385E-03  9960   0.283E-01    0.185E-01
DAV:   6    -0.192092507102E+03    0.27157E-03   -0.83538E-04  9040   0.198E-01    0.825E-02
DAV:   7    -0.192092493311E+03    0.13790E-04   -0.33578E-04  8880   0.144E-01
  16 F= -.19209249E+03 E0= -.19199482E+03  d E =0.177120E-01
       N       E                     dE             d eps       ncg     rms          rms(c)
DAV:   1    -0.192126735580E+03   -0.34228E-01   -0.28378E+00  8160   0.355E+00    0.330E-01
DAV:   2    -0.192131348125E+03   -0.46125E-02   -0.70958E-02 12040   0.747E-01    0.276E-01
DAV:   3    -0.192133429959E+03   -0.20818E-02   -0.91076E-03 11320   0.661E-01    0.552E-01
DAV:   4    -0.192130437041E+03    0.29929E-02   -0.49041E-03 10800   0.531E-01    0.195E-01
DAV:   5    -0.192130846767E+03   -0.40973E-03   -0.23721E-03  9640   0.355E-01    0.296E-01
DAV:   6    -0.192130238914E+03    0.60785E-03   -0.20832E-03  9840   0.309E-01    0.147E-01
DAV:   7    -0.192130173500E+03    0.65413E-04   -0.86540E-04  9560   0.229E-01
  17 F= -.19213017E+03 E0= -.19203445E+03  d E =-.376802E-01
       N       E                     dE             d eps       ncg     rms          rms(c)
DAV:   1    -0.192138152547E+03   -0.79136E-02   -0.11590E-01  8160   0.749E-01    0.919E-02
DAV:   2    -0.192138366971E+03   -0.21442E-03   -0.37357E-03 11640   0.196E-01    0.117E-01
DAV:   3    -0.192138430515E+03   -0.63543E-04   -0.83067E-04 10720   0.206E-01
  18 F= -.19213843E+03 E0= -.19204351E+03  d E =-.825701E-02
       N       E                     dE             d eps       ncg     rms          rms(c)
DAV:   1    -0.192118618827E+03    0.19748E-01   -0.69115E-01  8160   0.179E+00    0.230E-01
DAV:   2    -0.192127263640E+03   -0.86448E-02   -0.28920E-02 12640   0.942E-01    0.935E-01
DAV:   3    -0.192119202644E+03    0.80610E-02   -0.11723E-02 11240   0.797E-01    0.142E-01
DAV:   4    -0.192119816692E+03   -0.61405E-03   -0.20351E-03 10000   0.321E-01    0.289E-01
DAV:   5    -0.192118984878E+03    0.83181E-03   -0.13942E-03  9520   0.285E-01    0.719E-02
DAV:   6    -0.192119011844E+03   -0.26967E-04   -0.32442E-04  8160   0.108E-01
  19 F= -.19211901E+03 E0= -.19202250E+03  d E =0.194187E-01
       N       E                     dE             d eps       ncg     rms          rms(c)
DAV:   1    -0.192126936211E+03   -0.79513E-02   -0.31511E-01  8160   0.122E+00    0.228E-01
DAV:   2    -0.192130118032E+03   -0.31818E-02   -0.18986E-02 10760   0.773E-01    0.610E-01
DAV:   3    -0.192126913243E+03    0.32048E-02   -0.77886E-03 11280   0.644E-01    0.234E-01
DAV:   4    -0.192127095711E+03   -0.18247E-03   -0.27287E-03 10120   0.378E-01    0.286E-01
DAV:   5    -0.192126291012E+03    0.80470E-03   -0.16817E-03  9560   0.302E-01    0.998E-02
DAV:   6    -0.192126198420E+03    0.92592E-04   -0.57804E-04  9360   0.130E-01
  20 F= -.19212620E+03 E0= -.19202978E+03  d E =-.718658E-02
       N       E                     dE             d eps       ncg     rms          rms(c)
DAV:   1    -0.192158166924E+03   -0.31876E-01   -0.22164E+00  8160   0.316E+00    0.327E-01
DAV:   2    -0.192165336640E+03   -0.71697E-02   -0.61831E-02 11840   0.971E-01    0.725E-01
DAV:   3    -0.192161932159E+03    0.34045E-02   -0.13321E-02 12400   0.824E-01    0.371E-01
DAV:   4    -0.192161141874E+03    0.79029E-03   -0.37697E-03 10960   0.402E-01    0.274E-01
DAV:   5    -0.192160780992E+03    0.36088E-03   -0.25030E-03 10400   0.393E-01    0.217E-01
DAV:   6    -0.192160447814E+03    0.33318E-03   -0.13297E-03 11400   0.242E-01    0.107E-01
DAV:   7    -0.192160427883E+03    0.19931E-04   -0.59671E-04  9320   0.197E-01
  21 F= -.19216043E+03 E0= -.19206597E+03  d E =-.342295E-01
       N       E                     dE             d eps       ncg     rms          rms(c)
DAV:   1    -0.192175202513E+03   -0.14755E-01   -0.42663E-01  8160   0.139E+00    0.148E-01
DAV:   2    -0.192176077192E+03   -0.87468E-03   -0.11994E-02 11560   0.328E-01    0.190E-01
DAV:   3    -0.192176359534E+03   -0.28234E-03   -0.23086E-03 12160   0.341E-01    0.268E-01
DAV:   4    -0.192175757043E+03    0.60249E-03   -0.11291E-03  9440   0.233E-01    0.820E-02
DAV:   5    -0.192175758625E+03   -0.15823E-05   -0.32494E-04  8040   0.123E-01
  22 F= -.19217576E+03 E0= -.19208234E+03  d E =-.153307E-01
       N       E                     dE             d eps       ncg     rms          rms(c)
DAV:   1    -0.192151668765E+03    0.24088E-01   -0.94249E-01  8160   0.207E+00    0.231E-01
DAV:   2    -0.192156807542E+03   -0.51388E-02   -0.30342E-02 12280   0.770E-01    0.656E-01
DAV:   3    -0.192153207399E+03    0.36001E-02   -0.97271E-03 11280   0.693E-01    0.232E-01
DAV:   4    -0.192153237858E+03   -0.30458E-04   -0.21777E-03  9840   0.304E-01    0.258E-01
DAV:   5    -0.192152689290E+03    0.54857E-03   -0.13290E-03  9560   0.280E-01    0.118E-01
DAV:   6    -0.192152555565E+03    0.13373E-03   -0.45578E-04  9680   0.121E-01    0.508E-02
DAV:   7    -0.192152529766E+03    0.25799E-04   -0.12617E-04  6760   0.546E-02
  23 F= -.19215253E+03 E0= -.19205779E+03  d E =0.232289E-01
       N       E                     dE             d eps       ncg     rms          rms(c)
DAV:   1    -0.192130159280E+03    0.22396E-01   -0.12609E+00  8160   0.243E+00    0.309E-01
DAV:   2    -0.192135151313E+03   -0.49920E-02   -0.41414E-02 12000   0.799E-01    0.649E-01
DAV:   3    -0.192132353323E+03    0.27980E-02   -0.13325E-02 11760   0.796E-01    0.364E-01
DAV:   4    -0.192132136386E+03    0.21694E-03   -0.42353E-03 11400   0.432E-01    0.356E-01
DAV:   5    -0.192130998352E+03    0.11380E-02   -0.25003E-03 10160   0.372E-01    0.143E-01
DAV:   6    -0.192131056322E+03   -0.57970E-04   -0.97603E-04 10080   0.212E-01
  24 F= -.19213106E+03 E0= -.19203451E+03  d E =0.214734E-01
       N       E                     dE             d eps       ncg     rms          rms(c)
DAV:   1    -0.192170189306E+03   -0.39191E-01   -0.33436E+00  8160   0.394E+00    0.495E-01
DAV:   2    -0.192180451370E+03   -0.10262E-01   -0.11594E-01 11480   0.138E+00    0.856E-01
DAV:   3    -0.192175840828E+03    0.46105E-02   -0.25860E-02 12240   0.121E+00    0.584E-01
DAV:   4    -0.192175815423E+03    0.25405E-04   -0.13886E-02 11640   0.825E-01    0.644E-01
DAV:   5    -0.192172018039E+03    0.37974E-02   -0.74335E-03 11280   0.667E-01    0.237E-01
DAV:   6    -0.192171550728E+03    0.46731E-03   -0.28141E-03 10600   0.300E-01    0.142E-01
DAV:   7    -0.192171623636E+03   -0.72908E-04   -0.13173E-03 11080   0.275E-01    0.192E-01
DAV:   8    -0.192171227484E+03    0.39615E-03   -0.58499E-04  8520   0.193E-01    0.347E-02
DAV:   9    -0.192171218218E+03    0.92659E-05   -0.51707E-05  5800   0.350E-02
  25 F= -.19217122E+03 E0= -.19207704E+03  d E =-.401619E-01
       N       E                     dE             d eps       ncg     rms          rms(c)
DAV:   1    -0.192182646758E+03   -0.11419E-01   -0.30754E-01  8160   0.118E+00    0.131E-01
DAV:   2    -0.192183655676E+03   -0.10089E-02   -0.10169E-02 11080   0.387E-01    0.250E-01
DAV:   3    -0.192183334154E+03    0.32152E-03   -0.20171E-03 11480   0.324E-01    0.177E-01
DAV:   4    -0.192183148038E+03    0.18612E-03   -0.74572E-04  8200   0.194E-01    0.112E-01
DAV:   5    -0.192183067700E+03    0.80338E-04   -0.39495E-04  8640   0.164E-01
  26 F= -.19218307E+03 E0= -.19208986E+03  d E =-.118495E-01
       N       E                     dE             d eps       ncg     rms          rms(c)
DAV:   1    -0.192215212520E+03   -0.32064E-01   -0.21421E+00  8160   0.313E+00    0.338E-01
DAV:   2    -0.192221520196E+03   -0.63077E-02   -0.60583E-02 11680   0.872E-01    0.653E-01
DAV:   3    -0.192219156050E+03    0.23641E-02   -0.12598E-02 12360   0.805E-01    0.417E-01
DAV:   4    -0.192217477434E+03    0.16786E-02   -0.29399E-03 11080   0.357E-01    0.144E-01
DAV:   5    -0.192217937176E+03   -0.45974E-03   -0.17983E-03 11880   0.334E-01    0.254E-01
DAV:   6    -0.192217359119E+03    0.57806E-03   -0.15159E-03 10440   0.305E-01    0.107E-01
DAV:   7    -0.192217270537E+03    0.88582E-04   -0.40137E-04  8760   0.154E-01
  27 F= -.19221727E+03 E0= -.19212673E+03  d E =-.342028E-01
       N       E                     dE             d eps       ncg     rms          rms(c)
DAV:   1    -0.192220778436E+03   -0.34193E-02   -0.20604E-02  8160   0.321E-01    0.504E-02
DAV:   2    -0.192220936688E+03   -0.15825E-03   -0.10043E-03 11520   0.143E-01    0.123E-01
DAV:   3    -0.192220804482E+03    0.13221E-03   -0.36405E-04  8680   0.144E-01    0.557E-02
DAV:   4    -0.192220805096E+03   -0.61327E-06   -0.89126E-05  6080   0.721E-02
  28 F= -.19222081E+03 E0= -.19213058E+03  d E =-.353456E-02
       N       E                     dE             d eps       ncg     rms          rms(c)
DAV:   1    -0.192264291642E+03   -0.43487E-01   -0.32706E+00  8160   0.391E+00    0.465E-01
DAV:   2    -0.192276174401E+03   -0.11883E-01   -0.10177E-01 11600   0.127E+00    0.948E-01
DAV:   3    -0.192269575630E+03    0.65988E-02   -0.23852E-02 12360   0.116E+00    0.513E-01
DAV:   4    -0.192267756256E+03    0.18194E-02   -0.64202E-03 12240   0.543E-01    0.350E-01
DAV:   5    -0.192267200171E+03    0.55608E-03   -0.41581E-03 11360   0.539E-01    0.301E-01
DAV:   6    -0.192266513260E+03    0.68691E-03   -0.23487E-03 11200   0.352E-01    0.138E-01
DAV:   7    -0.192266386771E+03    0.12649E-03   -0.85839E-04 10600   0.211E-01    0.123E-01
DAV:   8    -0.192266198480E+03    0.18829E-03   -0.27200E-04  9320   0.139E-01    0.260E-02
DAV:   9    -0.192266192921E+03    0.55590E-05   -0.39382E-05  6360   0.328E-02
  29 F= -.19226619E+03 E0= -.19217925E+03  d E =-.453878E-01
       N       E                     dE             d eps       ncg     rms          rms(c)
DAV:   1    -0.192280771709E+03   -0.14573E-01   -0.31471E-01  8160   0.121E+00    0.150E-01
DAV:   2    -0.192282534288E+03   -0.17626E-02   -0.10686E-02 11240   0.459E-01    0.376E-01
DAV:   3    -0.192281274956E+03    0.12593E-02   -0.28493E-03 12200   0.413E-01    0.144E-01
DAV:   4    -0.192281333565E+03   -0.58609E-04   -0.82449E-04  8920   0.219E-01
  30 F= -.19228133E+03 E0= -.19219543E+03  d E =-.151406E-01
       N       E                     dE             d eps       ncg     rms          rms(c)
DAV:   1    -0.192296108190E+03   -0.14833E-01   -0.36632E-01  8160   0.133E+00    0.206E-01
DAV:   2    -0.192299315430E+03   -0.32072E-02   -0.15888E-02 11320   0.651E-01    0.570E-01
DAV:   3    -0.192296387245E+03    0.29282E-02   -0.55126E-03 11840   0.583E-01    0.176E-01
DAV:   4    -0.192296262196E+03    0.12505E-03   -0.11838E-03  9640   0.236E-01    0.145E-01
DAV:   5    -0.192296159630E+03    0.10257E-03   -0.80439E-04 10400   0.238E-01    0.130E-01
DAV:   6    -0.192296005910E+03    0.15372E-03   -0.45542E-04  8840   0.154E-01    0.596E-02
DAV:   7    -0.192296021041E+03   -0.15130E-04   -0.19348E-04  7760   0.114E-01
  31 F= -.19229602E+03 E0= -.19221178E+03  d E =-.146875E-01
       N       E                     dE             d eps       ncg     rms          rms(c)
DAV:   1    -0.192324287534E+03   -0.28282E-01   -0.10999E+00  8160   0.233E+00    0.356E-01
DAV:   2    -0.192325481687E+03   -0.11942E-02   -0.36832E-02 11120   0.650E-01    0.442E-01
DAV:   3    -0.192326160271E+03   -0.67858E-03   -0.11627E-02 11680   0.843E-01    0.571E-01
DAV:   4    -0.192323172315E+03    0.29880E-02   -0.57490E-03 11360   0.564E-01    0.223E-01
DAV:   5    -0.192323371923E+03   -0.19961E-03   -0.27971E-03 10520   0.415E-01    0.297E-01
DAV:   6    -0.192322522021E+03    0.84990E-03   -0.16143E-03  9600   0.313E-01    0.865E-02
DAV:   7    -0.192322456698E+03    0.65323E-04   -0.34721E-04  8760   0.127E-01
  32 F= -.19232246E+03 E0= -.19223953E+03  d E =-.264357E-01
       N       E                     dE             d eps       ncg     rms          rms(c)
DAV:   1    -0.192354270566E+03   -0.31749E-01   -0.15520E+00  8160   0.267E+00    0.350E-01
DAV:   2    -0.192365256203E+03   -0.10986E-01   -0.56918E-02 11240   0.118E+00    0.938E-01
DAV:   3    -0.192356232373E+03    0.90238E-02   -0.16003E-02 12040   0.103E+00    0.270E-01
DAV:   4    -0.192356319906E+03   -0.87533E-04   -0.33346E-03 11040   0.420E-01    0.307E-01
DAV:   5    -0.192355538860E+03    0.78105E-03   -0.22380E-03 10520   0.390E-01    0.176E-01
DAV:   6    -0.192355378941E+03    0.15992E-03   -0.10323E-03 10400   0.238E-01    0.127E-01
DAV:   7    -0.192355368891E+03    0.10049E-04   -0.69711E-04 10560   0.227E-01
  33 F= -.19235537E+03 E0= -.19227455E+03  d E =-.329122E-01
       N       E                     dE             d eps       ncg     rms          rms(c)
DAV:   1    -0.192383019909E+03   -0.27641E-01   -0.12480E+00  8160   0.241E+00    0.322E-01
DAV:   2    -0.192390851804E+03   -0.78319E-02   -0.43542E-02 11240   0.101E+00    0.787E-01
DAV:   3    -0.192384485380E+03    0.63664E-02   -0.12783E-02 11840   0.929E-01    0.267E-01
DAV:   4    -0.192384472462E+03    0.12918E-04   -0.29505E-03 11480   0.387E-01    0.281E-01
DAV:   5    -0.192383728147E+03    0.74432E-03   -0.18036E-03 10360   0.350E-01    0.144E-01
DAV:   6    -0.192383655079E+03    0.73068E-04   -0.77400E-04 10200   0.207E-01
  34 F= -.19238366E+03 E0= -.19230449E+03  d E =-.282862E-01
       N       E                     dE             d eps       ncg     rms          rms(c)
DAV:   1    -0.192430087781E+03   -0.46360E-01   -0.46955E+00  8160   0.467E+00    0.616E-01
DAV:   2    -0.192463504369E+03   -0.33417E-01   -0.16741E-01 11240   0.217E+00    0.156E+00
DAV:   3    -0.192435123840E+03    0.28381E-01   -0.44256E-02 11760   0.180E+00    0.401E-01
DAV:   4    -0.192436217287E+03   -0.10934E-02   -0.91923E-03 11440   0.754E-01    0.551E-01
DAV:   5    -0.192433038823E+03    0.31785E-02   -0.61801E-03 11600   0.677E-01    0.216E-01
DAV:   6    -0.192433277765E+03   -0.23894E-03   -0.25448E-03 11480   0.362E-01    0.265E-01
DAV:   7    -0.192432807899E+03    0.46987E-03   -0.19912E-03 11480   0.386E-01    0.169E-01
DAV:   8    -0.192432434515E+03    0.37338E-03   -0.50867E-04  9080   0.162E-01    0.255E-02
DAV:   9    -0.192432436205E+03   -0.16902E-05   -0.70982E-05  6760   0.309E-02
  35 F= -.19243244E+03 E0= -.19235552E+03  d E =-.487811E-01
       N       E                     dE             d eps       ncg     rms          rms(c)
DAV:   1    -0.192459703183E+03   -0.27269E-01   -0.22502E+00  8160   0.327E+00    0.446E-01
DAV:   2    -0.192469619993E+03   -0.99168E-02   -0.84651E-02 11360   0.121E+00    0.836E-01
DAV:   3    -0.192463405501E+03    0.62145E-02   -0.21426E-02 12000   0.120E+00    0.476E-01
DAV:   4    -0.192461464519E+03    0.19410E-02   -0.59329E-03 11440   0.549E-01    0.280E-01
DAV:   5    -0.192460951918E+03    0.51260E-03   -0.31473E-03 11440   0.457E-01    0.238E-01
DAV:   6    -0.192460514833E+03    0.43708E-03   -0.18172E-03 10840   0.314E-01    0.147E-01
DAV:   7    -0.192460472787E+03    0.42046E-04   -0.98763E-04 10680   0.255E-01
  36 F= -.19246047E+03 E0= -.19238387E+03  d E =-.280366E-01
       N       E                     dE             d eps       ncg     rms          rms(c)
DAV:   1    -0.192474110380E+03   -0.13596E-01   -0.88251E-01  8160   0.202E+00    0.293E-01
DAV:   2    -0.192480790331E+03   -0.66800E-02   -0.41075E-02 10880   0.108E+00    0.687E-01
DAV:   3    -0.192475427898E+03    0.53624E-02   -0.10431E-02 11960   0.863E-01    0.210E-01
DAV:   4    -0.192475283283E+03    0.14462E-03   -0.21052E-03 11320   0.341E-01    0.209E-01
DAV:   5    -0.192474969381E+03    0.31390E-03   -0.13551E-03 10040   0.319E-01    0.151E-01
DAV:   6    -0.192474762700E+03    0.20668E-03   -0.67135E-04 10560   0.171E-01    0.728E-02
DAV:   7    -0.192474829552E+03   -0.66852E-04   -0.37103E-04  8880   0.157E-01
  37 F= -.19247483E+03 E0= -.19239903E+03  d E =-.143568E-01
       N       E                     dE             d eps       ncg     rms          rms(c)
DAV:   1    -0.192482932585E+03   -0.81699E-02   -0.34776E-01  8160   0.129E+00    0.200E-01
DAV:   2    -0.192484546010E+03   -0.16134E-02   -0.15920E-02 10840   0.541E-01    0.360E-01
DAV:   3    -0.192483502034E+03    0.10440E-02   -0.45565E-03 12120   0.553E-01    0.219E-01
DAV:   4    -0.192482955064E+03    0.54697E-03   -0.10809E-03  9880   0.236E-01    0.813E-02
DAV:   5    -0.192482947078E+03    0.79864E-05   -0.49797E-04  9400   0.151E-01
  38 F= -.19248295E+03 E0= -.19240723E+03  d E =-.811753E-02
       N       E                     dE             d eps       ncg     rms          rms(c)
DAV:   1    -0.192492853978E+03   -0.98989E-02   -0.97157E-01  8160   0.211E+00    0.278E-01
DAV:   2    -0.192500172339E+03   -0.73184E-02   -0.39951E-02 11080   0.986E-01    0.712E-01
DAV:   3    -0.192494519596E+03    0.56527E-02   -0.11171E-02 12280   0.875E-01    0.192E-01
DAV:   4    -0.192494426706E+03    0.92890E-04   -0.15117E-03 10160   0.295E-01    0.183E-01
DAV:   5    -0.192494105534E+03    0.32117E-03   -0.88516E-04 10400   0.275E-01    0.108E-01
DAV:   6    -0.192494042565E+03    0.62970E-04   -0.43682E-04  9360   0.138E-01
  39 F= -.19249404E+03 E0= -.19241851E+03  d E =-.110955E-01
       N       E                     dE             d eps       ncg     rms          rms(c)
DAV:   1    -0.192501061929E+03   -0.69564E-02   -0.85561E-01  8160   0.201E+00    0.285E-01
DAV:   2    -0.192506228399E+03   -0.51665E-02   -0.39285E-02 11360   0.812E-01    0.579E-01
DAV:   3    -0.192502885134E+03    0.33433E-02   -0.10310E-02 12200   0.795E-01    0.282E-01
DAV:   4    -0.192502294979E+03    0.59015E-03   -0.21138E-03 11120   0.336E-01    0.188E-01
DAV:   5    -0.192501962183E+03    0.33280E-03   -0.10412E-03 10520   0.289E-01    0.119E-01
DAV:   6    -0.192501861877E+03    0.10031E-03   -0.53103E-04  9880   0.156E-01    0.750E-02
DAV:   7    -0.192501856762E+03    0.51154E-05   -0.32097E-04  9400   0.143E-01
  40 F= -.19250186E+03 E0= -.19242646E+03  d E =-.781420E-02
       N       E                     dE             d eps       ncg     rms          rms(c)
DAV:   1    -0.192504927681E+03   -0.30658E-02   -0.27108E+00  8160   0.351E+00    0.419E-01
DAV:   2    -0.192518544794E+03   -0.13617E-01   -0.10844E-01 11320   0.137E+00    0.812E-01
DAV:   3    -0.192511447062E+03    0.70977E-02   -0.21492E-02 12120   0.118E+00    0.365E-01
DAV:   4    -0.192510477837E+03    0.96922E-03   -0.46665E-03 12240   0.499E-01    0.263E-01
DAV:   5    -0.192509919171E+03    0.55867E-03   -0.22394E-03 10160   0.414E-01    0.193E-01
DAV:   6    -0.192509606799E+03    0.31237E-03   -0.11504E-03 11320   0.237E-01    0.944E-02
DAV:   7    -0.192509495409E+03    0.11139E-03   -0.44380E-04 10200   0.106E-01    0.541E-02
DAV:   8    -0.192509475101E+03    0.20308E-04   -0.11309E-04  7480   0.871E-02
  41 F= -.19250948E+03 E0= -.19243471E+03  d E =-.761834E-02
       N       E                     dE             d eps       ncg     rms          rms(c)
DAV:   1    -0.192509717576E+03   -0.22217E-03   -0.40586E-02  8160   0.436E-01    0.648E-02
DAV:   2    -0.192510093380E+03   -0.37580E-03   -0.22253E-03 11440   0.257E-01    0.160E-01
DAV:   3    -0.192509777708E+03    0.31567E-03   -0.53749E-04  8880   0.198E-01    0.378E-02
DAV:   4    -0.192509773711E+03    0.39977E-05   -0.73309E-05  5680   0.650E-02
  42 F= -.19250977E+03 E0= -.19243498E+03  d E =-.298610E-03
