   27   27  100    1
  0.9710400E+02  0.1002848E-08  0.1002848E-08  0.3000000E-08  0.5000000E-15
  1.000000000000000E-004
  CAR 
 unknown system                          
    159     34    120
 
  0.0000000E+00  0.0000000E+00  0.0000000E+00  0.1562500E-01
    1      -17.861074   1.000000
    2      -16.800850   1.000000
    3      -16.689041   1.000000
    4      -16.605304   1.000000
    5      -16.579556   1.000000
    6      -16.431507   1.000000
    7      -16.353812   1.000000
    8      -16.338781   1.000000
    9      -16.243290   1.000000
   10      -16.139558   1.000000
   11      -16.075822   1.000000
   12      -15.982253   1.000000
   13      -15.868616   1.000000
   14      -15.633249   1.000000
   15      -15.583647   1.000000
   16      -15.459673   1.000000
   17      -15.222039   1.000000
   18      -15.190904   1.000000
   19       -9.475805   1.000000
   20       -9.059774   1.000000
   21       -9.031375   1.000000
   22       -8.925807   1.000000
   23       -8.756851   1.000000
   24       -8.709537   1.000000
   25       -8.643737   1.000000
   26       -8.569418   1.000000
   27       -8.487040   1.000000
   28       -8.452817   1.000000
   29       -8.407658   1.000000
   30       -8.362078   1.000000
   31       -8.234043   1.000000
   32       -8.197993   1.000000
   33       -8.152724   1.000000
   34       -8.053520   1.000000
   35       -7.809649   1.000000
   36       -7.771484   1.000000
   37       -7.631815   1.000000
   38       -7.614106   1.000000
   39       -7.500235   1.000000
   40       -7.373566   1.000000
   41       -7.306381   1.000000
   42       -7.212305   1.000000
   43       -7.085229   1.000000
   44       -6.959686   1.000000
   45       -6.830271   1.000000
   46       -6.825193   1.000000
   47       -6.752527   1.000000
   48       -6.718004   1.000000
   49       -6.642623   1.000000
   50       -6.510555   1.000000
   51       -6.397961   1.000000
   52       -6.249005   1.000000
   53       -6.209067   1.000000
   54       -6.178157   1.000000
   55       -6.117552   1.000000
   56       -6.038779   1.000000
   57       -5.980155   1.000000
   58       -5.874836   1.000000
   59       -5.852895   1.000000
   60       -5.728763   1.000000
   61       -5.606413   1.000000
   62       -5.340197   1.000000
   63       -5.290855   1.000000
   64       -5.045276   1.000000
   65       -4.984100   1.000000
   66       -4.897847   1.000000
   67       -4.851897   1.000000
   68       -4.781758   1.000000
   69       -4.746348   1.000000
   70       -4.720996   1.000000
   71       -4.655906   1.000000
   72       -4.620806   1.000000
   73       -4.414337   1.000000
   74       -4.361452   1.000000
   75       -4.285170   1.000000
   76       -3.989063   1.000000
   77       -3.750799   0.999914
   78       -3.578148   0.994391
   79       -3.501087   0.976754
   80       -3.186609   0.407962
   81       -3.144894   0.298834
   82       -2.847067   0.004223
   83       -2.692286   0.000096
   84       -2.666685   0.000046
   85       -2.517102   0.000000
   86       -2.509328   0.000000
   87       -2.291706   0.000000
   88       -2.227453   0.000000
   89       -2.184427   0.000000
   90       -1.931555   0.000000
   91       -1.729997   0.000000
   92       -1.612963   0.000000
   93       -1.494462   0.000000
   94       -1.189432   0.000000
   95       -1.131264   0.000000
   96       -1.019790   0.000000
   97       -0.954520   0.000000
   98       -0.876864   0.000000
   99       -0.812099   0.000000
  100       -0.630820   0.000000
  101       -0.544343   0.000000
  102       -0.496217   0.000000
  103       -0.377129   0.000000
  104       -0.228094   0.000000
  105       -0.129856   0.000000
  106       -0.063414   0.000000
  107       -0.027174   0.000000
  108        0.019304   0.000000
  109        0.125760   0.000000
  110        0.182265   0.000000
  111        0.438239   0.000000
  112        0.540396   0.000000
  113        0.611354   0.000000
  114        0.893312   0.000000
  115        0.976854   0.000000
  116        1.023812   0.000000
  117        1.137491   0.000000
  118        1.648962   0.000000
  119        1.842658   0.000000
  120        2.172345   0.000000
 
  0.1250000E+00  0.2775558E-16  0.0000000E+00  0.3125000E-01
    1      -17.836456   1.000000
    2      -16.819386   1.000000
    3      -16.797302   1.000000
    4      -16.627566   1.000000
    5      -16.512937   1.000000
    6      -16.447913   1.000000
    7      -16.376598   1.000000
    8      -16.316390   1.000000
    9      -16.291460   1.000000
   10      -16.064113   1.000000
   11      -16.029354   1.000000
   12      -15.967254   1.000000
   13      -15.847906   1.000000
   14      -15.628691   1.000000
   15      -15.577483   1.000000
   16      -15.469763   1.000000
   17      -15.248356   1.000000
   18      -15.188117   1.000000
   19       -9.479901   1.000000
   20       -9.172125   1.000000
   21       -9.117468   1.000000
   22       -9.045241   1.000000
   23       -8.762524   1.000000
   24       -8.723416   1.000000
   25       -8.617874   1.000000
   26       -8.575839   1.000000
   27       -8.519930   1.000000
   28       -8.420318   1.000000
   29       -8.394115   1.000000
   30       -8.293304   1.000000
   31       -8.253811   1.000000
   32       -8.080800   1.000000
   33       -7.986658   1.000000
   34       -7.944651   1.000000
   35       -7.832615   1.000000
   36       -7.773681   1.000000
   37       -7.699786   1.000000
   38       -7.523676   1.000000
   39       -7.421851   1.000000
   40       -7.394591   1.000000
   41       -7.322259   1.000000
   42       -7.240850   1.000000
   43       -7.119277   1.000000
   44       -6.979680   1.000000
   45       -6.908674   1.000000
   46       -6.813690   1.000000
   47       -6.760691   1.000000
   48       -6.699398   1.000000
   49       -6.600679   1.000000
   50       -6.515492   1.000000
   51       -6.379919   1.000000
   52       -6.280606   1.000000
   53       -6.231683   1.000000
   54       -6.170770   1.000000
   55       -6.138240   1.000000
   56       -6.038540   1.000000
   57       -5.957089   1.000000
   58       -5.884343   1.000000
   59       -5.790266   1.000000
   60       -5.652402   1.000000
   61       -5.561036   1.000000
   62       -5.357143   1.000000
   63       -5.327306   1.000000
   64       -5.212703   1.000000
   65       -5.047411   1.000000
   66       -5.012666   1.000000
   67       -4.904487   1.000000
   68       -4.857237   1.000000
   69       -4.749091   1.000000
   70       -4.623583   1.000000
   71       -4.586473   1.000000
   72       -4.497374   1.000000
   73       -4.423930   1.000000
   74       -4.301902   1.000000
   75       -4.246601   1.000000
   76       -3.901905   0.999999
   77       -3.787649   0.999971
   78       -3.702775   0.999683
   79       -3.487037   0.970725
   80       -3.383953   0.877513
   81       -2.957762   0.032086
   82       -2.855462   0.005021
   83       -2.702490   0.000128
   84       -2.652818   0.000031
   85       -2.516145   0.000000
   86       -2.496587   0.000000
   87       -2.286894   0.000000
   88       -2.194123   0.000000
   89       -2.157317   0.000000
   90       -1.924362   0.000000
   91       -1.747679   0.000000
   92       -1.592318   0.000000
   93       -1.470097   0.000000
   94       -1.196778   0.000000
   95       -1.129998   0.000000
   96       -1.011886   0.000000
   97       -0.967898   0.000000
   98       -0.880171   0.000000
   99       -0.811931   0.000000
  100       -0.676443   0.000000
  101       -0.603918   0.000000
  102       -0.522542   0.000000
  103       -0.452947   0.000000
  104       -0.311322   0.000000
  105       -0.182701   0.000000
  106       -0.139107   0.000000
  107       -0.111795   0.000000
  108        0.030356   0.000000
  109        0.166403   0.000000
  110        0.225238   0.000000
  111        0.505789   0.000000
  112        0.563424   0.000000
  113        0.631448   0.000000
  114        0.804118   0.000000
  115        0.966998   0.000000
  116        1.075447   0.000000
  117        1.217293   0.000000
  118        1.693971   0.000000
  119        1.881038   0.000000
  120        2.207792   0.000000
 
  0.2500000E+00  0.5551115E-16  0.0000000E+00  0.3125000E-01
    1      -17.764622   1.000000
    2      -17.021732   1.000000
    3      -16.788847   1.000000
    4      -16.660584   1.000000
    5      -16.558093   1.000000
    6      -16.478252   1.000000
    7      -16.362524   1.000000
    8      -16.276127   1.000000
    9      -16.246915   1.000000
   10      -16.066592   1.000000
   11      -15.961001   1.000000
   12      -15.882075   1.000000
   13      -15.793490   1.000000
   14      -15.607128   1.000000
   15      -15.562160   1.000000
   16      -15.490060   1.000000
   17      -15.296991   1.000000
   18      -15.200662   1.000000
   19       -9.606224   1.000000
   20       -9.317229   1.000000
   21       -9.234370   1.000000
   22       -9.137749   1.000000
   23       -8.839172   1.000000
   24       -8.726937   1.000000
   25       -8.618901   1.000000
   26       -8.577154   1.000000
   27       -8.504896   1.000000
   28       -8.427714   1.000000
   29       -8.323645   1.000000
   30       -8.216097   1.000000
   31       -8.116387   1.000000
   32       -8.046458   1.000000
   33       -7.962372   1.000000
   34       -7.839241   1.000000
   35       -7.754382   1.000000
   36       -7.651482   1.000000
   37       -7.570402   1.000000
   38       -7.502431   1.000000
   39       -7.444264   1.000000
   40       -7.382733   1.000000
   41       -7.334651   1.000000
   42       -7.223818   1.000000
   43       -7.118572   1.000000
   44       -6.983470   1.000000
   45       -6.955990   1.000000
   46       -6.799587   1.000000
   47       -6.753919   1.000000
   48       -6.711321   1.000000
   49       -6.539949   1.000000
   50       -6.438359   1.000000
   51       -6.405175   1.000000
   52       -6.304078   1.000000
   53       -6.279783   1.000000
   54       -6.176501   1.000000
   55       -6.132859   1.000000
   56       -6.044587   1.000000
   57       -5.890440   1.000000
   58       -5.852780   1.000000
   59       -5.763851   1.000000
   60       -5.646828   1.000000
   61       -5.567520   1.000000
   62       -5.503234   1.000000
   63       -5.450420   1.000000
   64       -5.274656   1.000000
   65       -5.152989   1.000000
   66       -5.116313   1.000000
   67       -5.014197   1.000000
   68       -4.872944   1.000000
   69       -4.729003   1.000000
   70       -4.562742   1.000000
   71       -4.476667   1.000000
   72       -4.428273   1.000000
   73       -4.305260   1.000000
   74       -4.263751   1.000000
   75       -4.148152   1.000000
   76       -4.008570   1.000000
   77       -3.913908   1.000000
   78       -3.751377   0.999915
   79       -3.475651   0.964933
   80       -3.415664   0.917260
   81       -2.933692   0.021631
   82       -2.821436   0.002439
   83       -2.693761   0.000101
   84       -2.624929   0.000013
   85       -2.525525   0.000000
   86       -2.456316   0.000000
   87       -2.288403   0.000000
   88       -2.129773   0.000000
   89       -2.067577   0.000000
   90       -1.909017   0.000000
   91       -1.767450   0.000000
   92       -1.553058   0.000000
   93       -1.407048   0.000000
   94       -1.223467   0.000000
   95       -1.128752   0.000000
   96       -1.041873   0.000000
   97       -0.997771   0.000000
   98       -0.887269   0.000000
   99       -0.821370   0.000000
  100       -0.782961   0.000000
  101       -0.725918   0.000000
  102       -0.609696   0.000000
  103       -0.550300   0.000000
  104       -0.434060   0.000000
  105       -0.317125   0.000000
  106       -0.275791   0.000000
  107       -0.203481   0.000000
  108       -0.018251   0.000000
  109        0.187645   0.000000
  110        0.275618   0.000000
  111        0.489121   0.000000
  112        0.583258   0.000000
  113        0.691497   0.000000
  114        0.770616   0.000000
  115        1.032119   0.000000
  116        1.137174   0.000000
  117        1.363939   0.000000
  118        1.818886   0.000000
  119        1.992201   0.000000
  120        2.312820   0.000000
 
  0.3750000E+00  0.0000000E+00  0.0000000E+00  0.3125000E-01
    1      -17.655364   1.000000
    2      -17.222799   1.000000
    3      -16.779529   1.000000
    4      -16.687195   1.000000
    5      -16.613641   1.000000
    6      -16.514789   1.000000
    7      -16.329639   1.000000
    8      -16.237161   1.000000
    9      -16.202869   1.000000
   10      -16.079879   1.000000
   11      -15.873303   1.000000
   12      -15.842897   1.000000
   13      -15.757420   1.000000
   14      -15.614818   1.000000
   15      -15.546377   1.000000
   16      -15.464934   1.000000
   17      -15.334344   1.000000
   18      -15.230850   1.000000
   19       -9.796161   1.000000
   20       -9.409406   1.000000
   21       -9.289158   1.000000
   22       -9.109274   1.000000
   23       -8.894460   1.000000
   24       -8.774033   1.000000
   25       -8.633722   1.000000
   26       -8.569185   1.000000
   27       -8.482120   1.000000
   28       -8.331218   1.000000
   29       -8.289047   1.000000
   30       -8.200711   1.000000
   31       -8.104047   1.000000
   32       -8.018589   1.000000
   33       -7.923440   1.000000
   34       -7.821770   1.000000
   35       -7.766952   1.000000
   36       -7.661843   1.000000
   37       -7.572880   1.000000
   38       -7.513097   1.000000
   39       -7.472027   1.000000
   40       -7.299305   1.000000
   41       -7.172035   1.000000
   42       -7.134034   1.000000
   43       -7.014360   1.000000
   44       -6.971264   1.000000
   45       -6.886693   1.000000
   46       -6.798996   1.000000
   47       -6.733935   1.000000
   48       -6.614350   1.000000
   49       -6.507580   1.000000
   50       -6.453716   1.000000
   51       -6.339635   1.000000
   52       -6.293133   1.000000
   53       -6.223801   1.000000
   54       -6.188787   1.000000
   55       -6.144221   1.000000
   56       -6.038534   1.000000
   57       -6.024896   1.000000
   58       -5.966775   1.000000
   59       -5.852842   1.000000
   60       -5.717303   1.000000
   61       -5.626215   1.000000
   62       -5.574944   1.000000
   63       -5.452257   1.000000
   64       -5.353255   1.000000
   65       -5.161899   1.000000
   66       -5.097561   1.000000
   67       -5.005570   1.000000
   68       -4.825571   1.000000
   69       -4.754437   1.000000
   70       -4.652714   1.000000
   71       -4.507331   1.000000
   72       -4.417163   1.000000
   73       -4.283212   1.000000
   74       -4.205161   1.000000
   75       -4.159935   1.000000
   76       -4.056296   1.000000
   77       -3.890074   0.999999
   78       -3.749273   0.999910
   79       -3.514974   0.981651
   80       -3.269660   0.638506
   81       -2.984620   0.048350
   82       -2.801996   0.001577
   83       -2.679260   0.000067
   84       -2.631037   0.000016
   85       -2.531054   0.000001
   86       -2.402008   0.000000
   87       -2.273531   0.000000
   88       -2.090721   0.000000
   89       -1.969980   0.000000
   90       -1.871392   0.000000
   91       -1.769468   0.000000
   92       -1.550060   0.000000
   93       -1.326413   0.000000
   94       -1.239369   0.000000
   95       -1.156804   0.000000
   96       -1.134956   0.000000
   97       -1.035250   0.000000
   98       -0.910631   0.000000
   99       -0.872236   0.000000
  100       -0.805276   0.000000
  101       -0.787934   0.000000
  102       -0.718968   0.000000
  103       -0.607207   0.000000
  104       -0.536638   0.000000
  105       -0.500401   0.000000
  106       -0.331414   0.000000
  107       -0.253564   0.000000
  108       -0.066134   0.000000
  109        0.152217   0.000000
  110        0.262468   0.000000
  111        0.422030   0.000000
  112        0.607096   0.000000
  113        0.749034   0.000000
  114        0.779053   0.000000
  115        1.117793   0.000000
  116        1.221752   0.000000
  117        1.481376   0.000000
  118        2.005431   0.000000
  119        2.168546   0.000000
  120        2.478681   0.000000
 
  0.5000000E+00  0.1110223E-15  0.0000000E+00  0.1562500E-01
    1      -17.571312   1.000000
    2      -17.339509   1.000000
    3      -16.775213   1.000000
    4      -16.697928   1.000000
    5      -16.632348   1.000000
    6      -16.528448   1.000000
    7      -16.317316   1.000000
    8      -16.225672   1.000000
    9      -16.190327   1.000000
   10      -16.075664   1.000000
   11      -15.861837   1.000000
   12      -15.773661   1.000000
   13      -15.761470   1.000000
   14      -15.659066   1.000000
   15      -15.534498   1.000000
   16      -15.440805   1.000000
   17      -15.334802   1.000000
   18      -15.255236   1.000000
   19       -9.870762   1.000000
   20       -9.448013   1.000000
   21       -9.316868   1.000000
   22       -9.048469   1.000000
   23       -8.910862   1.000000
   24       -8.803220   1.000000
   25       -8.647079   1.000000
   26       -8.624278   1.000000
   27       -8.421072   1.000000
   28       -8.332607   1.000000
   29       -8.205661   1.000000
   30       -8.161085   1.000000
   31       -8.125443   1.000000
   32       -8.022706   1.000000
   33       -7.942360   1.000000
   34       -7.838264   1.000000
   35       -7.778314   1.000000
   36       -7.678249   1.000000
   37       -7.600957   1.000000
   38       -7.564390   1.000000
   39       -7.474905   1.000000
   40       -7.312629   1.000000
   41       -7.085911   1.000000
   42       -7.025638   1.000000
   43       -6.940213   1.000000
   44       -6.900490   1.000000
   45       -6.847544   1.000000
   46       -6.685847   1.000000
   47       -6.633288   1.000000
   48       -6.566449   1.000000
   49       -6.533087   1.000000
   50       -6.477632   1.000000
   51       -6.454101   1.000000
   52       -6.396535   1.000000
   53       -6.264715   1.000000
   54       -6.250202   1.000000
   55       -6.174489   1.000000
   56       -6.070369   1.000000
   57       -5.988374   1.000000
   58       -5.873700   1.000000
   59       -5.839166   1.000000
   60       -5.733070   1.000000
   61       -5.658442   1.000000
   62       -5.555728   1.000000
   63       -5.513201   1.000000
   64       -5.391717   1.000000
   65       -5.185339   1.000000
   66       -5.052767   1.000000
   67       -5.026222   1.000000
   68       -4.918412   1.000000
   69       -4.789671   1.000000
   70       -4.598428   1.000000
   71       -4.516342   1.000000
   72       -4.461075   1.000000
   73       -4.284190   1.000000
   74       -4.220310   1.000000
   75       -4.166213   1.000000
   76       -3.994467   1.000000
   77       -3.830481   0.999992
   78       -3.766519   0.999945
   79       -3.545698   0.989455
   80       -3.186245   0.406964
   81       -2.994117   0.055478
   82       -2.828499   0.002846
   83       -2.692493   0.000097
   84       -2.620158   0.000011
   85       -2.529760   0.000001
   86       -2.377568   0.000000
   87       -2.261815   0.000000
   88       -2.071238   0.000000
   89       -1.941808   0.000000
   90       -1.847654   0.000000
   91       -1.764060   0.000000
   92       -1.555803   0.000000
   93       -1.297062   0.000000
   94       -1.234551   0.000000
   95       -1.188515   0.000000
   96       -1.173392   0.000000
   97       -1.056379   0.000000
   98       -0.929735   0.000000
   99       -0.879930   0.000000
  100       -0.821497   0.000000
  101       -0.782871   0.000000
  102       -0.764940   0.000000
  103       -0.629452   0.000000
  104       -0.593532   0.000000
  105       -0.574272   0.000000
  106       -0.342571   0.000000
  107       -0.268286   0.000000
  108       -0.090394   0.000000
  109        0.132298   0.000000
  110        0.245298   0.000000
  111        0.407839   0.000000
  112        0.614193   0.000000
  113        0.770817   0.000000
  114        0.780266   0.000000
  115        1.149682   0.000000
  116        1.260271   0.000000
  117        1.526004   0.000000
  118        2.226115   0.000000
  119        2.259666   0.000000
  120        2.390825   0.000000
 
  0.0000000E+00  0.1250000E+00  0.0000000E+00  0.3125000E-01
    1      -17.836828   1.000000
    2      -16.830859   1.000000
    3      -16.781596   1.000000
    4      -16.611090   1.000000
    5      -16.541784   1.000000
    6      -16.443952   1.000000
    7      -16.383346   1.000000
    8      -16.324355   1.000000
    9      -16.268701   1.000000
   10      -16.052065   1.000000
   11      -16.022138   1.000000
   12      -16.001369   1.000000
   13      -15.834677   1.000000
   14      -15.632539   1.000000
   15      -15.578480   1.000000
   16      -15.465584   1.000000
   17      -15.248906   1.000000
   18      -15.189044   1.000000
   19       -9.484839   1.000000
   20       -9.152648   1.000000
   21       -9.110605   1.000000
   22       -9.042030   1.000000
   23       -8.783858   1.000000
   24       -8.699505   1.000000
   25       -8.634284   1.000000
   26       -8.573883   1.000000
   27       -8.507128   1.000000
   28       -8.490776   1.000000
   29       -8.393869   1.000000
   30       -8.310124   1.000000
   31       -8.203516   1.000000
   32       -8.076636   1.000000
   33       -8.010092   1.000000
   34       -7.912860   1.000000
   35       -7.839637   1.000000
   36       -7.758448   1.000000
   37       -7.697601   1.000000
   38       -7.496286   1.000000
   39       -7.437058   1.000000
   40       -7.406247   1.000000
   41       -7.339109   1.000000
   42       -7.201610   1.000000
   43       -7.136887   1.000000
   44       -7.001044   1.000000
   45       -6.886510   1.000000
   46       -6.852558   1.000000
   47       -6.741383   1.000000
   48       -6.679378   1.000000
   49       -6.617694   1.000000
   50       -6.540089   1.000000
   51       -6.384060   1.000000
   52       -6.271181   1.000000
   53       -6.238891   1.000000
   54       -6.171252   1.000000
   55       -6.127495   1.000000
   56       -6.032523   1.000000
   57       -5.977123   1.000000
   58       -5.851401   1.000000
   59       -5.778028   1.000000
   60       -5.664013   1.000000
   61       -5.561241   1.000000
   62       -5.364329   1.000000
   63       -5.310698   1.000000
   64       -5.213496   1.000000
   65       -5.055630   1.000000
   66       -5.011564   1.000000
   67       -4.886869   1.000000
   68       -4.863059   1.000000
   69       -4.772788   1.000000
   70       -4.649858   1.000000
   71       -4.582123   1.000000
   72       -4.479261   1.000000
   73       -4.379694   1.000000
   74       -4.299783   1.000000
   75       -4.276350   1.000000
   76       -3.907112   0.999999
   77       -3.810178   0.999985
   78       -3.672929   0.999327
   79       -3.478477   0.966452
   80       -3.395131   0.892823
   81       -2.956540   0.031469
   82       -2.858196   0.005309
   83       -2.709261   0.000154
   84       -2.640430   0.000021
   85       -2.513098   0.000000
   86       -2.502810   0.000000
   87       -2.288746   0.000000
   88       -2.196804   0.000000
   89       -2.155599   0.000000
   90       -1.936523   0.000000
   91       -1.734546   0.000000
   92       -1.593933   0.000000
   93       -1.477860   0.000000
   94       -1.189215   0.000000
   95       -1.132892   0.000000
   96       -1.009926   0.000000
   97       -0.963849   0.000000
   98       -0.880214   0.000000
   99       -0.819668   0.000000
  100       -0.668428   0.000000
  101       -0.601756   0.000000
  102       -0.558916   0.000000
  103       -0.461271   0.000000
  104       -0.316262   0.000000
  105       -0.198996   0.000000
  106       -0.133236   0.000000
  107       -0.056113   0.000000
  108        0.068877   0.000000
  109        0.165281   0.000000
  110        0.217104   0.000000
  111        0.431539   0.000000
  112        0.540378   0.000000
  113        0.623544   0.000000
  114        0.814308   0.000000
  115        0.995193   0.000000
  116        1.089753   0.000000
  117        1.230859   0.000000
  118        1.694193   0.000000
  119        1.881874   0.000000
  120        2.207854   0.000000
 
  0.1250000E+00  0.1250000E+00  0.0000000E+00  0.3125000E-01
    1      -17.787129   1.000000
    2      -16.971469   1.000000
    3      -16.773564   1.000000
    4      -16.678834   1.000000
    5      -16.527988   1.000000
    6      -16.465730   1.000000
    7      -16.369972   1.000000
    8      -16.290560   1.000000
    9      -16.242301   1.000000
   10      -16.086535   1.000000
   11      -16.012182   1.000000
   12      -15.896707   1.000000
   13      -15.785225   1.000000
   14      -15.605820   1.000000
   15      -15.562311   1.000000
   16      -15.471091   1.000000
   17      -15.295495   1.000000
   18      -15.203369   1.000000
   19       -9.560226   1.000000
   20       -9.305026   1.000000
   21       -9.211902   1.000000
   22       -9.079163   1.000000
   23       -8.840969   1.000000
   24       -8.663883   1.000000
   25       -8.661008   1.000000
   26       -8.525206   1.000000
   27       -8.495247   1.000000
   28       -8.426150   1.000000
   29       -8.373740   1.000000
   30       -8.344020   1.000000
   31       -8.168712   1.000000
   32       -8.055757   1.000000
   33       -7.971865   1.000000
   34       -7.856409   1.000000
   35       -7.711097   1.000000
   36       -7.632940   1.000000
   37       -7.599169   1.000000
   38       -7.514847   1.000000
   39       -7.430785   1.000000
   40       -7.335492   1.000000
   41       -7.314667   1.000000
   42       -7.228631   1.000000
   43       -7.155360   1.000000
   44       -7.032397   1.000000
   45       -6.984598   1.000000
   46       -6.866987   1.000000
   47       -6.737989   1.000000
   48       -6.707420   1.000000
   49       -6.565104   1.000000
   50       -6.494431   1.000000
   51       -6.382173   1.000000
   52       -6.319464   1.000000
   53       -6.292627   1.000000
   54       -6.191659   1.000000
   55       -6.106254   1.000000
   56       -6.027861   1.000000
   57       -5.890808   1.000000
   58       -5.766929   1.000000
   59       -5.731982   1.000000
   60       -5.660398   1.000000
   61       -5.528864   1.000000
   62       -5.490702   1.000000
   63       -5.296772   1.000000
   64       -5.245366   1.000000
   65       -5.213702   1.000000
   66       -5.162102   1.000000
   67       -5.046399   1.000000
   68       -4.832618   1.000000
   69       -4.753387   1.000000
   70       -4.621501   1.000000
   71       -4.475825   1.000000
   72       -4.435134   1.000000
   73       -4.292961   1.000000
   74       -4.254524   1.000000
   75       -4.153345   1.000000
   76       -3.984999   1.000000
   77       -3.863754   0.999997
   78       -3.684324   0.999493
   79       -3.585685   0.995189
   80       -3.396457   0.894543
   81       -2.950238   0.028443
   82       -2.847446   0.004256
   83       -2.710306   0.000159
   84       -2.601649   0.000006
   85       -2.519969   0.000000
   86       -2.486738   0.000000
   87       -2.322334   0.000000
   88       -2.159202   0.000000
   89       -2.088633   0.000000
   90       -1.933962   0.000000
   91       -1.759949   0.000000
   92       -1.531662   0.000000
   93       -1.443062   0.000000
   94       -1.207267   0.000000
   95       -1.118202   0.000000
   96       -1.012950   0.000000
   97       -0.979854   0.000000
   98       -0.879009   0.000000
   99       -0.833217   0.000000
  100       -0.706453   0.000000
  101       -0.657019   0.000000
  102       -0.620064   0.000000
  103       -0.537729   0.000000
  104       -0.456191   0.000000
  105       -0.315646   0.000000
  106       -0.202467   0.000000
  107       -0.107018   0.000000
  108       -0.025931   0.000000
  109        0.147443   0.000000
  110        0.206491   0.000000
  111        0.517012   0.000000
  112        0.570670   0.000000
  113        0.644385   0.000000
  114        0.747070   0.000000
  115        1.037839   0.000000
  116        1.157040   0.000000
  117        1.396087   0.000000
  118        1.781260   0.000000
  119        1.954621   0.000000
  120        2.278783   0.000000
 
  0.2500000E+00  0.1250000E+00  0.0000000E+00  0.3125000E-01
    1      -17.694383   1.000000
    2      -17.143641   1.000000
    3      -16.824275   1.000000
    4      -16.724679   1.000000
    5      -16.545232   1.000000
    6      -16.459628   1.000000
    7      -16.327765   1.000000
    8      -16.252114   1.000000
    9      -16.208888   1.000000
   10      -16.106231   1.000000
   11      -15.960602   1.000000
   12      -15.851418   1.000000
   13      -15.748465   1.000000
   14      -15.568837   1.000000
   15      -15.543989   1.000000
   16      -15.465052   1.000000
   17      -15.336419   1.000000
   18      -15.234729   1.000000
   19       -9.719549   1.000000
   20       -9.470380   1.000000
   21       -9.240387   1.000000
   22       -9.144263   1.000000
   23       -8.809324   1.000000
   24       -8.723140   1.000000
   25       -8.604584   1.000000
   26       -8.531079   1.000000
   27       -8.492609   1.000000
   28       -8.347001   1.000000
   29       -8.320688   1.000000
   30       -8.237750   1.000000
   31       -8.157209   1.000000
   32       -8.072223   1.000000
   33       -7.979993   1.000000
   34       -7.906206   1.000000
   35       -7.798373   1.000000
   36       -7.602707   1.000000
   37       -7.484285   1.000000
   38       -7.424921   1.000000
   39       -7.370171   1.000000
   40       -7.321269   1.000000
   41       -7.248335   1.000000
   42       -7.168022   1.000000
   43       -7.095795   1.000000
   44       -6.985286   1.000000
   45       -6.937569   1.000000
   46       -6.832545   1.000000
   47       -6.732497   1.000000