   27   27  100    1
  0.9710400E+02  0.1002848E-08  0.1002848E-08  0.3000000E-08  0.5000000E-15
  1.000000000000000E-004
  CAR 
 unknown system                          
    159     34    120
 
  0.0000000E+00  0.0000000E+00  0.0000000E+00  0.1562500E-01
    1      -17.784434   1.000000
    2      -16.643207   1.000000
    3      -16.615305   1.000000
    4      -16.557658   1.000000
    5      -16.490565   1.000000
    6      -16.461763   1.000000
    7      -16.417083   1.000000
    8      -16.253845   1.000000
    9      -16.163497   1.000000
   10      -16.080007   1.000000
   11      -16.046975   1.000000
   12      -15.929259   1.000000
   13      -15.889828   1.000000
   14      -15.785850   1.000000
   15      -15.612102   1.000000
   16      -15.512331   1.000000
   17      -15.420051   1.000000
   18      -15.328645   1.000000
   19       -9.266536   1.000000
   20       -8.942678   1.000000
   21       -8.858069   1.000000
   22       -8.842023   1.000000
   23       -8.745648   1.000000
   24       -8.663841   1.000000
   25       -8.578892   1.000000
   26       -8.538477   1.000000
   27       -8.503752   1.000000
   28       -8.438688   1.000000
   29       -8.401742   1.000000
   30       -8.364350   1.000000
   31       -8.267070   1.000000
   32       -8.214075   1.000000
   33       -8.143155   1.000000
   34       -7.999706   1.000000
   35       -7.838857   1.000000
   36       -7.798616   1.000000
   37       -7.735033   1.000000
   38       -7.540963   1.000000
   39       -7.482306   1.000000
   40       -7.432416   1.000000
   41       -7.403285   1.000000
   42       -7.214617   1.000000
   43       -7.092612   1.000000
   44       -6.959658   1.000000
   45       -6.817965   1.000000
   46       -6.765934   1.000000
   47       -6.681627   1.000000
   48       -6.654470   1.000000
   49       -6.568984   1.000000
   50       -6.518361   1.000000
   51       -6.488339   1.000000
   52       -6.451663   1.000000
   53       -6.318072   1.000000
   54       -6.238287   1.000000
   55       -6.206773   1.000000
   56       -6.140691   1.000000
   57       -5.930229   1.000000
   58       -5.831724   1.000000
   59       -5.687799   1.000000
   60       -5.549468   1.000000
   61       -5.478827   1.000000
   62       -5.349150   1.000000
   63       -5.314611   1.000000
   64       -5.285743   1.000000
   65       -5.052612   1.000000
   66       -4.989379   1.000000
   67       -4.906924   1.000000
   68       -4.835666   1.000000
   69       -4.826954   1.000000
   70       -4.631235   1.000000
   71       -4.595736   1.000000
   72       -4.527150   1.000000
   73       -4.447106   1.000000
   74       -4.435450   1.000000
   75       -4.199101   1.000000
   76       -3.951327   0.999994
   77       -3.757869   0.998632
   78       -3.605206   0.972341
   79       -3.524074   0.910313
   80       -3.406727   0.695995
   81       -3.358741   0.568911
   82       -2.770841   0.000034
   83       -2.710217   0.000005
   84       -2.616015   0.000000
   85       -2.489288   0.000000
   86       -2.466138   0.000000
   87       -2.418530   0.000000
   88       -2.318126   0.000000
   89       -2.145378   0.000000
   90       -2.045610   0.000000
   91       -1.735554   0.000000
   92       -1.657898   0.000000
   93       -1.452570   0.000000
   94       -1.355604   0.000000
   95       -1.326498   0.000000
   96       -1.142974   0.000000
   97       -1.032280   0.000000
   98       -0.922044   0.000000
   99       -0.665458   0.000000
  100       -0.635427   0.000000
  101       -0.581150   0.000000
  102       -0.502401   0.000000
  103       -0.485507   0.000000
  104       -0.335538   0.000000
  105       -0.244676   0.000000
  106        0.008515   0.000000
  107        0.044730   0.000000
  108        0.083737   0.000000
  109        0.224471   0.000000
  110        0.242647   0.000000
  111        0.333704   0.000000
  112        0.474397   0.000000
  113        0.578821   0.000000
  114        0.822058   0.000000
  115        0.941253   0.000000
  116        0.990535   0.000000
  117        1.076975   0.000000
  118        1.657220   0.000000
  119        1.840981   0.000000
  120        2.155987   0.000000
 
  0.1250000E+00  0.2775558E-16  0.0000000E+00  0.3125000E-01
    1      -17.759321   1.000000
    2      -16.760169   1.000000
    3      -16.639432   1.000000
    4      -16.567595   1.000000
    5      -16.534938   1.000000
    6      -16.418419   1.000000
    7      -16.343293   1.000000
    8      -16.268788   1.000000
    9      -16.141230   1.000000
   10      -16.072773   1.000000
   11      -16.009451   1.000000
   12      -15.913028   1.000000
   13      -15.877804   1.000000
   14      -15.769385   1.000000
   15      -15.617674   1.000000
   16      -15.526440   1.000000
   17      -15.425192   1.000000
   18      -15.336321   1.000000
   19       -9.276099   1.000000
   20       -9.087310   1.000000
   21       -8.980542   1.000000
   22       -8.902890   1.000000
   23       -8.771750   1.000000
   24       -8.659433   1.000000
   25       -8.604083   1.000000
   26       -8.562253   1.000000
   27       -8.507187   1.000000
   28       -8.453568   1.000000
   29       -8.351385   1.000000
   30       -8.286487   1.000000
   31       -8.222309   1.000000
   32       -8.122417   1.000000
   33       -8.036260   1.000000
   34       -7.874625   1.000000
   35       -7.784190   1.000000
   36       -7.760607   1.000000
   37       -7.671313   1.000000
   38       -7.619053   1.000000
   39       -7.527506   1.000000
   40       -7.430509   1.000000
   41       -7.327220   1.000000
   42       -7.197343   1.000000
   43       -7.094843   1.000000
   44       -7.035598   1.000000
   45       -6.863681   1.000000
   46       -6.767472   1.000000
   47       -6.704795   1.000000
   48       -6.630768   1.000000
   49       -6.601722   1.000000
   50       -6.506899   1.000000
   51       -6.481350   1.000000
   52       -6.377767   1.000000
   53       -6.333266   1.000000
   54       -6.261616   1.000000
   55       -6.209983   1.000000
   56       -6.133043   1.000000
   57       -5.946848   1.000000
   58       -5.847375   1.000000
   59       -5.647342   1.000000
   60       -5.563571   1.000000
   61       -5.428965   1.000000
   62       -5.388342   1.000000
   63       -5.315383   1.000000
   64       -5.266854   1.000000
   65       -5.199294   1.000000
   66       -5.078248   1.000000
   67       -5.003220   1.000000
   68       -4.847244   1.000000
   69       -4.771688   1.000000
   70       -4.697319   1.000000
   71       -4.612752   1.000000
   72       -4.443481   1.000000
   73       -4.385938   1.000000
   74       -4.263231   1.000000
   75       -4.117945   1.000000
   76       -3.935328   0.999989
   77       -3.832573   0.999788
   78       -3.740806   0.997981
   79       -3.620113   0.978401
   80       -3.364603   0.585137
   81       -3.242148   0.257577
   82       -2.796064   0.000071
   83       -2.732431   0.000010
   84       -2.584703   0.000000
   85       -2.480005   0.000000
   86       -2.439015   0.000000
   87       -2.398316   0.000000
   88       -2.310962   0.000000
   89       -2.138667   0.000000
   90       -2.036688   0.000000
   91       -1.734387   0.000000
   92       -1.668716   0.000000
   93       -1.458725   0.000000
   94       -1.344682   0.000000
   95       -1.313142   0.000000
   96       -1.128315   0.000000
   97       -1.036818   0.000000
   98       -0.900829   0.000000
   99       -0.752473   0.000000
  100       -0.708745   0.000000
  101       -0.594124   0.000000
  102       -0.539673   0.000000
  103       -0.520176   0.000000
  104       -0.385081   0.000000
  105       -0.277761   0.000000
  106       -0.101427   0.000000
  107       -0.005729   0.000000
  108        0.106393   0.000000
  109        0.153559   0.000000
  110        0.272562   0.000000
  111        0.374476   0.000000
  112        0.509037   0.000000
  113        0.588031   0.000000
  114        0.886872   0.000000
  115        0.953320   0.000000
  116        1.034726   0.000000
  117        1.083004   0.000000
  118        1.699532   0.000000
  119        1.880844   0.000000
  120        2.190769   0.000000
 
  0.2500000E+00  0.5551115E-16  0.0000000E+00  0.3125000E-01
    1      -17.685036   1.000000
    2      -16.974316   1.000000
    3      -16.673723   1.000000
    4      -16.611044   1.000000
    5      -16.550202   1.000000
    6      -16.365632   1.000000
    7      -16.318288   1.000000
    8      -16.233491   1.000000
    9      -16.122228   1.000000
   10      -16.042902   1.000000
   11      -15.961658   1.000000
   12      -15.894025   1.000000
   13      -15.790255   1.000000
   14      -15.748429   1.000000
   15      -15.632315   1.000000
   16      -15.556186   1.000000
   17      -15.437288   1.000000
   18      -15.357065   1.000000
   19       -9.464892   1.000000
   20       -9.176280   1.000000
   21       -9.089870   1.000000
   22       -9.001808   1.000000
   23       -8.892264   1.000000
   24       -8.771542   1.000000
   25       -8.583441   1.000000
   26       -8.483278   1.000000
   27       -8.473066   1.000000
   28       -8.395240   1.000000
   29       -8.287835   1.000000
   30       -8.238260   1.000000
   31       -8.156034   1.000000
   32       -8.116010   1.000000
   33       -7.869802   1.000000
   34       -7.806803   1.000000
   35       -7.740349   1.000000
   36       -7.688739   1.000000
   37       -7.570964   1.000000
   38       -7.509523   1.000000
   39       -7.431040   1.000000
   40       -7.415410   1.000000
   41       -7.270896   1.000000
   42       -7.163903   1.000000
   43       -7.141688   1.000000
   44       -7.052645   1.000000
   45       -6.883619   1.000000
   46       -6.781400   1.000000
   47       -6.730978   1.000000
   48       -6.682260   1.000000
   49       -6.598885   1.000000
   50       -6.529272   1.000000
   51       -6.484199   1.000000
   52       -6.365733   1.000000
   53       -6.303997   1.000000
   54       -6.213573   1.000000
   55       -6.143968   1.000000
   56       -6.082071   1.000000
   57       -5.968048   1.000000
   58       -5.866032   1.000000
   59       -5.703415   1.000000
   60       -5.616497   1.000000
   61       -5.586137   1.000000
   62       -5.506049   1.000000
   63       -5.438033   1.000000
   64       -5.340093   1.000000
   65       -5.202670   1.000000
   66       -5.114342   1.000000
   67       -5.044763   1.000000
   68       -4.872397   1.000000
   69       -4.736259   1.000000
   70       -4.622984   1.000000
   71       -4.568810   1.000000
   72       -4.368398   1.000000
   73       -4.319867   1.000000
   74       -4.200147   1.000000
   75       -4.097312   1.000000
   76       -3.954943   0.999994
   77       -3.904941   0.999973
   78       -3.814998   0.999663
   79       -3.610937   0.974820
   80       -3.318318   0.455321
   81       -3.160883   0.110200
   82       -2.827455   0.000170
   83       -2.759412   0.000024
   84       -2.561206   0.000000
   85       -2.497205   0.000000
   86       -2.368763   0.000000
   87       -2.330466   0.000000
   88       -2.280247   0.000000
   89       -2.126380   0.000000
   90       -2.002139   0.000000
   91       -1.729412   0.000000
   92       -1.683502   0.000000
   93       -1.483490   0.000000
   94       -1.324164   0.000000
   95       -1.274124   0.000000
   96       -1.108087   0.000000
   97       -1.049919   0.000000
   98       -0.936278   0.000000
   99       -0.872439   0.000000
  100       -0.839291   0.000000
  101       -0.682012   0.000000
  102       -0.637334   0.000000
  103       -0.564303   0.000000
  104       -0.464548   0.000000
  105       -0.359037   0.000000
  106       -0.263619   0.000000
  107       -0.143438   0.000000
  108        0.011726   0.000000
  109        0.124611   0.000000
  110        0.308450   0.000000
  111        0.412975   0.000000
  112        0.481942   0.000000
  113        0.694286   0.000000
  114        0.995192   0.000000
  115        1.009872   0.000000
  116        1.061040   0.000000
  117        1.193393   0.000000
  118        1.818828   0.000000
  119        1.993621   0.000000
  120        2.294097   0.000000
 
  0.3750000E+00  0.0000000E+00  0.0000000E+00  0.3125000E-01
    1      -17.565683   1.000000
    2      -17.191088   1.000000
    3      -16.712400   1.000000
    4      -16.636444   1.000000
    5      -16.539137   1.000000
    6      -16.393624   1.000000
    7      -16.276573   1.000000
    8      -16.205030   1.000000
    9      -16.095049   1.000000
   10      -16.005520   1.000000
   11      -15.932348   1.000000
   12      -15.859583   1.000000
   13      -15.767126   1.000000
   14      -15.687948   1.000000
   15      -15.649457   1.000000
   16      -15.583832   1.000000
   17      -15.447939   1.000000
   18      -15.377502   1.000000
   19       -9.666236   1.000000
   20       -9.280594   1.000000
   21       -9.096985   1.000000
   22       -9.032939   1.000000
   23       -8.946761   1.000000
   24       -8.855972   1.000000
   25       -8.548394   1.000000
   26       -8.447785   1.000000
   27       -8.409505   1.000000
   28       -8.337006   1.000000
   29       -8.253772   1.000000
   30       -8.235628   1.000000
   31       -8.131579   1.000000
   32       -8.068490   1.000000
   33       -7.956994   1.000000
   34       -7.854588   1.000000
   35       -7.708492   1.000000
   36       -7.622495   1.000000
   37       -7.552230   1.000000
   38       -7.461253   1.000000
   39       -7.359098   1.000000
   40       -7.249124   1.000000
   41       -7.176166   1.000000
   42       -7.080278   1.000000
   43       -7.049112   1.000000
   44       -7.025184   1.000000
   45       -6.856740   1.000000
   46       -6.782889   1.000000
   47       -6.750076   1.000000
   48       -6.675855   1.000000
   49       -6.597495   1.000000
   50       -6.500471   1.000000
   51       -6.460060   1.000000
   52       -6.322940   1.000000
   53       -6.280635   1.000000
   54       -6.184547   1.000000
   55       -6.098803   1.000000
   56       -6.053474   1.000000
   57       -5.981201   1.000000
   58       -5.915224   1.000000
   59       -5.825859   1.000000
   60       -5.810710   1.000000
   61       -5.748268   1.000000
   62       -5.609759   1.000000
   63       -5.551608   1.000000
   64       -5.469014   1.000000
   65       -5.169229   1.000000
   66       -5.029648   1.000000
   67       -4.955602   1.000000
   68       -4.843383   1.000000
   69       -4.789683   1.000000
   70       -4.663424   1.000000
   71       -4.572189   1.000000
   72       -4.442837   1.000000
   73       -4.296826   1.000000
   74       -4.222235   1.000000
   75       -4.152505   1.000000
   76       -3.919120   0.999982
   77       -3.783889   0.999263
   78       -3.726285   0.997219
   79       -3.563291   0.947383
   80       -3.327511   0.481167
   81       -3.119873   0.064829
   82       -2.834528   0.000205
   83       -2.782478   0.000048
   84       -2.570116   0.000000
   85       -2.496056   0.000000
   86       -2.319412   0.000000
   87       -2.272914   0.000000
   88       -2.231723   0.000000
   89       -2.107479   0.000000
   90       -1.952514   0.000000
   91       -1.725401   0.000000
   92       -1.664154   0.000000
   93       -1.527981   0.000000
   94       -1.317038   0.000000
   95       -1.241084   0.000000
   96       -1.150733   0.000000
   97       -1.087621   0.000000
   98       -1.015719   0.000000
   99       -0.966388   0.000000
  100       -0.895149   0.000000
  101       -0.804556   0.000000
  102       -0.703194   0.000000
  103       -0.565655   0.000000
  104       -0.524070   0.000000
  105       -0.451280   0.000000
  106       -0.358538   0.000000
  107       -0.275135   0.000000
  108       -0.098106   0.000000
  109        0.083093   0.000000
  110        0.276573   0.000000
  111        0.415469   0.000000
  112        0.560604   0.000000
  113        0.741981   0.000000
  114        0.992262   0.000000
  115        1.085915   0.000000
  116        1.181830   0.000000
  117        1.288925   0.000000
  118        1.999558   0.000000
  119        2.166376   0.000000
  120        2.463489   0.000000
 
  0.5000000E+00  0.1110223E-15  0.0000000E+00  0.1562500E-01
    1      -17.442125   1.000000
    2      -17.348850   1.000000
    3      -16.726719   1.000000
    4      -16.646560   1.000000
    5      -16.527773   1.000000
    6      -16.412644   1.000000
    7      -16.258982   1.000000
    8      -16.204348   1.000000
    9      -16.072366   1.000000
   10      -15.996393   1.000000
   11      -15.908262   1.000000
   12      -15.842043   1.000000
   13      -15.785653   1.000000
   14      -15.659035   1.000000
   15      -15.649372   1.000000
   16      -15.594232   1.000000
   17      -15.458297   1.000000
   18      -15.380946   1.000000
   19       -9.740610   1.000000
   20       -9.320672   1.000000
   21       -9.125945   1.000000
   22       -9.042689   1.000000
   23       -8.933277   1.000000
   24       -8.851641   1.000000
   25       -8.582225   1.000000
   26       -8.448258   1.000000
   27       -8.372799   1.000000
   28       -8.313097   1.000000
   29       -8.266045   1.000000
   30       -8.169588   1.000000
   31       -8.084876   1.000000
   32       -8.039547   1.000000
   33       -8.026804   1.000000
   34       -7.916426   1.000000
   35       -7.731171   1.000000
   36       -7.621741   1.000000
   37       -7.591631   1.000000
   38       -7.420296   1.000000
   39       -7.372446   1.000000
   40       -7.159207   1.000000
   41       -7.105503   1.000000
   42       -7.065241   1.000000
   43       -6.998986   1.000000
   44       -6.922530   1.000000
   45       -6.833307   1.000000
   46       -6.767196   1.000000
   47       -6.703926   1.000000
   48       -6.688441   1.000000
   49       -6.556253   1.000000
   50       -6.482982   1.000000
   51       -6.430957   1.000000
   52       -6.362251   1.000000
   53       -6.317544   1.000000
   54       -6.228355   1.000000
   55       -6.179812   1.000000
   56       -6.063650   1.000000
   57       -5.996108   1.000000
   58       -5.885544   1.000000
   59       -5.868735   1.000000
   60       -5.782314   1.000000
   61       -5.699462   1.000000
   62       -5.644643   1.000000
   63       -5.599532   1.000000
   64       -5.528495   1.000000
   65       -5.284457   1.000000
   66       -5.008749   1.000000
   67       -4.969908   1.000000
   68       -4.888397   1.000000
   69       -4.811720   1.000000
   70       -4.651022   1.000000
   71       -4.493139   1.000000
   72       -4.469838   1.000000
   73       -4.350162   1.000000
   74       -4.216565   1.000000
   75       -4.153005   1.000000
   76       -3.876599   0.999937
   77       -3.746709   0.998233
   78       -3.674790   0.991989
   79       -3.539152   0.926373
   80       -3.343196   0.525389
   81       -3.107615   0.054564
   82       -2.829060   0.000177
   83       -2.794756   0.000068
   84       -2.579354   0.000000
   85       -2.490986   0.000000
   86       -2.302081   0.000000
   87       -2.252249   0.000000
   88       -2.208128   0.000000
   89       -2.097567   0.000000
   90       -1.925939   0.000000
   91       -1.724401   0.000000
   92       -1.622920   0.000000
   93       -1.575109   0.000000
   94       -1.320123   0.000000
   95       -1.235019   0.000000
   96       -1.198615   0.000000
   97       -1.100262   0.000000
   98       -1.043050   0.000000
   99       -0.976776   0.000000
  100       -0.946697   0.000000
  101       -0.855886   0.000000
  102       -0.705315   0.000000
  103       -0.561115   0.000000
  104       -0.539770   0.000000
  105       -0.495784   0.000000
  106       -0.409207   0.000000
  107       -0.309750   0.000000
  108       -0.144214   0.000000
  109        0.061863   0.000000
  110        0.261479   0.000000
  111        0.418084   0.000000
  112        0.591747   0.000000
  113        0.756360   0.000000
  114        0.987651   0.000000
  115        1.121763   0.000000
  116        1.229867   0.000000
  117        1.321786   0.000000
  118        2.220732   0.000000
  119        2.241956   0.000000
  120        2.373531   0.000000
 
  0.0000000E+00  0.1250000E+00  0.0000000E+00  0.3125000E-01
    1      -17.759475   1.000000
    2      -16.721526   1.000000
    3      -16.654129   1.000000
    4      -16.607367   1.000000
    5      -16.525866   1.000000
    6      -16.435437   1.000000
    7      -16.344798   1.000000
    8      -16.229288   1.000000
    9      -16.164157   1.000000
   10      -16.076514   1.000000
   11      -16.014873   1.000000
   12      -15.898893   1.000000
   13      -15.863689   1.000000
   14      -15.772689   1.000000
   15      -15.623851   1.000000
   16      -15.526309   1.000000
   17      -15.428647   1.000000
   18      -15.333013   1.000000
   19       -9.261515   1.000000
   20       -9.071109   1.000000
   21       -8.971273   1.000000
   22       -8.938752   1.000000
   23       -8.770412   1.000000
   24       -8.710699   1.000000
   25       -8.650946   1.000000
   26       -8.554133   1.000000
   27       -8.470400   1.000000
   28       -8.444868   1.000000
   29       -8.370341   1.000000
   30       -8.233340   1.000000
   31       -8.185888   1.000000
   32       -8.156312   1.000000
   33       -8.033121   1.000000
   34       -7.853078   1.000000
   35       -7.807288   1.000000
   36       -7.773441   1.000000
   37       -7.693478   1.000000
   38       -7.589613   1.000000
   39       -7.493443   1.000000
   40       -7.423957   1.000000
   41       -7.339837   1.000000
   42       -7.217740   1.000000
   43       -7.098547   1.000000
   44       -7.004003   1.000000
   45       -6.878474   1.000000
   46       -6.791034   1.000000
   47       -6.700744   1.000000
   48       -6.665865   1.000000
   49       -6.597576   1.000000
   50       -6.531719   1.000000
   51       -6.466432   1.000000
   52       -6.385834   1.000000
   53       -6.308888   1.000000
   54       -6.236443   1.000000
   55       -6.191098   1.000000
   56       -6.141077   1.000000
   57       -5.950768   1.000000
   58       -5.805780   1.000000
   59       -5.656088   1.000000
   60       -5.543345   1.000000
   61       -5.467379   1.000000
   62       -5.415898   1.000000
   63       -5.333420   1.000000
   64       -5.268629   1.000000
   65       -5.145443   1.000000
   66       -5.055131   1.000000
   67       -4.994823   1.000000
   68       -4.913011   1.000000
   69       -4.811990   1.000000
   70       -4.684904   1.000000
   71       -4.563189   1.000000
   72       -4.455237   1.000000
   73       -4.346795   1.000000
   74       -4.257695   1.000000
   75       -4.165603   1.000000
   76       -3.964154   0.999996
   77       -3.818221   0.999690
   78       -3.685805   0.993546
   79       -3.623175   0.979495
   80       -3.440362   0.773599
   81       -3.187774   0.150261
   82       -2.767548   0.000031
   83       -2.720493   0.000007
   84       -2.601849   0.000000
   85       -2.513540   0.000000
   86       -2.467766   0.000000
   87       -2.389873   0.000000
   88       -2.310912   0.000000
   89       -2.137374   0.000000
   90       -2.081477   0.000000
   91       -1.705722   0.000000
   92       -1.622530   0.000000
   93       -1.456706   0.000000
   94       -1.356323   0.000000
   95       -1.303929   0.000000
   96       -1.131404   0.000000
   97       -1.039917   0.000000
   98       -0.910310   0.000000
   99       -0.713827   0.000000
  100       -0.678755   0.000000
  101       -0.645714   0.000000
  102       -0.580905   0.000000
  103       -0.509521   0.000000
  104       -0.379939   0.000000
  105       -0.219021   0.000000
  106       -0.130089   0.000000
  107        0.014238   0.000000
  108        0.076716   0.000000
  109        0.130453   0.000000
  110        0.232388   0.000000
  111        0.343082   0.000000
  112        0.502173   0.000000
  113        0.616348   0.000000
  114        0.870235   0.000000
  115        0.965886   0.000000
  116        1.050991   0.000000
  117        1.136128   0.000000
  118        1.700850   0.000000
  119        1.879953   0.000000
  120        2.191186   0.000000
 
  0.1250000E+00  0.1250000E+00  0.0000000E+00  0.3125000E-01
    1      -17.710535   1.000000
    2      -16.848631   1.000000
    3      -16.789354   1.000000
    4      -16.584065   1.000000
    5      -16.467255   1.000000
    6      -16.426739   1.000000
    7      -16.311453   1.000000
    8      -16.248611   1.000000
    9      -16.131579   1.000000
   10      -16.015582   1.000000
   11      -15.999091   1.000000
   12      -15.902466   1.000000
   13      -15.802664   1.000000
   14      -15.756379   1.000000
   15      -15.629316   1.000000
   16      -15.561056   1.000000
   17      -15.437819   1.000000
   18      -15.339099   1.000000
   19       -9.337614   1.000000
   20       -9.222792   1.000000
   21       -9.098658   1.000000
   22       -9.019351   1.000000
   23       -8.802282   1.000000
   24       -8.669920   1.000000
   25       -8.626911   1.000000
   26       -8.536331   1.000000
   27       -8.489287   1.000000
   28       -8.405708   1.000000
   29       -8.322316   1.000000
   30       -8.252983   1.000000
   31       -8.122531   1.000000
   32       -8.076377   1.000000
   33       -7.994579   1.000000
   34       -7.815224   1.000000
   35       -7.780121   1.000000
   36       -7.716777   1.000000
   37       -7.576142   1.000000
   38       -7.547267   1.000000
   39       -7.422860   1.000000
   40       -7.330032   1.000000
   41       -7.288044   1.000000
   42       -7.242884   1.000000
   43       -7.116025   1.000000
   44       -7.074032   1.000000
   45       -6.879524   1.000000
   46       -6.823375   1.000000
   47       -6.719630   1.000000
   48       -6.680648   1.000000
   49       -6.619486   1.000000
   50       -6.550495   1.000000
   51       -6.450997   1.000000
   52       -6.340367   1.000000
   53       -6.287631   1.000000
   54       -6.264433   1.000000
   55       -6.161139   1.000000
   56       -6.092695   1.000000
   57       -5.945091   1.000000
   58       -5.861745   1.000000
   59       -5.681915   1.000000
   60       -5.572653   1.000000
   61       -5.532609   1.000000
   62       -5.434735   1.000000
   63       -5.362671   1.000000
   64       -5.292038   1.000000
   65       -5.193402   1.000000
   66       -5.135892   1.000000
   67       -5.061335   1.000000
   68       -5.027862   1.000000
   69       -4.739447   1.000000
   70       -4.635842   1.000000
   71       -4.534207   1.000000
   72       -4.350759   1.000000
   73       -4.283978   1.000000
   74       -4.214010   1.000000
   75       -4.098909   1.000000
   76       -3.992442   0.999998
   77       -3.891108   0.999959
   78       -3.791458   0.999388
   79       -3.602765   0.971225
   80       -3.414525   0.715001
   81       -3.109873   0.056352
   82       -2.809583   0.000104
   83       -2.718058   0.000007
   84       -2.591394   0.000000
   85       -2.500308   0.000000
   86       -2.427684   0.000000
   87       -2.361020   0.000000
   88       -2.295941   0.000000
   89       -2.127126   0.000000
   90       -2.063130   0.000000
   91       -1.705777   0.000000
   92       -1.637311   0.000000
   93       -1.463755   0.000000
   94       -1.340112   0.000000
   95       -1.269290   0.000000
   96       -1.120655   0.000000
   97       -1.054864   0.000000
   98       -0.907555   0.000000
   99       -0.827686   0.000000
  100       -0.770237   0.000000
  101       -0.701543   0.000000
  102       -0.608804   0.000000
  103       -0.571921   0.000000
  104       -0.432253   0.000000
  105       -0.331008   0.000000
  106       -0.178777   0.000000
  107       -0.164418   0.000000
  108        0.028397   0.000000
  109        0.121516   0.000000
  110        0.206215   0.000000
  111        0.386017   0.000000
  112        0.493186   0.000000
  113        0.675728   0.000000
  114        0.976834   0.000000
  115        1.001474   0.000000
  116        1.075774   0.000000
  117        1.240121   0.000000
  118        1.780927   0.000000
  119        1.957818   0.000000
  120        2.260247   0.000000
 
  0.2500000E+00  0.1250000E+00  0.0000000E+00  0.3125000E-01
    1      -17.614461   1.000000
    2      -17.064120   1.000000
    3      -16.861351   1.000000
    4      -16.564893   1.000000
    5      -16.464767   1.000000
    6      -16.372223   1.000000
    7      -16.307532   1.000000
    8      -16.231213   1.000000
    9      -16.126309   1.000000
   10      -15.989361   1.000000
   11      -15.932273   1.000000
   12      -15.885742   1.000000
   13      -15.774387   1.000000
   14      -15.721647   1.000000
   15      -15.632482   1.000000
   16      -15.591802   1.000000
   17      -15.443179   1.000000
   18      -15.356123   1.000000
   19       -9.552542   1.000000
   20       -9.342794   1.000000
   21       -9.219481   1.000000
   22       -9.004712   1.000000
   23       -8.854403   1.000000
   24       -8.688960   1.000000
   25       -8.533638   1.000000
   26       -8.459099   1.000000
   27       -8.417499   1.000000
   28       -8.347305   1.000000
   29       -8.286830   1.000000
   30       -8.237017   1.000000
   31       -8.188310   1.000000
   32       -8.071975   1.000000
   33       -7.983842   1.000000
   34       -7.895012   1.000000
   35       -7.860592   1.000000
   36       -7.607974   1.000000
   37       -7.476903   1.000000
   38       -7.377764   1.000000
   39       -7.339193   1.000000
   40       -7.265229   1.000000
   41       -7.197048   1.000000
   42       -7.135859   1.000000
   43       -7.105636   1.000000
   44       -7.040566   1.000000
   45       -6.890199   1.000000
   46       -6.828349   1.000000
   47       -6.763386   1.000000