<?xml version="1.0" encoding="ISO-8859-1"?>
<modeling>
 <generator>
  <i name="program" type="string">vasp </i>
  <i name="version" type="string">5.4.1  </i>
  <i name="subversion" type="string">05Feb16 (build Jul 05 2020 17:13:04) complex                          parallel </i>
  <i name="platform" type="string">IFC91_ompi </i>
  <i name="date" type="string">2024 07 23 </i>
  <i name="time" type="string">20:11:45 </i>
 </generator>
 <incar>
  <i type="int" name="ISTART">     0</i>
  <i type="string" name="PREC">normal</i>
  <i type="string" name="ALGO"> Normal</i>
  <i type="int" name="ISPIN">     1</i>
  <i type="int" name="ICHARG">     2</i>
  <i type="int" name="IBRION">     1</i>
  <i type="int" name="NSW">   100</i>
  <i type="int" name="ISIF">     3</i>
  <i type="int" name="ISYM">     0</i>
  <i name="SYMPREC">      0.00000001</i>
  <i name="POTIM">      0.50000000</i>
  <i type="logical" name="LREAL"> F  </i>
  <i type="logical" name="LPLANE"> F  </i>
  <i type="int" name="ISMEAR">     0</i>
  <i type="logical" name="LWAVE"> F  </i>
  <i type="logical" name="LCHARG"> F  </i>
  <v type="int" name="KPOINT_BSE">    -1     0     0     0</v>
 </incar>
 <kpoints>
  <generation param="Gamma">
   <v type="int" name="divisions">       8        8        1 </v>
   <v name="usershift">      0.00000000       0.00000000       0.00000000 </v>
   <v name="genvec1">      0.12500000       0.00000000       0.00000000 </v>
   <v name="genvec2">     -0.00000000       0.12500000       0.00000000 </v>
   <v name="genvec3">      0.00000000       0.00000000       1.00000000 </v>
   <v name="shift">      0.00000000       0.00000000       0.00000000 </v>
  </generation>
  <varray name="kpointlist" >
   <v>       0.00000000       0.00000000       0.00000000 </v>
   <v>       0.12500000       0.00000000       0.00000000 </v>
   <v>       0.25000000       0.00000000       0.00000000 </v>
   <v>       0.37500000       0.00000000       0.00000000 </v>
   <v>       0.50000000       0.00000000       0.00000000 </v>
   <v>       0.00000000       0.12500000       0.00000000 </v>
   <v>       0.12500000       0.12500000       0.00000000 </v>
   <v>       0.25000000       0.12500000       0.00000000 </v>
   <v>       0.37500000       0.12500000       0.00000000 </v>
   <v>       0.50000000       0.12500000       0.00000000 </v>
   <v>      -0.37500000       0.12500000       0.00000000 </v>
   <v>      -0.25000000       0.12500000       0.00000000 </v>
   <v>      -0.12500000       0.12500000       0.00000000 </v>
   <v>       0.00000000       0.25000000       0.00000000 </v>
   <v>       0.12500000       0.25000000       0.00000000 </v>
   <v>       0.25000000       0.25000000       0.00000000 </v>
   <v>       0.37500000       0.25000000       0.00000000 </v>
   <v>       0.50000000       0.25000000       0.00000000 </v>
   <v>      -0.37500000       0.25000000       0.00000000 </v>
   <v>      -0.25000000       0.25000000       0.00000000 </v>
   <v>      -0.12500000       0.25000000       0.00000000 </v>
   <v>      -0.00000000       0.37500000       0.00000000 </v>
   <v>       0.12500000       0.37500000       0.00000000 </v>
   <v>       0.25000000       0.37500000       0.00000000 </v>
   <v>       0.37500000       0.37500000       0.00000000 </v>
   <v>       0.50000000       0.37500000       0.00000000 </v>
   <v>      -0.37500000       0.37500000       0.00000000 </v>
   <v>      -0.25000000       0.37500000       0.00000000 </v>
   <v>      -0.12500000       0.37500000       0.00000000 </v>
   <v>       0.00000000       0.50000000       0.00000000 </v>
   <v>       0.12500000       0.50000000       0.00000000 </v>
   <v>       0.25000000       0.50000000       0.00000000 </v>
   <v>       0.37500000       0.50000000       0.00000000 </v>
   <v>       0.50000000       0.50000000       0.00000000 </v>
  </varray>
  <varray name="weights" >
   <v>       0.01562500 </v>
   <v>       0.03125000 </v>
   <v>       0.03125000 </v>
   <v>       0.03125000 </v>
   <v>       0.01562500 </v>
   <v>       0.03125000 </v>
   <v>       0.03125000 </v>
   <v>       0.03125000 </v>
   <v>       0.03125000 </v>
   <v>       0.03125000 </v>
   <v>       0.03125000 </v>
   <v>       0.03125000 </v>
   <v>       0.03125000 </v>
   <v>       0.03125000 </v>
   <v>       0.03125000 </v>
   <v>       0.03125000 </v>
   <v>       0.03125000 </v>
   <v>       0.03125000 </v>
   <v>       0.03125000 </v>
   <v>       0.03125000 </v>
   <v>       0.03125000 </v>
   <v>       0.03125000 </v>
   <v>       0.03125000 </v>
   <v>       0.03125000 </v>
   <v>       0.03125000 </v>
   <v>       0.03125000 </v>
   <v>       0.03125000 </v>
   <v>       0.03125000 </v>
   <v>       0.03125000 </v>
   <v>       0.01562500 </v>
   <v>       0.03125000 </v>
   <v>       0.03125000 </v>
   <v>       0.03125000 </v>
   <v>       0.01562500 </v>
  </varray>
 </kpoints>
 <parameters>
  <separator name="general" >
   <i type="string" name="SYSTEM">unknown system</i>
   <i type="logical" name="LCOMPAT"> F  </i>
  </separator>
  <separator name="electronic" >
   <i type="string" name="PREC">normal</i>
   <i name="ENMAX">    280.00000000</i>
   <i name="ENAUG">    373.43800000</i>
   <i name="EDIFF">      0.00010000</i>
   <i type="int" name="IALGO">    38</i>
   <i type="int" name="IWAVPR">    11</i>
   <i type="int" name="NBANDS">   120</i>
   <i name="NELECT">    159.00000000</i>
   <i type="int" name="TURBO">     0</i>
   <i type="int" name="IRESTART">     0</i>
   <i type="int" name="NREBOOT">     0</i>
   <i type="int" name="NMIN">     0</i>
   <i name="EREF">      0.00000000</i>
   <separator name="electronic smearing" >
    <i type="int" name="ISMEAR">     0</i>
    <i name="SIGMA">      0.20000000</i>
    <i name="KSPACING">      0.50000000</i>
    <i type="logical" name="KGAMMA"> T  </i>
   </separator>
   <separator name="electronic projectors" >
    <i type="logical" name="LREAL"> F  </i>
    <v name="ROPT">      0.00000000      0.00000000      0.00000000      0.00000000</v>
    <i type="int" name="LMAXPAW">  -100</i>
    <i type="int" name="LMAXMIX">     2</i>
    <i type="logical" name="NLSPLINE"> F  </i>
   </separator>
   <separator name="electronic startup" >
    <i type="int" name="ISTART">     0</i>
    <i type="int" name="ICHARG">     2</i>
    <i type="int" name="INIWAV">     1</i>
   </separator>
   <separator name="electronic spin" >
    <i type="int" name="ISPIN">     1</i>
    <i type="logical" name="LNONCOLLINEAR"> F  </i>
    <v name="MAGMOM">      1.00000000      1.00000000      1.00000000      1.00000000      1.00000000      1.00000000      1.00000000      1.00000000      1.00000000      1.00000000      1.00000000      1.00000000      1.00000000      1.00000000      1.00000000      1.00000000      1.00000000      1.00000000      1.00000000      1.00000000
      1.00000000      1.00000000      1.00000000      1.00000000      1.00000000      1.00000000      1.00000000</v>
    <i name="NUPDOWN">     -1.00000000</i>
    <i type="logical" name="LSORBIT"> F  </i>
    <v name="SAXIS">      0.00000000      0.00000000      1.00000000</v>
    <i type="logical" name="LSPIRAL"> F  </i>
    <v name="QSPIRAL">      0.00000000      0.00000000      0.00000000</v>
    <i type="logical" name="LZEROZ"> F  </i>
   </separator>
   <separator name="electronic exchange-correlation" >
    <i type="logical" name="LASPH"> F  </i>
    <i type="logical" name="LMETAGGA"> F  </i>
   </separator>
   <separator name="electronic convergence" >
    <i type="int" name="NELM">    60</i>
    <i type="int" name="NELMDL">    -5</i>
    <i type="int" name="NELMIN">     2</i>
    <i name="ENINI">    280.00000000</i>
    <separator name="electronic convergence detail" >
     <i type="logical" name="LDIAG"> T  </i>
     <i type="logical" name="LSUBROT"> F  </i>
     <i name="WEIMIN">      0.00100000</i>
     <i name="EBREAK">      0.00000021</i>
     <i name="DEPER">      0.30000000</i>
     <i type="int" name="NRMM">     4</i>
     <i name="TIME">      0.40000000</i>
    </separator>
   </separator>
   <separator name="electronic mixer" >
    <i name="AMIX">      0.40000000</i>
    <i name="BMIX">      1.00000000</i>
    <i name="AMIN">      0.10000000</i>
    <i name="AMIX_MAG">      1.60000000</i>
    <i name="BMIX_MAG">      1.00000000</i>
    <separator name="electronic mixer details" >
     <i type="int" name="IMIX">     4</i>
     <i type="logical" name="MIXFIRST"> F  </i>
     <i type="int" name="MAXMIX">   -45</i>
     <i name="WC">    100.00000000</i>
     <i type="int" name="INIMIX">     1</i>
     <i type="int" name="MIXPRE">     1</i>
     <i type="int" name="MREMOVE">     5</i>
    </separator>
   </separator>
   <separator name="electronic dipolcorrection" >
    <i type="logical" name="LDIPOL"> F  </i>
    <i type="logical" name="LMONO"> F  </i>
    <i type="int" name="IDIPOL">     0</i>
    <i name="EPSILON">      1.00000000</i>
    <v name="DIPOL">   -100.00000000   -100.00000000   -100.00000000</v>
    <i name="EFIELD">      0.00000000</i>
   </separator>
  </separator>
  <separator name="grids" >
   <i type="int" name="NGX">    42</i>
   <i type="int" name="NGY">    42</i>
   <i type="int" name="NGZ">   126</i>
   <i type="int" name="NGXF">    84</i>
   <i type="int" name="NGYF">    84</i>
   <i type="int" name="NGZF">   252</i>
   <i type="logical" name="ADDGRID"> F  </i>
  </separator>
  <separator name="ionic" >
   <i type="int" name="NSW">   100</i>
   <i type="int" name="IBRION">     1</i>
   <i type="int" name="ISIF">     3</i>
   <i name="PSTRESS">      0.00000000</i>
   <i name="EDIFFG">      0.00100000</i>
   <i type="int" name="NFREE">     0</i>
   <i name="POTIM">      0.50000000</i>
   <i name="SMASS">     -3.00000000</i>
   <i name="SCALEE">      1.00000000</i>
  </separator>
  <separator name="ionic md" >
   <i name="TEBEG">      0.00010000</i>
   <i name="TEEND">      0.00010000</i>
   <i type="int" name="NBLOCK">     1</i>
   <i type="int" name="KBLOCK">   100</i>
   <i type="int" name="NPACO">   256</i>
   <i name="APACO">     16.00000000</i>
  </separator>
  <separator name="symmetry" >
   <i type="int" name="ISYM">     0</i>
   <i name="SYMPREC">      0.00000001</i>
  </separator>
  <separator name="dos" >
   <i type="logical" name="LORBIT"> F  </i>
   <v name="RWIGS">     -1.00000000     -1.00000000     -1.00000000     -1.00000000</v>
   <i type="int" name="NEDOS">   301</i>
   <i name="EMIN">     10.00000000</i>
   <i name="EMAX">    -10.00000000</i>
   <i name="EFERMI">      0.00000000</i>
  </separator>
  <separator name="writing" >
   <i type="int" name="NWRITE">     2</i>
   <i type="logical" name="LWAVE"> F  </i>
   <i type="logical" name="LCHARG"> F  </i>
   <i type="logical" name="LPARD"> F  </i>
   <i type="logical" name="LVTOT"> F  </i>
   <i type="logical" name="LVHAR"> F  </i>
   <i type="logical" name="LELF"> F  </i>
   <i type="logical" name="LOPTICS"> F  </i>
   <v name="STM">      0.00000000      0.00000000      0.00000000      0.00000000      0.00000000      0.00000000      0.00000000</v>
  </separator>
  <separator name="performance" >
   <i type="int" name="NPAR">    40</i>
   <i type="int" name="NSIM">     4</i>
   <i type="int" name="NBLK">    -1</i>
   <i type="logical" name="LPLANE"> F  </i>
   <i type="logical" name="LSCALAPACK"> T  </i>
   <i type="logical" name="LSCAAWARE"> F  </i>
   <i type="logical" name="LSCALU"> F  </i>
   <i type="logical" name="LASYNC"> F  </i>
   <i type="logical" name="LORBITALREAL"> F  </i>
  </separator>
  <separator name="miscellaneous" >
   <i type="int" name="IDIOT">     3</i>
   <i type="logical" name="LMUSIC"> F  </i>
   <v name="POMASS">     50.94100000     95.94000000    183.85000000     32.06600000</v>
   <v name="DARWINR">      0.00000000      0.00000000      0.00000000      0.00000000</v>
   <v name="DARWINV">      1.00000000      1.00000000      1.00000000      1.00000000</v>
   <i type="logical" name="LCORR"> T  </i>
  </separator>
  <i type="logical" name="GGA_COMPAT"> T  </i>
  <i type="logical" name="LBERRY"> F  </i>
  <i type="int" name="ICORELEVEL">     0</i>
  <i type="logical" name="LDAU"> F  </i>
  <i type="int" name="I_CONSTRAINED_M">     0</i>
  <separator name="electronic exchange-correlation" >
   <i type="string" name="GGA">--</i>
   <i type="int" name="VOSKOWN">     0</i>
   <i type="logical" name="LHFCALC"> F  </i>
   <i type="string" name="PRECFOCK"></i>
   <i type="logical" name="LSYMGRAD"> F  </i>
   <i type="logical" name="LHFONE"> F  </i>
   <i type="logical" name="LRHFCALC"> F  </i>
   <i type="logical" name="LTHOMAS"> F  </i>
   <i type="logical" name="LMODELHF"> F  </i>
   <i name="ENCUT4O">     -1.00000000</i>
   <i type="int" name="EXXOEP">     0</i>
   <i type="int" name="FOURORBIT">     0</i>
   <i name="AEXX">      0.00000000</i>
   <i name="HFALPHA">      0.00000000</i>
   <i name="MCALPHA">      0.00000000</i>
   <i name="ALDAX">      1.00000000</i>
   <i name="AGGAX">      1.00000000</i>
   <i name="ALDAC">      1.00000000</i>
   <i name="AGGAC">      1.00000000</i>
   <i type="int" name="NKREDX">     1</i>
   <i type="int" name="NKREDY">     1</i>
   <i type="int" name="NKREDZ">     1</i>
   <i type="logical" name="SHIFTRED"> F  </i>
   <i type="logical" name="ODDONLY"> F  </i>
   <i type="logical" name="EVENONLY"> F  </i>
   <i type="int" name="LMAXFOCK">     0</i>
   <i type="int" name="NMAXFOCKAE">     0</i>
   <i type="logical" name="LFOCKAEDFT"> F  </i>
   <i name="HFSCREEN">      0.00000000</i>
   <i name="HFSCREENC">      0.00000000</i>
   <i type="int" name="NBANDSGWLOW">     0</i>
  </separator>
  <separator name="vdW DFT" >
   <i type="logical" name="LUSE_VDW"> F  </i>
   <i name="Zab_VDW">     -0.84910000</i>
   <i name="PARAM1">      0.12340000</i>
   <i name="PARAM2">      1.00000000</i>
   <i name="PARAM3">      0.00000000</i>
  </separator>
  <separator name="model GW" >
   <i type="int" name="MODEL_GW">     0</i>
   <i name="MODEL_EPS0">     58.26239943</i>
   <i name="MODEL_ALPHA">      1.00000000</i>
  </separator>
  <separator name="linear response parameters" >
   <i type="logical" name="LEPSILON"> F  </i>
   <i type="logical" name="LRPA"> F  </i>
   <i type="logical" name="LNABLA"> F  </i>
   <i type="logical" name="LVEL"> F  </i>
   <i type="int" name="KINTER">     0</i>
   <i name="CSHIFT">      0.10000000</i>
   <i name="OMEGAMAX">     -1.00000000</i>
   <i name="DEG_THRESHOLD">      0.00200000</i>
  </separator>
  <separator name="orbital magnetization" >
   <i type="logical" name="NUCIND"> F  </i>
   <v name="MAGPOS">      0.00000000      0.00000000      0.00000000</v>
   <i type="logical" name="LNICSALL"> T  </i>
   <i type="logical" name="ORBITALMAG"> F  </i>
   <i type="logical" name="LMAGBLOCH"> F  </i>
   <i type="logical" name="LCHIMAG"> F  </i>
   <i type="logical" name="LGAUGE"> T  </i>
   <i type="int" name="MAGATOM">     0</i>
   <v name="MAGDIPOL">      0.00000000      0.00000000      0.00000000</v>
   <v name="AVECCONST">      0.00000000      0.00000000      0.00000000</v>
  </separator>
  <separator name="response functions" >
   <i type="logical" name="LADDER"> F  </i>
   <i type="logical" name="LFXC"> F  </i>
   <i type="logical" name="LHARTREE"> T  </i>
   <i type="int" name="IBSE">     0</i>
   <v type="int" name="KPOINT">    -1     0     0     0</v>
   <i type="logical" name="LTCTE"> F  </i>
   <i type="logical" name="LTETE"> F  </i>
   <i type="logical" name="LTRIPLET"> F  </i>
   <i type="logical" name="LFXCEPS"> F  </i>
   <i type="logical" name="LFXHEG"> F  </i>
   <i type="int" name="NATURALO">     0</i>
   <i type="logical" name="L2ORDER"> F  </i>
   <i type="logical" name="LUSEW"> F  </i>
   <i name="ENCUTGW">     -2.00000000</i>
   <i name="ENCUTGWSOFT">     -2.00000000</i>
   <i name="ENCUTLF">     -1.00000000</i>
   <i type="int" name="LMAXMP2">    -1</i>
   <i name="SCISSOR">      0.00000000</i>
   <i type="int" name="NOMEGA">     0</i>
   <i type="int" name="NOMEGAR">     0</i>
   <i type="int" name="NBANDSGW">    -1</i>
   <i type="int" name="NBANDSO">    -1</i>
   <i type="int" name="NBANDSV">    -1</i>
   <i type="int" name="NELM">     1</i>
   <i type="int" name="NELMHF">     1</i>
   <i type="int" name="DIM">     3</i>
   <i type="int" name="ANTIRES">     0</i>
   <i name="OMEGAMAX">    -30.00000000</i>
   <i name="OMEGAMIN">    -30.00000000</i>
   <i name="OMEGATL">   -200.00000000</i>
   <i type="int" name="OMEGAGRID">     0</i>
   <i name="CSHIFT">     -0.10000000</i>
   <i type="logical" name="SELFENERGY"> F  </i>
   <i type="logical" name="LSPECTRAL"> F  </i>
   <i type="logical" name="LSPECTRALGW"> F  </i>
   <i type="logical" name="LSINGLES"> F  </i>
   <i type="logical" name="LFERMIGW"> F  </i>
   <i type="logical" name="ODDONLYGW"> F  </i>
   <i type="logical" name="EVENONLYGW"> F  </i>
   <i type="int" name="NKREDLFX">     1</i>
   <i type="int" name="NKREDLFY">     1</i>
   <i type="int" name="NKREDLFZ">     1</i>
   <i type="int" name="MAXMEM">  1800</i>
   <i type="int" name="TELESCOPE">     0</i>
   <i type="int" name="TAUPAR">     1</i>
   <i type="int" name="OMEGAPAR">    -1</i>
   <i name="LAMBDA">      1.00000000</i>
  </separator>
  <separator name="External order field" >
   <i name="OFIELD_KAPPA">      0.00000000</i>
   <v name="OFIELD_K">      0.00000000      0.00000000      0.00000000</v>
   <i name="OFIELD_Q6_NEAR">      0.00000000</i>
   <i name="OFIELD_Q6_FAR">      0.00000000</i>
   <i name="OFIELD_A">      0.00000000</i>
  </separator>
 </parameters>
 <atominfo>
  <atoms>      27 </atoms>
  <types>       4 </types>
  <array name="atoms" >
   <dimension dim="1">ion</dimension>
   <field type="string">element</field>
   <field type="int">atomtype</field>
   <set>
    <rc><c>V </c><c>   1</c></rc>
    <rc><c>V </c><c>   1</c></rc>
    <rc><c>V </c><c>   1</c></rc>
    <rc><c>Mo</c><c>   2</c></rc>
    <rc><c>Mo</c><c>   2</c></rc>
    <rc><c>Mo</c><c>   2</c></rc>
    <rc><c>W </c><c>   3</c></rc>
    <rc><c>W </c><c>   3</c></rc>
    <rc><c>W </c><c>   3</c></rc>
    <rc><c>S </c><c>   4</c></rc>
    <rc><c>S </c><c>   4</c></rc>
    <rc><c>S </c><c>   4</c></rc>
    <rc><c>S </c><c>   4</c></rc>
    <rc><c>S </c><c>   4</c></rc>
    <rc><c>S </c><c>   4</c></rc>
    <rc><c>S </c><c>   4</c></rc>
    <rc><c>S </c><c>   4</c></rc>
    <rc><c>S </c><c>   4</c></rc>
    <rc><c>S </c><c>   4</c></rc>
    <rc><c>S </c><c>   4</c></rc>
    <rc><c>S </c><c>   4</c></rc>
    <rc><c>S </c><c>   4</c></rc>
    <rc><c>S </c><c>   4</c></rc>
    <rc><c>S </c><c>   4</c></rc>
    <rc><c>S </c><c>   4</c></rc>
    <rc><c>S </c><c>   4</c></rc>
    <rc><c>S </c><c>   4</c></rc>
   </set>
  </array>
  <array name="atomtypes" >
   <dimension dim="1">type</dimension>
   <field type="int">atomspertype</field>
   <field type="string">element</field>
   <field>mass</field>
   <field>valence</field>
   <field type="string">pseudopotential</field>
   <set>
    <rc><c>   3</c><c>V </c><c>     50.94100000</c><c>      5.00000000</c><c> PAW_PBE V 08Apr2002                    </c></rc>
    <rc><c>   3</c><c>Mo</c><c>     95.94000000</c><c>      6.00000000</c><c> PAW_PBE Mo 08Apr2002                   </c></rc>
    <rc><c>   3</c><c>W </c><c>    183.85000000</c><c>      6.00000000</c><c> PAW_PBE W 08Apr2002                    </c></rc>
    <rc><c>  18</c><c>S </c><c>     32.06600000</c><c>      6.00000000</c><c>  PAW_PBE S 17Jan2003                   </c></rc>
   </set>
  </array>
 </atominfo>
 <structure name="initialpos" >
  <crystal>
   <varray name="basis" >
    <v>       8.66999996       5.03999989       0.00000000 </v>
    <v>      -8.66999982       5.04000013       0.00000000 </v>
    <v>       0.00000000       0.00000000      30.00000000 </v>
   </varray>
   <i name="volume">   2621.80797419 </i>
   <varray name="rec_basis" >
    <v>       0.05767013       0.09920635       0.00000000 </v>
    <v>      -0.05767013       0.09920635       0.00000000 </v>
    <v>       0.00000000       0.00000000       0.03333333 </v>
   </varray>
  </crystal>
  <varray name="positions" >
   <v>       0.00000000       0.66666669       0.00000000 </v>
   <v>       0.66666669       0.33333334       0.00000000 </v>
   <v>       0.66666669       0.00000000       0.00000000 </v>
   <v>       0.33333334       0.00000000       0.00000000 </v>
   <v>       0.33333334       0.66666669       0.00000000 </v>
   <v>       1.00000000       0.33333334       0.00000000 </v>
   <v>       0.00000000       0.00000000       0.00000000 </v>
   <v>       0.33333334       0.33333334       0.00000000 </v>
   <v>       0.66666669       0.66666669       0.00000000 </v>
   <v>       0.11068511       0.22244981       0.95539999 </v>
   <v>       0.22244981       0.11068511       0.04460000 </v>
   <v>       0.11068511       0.55578315       0.95539999 </v>
   <v>       0.22244981       0.44401845       0.04460000 </v>
   <v>       0.11068511       0.88911647       0.95539999 </v>
   <v>       0.22244981       0.77735180       0.04460000 </v>
   <v>       0.44401845       0.22244981       0.95539999 </v>
   <v>       0.55578315       0.11068511       0.04460000 </v>
   <v>       0.44401845       0.55578315       0.95539999 </v>
   <v>       0.55578315       0.44401845       0.04460000 </v>
   <v>       0.44401845       0.88911647       0.95539999 </v>
   <v>       0.55578315       0.77735180       0.04460000 </v>
   <v>       0.77735180       0.22244981       0.95539999 </v>
   <v>       0.88911647       0.11068511       0.04460000 </v>
   <v>       0.77735180       0.55578315       0.95539999 </v>
   <v>       0.88911647       0.44401845       0.04460000 </v>
   <v>       0.77735180       0.88911647       0.95539999 </v>
   <v>       0.88911647       0.77735180       0.04460000 </v>
  </varray>
 </structure>
 <calculation>
  <scstep>
   <time name="dav">   21.99   22.05</time>
   <time name="total">   22.04   22.10</time>
   <energy>
    <i name="alphaZ">     81.65567618 </i>
    <i name="ewald">  41890.23009643 </i>
    <i name="hartreedc"> -47722.87397937 </i>
    <i name="XCdc">   -242.92731908 </i>
    <i name="pawpsdc">   3467.42045192 </i>
    <i name="pawaedc">  -2871.19716117 </i>
    <i name="eentropy">     -0.53114231 </i>
    <i name="bandstr">   -239.39292267 </i>
    <i name="atom">   6761.44252427 </i>
    <i name="e_fr_energy">   1123.82622420 </i>
    <i name="e_wo_entrp">   1124.35736651 </i>
    <i name="e_0_energy">   1124.09179535 </i>
   </energy>
  </scstep>
  <scstep>
   <time name="dav">   28.35   28.42</time>
   <time name="total">   28.35   28.43</time>
   <energy>
    <i name="e_fr_energy">     -2.22424378 </i>
    <i name="e_wo_entrp">     -2.02843939 </i>
    <i name="e_0_energy">     -2.12634158 </i>
   </energy>
  </scstep>
  <scstep>
   <time name="dav">   27.89   27.96</time>
   <time name="total">   27.89   27.97</time>
   <energy>
    <i name="e_fr_energy">   -199.83602910 </i>
    <i name="e_wo_entrp">   -199.56774410 </i>
    <i name="e_0_energy">   -199.70188660 </i>
   </energy>
  </scstep>
  <scstep>
   <time name="dav">   30.21   30.28</time>
   <time name="total">   30.21   30.29</time>
   <energy>
    <i name="e_fr_energy">   -209.02326206 </i>
    <i name="e_wo_entrp">   -208.71943730 </i>
    <i name="e_0_energy">   -208.87134968 </i>
   </energy>
  </scstep>
  <scstep>
   <time name="dav">   28.43   28.50</time>
   <time name="total">   28.90   28.97</time>
   <energy>
    <i name="e_fr_energy">   -209.32564594 </i>
    <i name="e_wo_entrp">   -209.02398447 </i>
    <i name="e_0_energy">   -209.17481520 </i>
   </energy>
  </scstep>
  <scstep>
   <time name="dav">   30.74   30.81</time>
   <time name="total">   31.24   31.32</time>
   <energy>
    <i name="e_fr_energy">   -237.15134695 </i>
    <i name="e_wo_entrp">   -236.87198868 </i>
    <i name="e_0_energy">   -237.01166782 </i>
   </energy>
  </scstep>
  <scstep>
   <time name="dav">   32.84   32.91</time>
   <time name="total">   33.34   33.43</time>
   <energy>
    <i name="e_fr_energy">   -196.42071417 </i>
    <i name="e_wo_entrp">   -196.10696042 </i>
    <i name="e_0_energy">   -196.26383730 </i>
   </energy>
  </scstep>
  <scstep>
   <time name="dav">   30.05   30.13</time>
   <time name="total">   30.57   30.65</time>
   <energy>
    <i name="e_fr_energy">   -189.41431253 </i>
    <i name="e_wo_entrp">   -189.12150898 </i>
    <i name="e_0_energy">   -189.26791075 </i>
   </energy>
  </scstep>
  <scstep>
   <time name="dav">   31.87   31.95</time>
   <time name="total">   32.40   32.49</time>
   <energy>
    <i name="e_fr_energy">   -188.16598403 </i>
    <i name="e_wo_entrp">   -187.83011756 </i>
    <i name="e_0_energy">   -187.99805080 </i>
   </energy>
  </scstep>
  <scstep>
   <time name="dav">   32.85   32.93</time>
   <time name="total">   33.38   33.47</time>
   <energy>
    <i name="e_fr_energy">   -187.00571765 </i>
    <i name="e_wo_entrp">   -186.65847896 </i>
    <i name="e_0_energy">   -186.83209831 </i>
   </energy>
  </scstep>
  <scstep>
   <time name="dav">   32.64   32.71</time>
   <time name="total">   33.18   33.26</time>
   <energy>
    <i name="e_fr_energy">   -186.96844722 </i>
    <i name="e_wo_entrp">   -186.61811299 </i>
    <i name="e_0_energy">   -186.79328011 </i>
   </energy>
  </scstep>
  <scstep>
   <time name="dav">   30.03   30.10</time>
   <time name="total">   30.57   30.64</time>
   <energy>
    <i name="e_fr_energy">   -187.09825643 </i>
    <i name="e_wo_entrp">   -186.75889176 </i>
    <i name="e_0_energy">   -186.92857409 </i>
   </energy>
  </scstep>
  <scstep>
   <time name="dav">   31.02   31.09</time>
   <time name="total">   31.56   31.64</time>
   <energy>
    <i name="e_fr_energy">   -186.88334547 </i>
    <i name="e_wo_entrp">   -186.54664403 </i>
    <i name="e_0_energy">   -186.71499475 </i>
   </energy>
  </scstep>
  <scstep>
   <time name="dav">   32.44   32.52</time>
   <time name="total">   32.98   33.07</time>
   <energy>
    <i name="e_fr_energy">   -186.85831832 </i>
    <i name="e_wo_entrp">   -186.51338344 </i>
    <i name="e_0_energy">   -186.68585088 </i>
   </energy>
  </scstep>
  <scstep>
   <time name="dav">   29.74   29.82</time>
   <time name="total">   30.28   30.36</time>
   <energy>
    <i name="e_fr_energy">   -186.83987773 </i>
    <i name="e_wo_entrp">   -186.49291302 </i>
    <i name="e_0_energy">   -186.66639538 </i>
   </energy>
  </scstep>
  <scstep>
   <time name="dav">   29.92   29.99</time>
   <time name="total">   30.46   30.54</time>
   <energy>
    <i name="e_fr_energy">   -186.83235238 </i>
    <i name="e_wo_entrp">   -186.48560515 </i>
    <i name="e_0_energy">   -186.65897876 </i>
   </energy>
  </scstep>
  <scstep>
   <time name="dav">   30.96   31.03</time>
   <time name="total">   31.50   31.58</time>
   <energy>
    <i name="e_fr_energy">   -186.83025812 </i>
    <i name="e_wo_entrp">   -186.48546033 </i>
    <i name="e_0_energy">   -186.65785922 </i>
   </energy>
  </scstep>
  <scstep>
   <time name="dav">   29.44   29.51</time>
   <time name="total">   29.98   30.06</time>
   <energy>
    <i name="e_fr_energy">   -186.83000131 </i>
    <i name="e_wo_entrp">   -186.48486092 </i>
    <i name="e_0_energy">   -186.65743112 </i>
   </energy>
  </scstep>
  <scstep>
   <time name="dav">   27.73   27.80</time>
   <time name="total">   28.27   28.34</time>
   <energy>
    <i name="e_fr_energy">   -186.82964929 </i>
    <i name="e_wo_entrp">   -186.48432357 </i>
    <i name="e_0_energy">   -186.65698643 </i>
   </energy>
  </scstep>
  <scstep>
   <time name="dav">   24.15   24.21</time>
   <time name="total">   24.69   24.76</time>
   <energy>
    <i name="e_fr_energy">   -186.83037700 </i>
    <i name="e_wo_entrp">   -186.48520791 </i>
    <i name="e_0_energy">   -186.65779245 </i>
   </energy>
  </scstep>
  <scstep>
   <time name="dav">   21.48   21.54</time>
   <time name="total">   22.02   22.08</time>
   <energy>
    <i name="e_fr_energy">   -186.83097168 </i>
    <i name="e_wo_entrp">   -186.48598036 </i>
    <i name="e_0_energy">   -186.65847602 </i>
   </energy>
  </scstep>
  <scstep>
   <time name="dav">   20.40   20.45</time>
   <time name="total">   20.94   21.31</time>
   <energy>
    <i name="e_fr_energy">   -186.83213524 </i>
    <i name="e_wo_entrp">   -186.48697688 </i>
    <i name="e_0_energy">   -186.65955606 </i>
   </energy>
  </scstep>
  <scstep>
   <time name="dav">   20.46   20.51</time>
   <time name="total">   21.00   21.06</time>
   <energy>
    <i name="e_fr_energy">   -186.83337049 </i>
    <i name="e_wo_entrp">   -186.48832834 </i>
    <i name="e_0_energy">   -186.66084941 </i>
   </energy>
  </scstep>
  <scstep>
   <time name="dav">   18.46   18.51</time>
   <time name="total">   19.01   19.06</time>
   <energy>
    <i name="e_fr_energy">   -186.83395501 </i>
    <i name="e_wo_entrp">   -186.48889759 </i>
    <i name="e_0_energy">   -186.66142630 </i>
   </energy>
  </scstep>
  <scstep>
   <time name="dav">   16.88   16.92</time>
   <time name="total">   17.41   17.46</time>
   <energy>
    <i name="e_fr_energy">   -186.83431736 </i>
    <i name="e_wo_entrp">   -186.48921207 </i>
    <i name="e_0_energy">   -186.66176472 </i>
   </energy>
  </scstep>
  <scstep>
   <time name="dav">   18.96   19.01</time>
   <time name="total">   19.50   19.56</time>
   <energy>
    <i name="e_fr_energy">   -186.83454422 </i>
    <i name="e_wo_entrp">   -186.48945569 </i>
    <i name="e_0_energy">   -186.66199996 </i>
   </energy>
  </scstep>
  <scstep>
   <time name="dav">   19.71   19.76</time>
   <time name="total">   20.25   20.31</time>
   <energy>
    <i name="e_fr_energy">   -186.83464788 </i>
    <i name="e_wo_entrp">   -186.48955956 </i>
    <i name="e_0_energy">   -186.66210372 </i>
   </energy>
  </scstep>
  <scstep>
   <time name="dav">   20.19   20.24</time>
   <time name="total">   20.23   20.28</time>
   <energy>
    <i name="alphaZ">     81.65567618 </i>
    <i name="ewald">  41890.23009643 </i>
    <i name="hartreedc"> -47832.88118623 </i>
    <i name="XCdc">   -231.61041331 </i>
    <i name="pawpsdc">   4192.01990813 </i>
    <i name="pawaedc">  -3610.02398810 </i>
    <i name="eentropy">     -0.34508549 </i>
    <i name="bandstr">  -1437.32222615 </i>
    <i name="atom">   6761.44252427 </i>
    <i name="e_fr_energy">   -186.83469427 </i>
    <i name="e_wo_entrp">   -186.48960878 </i>
    <i name="e_0_energy">   -186.66215153 </i>
   </energy>
  </scstep>
  <structure>
   <crystal>
    <varray name="basis" >
     <v>       8.66999996       5.03999989       0.00000000 </v>
     <v>      -8.66999982       5.04000013       0.00000000 </v>
     <v>       0.00000000       0.00000000      30.00000000 </v>
    </varray>
    <i name="volume">   2621.80797419 </i>
    <varray name="rec_basis" >
     <v>       0.05767013       0.09920635       0.00000000 </v>
     <v>      -0.05767013       0.09920635       0.00000000 </v>
     <v>       0.00000000       0.00000000       0.03333333 </v>
    </varray>
   </crystal>
   <varray name="positions" >
    <v>       0.00000000       0.66666669       0.00000000 </v>
    <v>       0.66666669       0.33333334       0.00000000 </v>
    <v>       0.66666669       0.00000000       0.00000000 </v>
    <v>       0.33333334       0.00000000       0.00000000 </v>
    <v>       0.33333334       0.66666669       0.00000000 </v>
    <v>       1.00000000       0.33333334       0.00000000 </v>
    <v>       0.00000000       0.00000000       0.00000000 </v>
    <v>       0.33333334       0.33333334       0.00000000 </v>
    <v>       0.66666669       0.66666669       0.00000000 </v>
    <v>       0.11068511       0.22244981       0.95539999 </v>
    <v>       0.22244981       0.11068511       0.04460000 </v>
    <v>       0.11068511       0.55578315       0.95539999 </v>
    <v>       0.22244981       0.44401845       0.04460000 </v>
    <v>       0.11068511       0.88911647       0.95539999 </v>
    <v>       0.22244981       0.77735180       0.04460000 </v>
    <v>       0.44401845       0.22244981       0.95539999 </v>
    <v>       0.55578315       0.11068511       0.04460000 </v>
    <v>       0.44401845       0.55578315       0.95539999 </v>
    <v>       0.55578315       0.44401845       0.04460000 </v>
    <v>       0.44401845       0.88911647       0.95539999 </v>
    <v>       0.55578315       0.77735180       0.04460000 </v>
    <v>       0.77735180       0.22244981       0.95539999 </v>
    <v>       0.88911647       0.11068511       0.04460000 </v>
    <v>       0.77735180       0.55578315       0.95539999 </v>
    <v>       0.88911647       0.44401845       0.04460000 </v>
    <v>       0.77735180       0.88911647       0.95539999 </v>
    <v>       0.88911647       0.77735180       0.04460000 </v>
   </varray>
  </structure>
  <varray name="forces" >
   <v>       0.44581751       0.15971074      -0.09311363 </v>
   <v>       0.29315923      -0.05672860      -0.01689926 </v>
   <v>      -0.29918994      -0.09069948       0.10642139 </v>
   <v>       0.27985304      -0.13680472      -0.01139077 </v>
   <v>      -0.27903295      -0.12748056       0.10551974 </v>
   <v>      -0.06252166       0.24079324       0.02659154 </v>
   <v>      -0.00725870       0.27753201      -0.09950966 </v>
   <v>      -0.24226840      -0.15552138      -0.02888470 </v>
   <v>      -0.19785072      -0.13647494      -0.03099928 </v>
   <v>       0.29470748      -0.00370426      -2.94535211 </v>
   <v>      -0.26134826       0.03143969       2.90210566 </v>
   <v>      -0.78041279      -0.01147562      -2.14964426 </v>
   <v>       0.04840204       0.02757233       2.91413559 </v>
   <v>       0.36321609      -0.72955859      -2.17411079 </v>
   <v>      -0.50826397      -0.68745331       2.17921614 </v>
   <v>       0.35809117       0.69495703      -2.11802536 </v>
   <v>       0.35634719       0.66945330       1.45462895 </v>
   <v>       0.29642712      -0.01048913      -2.87693897 </v>
   <v>       0.59477545      -0.00562096       2.12066990 </v>
   <v>       0.51678950       0.69998092      -2.15184699 </v>
   <v>      -0.36849336       0.71506895       2.18529023 </v>
   <v>      -0.32454487      -0.66237100      -1.41680052 </v>
   <v>      -0.38390518      -0.72286202       2.14134740 </v>
   <v>       0.74040927       0.01706875      -1.45607723 </v>
   <v>      -0.89114682      -0.00363134       1.46101570 </v>
   <v>      -0.58046681       0.01190113      -2.10302950 </v>
   <v>       0.59870935      -0.00460217       2.07568079 </v>
  </varray>
  <varray name="stress" >
   <v>       7.20081973       0.08245414      -1.38631984 </v>
   <v>       0.08245421       4.52964524       0.01075465 </v>
   <v>      -1.38632003       0.01075466      30.32966026 </v>
  </varray>
  <energy>
   <i name="e_fr_energy">   -186.83469427 </i>
   <i name="e_wo_entrp">   -186.66215153 </i>
   <i name="e_0_energy">     -0.34508549 </i>
  </energy>
  <time name="totalsc">  804.01  806.47</time>
 </calculation>
 <calculation>
  <scstep>
   <time name="dav">   21.87   21.92</time>
   <time name="total">   22.42   22.47</time>
   <energy>
    <i name="alphaZ">     78.92662126 </i>
    <i name="ewald">  39381.93346606 </i>
    <i name="hartreedc"> -45339.42897321 </i>
    <i name="XCdc">   -239.06651931 </i>
    <i name="pawpsdc">   4192.01870115 </i>
    <i name="pawaedc">  -3610.02276970 </i>
    <i name="eentropy">     -0.28629818 </i>
    <i name="bandstr">  -1412.97602979 </i>
    <i name="atom">   6761.44252427 </i>
    <i name="e_fr_energy">   -187.45927744 </i>
    <i name="e_wo_entrp">   -187.17297926 </i>
    <i name="e_0_energy">   -187.31612835 </i>
   </energy>
  </scstep>
  <scstep>
   <time name="dav">   30.36   30.43</time>
   <time name="total">   30.90   30.99</time>
   <energy>
    <i name="e_fr_energy">   -189.36029836 </i>
    <i name="e_wo_entrp">   -189.03995573 </i>
    <i name="e_0_energy">   -189.20012705 </i>
   </energy>
  </scstep>
  <scstep>
   <time name="dav">   30.48   30.56</time>
   <time name="total">   31.03   31.12</time>
   <energy>
    <i name="e_fr_energy">   -189.32172130 </i>
    <i name="e_wo_entrp">   -189.04244884 </i>
    <i name="e_0_energy">   -189.18208507 </i>
   </energy>
  </scstep>
  <scstep>
   <time name="dav">   30.73   30.81</time>
   <time name="total">   31.28   31.36</time>
   <energy>
    <i name="e_fr_energy">   -188.73205059 </i>
    <i name="e_wo_entrp">   -188.44564995 </i>
    <i name="e_0_energy">   -188.58885027 </i>
   </energy>
  </scstep>
  <scstep>
   <time name="dav">   26.63   26.69</time>
   <time name="total">   27.17   27.24</time>
   <energy>
    <i name="e_fr_energy">   -188.73423282 </i>
    <i name="e_wo_entrp">   -188.44791992 </i>
    <i name="e_0_energy">   -188.59107637 </i>
   </energy>
  </scstep>
  <scstep>
   <time name="dav">   29.45   29.52</time>
   <time name="total">   30.01   30.08</time>
   <energy>
    <i name="e_fr_energy">   -188.69085137 </i>
    <i name="e_wo_entrp">   -188.40173635 </i>
    <i name="e_0_energy">   -188.54629386 </i>
   </energy>
  </scstep>
  <scstep>
   <time name="dav">   30.85   30.93</time>
   <time name="total">   31.42   31.51</time>
   <energy>
    <i name="e_fr_energy">   -188.67592613 </i>
    <i name="e_wo_entrp">   -188.38992746 </i>
    <i name="e_0_energy">   -188.53292679 </i>
   </energy>
  </scstep>
  <scstep>
   <time name="dav">   30.91   30.98</time>
   <time name="total">   31.46   31.54</time>
   <energy>
    <i name="e_fr_energy">   -188.64021541 </i>
    <i name="e_wo_entrp">   -188.35468903 </i>
    <i name="e_0_energy">   -188.49745222 </i>
   </energy>
  </scstep>
  <scstep>
   <time name="dav">   26.94   27.01</time>
   <time name="total">   27.49   27.56</time>
   <energy>
    <i name="e_fr_energy">   -188.63423148 </i>
    <i name="e_wo_entrp">   -188.34934467 </i>
    <i name="e_0_energy">   -188.49178807 </i>
   </energy>
  </scstep>
  <scstep>
   <time name="dav">   30.82   30.89</time>
   <time name="total">   31.37   31.45</time>
   <energy>
    <i name="e_fr_energy">   -188.63462379 </i>
    <i name="e_wo_entrp">   -188.34954169 </i>
    <i name="e_0_energy">   -188.49208274 </i>
   </energy>
  </scstep>
  <scstep>
   <time name="dav">   32.13   32.20</time>
   <time name="total">   32.67   32.76</time>
   <energy>
    <i name="e_fr_energy">   -188.63427988 </i>
    <i name="e_wo_entrp">   -188.34988796 </i>
    <i name="e_0_energy">   -188.49208392 </i>
   </energy>
  </scstep>
  <scstep>
   <time name="dav">   29.28   29.35</time>
   <time name="total">   29.83   29.91</time>
   <energy>
    <i name="e_fr_energy">   -188.63380712 </i>
    <i name="e_wo_entrp">   -188.34960658 </i>
    <i name="e_0_energy">   -188.49170685 </i>
   </energy>
  </scstep>
  <scstep>
   <time name="dav">   19.88   19.93</time>
   <time name="total">   19.91   19.97</time>
   <energy>
    <i name="alphaZ">     78.92662126 </i>
    <i name="ewald">  39381.93346606 </i>
    <i name="hartreedc"> -45350.17289866 </i>
    <i name="XCdc">   -237.98208897 </i>
    <i name="pawpsdc">   3950.22180271 </i>
    <i name="pawaedc">  -3364.72299384 </i>
    <i name="eentropy">     -0.28436053 </i>
    <i name="bandstr">  -1407.99592188 </i>
    <i name="atom">   6761.44252427 </i>
    <i name="e_fr_energy">   -188.63384959 </i>
    <i name="e_wo_entrp">   -188.34948906 </i>
    <i name="e_0_energy">   -188.49166932 </i>
   </energy>
  </scstep>
  <structure>
   <crystal>
    <varray name="basis" >
     <v>       8.85375534       5.10884028       0.00000000 </v>
     <v>      -8.85132506       5.10466011       0.00000000 </v>
     <v>       0.00000000       0.00000000      30.00000000 </v>
    </varray>
    <i name="volume">   2712.46253183 </i>
    <varray name="rec_basis" >
     <v>       0.05645785       0.09789619       0.00000000 </v>
     <v>      -0.05650408       0.09792307       0.00000000 </v>
     <v>       0.00000000       0.00000000       0.03333333 </v>
    </varray>
   </crystal>
   <varray name="positions" >
    <v>       0.00200471       0.66619072      -0.00014973 </v>
    <v>       0.66721080       0.33224623      -0.00002718 </v>
    <v>       0.66540021       0.00039831       0.00017114 </v>
    <v>       0.33345719      -0.00143334      -0.00001832 </v>
    <v>       0.33194691       0.66683288       0.00016969 </v>
    <v>       1.00097849       0.33465972       0.00004276 </v>
    <v>       0.00130807       0.00134846      -0.00016002 </v>
    <v>       0.33191499       0.33326305      -0.00004645 </v>
    <v>       0.66546307       0.66656397      -0.00004985 </v>
    <v>       0.11148730       0.22161216       0.95066360 </v>
    <v>       0.22187317       0.11156269       0.04926684 </v>
    <v>       0.10845895       0.55789946       0.95194317 </v>
    <v>       0.22271643       0.44401575       0.04928619 </v>
    <v>       0.10820398       0.88461429       0.95190383 </v>
    <v>       0.21774560       0.77547573       0.04810437 </v>
    <v>       0.44834077       0.22477959       0.95199402 </v>
    <v>       0.55997856       0.11289768       0.04693917 </v>
    <v>       0.44479296       0.55490824       0.95077362 </v>
    <v>       0.55741101       0.44233679       0.04801022 </v>
    <v>       0.44880634       0.89102877       0.95193963 </v>
    <v>       0.55818025       0.78179931       0.04811414 </v>
    <v>       0.77327877       0.22018265       0.95312165 </v>
    <v>       0.88458878       0.10829359       0.04804347 </v>
    <v>       0.77949342       0.55380491       0.95305849 </v>
    <v>       0.88661977       0.44648039       0.04694944 </v>
    <v>       0.77579380       0.89078838       0.95201813 </v>
    <v>       0.89076015       0.77566407       0.04793788 </v>
   </varray>
  </structure>
  <varray name="forces" >
   <v>       0.35703079       0.18374556      -0.01897891 </v>
   <v>       0.17859383      -0.05425013      -0.07683961 </v>
   <v>      -0.20174433      -0.14218959       0.02887349 </v>
   <v>       0.12031035      -0.20486255      -0.07325678 </v>
   <v>      -0.08314409      -0.14863728       0.02488926 </v>
   <v>       0.28261341       0.35946199       0.06884299 </v>
   <v>      -0.00462716       0.43785039       0.06778078 </v>
   <v>      -0.33938110      -0.24102262      -0.00286410 </v>
   <v>      -0.24047997      -0.19870128       0.01498558 </v>
   <v>       0.10963913       0.00071423      -0.15559842 </v>
   <v>      -0.10741043       0.00186311      -0.00574860 </v>
   <v>      -0.07838830       0.00126625      -0.17834208 </v>
   <v>       0.13130772       0.01705158       0.17597875 </v>
   <v>      -0.09851320      -0.07398861      -0.00838952 </v>
   <v>      -0.03076610      -0.07871258       0.16007805 </v>
   <v>      -0.09747023       0.05418345       0.14068534 </v>
   <v>       0.02577149       0.04171866       0.03389504 </v>
   <v>       0.08994115      -0.00192263      -0.01107560 </v>
   <v>      -0.08802646       0.00158407      -0.12870805 </v>
   <v>       0.03342052       0.07101883      -0.04181140 </v>
   <v>       0.09587388       0.05617718       0.01417724 </v>
   <v>      -0.01098604      -0.03271031       0.08363588 </v>
   <v>       0.11220518      -0.05468482      -0.10669528 </v>
   <v>      -0.10501869       0.00428939       0.21074771 </v>
   <v>      -0.03806696       0.00164119      -0.08217937 </v>
   <v>       0.07362068       0.00789309       0.12251626 </v>
   <v>      -0.08630506      -0.00877655      -0.25659864 </v>
  </varray>
  <varray name="stress" >
   <v>     -19.89818130      -0.01767085       0.07421404 </v>
   <v>      -0.01767086     -19.50880039      -0.05077333 </v>
   <v>       0.07421409      -0.05077341      -1.73350150 </v>
  </varray>
  <energy>
   <i name="e_fr_energy">   -188.63384959 </i>
   <i name="e_wo_entrp">   -188.49166932 </i>
   <i name="e_0_energy">     -0.28436053 </i>
  </energy>
  <time name="totalsc">  419.23  420.34</time>
 </calculation>
 <calculation>
  <scstep>
   <time name="dav">   23.98   24.04</time>
   <time name="total">   24.52   24.58</time>
   <energy>
    <i name="alphaZ">     82.34456928 </i>
    <i name="ewald">  41301.66369052 </i>
    <i name="hartreedc"> -47300.37594332 </i>
    <i name="XCdc">   -233.86719035 </i>
    <i name="pawpsdc">   3949.52840750 </i>
    <i name="pawaedc">  -3364.02358617 </i>
    <i name="eentropy">     -0.23675478 </i>
    <i name="bandstr">  -1387.02117171 </i>
    <i name="atom">   6761.44252427 </i>
    <i name="e_fr_energy">   -190.54545475 </i>
    <i name="e_wo_entrp">   -190.30869997 </i>
    <i name="e_0_energy">   -190.42707736 </i>
   </energy>
  </scstep>
  <scstep>
   <time name="dav">   28.49   28.56</time>
   <time name="total">   29.01   29.09</time>
   <energy>
    <i name="e_fr_energy">   -190.54195479 </i>
    <i name="e_wo_entrp">   -190.30243425 </i>
    <i name="e_0_energy">   -190.42219452 </i>
   </energy>
  </scstep>
  <scstep>
   <time name="dav">   30.14   30.21</time>
   <time name="total">   30.67   30.76</time>
   <energy>
    <i name="e_fr_energy">   -190.02051086 </i>
    <i name="e_wo_entrp">   -189.77208293 </i>
    <i name="e_0_energy">   -189.89629690 </i>
   </energy>
  </scstep>
  <scstep>
   <time name="dav">   31.40   31.48</time>
   <time name="total">   31.94   32.02</time>
   <energy>
    <i name="e_fr_energy">   -189.81783429 </i>
    <i name="e_wo_entrp">   -189.58022538 </i>
    <i name="e_0_energy">   -189.69902984 </i>
   </energy>
  </scstep>
  <scstep>
   <time name="dav">   28.20   28.27</time>
   <time name="total">   28.74   28.82</time>
   <energy>
    <i name="e_fr_energy">   -189.73754690 </i>
    <i name="e_wo_entrp">   -189.49546393 </i>
    <i name="e_0_energy">   -189.61650542 </i>
   </energy>
  </scstep>
  <scstep>
   <time name="dav">   29.47   29.54</time>
   <time name="total">   30.00   30.08</time>
   <energy>
    <i name="e_fr_energy">   -189.72134723 </i>
    <i name="e_wo_entrp">   -189.48237892 </i>
    <i name="e_0_energy">   -189.60186307 </i>
   </energy>
  </scstep>
  <scstep>
   <time name="dav">   30.24   30.31</time>
   <time name="total">   30.77   30.85</time>
   <energy>
    <i name="e_fr_energy">   -189.71527430 </i>
    <i name="e_wo_entrp">   -189.47534690 </i>
    <i name="e_0_energy">   -189.59531060 </i>
   </energy>
  </scstep>
  <scstep>
   <time name="dav">   27.65   27.71</time>
   <time name="total">   28.18   28.26</time>
   <energy>
    <i name="e_fr_energy">   -189.71518328 </i>
    <i name="e_wo_entrp">   -189.47568946 </i>
    <i name="e_0_energy">   -189.59543637 </i>
   </energy>
  </scstep>
  <scstep>
   <time name="dav">   26.73   26.79</time>
   <time name="total">   26.76   26.83</time>
   <energy>
    <i name="alphaZ">     82.34456928 </i>
    <i name="ewald">  41301.66369052 </i>
    <i name="hartreedc"> -47272.77342220 </i>
    <i name="XCdc">   -235.25827775 </i>
    <i name="pawpsdc">   4029.44415188 </i>
    <i name="pawaedc">  -3445.05511337 </i>
    <i name="eentropy">     -0.23982099 </i>
    <i name="bandstr">  -1411.28353798 </i>
    <i name="atom">   6761.44252427 </i>
    <i name="e_fr_energy">   -189.71523632 </i>
    <i name="e_wo_entrp">   -189.47541534 </i>
    <i name="e_0_energy">   -189.59532583 </i>
   </energy>
  </scstep>
  <structure>
   <crystal>
    <varray name="basis" >
     <v>       8.66612687       5.00258038       0.00000000 </v>
     <v>      -8.66394018       4.99882005       0.00000000 </v>
     <v>       0.00000000       0.00000000      30.00000000 </v>
    </varray>
    <i name="volume">   2599.87397838 </i>
    <varray name="rec_basis" >
     <v>       0.05768149       0.09997339       0.00000000 </v>
     <v>      -0.05772488       0.09999862       0.00000000 </v>
     <v>       0.00000000       0.00000000       0.03333333 </v>
    </varray>
   </crystal>
   <varray name="positions" >
    <v>       0.00265228       0.66615370      -0.00016047 </v>
    <v>       0.66729181       0.33198473      -0.00007066 </v>
    <v>       0.66497054       0.00035546       0.00018747 </v>
    <v>       0.33323204      -0.00188931      -0.00005977 </v>
    <v>       0.33162020       0.66666554       0.00018377 </v>
    <v>       1.00184676       0.33498619       0.00008172 </v>
    <v>       0.00203131       0.00208077      -0.00012166 </v>
    <v>       0.33118915       0.33318793      -0.00004807 </v>
    <v>       0.66490235       0.66646433      -0.00004137 </v>
    <v>       0.11159358       0.22150817       0.95057555 </v>
    <v>       0.22177331       0.11166882       0.04926359 </v>
    <v>       0.10838593       0.55797676       0.95184225 </v>
    <v>       0.22287062       0.44391814       0.04938577 </v>
    <v>       0.10798660       0.88458579       0.95189908 </v>
    <v>       0.21758530       0.77537439       0.04819496 </v>
    <v>       0.44833740       0.22496316       0.95207363 </v>
    <v>       0.56007259       0.11294232       0.04695835 </v>
    <v>       0.44487597       0.55481877       0.95076735 </v>
    <v>       0.55732927       0.44242386       0.04793739 </v>
    <v>       0.44895640       0.89111477       0.95191597 </v>
    <v>       0.55836550       0.78180073       0.04812216 </v>
    <v>       0.77321388       0.22013881       0.95316898 </v>
    <v>       0.88460544       0.10809506       0.04798310 </v>
    <v>       0.77939990       0.55391277       0.95317775 </v>
    <v>       0.88658602       0.44651963       0.04690294 </v>
    <v>       0.77587748       0.89073088       0.95208746 </v>
    <v>       0.89066284       0.77573226       0.04779267 </v>
   </varray>
  </structure>
  <varray name="forces" >
   <v>       0.33084014       0.20791500       0.00512567 </v>
   <v>       0.12696298      -0.05731035      -0.07442620 </v>
   <v>      -0.15395623      -0.16764151       0.00099345 </v>
   <v>       0.05404754      -0.22866206      -0.06913728 </v>
   <v>      -0.02043443      -0.16408927      -0.00064339 </v>
   <v>       0.39912525       0.38945520       0.05479659 </v>
   <v>      -0.00932532       0.49870537       0.08402242 </v>
   <v>      -0.37964192      -0.27923089      -0.00285346 </v>
   <v>      -0.25200955      -0.22106324       0.02064046 </v>
   <v>       0.02147292       0.00379434      -0.74605451 </v>
   <v>      -0.01696682       0.01381392       0.55582748 </v>
   <v>      -0.14050144      -0.00146993      -0.67836556 </v>
   <v>       0.04920824       0.02299392       0.74907204 </v>
   <v>       0.01747346      -0.14002550      -0.51638625 </v>
   <v>      -0.07517356      -0.14315699       0.66051879 </v>
   <v>       0.01015369       0.11149013      -0.33638641 </v>
   <v>       0.04480402       0.09785129       0.49315408 </v>
   <v>       0.00747123      -0.01020260      -0.56993670 </v>
   <v>       0.05769856      -0.01141656       0.36950232 </v>
   <v>       0.07464418       0.12462729      -0.52982059 </v>
   <v>      -0.03424680       0.10919072       0.52987729 </v>
   <v>      -0.03201234      -0.07288182      -0.35232961 </v>
   <v>      -0.00899042      -0.10464910       0.38756866 </v>
   <v>       0.05004074       0.00917223      -0.24300638 </v>
   <v>      -0.10799570       0.00451873       0.35787162 </v>
   <v>      -0.06995074       0.01800602      -0.37045000 </v>
   <v>       0.05726231      -0.00973433       0.22082545 </v>
  </varray>
  <varray name="stress" >
   <v>     -10.18976862      -0.01476550       0.02729182 </v>
   <v>      -0.01476545      -9.96624254      -0.06037132 </v>
   <v>       0.02729185      -0.06037128       6.58116732 </v>
  </varray>
  <energy>
   <i name="e_fr_energy">   -189.71523632 </i>
   <i name="e_wo_entrp">   -189.59532583 </i>
   <i name="e_0_energy">     -0.23982099 </i>
  </energy>
  <time name="totalsc">  302.42  303.21</time>
 </calculation>
 <calculation>
  <scstep>
   <time name="dav">   21.92   21.97</time>
   <time name="total">   22.44   22.49</time>
   <energy>
    <i name="alphaZ">     85.87680467 </i>
    <i name="ewald">  42860.22359463 </i>
    <i name="hartreedc"> -48876.78741193 </i>
    <i name="XCdc">   -232.91827517 </i>
    <i name="pawpsdc">   4035.40813178 </i>
    <i name="pawaedc">  -3451.07846369 </i>
    <i name="eentropy">     -0.19598231 </i>
    <i name="bandstr">  -1373.26858966 </i>
    <i name="atom">   6761.44252427 </i>
    <i name="e_fr_energy">   -191.29766742 </i>
    <i name="e_wo_entrp">   -191.10168511 </i>
    <i name="e_0_energy">   -191.19967627 </i>
   </energy>
  </scstep>
  <scstep>
   <time name="dav">   32.53   32.61</time>
   <time name="total">   33.05   33.13</time>
   <energy>
    <i name="e_fr_energy">   -191.17859268 </i>
    <i name="e_wo_entrp">   -190.97586970 </i>
    <i name="e_0_energy">   -191.07723119 </i>
   </energy>
  </scstep>
  <scstep>
   <time name="dav">   29.67   29.74</time>
   <time name="total">   30.19   30.27</time>
   <energy>
    <i name="e_fr_energy">   -191.21120930 </i>
    <i name="e_wo_entrp">   -190.99566285 </i>
    <i name="e_0_energy">   -191.10343607 </i>
   </energy>
  </scstep>
  <scstep>
   <time name="dav">   29.19   29.26</time>
   <time name="total">   29.71   29.79</time>
   <energy>
    <i name="e_fr_energy">   -190.87675013 </i>
    <i name="e_wo_entrp">   -190.67197355 </i>
    <i name="e_0_energy">   -190.77436184 </i>
   </energy>
  </scstep>
  <scstep>
   <time name="dav">   29.69   29.76</time>
   <time name="total">   30.21   30.29</time>
   <energy>
    <i name="e_fr_energy">   -190.84814441 </i>
    <i name="e_wo_entrp">   -190.65062615 </i>
    <i name="e_0_energy">   -190.74938528 </i>
   </energy>
  </scstep>
  <scstep>
   <time name="dav">   30.00   30.08</time>
   <time name="total">   30.52   30.60</time>
   <energy>
    <i name="e_fr_energy">   -190.69088036 </i>
    <i name="e_wo_entrp">   -190.48720249 </i>
    <i name="e_0_energy">   -190.58904143 </i>
   </energy>
  </scstep>
  <scstep>
   <time name="dav">   29.26   29.33</time>
   <time name="total">   29.78   29.86</time>
   <energy>
    <i name="e_fr_energy">   -190.68481570 </i>
    <i name="e_wo_entrp">   -190.48261108 </i>
    <i name="e_0_energy">   -190.58371339 </i>
   </energy>
  </scstep>
  <scstep>
   <time name="dav">   29.04   29.11</time>
   <time name="total">   29.56   29.64</time>
   <energy>
    <i name="e_fr_energy">   -190.68322748 </i>
    <i name="e_wo_entrp">   -190.48141512 </i>
    <i name="e_0_energy">   -190.58232130 </i>
   </energy>
  </scstep>
  <scstep>
   <time name="dav">   28.79   28.86</time>
   <time name="total">   29.31   29.38</time>
   <energy>
    <i name="e_fr_energy">   -190.68111257 </i>
    <i name="e_wo_entrp">   -190.47882104 </i>
    <i name="e_0_energy">   -190.57996680 </i>
   </energy>
  </scstep>
  <scstep>
   <time name="dav">   26.25   26.32</time>
   <time name="total">   26.77   26.85</time>
   <energy>
    <i name="e_fr_energy">   -190.68142577 </i>
    <i name="e_wo_entrp">   -190.47894106 </i>
    <i name="e_0_energy">   -190.58018342 </i>
   </energy>
  </scstep>
  <scstep>
   <time name="dav">   26.57   26.63</time>
   <time name="total">   27.09   27.16</time>
   <energy>
    <i name="e_fr_energy">   -190.68123278 </i>
    <i name="e_wo_entrp">   -190.47901073 </i>
    <i name="e_0_energy">   -190.58012175 </i>
   </energy>
  </scstep>
  <scstep>
   <time name="dav">   20.26   20.31</time>
   <time name="total">   20.29   20.35</time>
   <energy>
    <i name="alphaZ">     85.87680467 </i>
    <i name="ewald">  42860.22359463 </i>
    <i name="hartreedc"> -48848.33048300 </i>
    <i name="XCdc">   -234.27501389 </i>
    <i name="pawpsdc">   4063.92613649 </i>
    <i name="pawaedc">  -3479.80366448 </i>
    <i name="eentropy">     -0.20228883 </i>
    <i name="bandstr">  -1399.53884881 </i>
    <i name="atom">   6761.44252427 </i>
    <i name="e_fr_energy">   -190.68123896 </i>
    <i name="e_wo_entrp">   -190.47895013 </i>
    <i name="e_0_energy">   -190.58009455 </i>
   </energy>
  </scstep>
  <structure>
   <crystal>
    <varray name="basis" >
     <v>       8.48351078       4.89951521       0.00000000 </v>
     <v>      -8.48185326       4.89666922       0.00000000 </v>
     <v>       0.00000000       0.00000000      30.00000000 </v>
    </varray>
    <i name="volume">   2492.93745569 </i>
    <varray name="rec_basis" >
     <v>       0.05892650       0.10207059       0.00000000 </v>
     <v>      -0.05896075       0.10209054       0.00000000 </v>
     <v>       0.00000000       0.00000000       0.03333333 </v>
    </varray>
   </crystal>
   <varray name="positions" >
    <v>       0.00517811       0.66635897      -0.00012913 </v>
    <v>       0.66730909       0.33123232      -0.00022299 </v>
    <v>       0.66336623      -0.00027275       0.00016558 </v>
    <v>       0.33183627      -0.00348411      -0.00019967 </v>
    <v>       0.33056868       0.66557924       0.00016050 </v>
    <v>       1.00598155       0.33589041       0.00018333 </v>
    <v>       0.00527399       0.00540550       0.00006660 </v>
    <v>       0.32790689       0.33277321      -0.00005398 </v>
    <v>       0.66252916       0.66595034       0.00000631 </v>
    <v>       0.11157462       0.22159036       0.94852046 </v>
    <v>       0.22196034       0.11171546       0.05089922 </v>
    <v>       0.10777058       0.55856029       0.95000529 </v>
    <v>       0.22308865       0.44401872       0.05143221 </v>
    <v>       0.10717328       0.88330788       0.95039131 </v>
    <v>       0.21618740       0.77465022       0.04999526 </v>
    <v>       0.44937508       0.22561411       0.95096586 </v>
    <v>       0.56101828       0.11350814       0.04837605 </v>
    <v>       0.44469809       0.55482687       0.94910478 </v>
    <v>       0.55764585       0.44189803       0.04913203 </v>
    <v>       0.45020412       0.89170183       0.95039750 </v>
    <v>       0.55887114       0.78293359       0.04966454 </v>
    <v>       0.77250859       0.21972656       0.95206345 </v>
    <v>       0.88361368       0.10752113       0.04921183 </v>
    <v>       0.77987666       0.55357548       0.95228373 </v>
    <v>       0.88612876       0.44704850       0.04802348 </v>
    <v>       0.77555374       0.89133205       0.95089536 </v>
    <v>       0.89101564       0.77525211       0.04866101 </v>
   </varray>
  </structure>
  <varray name="forces" >
   <v>       0.30943840       0.20106794       0.05465963 </v>
   <v>       0.09260607      -0.03297598      -0.04553022 </v>
   <v>      -0.11248763      -0.24649788      -0.04976545 </v>
   <v>       0.06013560      -0.23318811      -0.02979837 </v>
   <v>       0.05683004      -0.13594255      -0.02633042 </v>
   <v>       0.48013016       0.38239839       0.00875267 </v>
   <v>      -0.04577931       0.59627524       0.04802080 </v>
   <v>      -0.44473931      -0.29802938       0.00369668 </v>
   <v>      -0.28058885      -0.28786695       0.02724000 </v>
   <v>      -0.02265634       0.00881411      -0.62758035 </v>
   <v>       0.04794528       0.05793966       0.41276246 </v>
   <v>      -0.01021360       0.00325049      -0.48802337 </v>
   <v>      -0.01886569       0.05310052       0.61577887 </v>
   <v>       0.00768790      -0.06437341      -0.38471989 </v>
   <v>      -0.00219698      -0.05646004       0.46387928 </v>
   <v>      -0.01491077       0.00747972      -0.19139574 </v>
   <v>      -0.00087354       0.00108853       0.36969494 </v>
   <v>      -0.05233657      -0.04811777      -0.40878017 </v>
   <v>       0.00882160      -0.05616581       0.21957006 </v>
   <v>       0.02216890       0.01091399      -0.35900049 </v>
   <v>      -0.10542922       0.01039532       0.40465884 </v>
   <v>       0.04285856       0.03350700      -0.21620184 </v>
   <v>      -0.04275900       0.00529222       0.25469543 </v>
   <v>       0.02571704       0.01630448      -0.17702092 </v>
   <v>       0.03008030       0.02088509       0.24756636 </v>
   <v>      -0.03916711       0.03981124      -0.15718980 </v>
   <v>       0.00858411       0.01109394       0.03036099 </v>
  </varray>
  <varray name="stress" >
   <v>      -5.76581622       0.07971755      -0.03062561 </v>
   <v>       0.07971756      -5.65723386       0.04622406 </v>
   <v>      -0.03062542       0.04622413       4.59608479 </v>
  </varray>
  <energy>
   <i name="e_fr_energy">   -190.68123896 </i>
   <i name="e_wo_entrp">   -190.58009455 </i>
   <i name="e_0_energy">     -0.20228883 </i>
  </energy>
  <time name="totalsc">  381.08  382.08</time>
 </calculation>
 <calculation>
  <scstep>
   <time name="dav">   21.86   21.91</time>
   <time name="total">   22.37   22.43</time>
   <energy>
    <i name="alphaZ">     90.16753682 </i>
    <i name="ewald">  44658.85768642 </i>
    <i name="hartreedc"> -50701.75763863 </i>
    <i name="XCdc">   -231.88041589 </i>
    <i name="pawpsdc">   4063.90067422 </i>
    <i name="pawaedc">  -3479.77360171 </i>
    <i name="eentropy">     -0.18044193 </i>
    <i name="bandstr">  -1352.80377739 </i>
    <i name="atom">   6761.44252427 </i>
    <i name="e_fr_energy">   -192.02745382 </i>
    <i name="e_wo_entrp">   -191.84701189 </i>
    <i name="e_0_energy">   -191.93723286 </i>
   </energy>
  </scstep>
  <scstep>
   <time name="dav">   29.62   29.69</time>
   <time name="total">   30.13   30.21</time>
   <energy>
    <i name="e_fr_energy">   -191.82394299 </i>
    <i name="e_wo_entrp">   -191.63157587 </i>
    <i name="e_0_energy">   -191.72775943 </i>
   </energy>
  </scstep>
  <scstep>
   <time name="dav">   29.93   30.00</time>
   <time name="total">   30.44   30.52</time>
   <energy>
    <i name="e_fr_energy">   -192.20342384 </i>
    <i name="e_wo_entrp">   -192.00247303 </i>
    <i name="e_0_energy">   -192.10294843 </i>
   </energy>
  </scstep>
  <scstep>
   <time name="dav">   29.90   29.98</time>
   <time name="total">   30.42   30.50</time>
   <energy>
    <i name="e_fr_energy">   -191.55020468 </i>
    <i name="e_wo_entrp">   -191.36289110 </i>
    <i name="e_0_energy">   -191.45654789 </i>
   </energy>
  </scstep>
  <scstep>
   <time name="dav">   29.97   30.04</time>
   <time name="total">   30.48   30.56</time>
   <energy>
    <i name="e_fr_energy">   -191.37889404 </i>
    <i name="e_wo_entrp">   -191.19224054 </i>
    <i name="e_0_energy">   -191.28556729 </i>
   </energy>
  </scstep>
  <scstep>
   <time name="dav">   30.84   30.91</time>
   <time name="total">   31.35   31.43</time>
   <energy>
    <i name="e_fr_energy">   -191.37073606 </i>
    <i name="e_wo_entrp">   -191.17702921 </i>
    <i name="e_0_energy">   -191.27388264 </i>
   </energy>
  </scstep>
  <scstep>
   <time name="dav">   29.42   29.49</time>
   <time name="total">   29.93   30.01</time>
   <energy>
    <i name="e_fr_energy">   -191.34519498 </i>
    <i name="e_wo_entrp">   -191.15802032 </i>
    <i name="e_0_energy">   -191.25160765 </i>
   </energy>
  </scstep>
  <scstep>
   <time name="dav">   28.92   28.99</time>
   <time name="total">   29.44   29.52</time>
   <energy>
    <i name="e_fr_energy">   -191.33796387 </i>
    <i name="e_wo_entrp">   -191.14958215 </i>
    <i name="e_0_energy">   -191.24377301 </i>
   </energy>
  </scstep>
  <scstep>
   <time name="dav">   31.23   31.30</time>
   <time name="total">   31.74   31.82</time>
   <energy>
    <i name="e_fr_energy">   -191.33864941 </i>
    <i name="e_wo_entrp">   -191.14976815 </i>
    <i name="e_0_energy">   -191.24420878 </i>
   </energy>
  </scstep>
  <scstep>
   <time name="dav">   28.65   28.72</time>
   <time name="total">   29.17   29.24</time>
   <energy>
    <i name="e_fr_energy">   -191.33815019 </i>
    <i name="e_wo_entrp">   -191.14951725 </i>
    <i name="e_0_energy">   -191.24383372 </i>
   </energy>
  </scstep>
  <scstep>
   <time name="dav">   26.90   26.96</time>
   <time name="total">   27.41   27.48</time>
   <energy>
    <i name="e_fr_energy">   -191.33796927 </i>
    <i name="e_wo_entrp">   -191.14926430 </i>
    <i name="e_0_energy">   -191.24361678 </i>
   </energy>
  </scstep>
  <scstep>
   <time name="dav">   19.79   19.83</time>
   <time name="total">   19.82   19.88</time>
   <energy>
    <i name="alphaZ">     90.16753682 </i>
    <i name="ewald">  44658.85768642 </i>
    <i name="hartreedc"> -50668.22891772 </i>
    <i name="XCdc">   -233.39517744 </i>
    <i name="pawpsdc">   4083.41377758 </i>
    <i name="pawaedc">  -3499.34009919 </i>
    <i name="eentropy">     -0.18869737 </i>
    <i name="bandstr">  -1384.06657471 </i>
    <i name="atom">   6761.44252427 </i>
    <i name="e_fr_energy">   -191.33794134 </i>
    <i name="e_wo_entrp">   -191.14924397 </i>
    <i name="e_0_energy">   -191.24359266 </i>
   </energy>
  </scstep>
  <structure>
   <crystal>
    <varray name="basis" >
     <v>       8.27938022       4.78669167       0.00000000 </v>
     <v>      -8.27319627       4.77600483       0.00000000 </v>
     <v>       0.00000000       0.00000000      30.00000000 </v>
    </varray>
    <i name="volume">   2374.30798808 </i>
    <varray name="rec_basis" >
     <v>       0.06034607       0.10453399       0.00000000 </v>
     <v>      -0.06048110       0.10461213       0.00000000 </v>
     <v>       0.00000000       0.00000000       0.03333333 </v>
    </varray>
   </crystal>
   <varray name="positions" >
    <v>       0.00984108       0.66673310       0.00008418 </v>
    <v>       0.66745659       0.33018712      -0.00041582 </v>
    <v>       0.65968488      -0.00245743      -0.00003141 </v>
    <v>       0.32925386      -0.00668001      -0.00033417 </v>
    <v>       0.32925740       0.66341167       0.00004519 </v>
    <v>       1.01419368       0.33714763       0.00022856 </v>
    <v>       0.01222589       0.01294650       0.00029113 </v>
    <v>       0.32109521       0.33220017      -0.00004281 </v>
    <v>       0.65712680       0.66446181       0.00011598 </v>
    <v>       0.11142028       0.22195981       0.94540455 </v>
    <v>       0.22304767       0.11195679       0.05315108 </v>
    <v>       0.10749732       0.55888151       0.94749083 </v>
    <v>       0.22349766       0.44483315       0.05449243 </v>
    <v>       0.10633386       0.88196039       0.94830830 </v>
    <v>       0.21501899       0.77379683       0.05241802 </v>
    <v>       0.44989621       0.22594263       0.94966988 </v>
    <v>       0.56141881       0.11377176       0.05034804 </v>
    <v>       0.44370769       0.55472745       0.94686176 </v>
    <v>       0.55734870       0.44090508       0.05056247 </v>
    <v>       0.45094873       0.89190088       0.94841491 </v>
    <v>       0.55842578       0.78425840       0.05183043 </v>
    <v>       0.77282043       0.21964914       0.95071402 </v>
    <v>       0.88288828       0.10772936       0.05076827 </v>
    <v>       0.78053472       0.55331708       0.95110885 </v>
    <v>       0.88632821       0.44731847       0.04948722 </v>
    <v>       0.77549015       0.89234794       0.94968316 </v>
    <v>       0.89145559       0.77500721       0.04934486 </v>
   </varray>
  </structure>
  <varray name="forces" >
   <v>       0.31283045       0.14375423       0.00030993 </v>
   <v>       0.09054433       0.06766049      -0.05828041 </v>
   <v>      -0.14004825      -0.36813886      -0.01467712 </v>
   <v>       0.08329889      -0.17125043       0.02234341 </v>
   <v>       0.08221139       0.03054706       0.03878546 </v>
   <v>       0.25468810       0.18484364      -0.01910250 </v>
   <v>      -0.03651669       0.51866715      -0.04290050 </v>
   <v>      -0.28552580      -0.08308805       0.07490101 </v>
   <v>      -0.26701643      -0.44360046       0.04936582 </v>
   <v>      -0.01360296       0.02523996      -0.36194751 </v>
   <v>       0.06609447       0.14887141       0.14459604 </v>
   <v>       0.11717051      -0.00776157      -0.11713667 </v>
   <v>      -0.03641044       0.08584836       0.27486912 </v>
   <v>      -0.05852896       0.01388918      -0.04676246 </v>
   <v>       0.07859692       0.02021070       0.12842258 </v>
   <v>      -0.12500427      -0.12441146       0.12693474 </v>
   <v>      -0.02076772      -0.08955476       0.02627100 </v>
   <v>      -0.04489985      -0.11348321      -0.19630838 </v>
   <v>      -0.10051458      -0.13810180      -0.03099502 </v>
   <v>      -0.05081325      -0.12109234      -0.11517012 </v>
   <v>      -0.10479367      -0.07659466       0.13427584 </v>
   <v>       0.13301583       0.12951427       0.09558202 </v>
   <v>      -0.00827827       0.15252151      -0.07418499 </v>
   <v>      -0.05568303       0.04097619       0.10275816 </v>
   <v>       0.20277562       0.04357810      -0.00890411 </v>
   <v>       0.05502478       0.06579318       0.19047874 </v>
   <v>      -0.12784711       0.06516215      -0.32352408 </v>
  </varray>
  <varray name="stress" >
   <v>      -0.35356753       0.25514262      -0.00476271 </v>
   <v>       0.25514250      -0.19929175       0.33920288 </v>
   <v>      -0.00476283       0.33920287      -0.52000092 </v>
  </varray>
  <energy>
   <i name="e_fr_energy">   -191.33794134 </i>
   <i name="e_wo_entrp">   -191.24359266 </i>
   <i name="e_0_energy">     -0.18869737 </i>
  </energy>
  <time name="totalsc">  385.29  386.31</time>
 </calculation>
 <calculation>
  <scstep>
   <time name="dav">   21.84   21.89</time>
   <time name="total">   22.35   22.40</time>
   <energy>
    <i name="alphaZ">     90.36901485 </i>
    <i name="ewald">  44733.94287256 </i>
    <i name="hartreedc"> -50746.10502235 </i>
    <i name="XCdc">   -233.32420327 </i>
    <i name="pawpsdc">   4083.30764726 </i>
    <i name="pawaedc">  -3499.22893698 </i>
    <i name="eentropy">     -0.18888934 </i>
    <i name="bandstr">  -1381.64471245 </i>
    <i name="atom">   6761.44252427 </i>
    <i name="e_fr_energy">   -191.42970544 </i>
    <i name="e_wo_entrp">   -191.24081610 </i>
    <i name="e_0_energy">   -191.33526077 </i>
   </energy>
  </scstep>
  <scstep>
   <time name="dav">   31.68   31.75</time>
   <time name="total">   32.19   32.28</time>
   <energy>
    <i name="e_fr_energy">   -191.48619438 </i>
    <i name="e_wo_entrp">   -191.28656033 </i>
    <i name="e_0_energy">   -191.38637736 </i>
   </energy>
  </scstep>
  <scstep>
   <time name="dav">   29.65   29.72</time>
   <time name="total">   30.16   30.24</time>
   <energy>
    <i name="e_fr_energy">   -191.44669771 </i>
    <i name="e_wo_entrp">   -191.25742076 </i>
    <i name="e_0_energy">   -191.35205923 </i>
   </energy>
  </scstep>
  <scstep>
   <time name="dav">   28.90   28.96</time>
   <time name="total">   29.41   29.49</time>
   <energy>
    <i name="e_fr_energy">   -191.44602494 </i>
    <i name="e_wo_entrp">   -191.25575113 </i>
    <i name="e_0_energy">   -191.35088803 </i>
   </energy>
  </scstep>
  <scstep>
   <time name="dav">   28.53   28.59</time>
   <time name="total">   29.03   29.11</time>
   <energy>
    <i name="e_fr_energy">   -191.44027650 </i>
    <i name="e_wo_entrp">   -191.24950754 </i>
    <i name="e_0_energy">   -191.34489202 </i>
   </energy>
  </scstep>
  <scstep>
   <time name="dav">   27.60   27.66</time>
   <time name="total">   28.11   28.19</time>
   <energy>
    <i name="e_fr_energy">   -191.43958991 </i>
    <i name="e_wo_entrp">   -191.24851834 </i>
    <i name="e_0_energy">   -191.34405413 </i>
   </energy>
  </scstep>
  <scstep>
   <time name="dav">   26.53   26.59</time>
   <time name="total">   27.03   27.11</time>
   <energy>
    <i name="e_fr_energy">   -191.43929487 </i>
    <i name="e_wo_entrp">   -191.24797811 </i>
    <i name="e_0_energy">   -191.34363649 </i>
   </energy>
  </scstep>
  <scstep>
   <time name="dav">   24.99   25.05</time>
   <time name="total">   25.03   25.09</time>
   <energy>
    <i name="alphaZ">     90.36901485 </i>
    <i name="ewald">  44733.94287256 </i>
    <i name="hartreedc"> -50745.51832527 </i>
    <i name="XCdc">   -233.36939026 </i>
    <i name="pawpsdc">   4083.76185198 </i>
    <i name="pawaedc">  -3499.67670137 </i>
    <i name="eentropy">     -0.19111824 </i>
    <i name="bandstr">  -1382.19998723 </i>
    <i name="atom">   6761.44252427 </i>
    <i name="e_fr_energy">   -191.43925870 </i>
    <i name="e_wo_entrp">   -191.24814046 </i>
    <i name="e_0_energy">   -191.34369958 </i>
   </energy>
  </scstep>
  <structure>
   <crystal>
    <varray name="basis" >
     <v>       8.27177106       4.78830945       0.00000000 </v>
     <v>      -8.25876205       4.76580408       0.00000000 </v>
     <v>       0.00000000       0.00000000      30.00000000 </v>
    </varray>
    <i name="volume">   2369.01446021 </i>
    <varray name="rec_basis" >
     <v>       0.06035173       0.10458478       0.00000000 </v>
     <v>      -0.06063673       0.10474952       0.00000000 </v>
     <v>       0.00000000       0.00000000       0.03333333 </v>
    </varray>
   </crystal>
   <varray name="positions" >
    <v>       0.01166245       0.66654904       0.00008996 </v>
    <v>       0.66808872       0.33024167      -0.00051848 </v>
    <v>       0.65723566      -0.00402159      -0.00006090 </v>
    <v>       0.32853941      -0.00791241      -0.00030036 </v>
    <v>       0.32963359       0.66326634       0.00010712 </v>
    <v>       1.01614561       0.33737633       0.00019786 </v>
    <v>       0.01501424       0.01597244       0.00022543 </v>
    <v>       0.31962149       0.33261577       0.00008290 </v>
    <v>       0.65385236       0.66290453       0.00020145 </v>
    <v>       0.11150605       0.22214485       0.94470978 </v>
    <v>       0.22405830       0.11254255       0.05345993 </v>
    <v>       0.10780104       0.55849606       0.94722205 </v>
    <v>       0.22384673       0.44541620       0.05503976 </v>
    <v>       0.10620648       0.88216907       0.94816856 </v>
    <v>       0.21532652       0.77363978       0.05270349 </v>
    <v>       0.44888540       0.22567891       0.94984113 </v>
    <v>       0.56090193       0.11337471       0.05044981 </v>
    <v>       0.44294985       0.55426674       0.94646636 </v>
    <v>       0.55631624       0.44045548       0.05055571 </v>
    <v>       0.45018465       0.89142734       0.94816302 </v>
    <v>       0.55769719       0.78421504       0.05211893 </v>
    <v>       0.77390548       0.21992074       0.95083217 </v>
    <v>       0.88363817       0.10855908       0.05069205 </v>
    <v>       0.78060229       0.55369069       0.95124370 </v>
    <v>       0.88717274       0.44694175       0.04951698 </v>
    <v>       0.77599654       0.89255633       0.94996209 </v>
    <v>       0.89142531       0.77572699       0.04882942 </v>
   </varray>
  </structure>
  <varray name="forces" >
   <v>       0.37866124       0.12999938      -0.00185630 </v>
   <v>       0.12844034       0.11704851      -0.10424946 </v>
   <v>      -0.17266028      -0.38993911      -0.02223886 </v>
   <v>       0.10551884      -0.19908379       0.00577529 </v>
   <v>       0.05796232       0.06676172       0.01122922 </v>
   <v>       0.20812428       0.21705603      -0.00625093 </v>
   <v>      -0.00631182       0.55893787      -0.01187602 </v>
   <v>      -0.29418435      -0.04881961       0.00304363 </v>
   <v>      -0.28788356      -0.54630494       0.02463179 </v>
   <v>       0.00166989       0.06109791      -0.25643782 </v>
   <v>       0.04691412       0.11847144       0.09128826 </v>
   <v>       0.07687450       0.01690813      -0.09437948 </v>
   <v>      -0.04833715       0.06537470       0.20714985 </v>
   <v>      -0.03592051       0.00219401      -0.01473793 </v>
   <v>       0.05230075      -0.00532806       0.11688269 </v>
   <v>      -0.09197716      -0.08150951       0.18806837 </v>
   <v>      -0.01236561      -0.06111367       0.00195446 </v>
   <v>      -0.04044919      -0.08928504      -0.17813696 </v>
   <v>      -0.06010923      -0.10811856       0.01189285 </v>
   <v>      -0.04369391      -0.09019165      -0.10499297 </v>
   <v>      -0.07773973      -0.04999830       0.15680739 </v>
   <v>       0.10563526       0.07077813       0.12452239 </v>
   <v>       0.00182744       0.09244628      -0.12379041 </v>
   <v>      -0.05892398       0.04679148       0.15530907 </v>
   <v>       0.13203370       0.03720104      -0.02431595 </v>
   <v>       0.05662039       0.03761684       0.24266482 </v>
   <v>      -0.12202654       0.03100878      -0.39795701 </v>
  </varray>
  <varray name="stress" >
   <v>       0.20529763       0.05285125      -0.05663993 </v>
   <v>       0.05285109       0.30205265       0.16136514 </v>
   <v>      -0.05663980       0.16136510      -1.14303829 </v>
  </varray>
  <energy>
   <i name="e_fr_energy">   -191.43925870 </i>
   <i name="e_wo_entrp">   -191.34369958 </i>
   <i name="e_0_energy">     -0.19111824 </i>
  </energy>
  <time name="totalsc">  265.28  265.98</time>
 </calculation>
 <calculation>
  <scstep>
   <time name="dav">   21.93   21.99</time>
   <time name="total">   22.44   22.50</time>
   <energy>
    <i name="alphaZ">     90.30295753 </i>
    <i name="ewald">  44704.47947939 </i>
    <i name="hartreedc"> -50715.27611581 </i>
    <i name="XCdc">   -233.41301782 </i>
    <i name="pawpsdc">   4083.80468728 </i>
    <i name="pawaedc">  -3499.72025365 </i>
    <i name="eentropy">     -0.19070606 </i>
    <i name="bandstr">  -1382.89769448 </i>
    <i name="atom">   6761.44252427 </i>
    <i name="e_fr_energy">   -191.46813936 </i>
    <i name="e_wo_entrp">   -191.27743330 </i>
    <i name="e_0_energy">   -191.37278633 </i>
   </energy>
  </scstep>
  <scstep>
   <time name="dav">   32.64   32.72</time>
   <time name="total">   33.15   33.24</time>
   <energy>
    <i name="e_fr_energy">   -191.47370898 </i>
    <i name="e_wo_entrp">   -191.27943144 </i>
    <i name="e_0_energy">   -191.37657021 </i>
   </energy>
  </scstep>
  <scstep>
   <time name="dav">   29.39   29.47</time>
   <time name="total">   29.90   29.98</time>
   <energy>
    <i name="e_fr_energy">   -191.46902258 </i>
    <i name="e_wo_entrp">   -191.27817518 </i>
    <i name="e_0_energy">   -191.37359888 </i>
   </energy>
  </scstep>
  <scstep>
   <time name="dav">   26.17   26.23</time>
   <time name="total">   26.68   26.75</time>
   <energy>
    <i name="e_fr_energy">   -191.46937657 </i>
    <i name="e_wo_entrp">   -191.27817851 </i>
    <i name="e_0_energy">   -191.37377754 </i>
   </energy>
  </scstep>
  <scstep>
   <time name="dav">   25.21   25.27</time>
   <time name="total">   25.71   25.79</time>
   <energy>
    <i name="e_fr_energy">   -191.46870333 </i>
    <i name="e_wo_entrp">   -191.27739955 </i>
    <i name="e_0_energy">   -191.37305144 </i>
   </energy>
  </scstep>
  <scstep>
   <time name="dav">   20.18   20.23</time>
   <time name="total">   20.21   20.27</time>
   <energy>
    <i name="alphaZ">     90.30295753 </i>
    <i name="ewald">  44704.47947939 </i>
    <i name="hartreedc"> -50716.32298082 </i>
    <i name="XCdc">   -233.38070138 </i>
    <i name="pawpsdc">   4084.43803185 </i>
    <i name="pawaedc">  -3500.36027222 </i>
    <i name="eentropy">     -0.19132424 </i>
    <i name="bandstr">  -1381.87641342 </i>
    <i name="atom">   6761.44252427 </i>
    <i name="e_fr_energy">   -191.46869905 </i>
    <i name="e_wo_entrp">   -191.27737481 </i>
    <i name="e_0_energy">   -191.37303693 </i>
   </energy>
  </scstep>
  <structure>
   <crystal>
    <varray name="basis" >
     <v>       8.27463637       4.79050471       0.00000000 </v>
     <v>      -8.26131870       4.76746359       0.00000000 </v>
     <v>       0.00000000       0.00000000      30.00000000 </v>
    </varray>
    <i name="volume">   2370.74741274 </i>
    <varray name="rec_basis" >
     <v>       0.06032861       0.10454069       0.00000000 </v>
     <v>      -0.06062018       0.10470921       0.00000000 </v>
     <v>       0.00000000       0.00000000       0.03333333 </v>
    </varray>
   </crystal>
   <varray name="positions" >
    <v>       0.01217871       0.66639781       0.00008700 </v>
    <v>       0.66839961       0.33032194      -0.00057096 </v>
[...]
      <set comment="kpoint 31">
       <r>  -17.5181    1.0000 </r>
       <r>  -17.2850    1.0000 </r>
       <r>  -16.9034    1.0000 </r>
       <r>  -16.6738    1.0000 </r>
       <r>  -16.5120    1.0000 </r>
       <r>  -16.4161    1.0000 </r>
       <r>  -16.3278    1.0000 </r>
       <r>  -16.2239    1.0000 </r>
       <r>  -16.1014    1.0000 </r>
       <r>  -16.0703    1.0000 </r>
       <r>  -15.8589    1.0000 </r>
       <r>  -15.8003    1.0000 </r>
       <r>  -15.7497    1.0000 </r>
       <r>  -15.6960    1.0000 </r>
       <r>  -15.5755    1.0000 </r>
       <r>  -15.5028    1.0000 </r>
       <r>  -15.4579    1.0000 </r>
       <r>  -15.3285    1.0000 </r>
       <r>   -9.7458    1.0000 </r>
       <r>   -9.4712    1.0000 </r>
       <r>   -9.3265    1.0000 </r>
       <r>   -8.9521    1.0000 </r>
       <r>   -8.8143    1.0000 </r>
       <r>   -8.7775    1.0000 </r>
       <r>   -8.6419    1.0000 </r>
       <r>   -8.4992    1.0000 </r>
       <r>   -8.4003    1.0000 </r>
       <r>   -8.3254    1.0000 </r>
       <r>   -8.2368    1.0000 </r>
       <r>   -8.1618    1.0000 </r>
       <r>   -8.1168    1.0000 </r>
       <r>   -8.0410    1.0000 </r>
       <r>   -7.9819    1.0000 </r>
       <r>   -7.8934    1.0000 </r>
       <r>   -7.7804    1.0000 </r>
       <r>   -7.7206    1.0000 </r>
       <r>   -7.5762    1.0000 </r>
       <r>   -7.4615    1.0000 </r>
       <r>   -7.3760    1.0000 </r>
       <r>   -7.2728    1.0000 </r>
       <r>   -7.1927    1.0000 </r>
       <r>   -7.0761    1.0000 </r>
       <r>   -6.9898    1.0000 </r>
       <r>   -6.9276    1.0000 </r>
       <r>   -6.8040    1.0000 </r>
       <r>   -6.7219    1.0000 </r>
       <r>   -6.6597    1.0000 </r>
       <r>   -6.5926    1.0000 </r>
       <r>   -6.5558    1.0000 </r>
       <r>   -6.5303    1.0000 </r>
       <r>   -6.4219    1.0000 </r>
       <r>   -6.3447    1.0000 </r>
       <r>   -6.2497    1.0000 </r>
       <r>   -6.1934    1.0000 </r>
       <r>   -6.0940    1.0000 </r>
       <r>   -6.0586    1.0000 </r>
       <r>   -5.9872    1.0000 </r>
       <r>   -5.8966    1.0000 </r>
       <r>   -5.8666    1.0000 </r>
       <r>   -5.7633    1.0000 </r>
       <r>   -5.7102    1.0000 </r>
       <r>   -5.6714    1.0000 </r>
       <r>   -5.5364    1.0000 </r>
       <r>   -5.3906    1.0000 </r>
       <r>   -5.3019    1.0000 </r>
       <r>   -5.1467    1.0000 </r>
       <r>   -5.0718    1.0000 </r>
       <r>   -4.9197    1.0000 </r>
       <r>   -4.7136    1.0000 </r>
       <r>   -4.6877    1.0000 </r>
       <r>   -4.5878    1.0000 </r>
       <r>   -4.4333    1.0000 </r>
       <r>   -4.3633    1.0000 </r>
       <r>   -4.2590    1.0000 </r>
       <r>   -4.1814    1.0000 </r>
       <r>   -3.9747    1.0000 </r>
       <r>   -3.8904    0.9999 </r>
       <r>   -3.7165    0.9951 </r>
       <r>   -3.5702    0.9391 </r>
       <r>   -3.2944    0.3435 </r>
       <r>   -2.9065    0.0008 </r>
       <r>   -2.8337    0.0001 </r>
       <r>   -2.6617    0.0000 </r>
       <r>   -2.5899    0.0000 </r>
       <r>   -2.4512    0.0000 </r>
       <r>   -2.3449    0.0000 </r>
       <r>   -2.2371    0.0000 </r>
       <r>   -2.0914    0.0000 </r>
       <r>   -1.9616    0.0000 </r>
       <r>   -1.8818    0.0000 </r>
       <r>   -1.7996    0.0000 </r>
       <r>   -1.6006    0.0000 </r>
       <r>   -1.3934    0.0000 </r>
       <r>   -1.3002    0.0000 </r>
       <r>   -1.2416    0.0000 </r>
       <r>   -1.1903    0.0000 </r>
       <r>   -1.1007    0.0000 </r>
       <r>   -1.0414    0.0000 </r>
       <r>   -0.9132    0.0000 </r>
       <r>   -0.8589    0.0000 </r>
       <r>   -0.8227    0.0000 </r>
       <r>   -0.7530    0.0000 </r>
       <r>   -0.6886    0.0000 </r>
       <r>   -0.5187    0.0000 </r>
       <r>   -0.4292    0.0000 </r>
       <r>   -0.3544    0.0000 </r>
       <r>   -0.2555    0.0000 </r>
       <r>   -0.1363    0.0000 </r>
       <r>    0.0417    0.0000 </r>
       <r>    0.1867    0.0000 </r>
       <r>    0.3796    0.0000 </r>
       <r>    0.4784    0.0000 </r>
       <r>    0.8023    0.0000 </r>
       <r>    0.8988    0.0000 </r>
       <r>    1.1205    0.0000 </r>
       <r>    1.2887    0.0000 </r>
       <r>    1.4231    0.0000 </r>
       <r>    2.1345    0.0000 </r>
       <r>    2.2874    0.0000 </r>
       <r>    2.3853    0.0000 </r>
      </set>
      <set comment="kpoint 32">
       <r>  -17.5457    1.0000 </r>
       <r>  -17.1720    1.0000 </r>
       <r>  -17.0417    1.0000 </r>
       <r>  -16.6745    1.0000 </r>
       <r>  -16.4501    1.0000 </r>
       <r>  -16.3805    1.0000 </r>
       <r>  -16.3040    1.0000 </r>
       <r>  -16.2248    1.0000 </r>
       <r>  -16.1617    1.0000 </r>
       <r>  -16.0537    1.0000 </r>
       <r>  -15.8932    1.0000 </r>
       <r>  -15.8051    1.0000 </r>
       <r>  -15.7567    1.0000 </r>
       <r>  -15.6990    1.0000 </r>
       <r>  -15.5673    1.0000 </r>
       <r>  -15.4929    1.0000 </r>
       <r>  -15.4679    1.0000 </r>
       <r>  -15.3107    1.0000 </r>
       <r>   -9.6713    1.0000 </r>
       <r>   -9.6125    1.0000 </r>
       <r>   -9.3455    1.0000 </r>
       <r>   -8.9587    1.0000 </r>
       <r>   -8.7356    1.0000 </r>
       <r>   -8.6588    1.0000 </r>
       <r>   -8.6011    1.0000 </r>
       <r>   -8.4348    1.0000 </r>
       <r>   -8.3965    1.0000 </r>
       <r>   -8.3342    1.0000 </r>
       <r>   -8.2840    1.0000 </r>
       <r>   -8.2147    1.0000 </r>
       <r>   -8.1380    1.0000 </r>
       <r>   -8.0895    1.0000 </r>
       <r>   -8.0324    1.0000 </r>
       <r>   -7.9782    1.0000 </r>
       <r>   -7.7851    1.0000 </r>
       <r>   -7.7033    1.0000 </r>
       <r>   -7.5030    1.0000 </r>
       <r>   -7.4387    1.0000 </r>
       <r>   -7.3702    1.0000 </r>
       <r>   -7.2688    1.0000 </r>
       <r>   -7.1966    1.0000 </r>
       <r>   -7.1026    1.0000 </r>
       <r>   -6.9626    1.0000 </r>
       <r>   -6.8931    1.0000 </r>
       <r>   -6.8386    1.0000 </r>
       <r>   -6.7551    1.0000 </r>
       <r>   -6.6865    1.0000 </r>
       <r>   -6.6064    1.0000 </r>
       <r>   -6.5294    1.0000 </r>
       <r>   -6.4608    1.0000 </r>
       <r>   -6.4424    1.0000 </r>
       <r>   -6.3680    1.0000 </r>
       <r>   -6.3216    1.0000 </r>
       <r>   -6.1775    1.0000 </r>
       <r>   -6.1308    1.0000 </r>
       <r>   -6.0370    1.0000 </r>
       <r>   -6.0018    1.0000 </r>
       <r>   -5.9034    1.0000 </r>
       <r>   -5.8511    1.0000 </r>
       <r>   -5.7455    1.0000 </r>
       <r>   -5.6696    1.0000 </r>
       <r>   -5.6052    1.0000 </r>
       <r>   -5.4825    1.0000 </r>
       <r>   -5.4264    1.0000 </r>
       <r>   -5.3056    1.0000 </r>
       <r>   -5.1022    1.0000 </r>
       <r>   -5.0353    1.0000 </r>
       <r>   -4.9284    1.0000 </r>
       <r>   -4.8716    1.0000 </r>
       <r>   -4.6991    1.0000 </r>
       <r>   -4.5994    1.0000 </r>
       <r>   -4.4616    1.0000 </r>
       <r>   -4.3305    1.0000 </r>
       <r>   -4.2594    1.0000 </r>
       <r>   -4.1621    1.0000 </r>
       <r>   -3.9665    1.0000 </r>
       <r>   -3.8732    0.9999 </r>
       <r>   -3.6593    0.9853 </r>
       <r>   -3.5780    0.9454 </r>
       <r>   -3.3448    0.4813 </r>
       <r>   -2.8810    0.0004 </r>
       <r>   -2.8167    0.0001 </r>
       <r>   -2.6476    0.0000 </r>
       <r>   -2.5737    0.0000 </r>
       <r>   -2.4546    0.0000 </r>
       <r>   -2.3417    0.0000 </r>
       <r>   -2.2566    0.0000 </r>
       <r>   -2.1010    0.0000 </r>
       <r>   -1.9958    0.0000 </r>
       <r>   -1.8841    0.0000 </r>
       <r>   -1.8045    0.0000 </r>
       <r>   -1.5407    0.0000 </r>
       <r>   -1.3954    0.0000 </r>
       <r>   -1.3180    0.0000 </r>
       <r>   -1.2592    0.0000 </r>
       <r>   -1.2130    0.0000 </r>
       <r>   -1.1307    0.0000 </r>
       <r>   -1.0190    0.0000 </r>
       <r>   -0.9571    0.0000 </r>
       <r>   -0.9053    0.0000 </r>
       <r>   -0.8701    0.0000 </r>
       <r>   -0.7748    0.0000 </r>
       <r>   -0.6418    0.0000 </r>
       <r>   -0.5283    0.0000 </r>
       <r>   -0.4113    0.0000 </r>
       <r>   -0.3212    0.0000 </r>
       <r>   -0.2382    0.0000 </r>
       <r>   -0.0518    0.0000 </r>
       <r>    0.0232    0.0000 </r>
       <r>    0.1133    0.0000 </r>
       <r>    0.4033    0.0000 </r>
       <r>    0.4968    0.0000 </r>
       <r>    0.8141    0.0000 </r>
       <r>    0.8814    0.0000 </r>
       <r>    1.0432    0.0000 </r>
       <r>    1.3399    0.0000 </r>
       <r>    1.4573    0.0000 </r>
       <r>    2.1042    0.0000 </r>
       <r>    2.2550    0.0000 </r>
       <r>    2.5651    0.0000 </r>
      </set>
      <set comment="kpoint 33">
       <r>  -17.5473    1.0000 </r>
       <r>  -17.2246    1.0000 </r>
       <r>  -16.9321    1.0000 </r>
       <r>  -16.6753    1.0000 </r>
       <r>  -16.5390    1.0000 </r>
       <r>  -16.4117    1.0000 </r>
       <r>  -16.3027    1.0000 </r>
       <r>  -16.2514    1.0000 </r>
       <r>  -16.0796    1.0000 </r>
       <r>  -16.0035    1.0000 </r>
       <r>  -15.8973    1.0000 </r>
       <r>  -15.8316    1.0000 </r>
       <r>  -15.7520    1.0000 </r>
       <r>  -15.6978    1.0000 </r>
       <r>  -15.5732    1.0000 </r>
       <r>  -15.5074    1.0000 </r>
       <r>  -15.4794    1.0000 </r>
       <r>  -15.2959    1.0000 </r>
       <r>   -9.7612    1.0000 </r>
       <r>   -9.5058    1.0000 </r>
       <r>   -9.2563    1.0000 </r>
       <r>   -8.9942    1.0000 </r>
       <r>   -8.8395    1.0000 </r>
       <r>   -8.7374    1.0000 </r>
       <r>   -8.5821    1.0000 </r>
       <r>   -8.4557    1.0000 </r>
       <r>   -8.3971    1.0000 </r>
       <r>   -8.3191    1.0000 </r>
       <r>   -8.2593    1.0000 </r>
       <r>   -8.2199    1.0000 </r>
       <r>   -8.1346    1.0000 </r>
       <r>   -8.0852    1.0000 </r>
       <r>   -8.0102    1.0000 </r>
       <r>   -7.9027    1.0000 </r>
       <r>   -7.7950    1.0000 </r>
       <r>   -7.7001    1.0000 </r>
       <r>   -7.5315    1.0000 </r>
       <r>   -7.4139    1.0000 </r>
       <r>   -7.3628    1.0000 </r>
       <r>   -7.2127    1.0000 </r>
       <r>   -7.1536    1.0000 </r>
       <r>   -7.0656    1.0000 </r>
       <r>   -6.9886    1.0000 </r>
       <r>   -6.9107    1.0000 </r>
       <r>   -6.8653    1.0000 </r>
       <r>   -6.7635    1.0000 </r>
       <r>   -6.7117    1.0000 </r>
       <r>   -6.6091    1.0000 </r>
       <r>   -6.5427    1.0000 </r>
       <r>   -6.4676    1.0000 </r>
       <r>   -6.4258    1.0000 </r>
       <r>   -6.3614    1.0000 </r>
       <r>   -6.3297    1.0000 </r>
       <r>   -6.2001    1.0000 </r>
       <r>   -6.1677    1.0000 </r>
       <r>   -6.0501    1.0000 </r>
       <r>   -5.9942    1.0000 </r>
       <r>   -5.9143    1.0000 </r>
       <r>   -5.8668    1.0000 </r>
       <r>   -5.7974    1.0000 </r>
       <r>   -5.7475    1.0000 </r>
       <r>   -5.6178    1.0000 </r>
       <r>   -5.4815    1.0000 </r>
       <r>   -5.3262    1.0000 </r>
       <r>   -5.2442    1.0000 </r>
       <r>   -5.1244    1.0000 </r>
       <r>   -5.0921    1.0000 </r>
       <r>   -4.8854    1.0000 </r>
       <r>   -4.7991    1.0000 </r>
       <r>   -4.6620    1.0000 </r>
       <r>   -4.5612    1.0000 </r>
       <r>   -4.4758    1.0000 </r>
       <r>   -4.3430    1.0000 </r>
       <r>   -4.2853    1.0000 </r>
       <r>   -4.1684    1.0000 </r>
       <r>   -3.9767    1.0000 </r>
       <r>   -3.8492    0.9998 </r>
       <r>   -3.6519    0.9832 </r>
       <r>   -3.5717    0.9403 </r>
       <r>   -3.4048    0.6470 </r>
       <r>   -2.8429    0.0002 </r>
       <r>   -2.8019    0.0001 </r>
       <r>   -2.6572    0.0000 </r>
       <r>   -2.5658    0.0000 </r>
       <r>   -2.4505    0.0000 </r>
       <r>   -2.3777    0.0000 </r>
       <r>   -2.2573    0.0000 </r>
       <r>   -2.1050    0.0000 </r>
       <r>   -2.0180    0.0000 </r>
       <r>   -1.8807    0.0000 </r>
       <r>   -1.7333    0.0000 </r>
       <r>   -1.4894    0.0000 </r>
       <r>   -1.4071    0.0000 </r>
       <r>   -1.3193    0.0000 </r>
       <r>   -1.2797    0.0000 </r>
       <r>   -1.2333    0.0000 </r>
       <r>   -1.1746    0.0000 </r>
       <r>   -1.1136    0.0000 </r>
       <r>   -0.9657    0.0000 </r>
       <r>   -0.9171    0.0000 </r>
       <r>   -0.8782    0.0000 </r>
       <r>   -0.7711    0.0000 </r>
       <r>   -0.6422    0.0000 </r>
       <r>   -0.5209    0.0000 </r>
       <r>   -0.4329    0.0000 </r>
       <r>   -0.3058    0.0000 </r>
       <r>   -0.2095    0.0000 </r>
       <r>   -0.0676    0.0000 </r>
       <r>    0.0000    0.0000 </r>
       <r>    0.1193    0.0000 </r>
       <r>    0.4748    0.0000 </r>
       <r>    0.5006    0.0000 </r>
       <r>    0.7443    0.0000 </r>
       <r>    0.9286    0.0000 </r>
       <r>    1.0057    0.0000 </r>
       <r>    1.3816    0.0000 </r>
       <r>    1.5232    0.0000 </r>
       <r>    2.1335    0.0000 </r>
       <r>    2.2889    0.0000 </r>
       <r>    2.3906    0.0000 </r>
      </set>
      <set comment="kpoint 34">
       <r>  -17.5412    1.0000 </r>
       <r>  -17.2691    1.0000 </r>
       <r>  -16.7532    1.0000 </r>
       <r>  -16.7191    1.0000 </r>
       <r>  -16.6701    1.0000 </r>
       <r>  -16.4192    1.0000 </r>
       <r>  -16.3104    1.0000 </r>
       <r>  -16.2467    1.0000 </r>
       <r>  -16.0591    1.0000 </r>
       <r>  -15.9576    1.0000 </r>
       <r>  -15.8734    1.0000 </r>
       <r>  -15.8595    1.0000 </r>
       <r>  -15.7438    1.0000 </r>
       <r>  -15.7042    1.0000 </r>
       <r>  -15.5787    1.0000 </r>
       <r>  -15.5211    1.0000 </r>
       <r>  -15.4853    1.0000 </r>
       <r>  -15.2904    1.0000 </r>
       <r>   -9.8017    1.0000 </r>
       <r>   -9.4156    1.0000 </r>
       <r>   -9.1624    1.0000 </r>
       <r>   -9.0515    1.0000 </r>
       <r>   -8.8902    1.0000 </r>
       <r>   -8.8641    1.0000 </r>
       <r>   -8.5946    1.0000 </r>
       <r>   -8.4749    1.0000 </r>
       <r>   -8.3871    1.0000 </r>
       <r>   -8.3046    1.0000 </r>
       <r>   -8.2501    1.0000 </r>
       <r>   -8.1988    1.0000 </r>
       <r>   -8.1361    1.0000 </r>
       <r>   -8.0483    1.0000 </r>
       <r>   -8.0085    1.0000 </r>
       <r>   -7.8299    1.0000 </r>
       <r>   -7.7991    1.0000 </r>
       <r>   -7.7355    1.0000 </r>
       <r>   -7.4612    1.0000 </r>
       <r>   -7.4290    1.0000 </r>
       <r>   -7.3655    1.0000 </r>
       <r>   -7.2737    1.0000 </r>
       <r>   -7.0770    1.0000 </r>
       <r>   -7.0583    1.0000 </r>
       <r>   -6.9608    1.0000 </r>
       <r>   -6.9126    1.0000 </r>
       <r>   -6.8826    1.0000 </r>
       <r>   -6.7403    1.0000 </r>
       <r>   -6.7003    1.0000 </r>
       <r>   -6.6752    1.0000 </r>
       <r>   -6.5449    1.0000 </r>
       <r>   -6.5067    1.0000 </r>
       <r>   -6.4341    1.0000 </r>
       <r>   -6.3417    1.0000 </r>
       <r>   -6.3368    1.0000 </r>
       <r>   -6.2317    1.0000 </r>
       <r>   -6.1220    1.0000 </r>
       <r>   -6.0414    1.0000 </r>
       <r>   -6.0107    1.0000 </r>
       <r>   -5.9570    1.0000 </r>
       <r>   -5.8900    1.0000 </r>
       <r>   -5.8113    1.0000 </r>
       <r>   -5.7861    1.0000 </r>
       <r>   -5.6184    1.0000 </r>
       <r>   -5.4470    1.0000 </r>
       <r>   -5.3675    1.0000 </r>
       <r>   -5.2649    1.0000 </r>
       <r>   -5.1050    1.0000 </r>
       <r>   -5.0372    1.0000 </r>
       <r>   -4.8977    1.0000 </r>
       <r>   -4.7268    1.0000 </r>
       <r>   -4.6409    1.0000 </r>
       <r>   -4.5169    1.0000 </r>
       <r>   -4.4376    1.0000 </r>
       <r>   -4.3903    1.0000 </r>
       <r>   -4.3067    1.0000 </r>
       <r>   -4.1871    1.0000 </r>
       <r>   -3.9848    1.0000 </r>
       <r>   -3.8415    0.9997 </r>
       <r>   -3.6632    0.9863 </r>
       <r>   -3.5627    0.9324 </r>
       <r>   -3.4285    0.7071 </r>
       <r>   -2.8491    0.0002 </r>
       <r>   -2.7589    0.0000 </r>
       <r>   -2.6852    0.0000 </r>
       <r>   -2.5608    0.0000 </r>
       <r>   -2.4479    0.0000 </r>
       <r>   -2.3991    0.0000 </r>
       <r>   -2.2638    0.0000 </r>
       <r>   -2.0868    0.0000 </r>
       <r>   -2.0332    0.0000 </r>
       <r>   -1.8713    0.0000 </r>
       <r>   -1.6804    0.0000 </r>
       <r>   -1.4728    0.0000 </r>
       <r>   -1.4276    0.0000 </r>
       <r>   -1.3199    0.0000 </r>
       <r>   -1.2784    0.0000 </r>
       <r>   -1.2292    0.0000 </r>
       <r>   -1.2007    0.0000 </r>
       <r>   -1.1659    0.0000 </r>
       <r>   -0.9877    0.0000 </r>
       <r>   -0.9196    0.0000 </r>
       <r>   -0.8567    0.0000 </r>
       <r>   -0.7535    0.0000 </r>
       <r>   -0.6873    0.0000 </r>
       <r>   -0.4848    0.0000 </r>
       <r>   -0.4688    0.0000 </r>
       <r>   -0.3024    0.0000 </r>
       <r>   -0.1748    0.0000 </r>
       <r>   -0.1302    0.0000 </r>
       <r>   -0.0179    0.0000 </r>
       <r>    0.1874    0.0000 </r>
       <r>    0.4450    0.0000 </r>
       <r>    0.5530    0.0000 </r>
       <r>    0.6878    0.0000 </r>
       <r>    0.9741    0.0000 </r>
       <r>    0.9916    0.0000 </r>
       <r>    1.3964    0.0000 </r>
       <r>    1.5591    0.0000 </r>
       <r>    2.2050    0.0000 </r>
       <r>    2.2540    0.0000 </r>
       <r>    2.3788    0.0000 </r>
      </set>
     </set>
    </set>
   </array>
  </eigenvalues>
  <separator name="orbital magnetization" >
   <v name="MAGDIPOLOUT">      0.00000000      0.00000000      0.00000000</v>
  </separator>
 </calculation>
 <structure name="finalpos" >
  <crystal>
   <varray name="basis" >
    <v>       8.33340922       4.84319654       0.00000000 </v>
    <v>      -8.32937985       4.83582947       0.00000000 </v>
    <v>       0.00000000       0.00000000      30.00000000 </v>
   </varray>
   <i name="volume">   2419.19308576 </i>
   <varray name="rec_basis" >
    <v>       0.05996829       0.10329122       0.00000000 </v>
    <v>      -0.06005965       0.10334118       0.00000000 </v>
    <v>       0.00000000       0.00000000       0.03333333 </v>
   </varray>
  </crystal>
  <varray name="positions" >
   <v>       0.02176135       0.65922797      -0.00028848 </v>
   <v>       0.70492847       0.34633319      -0.00264795 </v>
   <v>       0.62674596      -0.02098675       0.00182626 </v>
   <v>       0.31525274      -0.03119090       0.00078879 </v>
   <v>       0.32912076       0.66263032       0.00031672 </v>
   <v>       1.02573849       0.34917038      -0.00075327 </v>
   <v>       0.03655628       0.03131976      -0.00207564 </v>
   <v>       0.31705605       0.34655585      -0.00001945 </v>
   <v>       0.62765667       0.65250292       0.00169508 </v>
   <v>       0.11722279       0.22892136       0.94230414 </v>
   <v>       0.23097386       0.11847709       0.05278603 </v>
   <v>       0.10974198       0.55758360       0.94485025 </v>
   <v>       0.22356049       0.44891763       0.05691743 </v>
   <v>       0.10502403       0.87979399       0.94744772 </v>
   <v>       0.21289873       0.76915474       0.05540625 </v>
   <v>       0.45210001       0.22602608       0.95941462 </v>
   <v>       0.55749572       0.11451340       0.04894467 </v>
   <v>       0.43707213       0.55391438       0.94422255 </v>
   <v>       0.55584896       0.43847998       0.04947167 </v>
   <v>       0.44083102       0.88609716       0.94673348 </v>
   <v>       0.54955818       0.78117962       0.05486906 </v>
   <v>       0.77758072       0.21249551       0.95188846 </v>
   <v>       0.88138696       0.10621753       0.04449516 </v>
   <v>       0.78208277       0.56039681       0.95331478 </v>
   <v>       0.89625651       0.44972840       0.05137698 </v>
   <v>       0.77525990       0.89248153       0.95570355 </v>
   <v>       0.88850293       0.77827287       0.04101106 </v>
  </varray>
 </structure>
</modeling>
