       N       E                     dE             d eps       ncg     rms          rms(c)
DAV:   1     0.112563032546E+04    0.11256E+04   -0.35983E+04  8160   0.577E+02
DAV:   2     0.485155672777E-01   -0.11256E+04   -0.10831E+04 10960   0.173E+02
DAV:   3    -0.199586800756E+03   -0.19964E+03   -0.19130E+03 10960   0.823E+01
DAV:   4    -0.208978549995E+03   -0.93917E+01   -0.90711E+01 12040   0.261E+01
DAV:   5    -0.209324173880E+03   -0.34562E+00   -0.34459E+00 11760   0.370E+00    0.275E+01
DAV:   6    -0.237079377501E+03   -0.27755E+02   -0.10967E+02 12440   0.604E+01    0.596E+01
DAV:   7    -0.196448154586E+03    0.40631E+02   -0.17769E+02 13440   0.152E+02    0.199E+01
DAV:   8    -0.189403292160E+03    0.70449E+01   -0.17407E+01 12080   0.127E+01    0.126E+01
DAV:   9    -0.188169444679E+03    0.12338E+01   -0.31426E+00 13040   0.637E+00    0.913E+00
DAV:  10    -0.186999336357E+03    0.11701E+01   -0.20854E+00 13280   0.736E+00    0.272E+00
DAV:  11    -0.186967682373E+03    0.31654E-01   -0.59143E-01 13280   0.251E+00    0.274E+00
DAV:  12    -0.187089997693E+03   -0.12232E+00   -0.81715E-01 12120   0.482E+00    0.497E+00
DAV:  13    -0.186881102227E+03    0.20890E+00   -0.54639E-01 12920   0.410E+00    0.210E+00
DAV:  14    -0.186856843746E+03    0.24258E-01   -0.12763E-01 13280   0.206E+00    0.169E+00
DAV:  15    -0.186837211989E+03    0.19632E-01   -0.71348E-02 11880   0.161E+00    0.865E-01
DAV:  16    -0.186829567138E+03    0.76449E-02   -0.12286E-02 11800   0.467E-01    0.449E-01
DAV:  17    -0.186827686429E+03    0.18807E-02   -0.79823E-03 12720   0.432E-01    0.234E-01
DAV:  18    -0.186827230730E+03    0.45570E-03   -0.24404E-03 11600   0.144E-01    0.179E-01
DAV:  19    -0.186826876406E+03    0.35432E-03   -0.98445E-04 10880   0.133E-01    0.479E-02
DAV:  20    -0.186827614547E+03   -0.73814E-03   -0.69574E-04  9400   0.585E-02    0.497E-02
DAV:  21    -0.186828204959E+03   -0.59041E-03   -0.26414E-04  7960   0.448E-02    0.444E-02
DAV:  22    -0.186829369572E+03   -0.11646E-02   -0.21748E-04  7640   0.617E-02    0.401E-02
DAV:  23    -0.186830596275E+03   -0.12267E-02   -0.14601E-04  7440   0.445E-02    0.114E-02
DAV:  24    -0.186831184053E+03   -0.58778E-03   -0.30876E-05  6680   0.141E-02    0.776E-03
DAV:  25    -0.186831549450E+03   -0.36540E-03   -0.15785E-05  5800   0.121E-02    0.493E-03
DAV:  26    -0.186831784498E+03   -0.23505E-03   -0.90383E-06  6800   0.730E-03    0.160E-03
DAV:  27    -0.186831887588E+03   -0.10309E-03   -0.38324E-06  7080   0.479E-03    0.160E-03
DAV:  28    -0.186831928227E+03   -0.40639E-04   -0.19994E-06  7360   0.364E-03
   1 F= -.18683193E+03 E0= -.18665938E+03  d E =-.186832E+03
       N       E                     dE             d eps       ncg     rms          rms(c)
DAV:   1    -0.187459342479E+03   -0.62745E+00   -0.27113E+02  8160   0.350E+01    0.460E+00
DAV:   2    -0.189259314416E+03   -0.18000E+01   -0.20035E+01 12280   0.149E+01    0.788E+00
DAV:   3    -0.189367155087E+03   -0.10784E+00   -0.36155E+00 12440   0.117E+01    0.697E+00
DAV:   4    -0.188724542532E+03    0.64261E+00   -0.65914E-01 12640   0.492E+00    0.178E+00
DAV:   5    -0.188720452913E+03    0.40896E-02   -0.29460E-01 10160   0.142E+00    0.214E+00
DAV:   6    -0.188660262208E+03    0.60191E-01   -0.28236E-01 10920   0.146E+00    0.118E+00
DAV:   7    -0.188644686781E+03    0.15575E-01   -0.85140E-02 12000   0.116E+00    0.995E-01
DAV:   8    -0.188638786793E+03    0.59000E-02   -0.33095E-02 12000   0.106E+00    0.776E-01
DAV:   9    -0.188633732867E+03    0.50539E-02   -0.96910E-03 12960   0.544E-01    0.210E-01
DAV:  10    -0.188633568841E+03    0.16403E-03   -0.29175E-03 12960   0.206E-01    0.180E-01
DAV:  11    -0.188633519756E+03    0.49085E-04   -0.20583E-03 13440   0.231E-01    0.222E-01
DAV:  12    -0.188633307555E+03    0.21220E-03   -0.10889E-03  9760   0.187E-01    0.110E-01
DAV:  13    -0.188633263457E+03    0.44098E-04   -0.23833E-04  7120   0.740E-02
   2 F= -.18863326E+03 E0= -.18849099E+03  d E =-.180134E+01
       N       E                     dE             d eps       ncg     rms          rms(c)
DAV:   1    -0.190550704685E+03   -0.19174E+01   -0.30907E+01  9240   0.142E+01    0.446E+00
DAV:   2    -0.190543412195E+03    0.72925E-02   -0.28369E+00 11520   0.971E+00    0.747E+00
DAV:   3    -0.190024164174E+03    0.51925E+00   -0.13419E+00 12360   0.865E+00    0.413E+00
DAV:   4    -0.189819268841E+03    0.20490E+00   -0.69950E-01 12920   0.404E+00    0.248E+00
DAV:   5    -0.189737157772E+03    0.82111E-01   -0.29787E-01 11400   0.197E+00    0.119E+00
DAV:   6    -0.189722152872E+03    0.15005E-01   -0.64360E-02 11920   0.138E+00    0.853E-01
DAV:   7    -0.189716354486E+03    0.57984E-02   -0.15261E-02 12360   0.707E-01    0.222E-01
DAV:   8    -0.189716233253E+03    0.12123E-03   -0.22470E-03 10760   0.175E-01    0.152E-01
DAV:   9    -0.189716328991E+03   -0.95739E-04   -0.10151E-03 10680   0.135E-01    0.144E-01
DAV:  10    -0.189716881250E+03   -0.55226E-03   -0.14462E-03 10320   0.264E-01    0.267E-01
DAV:  11    -0.189716229434E+03    0.65182E-03   -0.91783E-04  9880   0.206E-01    0.260E-02
DAV:  12    -0.189716249824E+03   -0.20390E-04   -0.62639E-05  5800   0.309E-02
   3 F= -.18971625E+03 E0= -.18959639E+03  d E =-.108299E+01
       N       E                     dE             d eps       ncg     rms          rms(c)
DAV:   1    -0.191267212142E+03   -0.15510E+01   -0.71502E+01  8160   0.193E+01    0.462E+00
DAV:   2    -0.191147684014E+03    0.11953E+00   -0.54258E+00 13360   0.829E+00    0.518E+00
DAV:   3    -0.191188590812E+03   -0.40907E-01   -0.16006E+00 12240   0.922E+00    0.647E+00
DAV:   4    -0.190832535698E+03    0.35606E+00   -0.13555E+00 12600   0.733E+00    0.317E+00
DAV:   5    -0.190828575571E+03    0.39601E-02   -0.55891E-01 12000   0.488E+00    0.336E+00
DAV:   6    -0.190685102189E+03    0.14347E+00   -0.21403E-01 12160   0.325E+00    0.837E-01
DAV:   7    -0.190679698909E+03    0.54033E-02   -0.38895E-02 12320   0.901E-01    0.484E-01
DAV:   8    -0.190677969678E+03    0.17292E-02   -0.10557E-02 11720   0.612E-01    0.471E-01
DAV:   9    -0.190676033928E+03    0.19358E-02   -0.37286E-03 11360   0.447E-01    0.159E-01
DAV:  10    -0.190676293016E+03   -0.25909E-03   -0.11767E-03 10560   0.148E-01    0.126E-01
DAV:  11    -0.190676135172E+03    0.15784E-03   -0.87651E-04 10520   0.108E-01    0.484E-02
DAV:  12    -0.190676128104E+03    0.70681E-05   -0.14625E-04  7240   0.452E-02
   4 F= -.19067613E+03 E0= -.19057487E+03  d E =-.959878E+00
       N       E                     dE             d eps       ncg     rms          rms(c)
DAV:   1    -0.192107183568E+03   -0.14310E+01   -0.15516E+02  8160   0.279E+01    0.582E+00
DAV:   2    -0.191868216602E+03    0.23897E+00   -0.98017E+00 12040   0.889E+00    0.461E+00
DAV:   3    -0.192259196845E+03   -0.39098E+00   -0.24728E+00 12200   0.110E+01    0.932E+00
DAV:   4    -0.191576395123E+03    0.68280E+00   -0.24711E+00 12200   0.114E+01    0.365E+00
DAV:   5    -0.191403492169E+03    0.17290E+00   -0.55426E-01 12280   0.378E+00    0.203E+00
DAV:   6    -0.191370979357E+03    0.32513E-01   -0.21379E-01 12480   0.308E+00    0.171E+00
DAV:   7    -0.191349371622E+03    0.21608E-01   -0.98707E-02 12320   0.196E+00    0.664E-01
DAV:   8    -0.191342124765E+03    0.72469E-02   -0.11690E-02 10760   0.525E-01    0.202E-01
DAV:   9    -0.191343615834E+03   -0.14911E-02   -0.41231E-03 12520   0.432E-01    0.393E-01
DAV:  10    -0.191342434137E+03    0.11817E-02   -0.36791E-03 11480   0.426E-01    0.129E-01
DAV:  11    -0.191342267413E+03    0.16672E-03   -0.72813E-04 10360   0.126E-01    0.601E-02
DAV:  12    -0.191342230465E+03    0.36947E-04   -0.13290E-04  7480   0.487E-02
   5 F= -.19134223E+03 E0= -.19124809E+03  d E =-.666102E+00
       N       E                     dE             d eps       ncg     rms          rms(c)
DAV:   1    -0.191423805615E+03   -0.81538E-01   -0.67761E+00  8160   0.550E+00    0.689E-01
DAV:   2    -0.191489372785E+03   -0.65567E-01   -0.30541E-01 13600   0.293E+00    0.232E+00
DAV:   3    -0.191437918802E+03    0.51454E-01   -0.13258E-01 12280   0.241E+00    0.588E-01
DAV:   4    -0.191438674867E+03   -0.75607E-03   -0.18176E-02 11640   0.938E-01    0.682E-01
DAV:   5    -0.191433923858E+03    0.47510E-02   -0.87685E-03 11920   0.701E-01    0.217E-01
DAV:   6    -0.191433593269E+03    0.33059E-03   -0.22780E-03 10840   0.212E-01    0.134E-01
DAV:   7    -0.191433356761E+03    0.23651E-03   -0.12492E-03 10400   0.125E-01    0.725E-02
DAV:   8    -0.191433307942E+03    0.48818E-04   -0.30949E-04  8400   0.111E-01
   6 F= -.19143331E+03 E0= -.19133754E+03  d E =-.910775E-01
       N       E                     dE             d eps       ncg     rms          rms(c)
DAV:   1    -0.191450311276E+03   -0.16955E-01   -0.24549E-01  8160   0.105E+00    0.128E-01
DAV:   2    -0.191452044917E+03   -0.17336E-02   -0.88146E-03 13560   0.446E-01    0.365E-01
DAV:   3    -0.191450670489E+03    0.13744E-02   -0.33795E-03 11120   0.406E-01    0.111E-01
DAV:   4    -0.191450748233E+03   -0.77744E-04   -0.60858E-04  8640   0.170E-01
   7 F= -.19145075E+03 E0= -.19135502E+03  d E =-.174403E-01
       N       E                     dE             d eps       ncg     rms          rms(c)
DAV:   1    -0.191250256047E+03    0.20041E+00   -0.30436E+01  8160   0.117E+01    0.121E+00
DAV:   2    -0.191379271806E+03   -0.12902E+00   -0.86372E-01 13480   0.365E+00    0.265E+00
DAV:   3    -0.191294579025E+03    0.84693E-01   -0.19306E-01 12280   0.329E+00    0.102E+00
DAV:   4    -0.191290549126E+03    0.40299E-02   -0.44199E-02 12280   0.127E+00    0.922E-01
DAV:   5    -0.191284383333E+03    0.61658E-02   -0.28998E-02 12200   0.122E+00    0.645E-01
DAV:   6    -0.191281548221E+03    0.28351E-02   -0.13438E-02 11880   0.707E-01    0.335E-01
DAV:   7    -0.191280234019E+03    0.13142E-02   -0.57660E-03 11840   0.388E-01    0.232E-01
DAV:   8    -0.191279898656E+03    0.33536E-03   -0.23421E-03 11680   0.350E-01    0.188E-01
DAV:   9    -0.191279531125E+03    0.36753E-03   -0.65174E-04  9080   0.175E-01    0.409E-02
DAV:  10    -0.191279518593E+03    0.12532E-04   -0.14859E-04  6920   0.433E-02
   8 F= -.19127952E+03 E0= -.19118737E+03  d E =0.171230E+00
       N       E                     dE             d eps       ncg     rms          rms(c)
DAV:   1    -0.191230908999E+03    0.48622E-01   -0.56791E+00  8160   0.502E+00    0.565E-01
DAV:   2    -0.191252699099E+03   -0.21790E-01   -0.15237E-01 13600   0.180E+00    0.119E+00
DAV:   3    -0.191236560137E+03    0.16139E-01   -0.37976E-02 12560   0.149E+00    0.449E-01
DAV:   4    -0.191235190907E+03    0.13692E-02   -0.88568E-03 11640   0.555E-01    0.342E-01
DAV:   5    -0.191234707743E+03    0.48316E-03   -0.59102E-03 11760   0.530E-01    0.366E-01
DAV:   6    -0.191233667435E+03    0.10403E-02   -0.38217E-03 11200   0.435E-01    0.169E-01
DAV:   7    -0.191233458629E+03    0.20881E-03   -0.11478E-03 10440   0.186E-01    0.931E-02
DAV:   8    -0.191233406338E+03    0.52291E-04   -0.44505E-04  9280   0.148E-01
   9 F= -.19123341E+03 E0= -.19114375E+03  d E =0.461123E-01
       N       E                     dE             d eps       ncg     rms          rms(c)
DAV:   1    -0.191259174780E+03   -0.25716E-01   -0.42152E+00  8160   0.431E+00    0.484E-01
DAV:   2    -0.191279835095E+03   -0.20660E-01   -0.13230E-01 13600   0.166E+00    0.116E+00
DAV:   3    -0.191266042633E+03    0.13792E-01   -0.41888E-02 12320   0.145E+00    0.462E-01
DAV:   4    -0.191264948478E+03    0.10942E-02   -0.82748E-03 11160   0.555E-01    0.374E-01
DAV:   5    -0.191264240748E+03    0.70773E-03   -0.55936E-03 11280   0.544E-01    0.308E-01
DAV:   6    -0.191263301052E+03    0.93970E-03   -0.20963E-03 11040   0.286E-01    0.961E-02
DAV:   7    -0.191263440579E+03   -0.13953E-03   -0.90737E-04 10840   0.166E-01    0.138E-01
DAV:   8    -0.191263256410E+03    0.18417E-03   -0.54510E-04  8640   0.179E-01    0.751E-02
DAV:   9    -0.191263198730E+03    0.57680E-04   -0.11311E-04  6040   0.749E-02
  10 F= -.19126320E+03 E0= -.19117148E+03  d E =-.297924E-01
       N       E                     dE             d eps       ncg     rms          rms(c)
DAV:   1    -0.191302245062E+03   -0.38989E-01   -0.10517E+01  8160   0.680E+00    0.729E-01
DAV:   2    -0.191343787122E+03   -0.41542E-01   -0.28667E-01 13480   0.229E+00    0.166E+00
DAV:   3    -0.191318501444E+03    0.25286E-01   -0.10350E-01 12160   0.218E+00    0.808E-01
DAV:   4    -0.191314395220E+03    0.41062E-02   -0.21728E-02 12560   0.912E-01    0.583E-01
DAV:   5    -0.191312500281E+03    0.18949E-02   -0.12949E-02 11400   0.830E-01    0.453E-01
DAV:   6    -0.191310367781E+03    0.21325E-02   -0.47618E-03 11720   0.429E-01    0.151E-01
DAV:   7    -0.191310550814E+03   -0.18303E-03   -0.18371E-03 12080   0.230E-01    0.183E-01
DAV:   8    -0.191310259971E+03    0.29084E-03   -0.11207E-03 10080   0.251E-01    0.117E-01
DAV:   9    -0.191310114690E+03    0.14528E-03   -0.29009E-04  7920   0.114E-01    0.250E-02
DAV:  10    -0.191310117395E+03   -0.27055E-05   -0.54620E-05  6640   0.284E-02
  11 F= -.19131012E+03 E0= -.19121507E+03  d E =-.469187E-01
       N       E                     dE             d eps       ncg     rms          rms(c)
DAV:   1    -0.191342516569E+03   -0.32402E-01   -0.33842E+00  8160   0.390E+00    0.494E-01
DAV:   2    -0.191364647902E+03   -0.22131E-01   -0.12644E-01 13440   0.182E+00    0.128E+00
DAV:   3    -0.191347338412E+03    0.17309E-01   -0.48262E-02 12360   0.154E+00    0.438E-01
DAV:   4    -0.191346610183E+03    0.72823E-03   -0.99050E-03 11160   0.587E-01    0.427E-01
DAV:   5    -0.191345476516E+03    0.11337E-02   -0.61909E-03 11480   0.552E-01    0.288E-01
DAV:   6    -0.191344495154E+03    0.98136E-03   -0.20496E-03 11000   0.271E-01    0.753E-02
DAV:   7    -0.191344588047E+03   -0.92893E-04   -0.70878E-04 10720   0.130E-01
  12 F= -.19134459E+03 E0= -.19124763E+03  d E =-.344707E-01
       N       E                     dE             d eps       ncg     rms          rms(c)
DAV:   1    -0.191383242832E+03   -0.38748E-01   -0.47777E+00  8160   0.467E+00    0.564E-01
DAV:   2    -0.191406643814E+03   -0.23401E-01   -0.16759E-01 13600   0.177E+00    0.125E+00
DAV:   3    -0.191392243711E+03    0.14400E-01   -0.58439E-02 12280   0.166E+00    0.624E-01
DAV:   4    -0.191389786909E+03    0.24568E-02   -0.14515E-02 12200   0.743E-01    0.455E-01
DAV:   5    -0.191388471211E+03    0.13157E-02   -0.69180E-03 11200   0.615E-01    0.339E-01
DAV:   6    -0.191387244310E+03    0.12269E-02   -0.31677E-03 12120   0.366E-01    0.137E-01
DAV:   7    -0.191388049297E+03   -0.80499E-03   -0.24638E-03 11880   0.356E-01    0.303E-01
DAV:   8    -0.191387078585E+03    0.97071E-03   -0.14693E-03 10120   0.290E-01    0.402E-02
DAV:   9    -0.191387078408E+03    0.17707E-06   -0.76835E-05  6000   0.420E-02
  13 F= -.19138708E+03 E0= -.19128961E+03  d E =-.424904E-01
       N       E                     dE             d eps       ncg     rms          rms(c)
DAV:   1    -0.191391109328E+03   -0.40307E-02   -0.39862E-02  8160   0.432E-01    0.575E-02
DAV:   2    -0.191391334942E+03   -0.22561E-03   -0.15975E-03 13200   0.182E-01    0.127E-01
DAV:   3    -0.191391170649E+03    0.16429E-03   -0.53398E-04  9000   0.165E-01    0.595E-02
DAV:   4    -0.191391152473E+03    0.18176E-04   -0.13401E-04  5520   0.802E-02
  14 F= -.19139115E+03 E0= -.19129374E+03  d E =-.407407E-02
       N       E                     dE             d eps       ncg     rms          rms(c)
DAV:   1    -0.191377818846E+03    0.13352E-01   -0.64094E-01  8160   0.179E+00    0.350E-01
DAV:   2    -0.191383204162E+03   -0.53853E-02   -0.38175E-02 11840   0.108E+00    0.779E-01
DAV:   3    -0.191376635969E+03    0.65682E-02   -0.14005E-02 11680   0.920E-01    0.261E-01
DAV:   4    -0.191376917514E+03   -0.28154E-03   -0.51289E-03 11000   0.462E-01    0.375E-01
DAV:   5    -0.191375933191E+03    0.98432E-03   -0.46639E-03 10520   0.453E-01    0.218E-01
DAV:   6    -0.191375342969E+03    0.59022E-03   -0.15823E-03  9760   0.219E-01    0.701E-02
DAV:   7    -0.191375407008E+03   -0.64039E-04   -0.46346E-04  8720   0.143E-01
  15 F= -.19137541E+03 E0= -.19127801E+03  d E =0.157455E-01
       N       E                     dE             d eps       ncg     rms          rms(c)
DAV:   1    -0.191326238985E+03    0.49104E-01   -0.66234E+00  8160   0.557E+00    0.757E-01
DAV:   2    -0.191347892554E+03   -0.21654E-01   -0.23317E-01 13600   0.194E+00    0.122E+00
DAV:   3    -0.191333290837E+03    0.14602E-01   -0.61192E-02 12240   0.180E+00    0.771E-01
DAV:   4    -0.191328701931E+03    0.45889E-02   -0.23012E-02 11960   0.100E+00    0.508E-01
DAV:   5    -0.191327559761E+03    0.11422E-02   -0.12606E-02 10280   0.784E-01    0.527E-01
DAV:   6    -0.191324859830E+03    0.26999E-02   -0.74982E-03 11440   0.628E-01    0.202E-01
DAV:   7    -0.191324544139E+03    0.31569E-03   -0.18571E-03 12080   0.225E-01    0.849E-02
DAV:   8    -0.191324446188E+03    0.97951E-04   -0.46674E-04  9960   0.107E-01
  16 F= -.19132445E+03 E0= -.19122814E+03  d E =0.509608E-01
       N       E                     dE             d eps       ncg     rms          rms(c)
DAV:   1    -0.191477711635E+03   -0.15317E+00   -0.43929E+01  8160   0.147E+01    0.198E+00
DAV:   2    -0.191657997866E+03   -0.18029E+00   -0.15993E+00 13360   0.551E+00    0.381E+00
DAV:   3    -0.191525129071E+03    0.13287E+00   -0.51075E-01 12240   0.534E+00    0.179E+00
DAV:   4    -0.191494159988E+03    0.30969E-01   -0.12187E-01 11120   0.223E+00    0.135E+00
DAV:   5    -0.191491960462E+03    0.21995E-02   -0.98329E-02 12400   0.227E+00    0.158E+00
DAV:   6    -0.191467537536E+03    0.24423E-01   -0.66976E-02 12400   0.174E+00    0.522E-01
DAV:   7    -0.191469752707E+03   -0.22152E-02   -0.21240E-02 11720   0.949E-01    0.742E-01
DAV:   8    -0.191464533550E+03    0.52192E-02   -0.11376E-02 11560   0.814E-01    0.230E-01
DAV:   9    -0.191463821438E+03    0.71211E-03   -0.15906E-03 10280   0.210E-01    0.760E-02
DAV:  10    -0.191463783400E+03    0.38039E-04   -0.49133E-04 10200   0.792E-02
  17 F= -.19146378E+03 E0= -.19137023E+03  d E =-.139337E+00
       N       E                     dE             d eps       ncg     rms          rms(c)
DAV:   1    -0.191451522270E+03    0.12299E-01   -0.62933E-01  8160   0.173E+00    0.256E-01
DAV:   2    -0.191453011933E+03   -0.14897E-02   -0.20206E-02 12120   0.649E-01    0.426E-01
DAV:   3    -0.191451287075E+03    0.17249E-02   -0.59042E-03 11760   0.604E-01    0.235E-01
DAV:   4    -0.191450900097E+03    0.38698E-03   -0.23165E-03 10360   0.324E-01    0.195E-01
DAV:   5    -0.191450815918E+03    0.84179E-04   -0.19351E-03 10120   0.313E-01    0.205E-01
DAV:   6    -0.191450367055E+03    0.44886E-03   -0.10742E-03  9520   0.223E-01    0.595E-02
DAV:   7    -0.191450391207E+03   -0.24152E-04   -0.23589E-04  6880   0.935E-02
  18 F= -.19145039E+03 E0= -.19135579E+03  d E =0.133922E-01
       N       E                     dE             d eps       ncg     rms          rms(c)
DAV:   1    -0.191440122644E+03    0.10244E-01   -0.19968E-01  8160   0.968E-01    0.123E-01
DAV:   2    -0.191441097612E+03   -0.97497E-03   -0.67379E-03 12960   0.340E-01    0.279E-01
DAV:   3    -0.191440416328E+03    0.68128E-03   -0.23131E-03 10280   0.341E-01    0.141E-01
DAV:   4    -0.191440279979E+03    0.13635E-03   -0.59766E-04  8400   0.146E-01    0.742E-02
DAV:   5    -0.191440243170E+03    0.36810E-04   -0.25624E-04  7400   0.110E-01
  19 F= -.19144024E+03 E0= -.19134512E+03  d E =0.101480E-01
       N       E                     dE             d eps       ncg     rms          rms(c)
DAV:   1    -0.191461185226E+03   -0.20905E-01   -0.11521E+00  8160   0.230E+00    0.251E-01
DAV:   2    -0.191465861397E+03   -0.46762E-02   -0.34321E-02 13320   0.786E-01    0.555E-01
DAV:   3    -0.191462969282E+03    0.28921E-02   -0.97693E-03 11520   0.728E-01    0.263E-01
DAV:   4    -0.191462341908E+03    0.62737E-03   -0.21393E-03 10880   0.289E-01    0.124E-01
DAV:   5    -0.191462132163E+03    0.20974E-03   -0.75407E-04 10160   0.157E-01    0.895E-02
DAV:   6    -0.191462234159E+03   -0.10200E-03   -0.59000E-04  9480   0.195E-01    0.124E-01
DAV:   7    -0.191462086985E+03    0.14717E-03   -0.34602E-04  7720   0.137E-01    0.570E-02
DAV:   8    -0.191462066823E+03    0.20162E-04   -0.11908E-04  5560   0.808E-02
  20 F= -.19146207E+03 E0= -.19136867E+03  d E =-.218237E-01
       N       E                     dE             d eps       ncg     rms          rms(c)
DAV:   1    -0.191473327482E+03   -0.11240E-01   -0.22020E-01  8160   0.104E+00    0.157E-01
DAV:   2    -0.191473963263E+03   -0.63578E-03   -0.84023E-03 12640   0.367E-01    0.270E-01
DAV:   3    -0.191473547754E+03    0.41551E-03   -0.30072E-03 11480   0.391E-01    0.201E-01
DAV:   4    -0.191473215653E+03    0.33210E-03   -0.11334E-03  9640   0.226E-01    0.114E-01
DAV:   5    -0.191473157860E+03    0.57793E-04   -0.53738E-04  8520   0.178E-01
  21 F= -.19147316E+03 E0= -.19138017E+03  d E =-.110910E-01
       N       E                     dE             d eps       ncg     rms          rms(c)
DAV:   1    -0.191428902777E+03    0.44313E-01   -0.64622E+00  8160   0.561E+00    0.902E-01
DAV:   2    -0.191441298078E+03   -0.12395E-01   -0.25895E-01 13160   0.189E+00    0.129E+00
DAV:   3    -0.191437618573E+03    0.36795E-02   -0.91046E-02 11800   0.213E+00    0.141E+00
DAV:   4    -0.191421399602E+03    0.16219E-01   -0.54592E-02 12160   0.145E+00    0.561E-01
DAV:   5    -0.191419036849E+03    0.23628E-02   -0.15747E-02 10880   0.788E-01    0.515E-01
DAV:   6    -0.191416385356E+03    0.26515E-02   -0.84178E-03 11720   0.702E-01    0.249E-01
DAV:   7    -0.191415840909E+03    0.54445E-03   -0.25667E-03 12160   0.316E-01    0.141E-01
DAV:   8    -0.191415806784E+03    0.34125E-04   -0.11645E-03 10680   0.240E-01    0.137E-01
DAV:   9    -0.191415606276E+03    0.20051E-03   -0.36540E-04  8720   0.137E-01    0.290E-02
DAV:  10    -0.191415627963E+03   -0.21687E-04   -0.65734E-05  6360   0.358E-02
  22 F= -.19141563E+03 E0= -.19132022E+03  d E =0.575299E-01
       N       E                     dE             d eps       ncg     rms          rms(c)
DAV:   1    -0.191564598270E+03   -0.14899E+00   -0.24611E+01  8160   0.111E+01    0.162E+00
DAV:   2    -0.191608211194E+03   -0.43613E-01   -0.88790E-01 13240   0.336E+00    0.235E+00
DAV:   3    -0.191596277283E+03    0.11934E-01   -0.32138E-01 11760   0.395E+00    0.207E+00
DAV:   4    -0.191552055494E+03    0.44222E-01   -0.10254E-01 12040   0.236E+00    0.114E+00
DAV:   5    -0.191545276603E+03    0.67789E-02   -0.56578E-02 11880   0.184E+00    0.113E+00
DAV:   6    -0.191531909057E+03    0.13368E-01   -0.34092E-02 12320   0.137E+00    0.387E-01
DAV:   7    -0.191530869034E+03    0.10400E-02   -0.89762E-03 11400   0.564E-01    0.328E-01
DAV:   8    -0.191530101517E+03    0.76752E-03   -0.40133E-03 12000   0.484E-01    0.216E-01
DAV:   9    -0.191529535017E+03    0.56650E-03   -0.10691E-03  9880   0.222E-01    0.591E-02
DAV:  10    -0.191529539296E+03   -0.42791E-05   -0.30763E-04  7640   0.680E-02
  23 F= -.19152954E+03 E0= -.19144061E+03  d E =-.113911E+00
       N       E                     dE             d eps       ncg     rms          rms(c)
DAV:   1    -0.191539542770E+03   -0.10008E-01   -0.45407E-01  8160   0.149E+00    0.261E-01
DAV:   2    -0.191542012570E+03   -0.24698E-02   -0.23162E-02 11920   0.758E-01    0.535E-01
DAV:   3    -0.191539297336E+03    0.27152E-02   -0.80188E-03 12320   0.697E-01    0.233E-01
DAV:   4    -0.191538988795E+03    0.30854E-03   -0.22914E-03 10320   0.345E-01    0.213E-01
DAV:   5    -0.191538746674E+03    0.24212E-03   -0.16246E-03  9720   0.337E-01    0.174E-01
DAV:   6    -0.191538495599E+03    0.25107E-03   -0.88183E-04 10000   0.207E-01    0.996E-02
DAV:   7    -0.191538441118E+03    0.54481E-04   -0.37797E-04  8120   0.149E-01
  24 F= -.19153844E+03 E0= -.19145045E+03  d E =-.890182E-02
       N       E                     dE             d eps       ncg     rms          rms(c)
DAV:   1    -0.191568591220E+03   -0.30096E-01   -0.18647E+00  8160   0.296E+00    0.347E-01
DAV:   2    -0.191573129450E+03   -0.45382E-02   -0.57282E-02 13200   0.807E-01    0.490E-01
DAV:   3    -0.191572319858E+03    0.80959E-03   -0.12227E-02 12160   0.857E-01    0.472E-01
DAV:   4    -0.191570225691E+03    0.20942E-02   -0.49730E-03 11400   0.515E-01    0.189E-01
DAV:   5    -0.191569858627E+03    0.36706E-03   -0.20181E-03 10360   0.267E-01    0.179E-01
DAV:   6    -0.191569878819E+03   -0.20192E-04   -0.15901E-03 10360   0.307E-01    0.173E-01
DAV:   7    -0.191569557875E+03    0.32094E-03   -0.60817E-04  8440   0.177E-01    0.432E-02
DAV:   8    -0.191569545275E+03    0.12600E-04   -0.90215E-05  6000   0.695E-02
  25 F= -.19156955E+03 E0= -.19148397E+03  d E =-.311042E-01
       N       E                     dE             d eps       ncg     rms          rms(c)
DAV:   1    -0.191612574525E+03   -0.43017E-01   -0.49409E+00  8160   0.481E+00    0.521E-01
DAV:   2    -0.191624818686E+03   -0.12244E-01   -0.15473E-01 12640   0.122E+00    0.642E-01
DAV:   3    -0.191624445502E+03    0.37318E-03   -0.23985E-02 11640   0.123E+00    0.705E-01
DAV:   4    -0.191619712562E+03    0.47329E-02   -0.10640E-02 12120   0.804E-01    0.292E-01
DAV:   5    -0.191618909045E+03    0.80352E-03   -0.41502E-03 10600   0.442E-01    0.252E-01
DAV:   6    -0.191618939653E+03   -0.30607E-04   -0.29113E-03 11320   0.426E-01    0.240E-01
DAV:   7    -0.191618452599E+03    0.48705E-03   -0.16471E-03 10480   0.300E-01    0.154E-01
DAV:   8    -0.191618218403E+03    0.23420E-03   -0.50299E-04  8400   0.185E-01    0.520E-02
DAV:   9    -0.191618189471E+03    0.28932E-04   -0.84347E-05  6680   0.540E-02
  26 F= -.19161819E+03 E0= -.19153544E+03  d E =-.486442E-01
       N       E                     dE             d eps       ncg     rms          rms(c)
DAV:   1    -0.191652417054E+03   -0.34199E-01   -0.34541E+00  8160   0.403E+00    0.459E-01
DAV:   2    -0.191658501364E+03   -0.60843E-02   -0.11456E-01 12160   0.898E-01    0.329E-01
DAV:   3    -0.191659719449E+03   -0.12181E-02   -0.12573E-02 12280   0.747E-01    0.545E-01
DAV:   4    -0.191656880681E+03    0.28388E-02   -0.71670E-03 11840   0.728E-01    0.281E-01
DAV:   5    -0.191655999717E+03    0.88096E-03   -0.29303E-03 11320   0.334E-01    0.149E-01
DAV:   6    -0.191656234412E+03   -0.23470E-03   -0.21306E-03 10840   0.319E-01    0.223E-01
DAV:   7    -0.191655737611E+03    0.49680E-03   -0.11041E-03  9680   0.266E-01    0.793E-02
DAV:   8    -0.191655688057E+03    0.49555E-04   -0.17867E-04  6840   0.105E-01
  27 F= -.19165569E+03 E0= -.19157411E+03  d E =-.374986E-01
       N       E                     dE             d eps       ncg     rms          rms(c)
DAV:   1    -0.191703235340E+03   -0.47498E-01   -0.24724E+01  8160   0.108E+01    0.111E+00
DAV:   2    -0.191756170320E+03   -0.52935E-01   -0.77623E-01 11960   0.230E+00    0.901E-01
DAV:   3    -0.191760089465E+03   -0.39191E-02   -0.81845E-02 12440   0.208E+00    0.123E+00
DAV:   4    -0.191742777855E+03    0.17312E-01   -0.32183E-02 12280   0.162E+00    0.519E-01
DAV:   5    -0.191739153504E+03    0.36244E-02   -0.12657E-02 12360   0.593E-01    0.339E-01
DAV:   6    -0.191741482972E+03   -0.23295E-02   -0.11923E-02 12520   0.780E-01    0.610E-01
DAV:   7    -0.191737563724E+03    0.39192E-02   -0.62289E-03 11320   0.647E-01    0.118E-01
DAV:   8    -0.191737398466E+03    0.16526E-03   -0.62395E-04  9840   0.117E-01    0.530E-02
DAV:   9    -0.191737389208E+03    0.92583E-05   -0.23332E-04  7960   0.104E-01
  28 F= -.19173739E+03 E0= -.19165597E+03  d E =-.817012E-01
       N       E                     dE             d eps       ncg     rms          rms(c)
DAV:   1    -0.191732825384E+03    0.45731E-02   -0.93948E-01  8160   0.209E+00    0.238E-01
DAV:   2    -0.191736827737E+03   -0.40024E-02   -0.24291E-02 12240   0.817E-01    0.548E-01
DAV:   3    -0.191733482144E+03    0.33456E-02   -0.68902E-03 11520   0.706E-01    0.173E-01
DAV:   4    -0.191733368266E+03    0.11388E-03   -0.14232E-03 10560   0.266E-01    0.166E-01
DAV:   5    -0.191733131554E+03    0.23671E-03   -0.96284E-04 10480   0.265E-01    0.116E-01
DAV:   6    -0.191733012272E+03    0.11928E-03   -0.39538E-04  8480   0.139E-01    0.527E-02
DAV:   7    -0.191732988070E+03    0.24202E-04   -0.13717E-04  7320   0.805E-02
  29 F= -.19173299E+03 E0= -.19165173E+03  d E =0.440114E-02
       N       E                     dE             d eps       ncg     rms          rms(c)
DAV:   1    -0.191752229223E+03   -0.19217E-01   -0.16747E+00  8160   0.277E+00    0.284E-01
DAV:   2    -0.191756011308E+03   -0.37821E-02   -0.49964E-02 11560   0.671E-01    0.324E-01
DAV:   3    -0.191756310876E+03   -0.29957E-03   -0.80617E-03 12440   0.693E-01    0.391E-01
DAV:   4    -0.191754548420E+03    0.17625E-02   -0.27578E-03 11440   0.424E-01    0.110E-01
DAV:   5    -0.191754440647E+03    0.10777E-03   -0.94874E-04 10320   0.165E-01    0.932E-02
DAV:   6    -0.191754551806E+03   -0.11116E-03   -0.80864E-04 10640   0.211E-01    0.139E-01
DAV:   7    -0.191754322115E+03    0.22969E-03   -0.34399E-04  8360   0.151E-01    0.358E-02
DAV:   8    -0.191754321610E+03    0.50501E-06   -0.47129E-05  5720   0.589E-02
  30 F= -.19175432E+03 E0= -.19167276E+03  d E =-.213335E-01
       N       E                     dE             d eps       ncg     rms          rms(c)
DAV:   1    -0.191750735827E+03    0.35863E-02   -0.10828E-01  8160   0.714E-01    0.913E-02
DAV:   2    -0.191750934374E+03   -0.19855E-03   -0.43627E-03 11600   0.179E-01    0.627E-02
DAV:   3    -0.191750952192E+03   -0.17818E-04   -0.46099E-04  9680   0.131E-01
  31 F= -.19175095E+03 E0= -.19166952E+03  d E =0.336942E-02
       N       E                     dE             d eps       ncg     rms          rms(c)
DAV:   1    -0.191753908297E+03   -0.29739E-02   -0.63734E-02  8160   0.563E-01    0.852E-02
DAV:   2    -0.191755272969E+03   -0.13647E-02   -0.42722E-03 12320   0.420E-01    0.326E-01
DAV:   3    -0.191753997267E+03    0.12757E-02   -0.17132E-03  9720   0.353E-01    0.257E-02
DAV:   4    -0.191754016590E+03   -0.19324E-04   -0.48533E-05  5520   0.394E-02
  32 F= -.19175402E+03 E0= -.19167253E+03  d E =-.306440E-02
       N       E                     dE             d eps       ncg     rms          rms(c)
DAV:   1    -0.191770681562E+03   -0.16684E-01   -0.12478E+00  8160   0.236E+00    0.272E-01
DAV:   2    -0.191778643047E+03   -0.79615E-02   -0.38229E-02 12640   0.110E+00    0.771E-01
DAV:   3    -0.191771892034E+03    0.67510E-02   -0.12378E-02 12120   0.925E-01    0.166E-01
DAV:   4    -0.191771592216E+03    0.29982E-03   -0.89118E-04  9720   0.159E-01    0.794E-02
DAV:   5    -0.191771562902E+03    0.29314E-04   -0.57936E-04 11320   0.119E-01
  33 F= -.19177156E+03 E0= -.19169026E+03  d E =-.175463E-01
       N       E                     dE             d eps       ncg     rms          rms(c)
DAV:   1    -0.191749084181E+03    0.22508E-01   -0.18563E+00  8160   0.288E+00    0.311E-01
DAV:   2    -0.191758023954E+03   -0.89398E-02   -0.49814E-02 12560   0.107E+00    0.766E-01
DAV:   3    -0.191751053893E+03    0.69701E-02   -0.12444E-02 11560   0.940E-01    0.215E-01
DAV:   4    -0.191750886627E+03    0.16727E-03   -0.17944E-03 11400   0.292E-01    0.193E-01
DAV:   5    -0.191750579807E+03    0.30682E-03   -0.12530E-03 11360   0.302E-01    0.138E-01
DAV:   6    -0.191750496954E+03    0.82853E-04   -0.77569E-04 10080   0.194E-01
  34 F= -.19175050E+03 E0= -.19166905E+03  d E =0.210659E-01
       N       E                     dE             d eps       ncg     rms          rms(c)
DAV:   1    -0.191707952727E+03    0.42627E-01   -0.11248E+01  8160   0.708E+00    0.739E-01
DAV:   2    -0.191748710506E+03   -0.40758E-01   -0.27765E-01 12960   0.246E+00    0.160E+00
DAV:   3    -0.191720362805E+03    0.28348E-01   -0.66692E-02 11840   0.213E+00    0.590E-01
DAV:   4    -0.191717460033E+03    0.29028E-02   -0.92224E-03 12280   0.672E-01    0.382E-01
DAV:   5    -0.191716900192E+03    0.55984E-03   -0.62786E-03 12400   0.682E-01    0.372E-01
DAV:   6    -0.191716141906E+03    0.75829E-03   -0.42526E-03 11040   0.529E-01    0.222E-01
DAV:   7    -0.191715653412E+03    0.48849E-03   -0.19016E-03 11520   0.330E-01    0.186E-01
DAV:   8    -0.191715294683E+03    0.35873E-03   -0.68083E-04  9120   0.202E-01    0.378E-02
DAV:   9    -0.191715290300E+03    0.43836E-05   -0.97409E-05  6400   0.458E-02
  35 F= -.19171529E+03 E0= -.19163299E+03  d E =0.352067E-01
       N       E                     dE             d eps       ncg     rms          rms(c)
DAV:   1    -0.191719278775E+03   -0.39841E-02   -0.74307E-01  8160   0.182E+00    0.197E-01
DAV:   2    -0.191722410693E+03   -0.31319E-02   -0.23768E-02 13320   0.657E-01    0.427E-01
DAV:   3    -0.191720523248E+03    0.18874E-02   -0.57411E-03 12240   0.593E-01    0.180E-01
DAV:   4    -0.191720242911E+03    0.28034E-03   -0.87541E-04  9840   0.202E-01    0.104E-01
DAV:   5    -0.191720211992E+03    0.30920E-04   -0.51207E-04  9960   0.185E-01
  36 F= -.19172021E+03 E0= -.19163757E+03  d E =-.492169E-02
       N       E                     dE             d eps       ncg     rms          rms(c)
DAV:   1    -0.191731811357E+03   -0.11568E-01   -0.19808E+00  8160   0.300E+00    0.324E-01
DAV:   2    -0.191737691211E+03   -0.58799E-02   -0.78298E-02 11800   0.799E-01    0.306E-01
DAV:   3    -0.191738685758E+03   -0.99455E-03   -0.90436E-03 11920   0.710E-01    0.446E-01
DAV:   4    -0.191736527308E+03    0.21584E-02   -0.40221E-03 11240   0.507E-01    0.177E-01
DAV:   5    -0.191736422725E+03    0.10458E-03   -0.12106E-03 10000   0.295E-01    0.167E-01
DAV:   6    -0.191736375817E+03    0.46908E-04   -0.10909E-03 10480   0.253E-01    0.128E-01
DAV:   7    -0.191736091583E+03    0.28423E-03   -0.48261E-04  9600   0.120E-01    0.250E-02
DAV:   8    -0.191736106179E+03   -0.14596E-04   -0.61180E-05  6640   0.551E-02
  37 F= -.19173611E+03 E0= -.19165322E+03  d E =-.158942E-01
       N       E                     dE             d eps       ncg     rms          rms(c)
DAV:   1    -0.191741783406E+03   -0.56918E-02   -0.78253E-01  8160   0.189E+00    0.205E-01
DAV:   2    -0.191743605452E+03   -0.18220E-02   -0.27010E-02 12080   0.459E-01    0.208E-01
DAV:   3    -0.191744004916E+03   -0.39946E-03   -0.41582E-03 12360   0.479E-01    0.296E-01
DAV:   4    -0.191742986295E+03    0.10186E-02   -0.16061E-03 10000   0.324E-01    0.938E-02
DAV:   5    -0.191743063589E+03   -0.77294E-04   -0.56291E-04  8760   0.201E-01
  38 F= -.19174306E+03 E0= -.19165966E+03  d E =-.695741E-02
       N       E                     dE             d eps       ncg     rms          rms(c)
DAV:   1    -0.191749220354E+03   -0.62341E-02   -0.67688E+00  8160   0.555E+00    0.582E-01
DAV:   2    -0.191771134147E+03   -0.21914E-01   -0.25313E-01 11480   0.153E+00    0.754E-01
DAV:   3    -0.191769672248E+03    0.14619E-02   -0.33783E-02 11800   0.139E+00    0.716E-01
DAV:   4    -0.191764167792E+03    0.55045E-02   -0.11026E-02 11920   0.809E-01    0.327E-01
DAV:   5    -0.191763799111E+03    0.36868E-03   -0.39643E-03 11080   0.577E-01    0.300E-01
DAV:   6    -0.191763153783E+03    0.64533E-03   -0.30691E-03 11840   0.357E-01    0.152E-01
DAV:   7    -0.191762657806E+03    0.49598E-03   -0.10393E-03 10480   0.149E-01    0.492E-02
DAV:   8    -0.191762685824E+03   -0.28017E-04   -0.19137E-04  8120   0.105E-01
  39 F= -.19176269E+03 E0= -.19167812E+03  d E =-.196222E-01
       N       E                     dE             d eps       ncg     rms          rms(c)
DAV:   1    -0.191766815345E+03   -0.41575E-02   -0.19525E+00  8160   0.298E+00    0.323E-01
DAV:   2    -0.191773816042E+03   -0.70007E-02   -0.77343E-02 11600   0.904E-01    0.453E-01
DAV:   3    -0.191772900659E+03    0.91538E-03   -0.10594E-02 12400   0.815E-01    0.380E-01
DAV:   4    -0.191771237047E+03    0.16636E-02   -0.27539E-03 11440   0.425E-01    0.137E-01
DAV:   5    -0.191771285771E+03   -0.48724E-04   -0.11210E-03 11320   0.267E-01    0.169E-01
DAV:   6    -0.191771158464E+03    0.12731E-03   -0.98398E-04 10320   0.265E-01    0.120E-01
DAV:   7    -0.191770969104E+03    0.18936E-03   -0.50010E-04  8840   0.151E-01    0.612E-02
DAV:   8    -0.191770935021E+03    0.34083E-04   -0.11162E-04  6840   0.887E-02
  40 F= -.19177094E+03 E0= -.19168573E+03  d E =-.824920E-02
       N       E                     dE             d eps       ncg     rms          rms(c)
DAV:   1    -0.191773343679E+03   -0.23746E-02   -0.22831E-01  8160   0.101E+00    0.118E-01
DAV:   2    -0.191774259832E+03   -0.91615E-03   -0.10121E-02 10240   0.351E-01    0.164E-01
DAV:   3    -0.191774169657E+03    0.90176E-04   -0.13906E-03 12640   0.305E-01    0.140E-01
DAV:   4    -0.191773938412E+03    0.23124E-03   -0.34822E-04  8480   0.158E-01    0.424E-02
DAV:   5    -0.191773961666E+03   -0.23254E-04   -0.14543E-04  6640   0.846E-02
  41 F= -.19177396E+03 E0= -.19168873E+03  d E =-.302665E-02
       N       E                     dE             d eps       ncg     rms          rms(c)
DAV:   1    -0.191775344636E+03   -0.14062E-02   -0.64193E-02  8160   0.553E-01    0.737E-02
DAV:   2    -0.191775769566E+03   -0.42493E-03   -0.26063E-03 12440   0.234E-01    0.169E-01
DAV:   3    -0.191775447935E+03    0.32163E-03   -0.66483E-04  9800   0.213E-01    0.555E-02
DAV:   4    -0.191775444829E+03    0.31060E-05   -0.88585E-05  5760   0.762E-02
  42 F= -.19177544E+03 E0= -.19169023E+03  d E =-.148316E-02
       N       E                     dE             d eps       ncg     rms          rms(c)
DAV:   1    -0.191775775574E+03   -0.32764E-03   -0.30387E-03  8240   0.136E-01    0.403E-02
DAV:   2    -0.191775963188E+03   -0.18761E-03   -0.38338E-04  9880   0.165E-01    0.129E-01
DAV:   3    -0.191775754606E+03    0.20858E-03   -0.21267E-04  7480   0.144E-01    0.212E-02
DAV:   4    -0.191775770648E+03   -0.16042E-04   -0.39028E-05  5840   0.516E-02
  43 F= -.19177577E+03 E0= -.19169047E+03  d E =-.325819E-03
       N       E                     dE             d eps       ncg     rms          rms(c)
DAV:   1    -0.191777795325E+03   -0.20407E-02   -0.15121E-01  8160   0.830E-01    0.102E-01
DAV:   2    -0.191778430213E+03   -0.63489E-03   -0.57616E-03 10960   0.305E-01    0.182E-01
DAV:   3    -0.191778123914E+03    0.30630E-03   -0.12141E-03 11400   0.278E-01    0.977E-02
DAV:   4    -0.191778032650E+03    0.91263E-04   -0.21185E-04  7320   0.113E-01
  44 F= -.19177803E+03 E0= -.19169275E+03  d E =-.226200E-02
       N       E                     dE             d eps       ncg     rms          rms(c)
DAV:   1    -0.191775843963E+03    0.22800E-02   -0.11965E-01  8160   0.738E-01    0.888E-02
DAV:   2    -0.191776512567E+03   -0.66860E-03   -0.51953E-03 11720   0.301E-01    0.182E-01
DAV:   3    -0.191776133931E+03    0.37864E-03   -0.12290E-03 10320   0.264E-01    0.879E-02
DAV:   4    -0.191776071177E+03    0.62754E-04   -0.21338E-04  7200   0.112E-01
  45 F= -.19177607E+03 E0= -.19169074E+03  d E =0.196147E-02
       N       E                     dE             d eps       ncg     rms          rms(c)
DAV:   1    -0.191774166942E+03    0.19670E-02   -0.15144E-01  8160   0.843E-01    0.117E-01
DAV:   2    -0.191774370745E+03   -0.20380E-03   -0.45575E-03 11320   0.200E-01    0.116E-01
DAV:   3    -0.191774280875E+03    0.89870E-04   -0.10989E-03 11080   0.205E-01    0.124E-01
DAV:   4    -0.191774190037E+03    0.90838E-04   -0.47487E-04  8840   0.192E-01
  46 F= -.19177419E+03 E0= -.19168859E+03  d E =0.188114E-02
       N       E                     dE             d eps       ncg     rms          rms(c)
DAV:   1    -0.191773211411E+03    0.10695E-02   -0.29359E-02  8160   0.381E-01    0.582E-02
DAV:   2    -0.191773363525E+03   -0.15211E-03   -0.10981E-03 12600   0.154E-01    0.113E-01
DAV:   3    -0.191773225757E+03    0.13777E-03   -0.33514E-04  8800   0.158E-01    0.478E-02
DAV:   4    -0.191773217787E+03    0.79699E-05   -0.57130E-05  5720   0.633E-02
  47 F= -.19177322E+03 E0= -.19168762E+03  d E =0.972250E-03
       N       E                     dE             d eps       ncg     rms          rms(c)
DAV:   1    -0.191775772006E+03   -0.25462E-02   -0.23987E-01  8160   0.105E+00    0.122E-01
DAV:   2    -0.191776705469E+03   -0.93346E-03   -0.86718E-03 11240   0.357E-01    0.207E-01
DAV:   3    -0.191776274376E+03    0.43109E-03   -0.17157E-03 12200   0.328E-01    0.118E-01
DAV:   4    -0.191776166954E+03    0.10742E-03   -0.38103E-04  8200   0.157E-01    0.700E-02
DAV:   5    -0.191776112802E+03    0.54152E-04   -0.19072E-04  7720   0.106E-01
  48 F= -.19177611E+03 E0= -.19169047E+03  d E =-.289501E-02
       N       E                     dE             d eps       ncg     rms          rms(c)
DAV:   1    -0.191773096811E+03    0.30701E-02   -0.23284E-01  8160   0.103E+00    0.144E-01
DAV:   2    -0.191775329090E+03   -0.22323E-02   -0.11397E-02 11920   0.519E-01    0.380E-01
DAV:   3    -0.191773510881E+03    0.18182E-02   -0.33950E-03 11400   0.471E-01    0.101E-01
DAV:   4    -0.191773461725E+03    0.49156E-04   -0.45308E-04  8520   0.142E-01
  49 F= -.19177346E+03 E0= -.19168788E+03  d E =0.265108E-02
       N       E                     dE             d eps       ncg     rms          rms(c)
DAV:   1    -0.191774697070E+03   -0.11862E-02   -0.79098E-02  8160   0.603E-01    0.726E-02
DAV:   2    -0.191775347591E+03   -0.65052E-03   -0.39186E-03 10720   0.297E-01    0.181E-01
DAV:   3    -0.191774943849E+03    0.40374E-03   -0.70880E-04 10000   0.235E-01    0.433E-02
DAV:   4    -0.191774940014E+03    0.38351E-05   -0.57872E-05  5440   0.647E-02
  50 F= -.19177494E+03 E0= -.19168933E+03  d E =-.147829E-02
       N       E                     dE             d eps       ncg     rms          rms(c)
DAV:   1    -0.191775581165E+03   -0.63732E-03   -0.13165E-02  8160   0.251E-01    0.388E-02
DAV:   2    -0.191775682042E+03   -0.10088E-03   -0.57513E-04 11280   0.123E-01    0.904E-02
DAV:   3    -0.191775585805E+03    0.96238E-04   -0.17303E-04  7240   0.111E-01
  51 F= -.19177559E+03 E0= -.19168998E+03  d E =-.645791E-03
       N       E                     dE             d eps       ncg     rms          rms(c)
DAV:   1    -0.191775280738E+03    0.40130E-03   -0.29050E-03  8160   0.123E-01    0.273E-02
DAV:   2    -0.191775423719E+03   -0.14298E-03   -0.27873E-04  9400   0.138E-01    0.110E-01
DAV:   3    -0.191775274797E+03    0.14892E-03   -0.14648E-04  6360   0.120E-01    0.122E-02
DAV:   4    -0.191775283329E+03   -0.85316E-05   -0.22424E-05  5480   0.255E-02
  52 F= -.19177528E+03 E0= -.19168969E+03  d E =0.302476E-03
       N       E                     dE             d eps       ncg     rms          rms(c)
DAV:   1    -0.191776818115E+03   -0.15433E-02   -0.90837E-02  8160   0.642E-01    0.781E-02
DAV:   2    -0.191777180051E+03   -0.36194E-03   -0.37070E-03 10480   0.213E-01    0.121E-01
DAV:   3    -0.191777059694E+03    0.12036E-03   -0.69238E-04 11000   0.202E-01    0.888E-02
DAV:   4    -0.191776990472E+03    0.69223E-04   -0.15214E-04  6280   0.107E-01
  53 F= -.19177699E+03 E0= -.19169131E+03  d E =-.170714E-02
       N       E                     dE             d eps       ncg     rms          rms(c)
DAV:   1    -0.191777660417E+03   -0.60072E-03   -0.18306E-02  8160   0.292E-01    0.434E-02
DAV:   2    -0.191777746504E+03   -0.86087E-04   -0.73501E-04 12360   0.109E-01
  54 F= -.19177775E+03 E0= -.19169200E+03  d E =-.756033E-03
       N       E                     dE             d eps       ncg     rms          rms(c)
DAV:   1    -0.191779314079E+03   -0.16537E-02   -0.92178E-02  8160   0.660E-01    0.104E-01
DAV:   2    -0.191779890279E+03   -0.57620E-03   -0.36687E-03 11160   0.313E-01    0.223E-01
DAV:   3    -0.191779341323E+03    0.54896E-03   -0.11682E-03 10880   0.282E-01    0.769E-02
DAV:   4    -0.191779334634E+03    0.66883E-05   -0.22660E-04  7480   0.114E-01
  55 F= -.19177933E+03 E0= -.19169376E+03  d E =-.158813E-02
       N       E                     dE             d eps       ncg     rms          rms(c)
DAV:   1    -0.191780237305E+03   -0.89598E-03   -0.31431E-02  8160   0.396E-01    0.755E-02
DAV:   2    -0.191780796343E+03   -0.55904E-03   -0.18400E-03 12800   0.269E-01    0.211E-01
DAV:   3    -0.191780239706E+03    0.55664E-03   -0.73350E-04  9720   0.249E-01    0.475E-02
DAV:   4    -0.191780270126E+03   -0.30420E-04   -0.11813E-04  5680   0.845E-02
  56 F= -.19178027E+03 E0= -.19169468E+03  d E =-.935492E-03
       N       E                     dE             d eps       ncg     rms          rms(c)
DAV:   1    -0.191782169578E+03   -0.19299E-02   -0.17268E-01  8160   0.890E-01    0.119E-01
DAV:   2    -0.191782882701E+03   -0.71312E-03   -0.69958E-03 11400   0.324E-01    0.192E-01
DAV:   3    -0.191782550171E+03    0.33253E-03   -0.16502E-03 12280   0.312E-01    0.126E-01
DAV:   4    -0.191782422842E+03    0.12733E-03   -0.37883E-04  8200   0.156E-01    0.616E-02
DAV:   5    -0.191782361510E+03    0.61332E-04   -0.12679E-04  6280   0.664E-02
  57 F= -.19178236E+03 E0= -.19169691E+03  d E =-.209138E-02
       N       E                     dE             d eps       ncg     rms          rms(c)
DAV:   1    -0.191785152990E+03   -0.27301E-02   -0.50366E-01  8160   0.151E+00    0.192E-01
DAV:   2    -0.191787651833E+03   -0.24988E-02   -0.20240E-02 11400   0.580E-01    0.371E-01
DAV:   3    -0.191786267428E+03    0.13844E-02   -0.45381E-03 12480   0.546E-01    0.173E-01
DAV:   4    -0.191786038225E+03    0.22920E-03   -0.93059E-04  9640   0.214E-01    0.974E-02
DAV:   5    -0.191785954339E+03    0.83886E-04   -0.50528E-04  9800   0.164E-01
  58 F= -.19178595E+03 E0= -.19170063E+03  d E =-.359283E-02
       N       E                     dE             d eps       ncg     rms          rms(c)
DAV:   1    -0.191786828510E+03   -0.79028E-03   -0.38824E-02  8160   0.444E-01    0.911E-02
DAV:   2    -0.191787815130E+03   -0.98662E-03   -0.25886E-03 12000   0.365E-01    0.288E-01
DAV:   3    -0.191786777915E+03    0.10372E-02   -0.12900E-03 10120   0.311E-01    0.485E-02
DAV:   4    -0.191786820358E+03   -0.42443E-04   -0.14401E-04  5800   0.918E-02
  59 F= -.19178682E+03 E0= -.19170157E+03  d E =-.866018E-03
       N       E                     dE             d eps       ncg     rms          rms(c)
DAV:   1    -0.191788201940E+03   -0.14240E-02   -0.10621E-01  8160   0.702E-01    0.928E-02
DAV:   2    -0.191788599680E+03   -0.39774E-03   -0.37762E-03 11400   0.226E-01    0.150E-01
DAV:   3    -0.191788392550E+03    0.20713E-03   -0.74271E-04 10880   0.233E-01    0.874E-02
DAV:   4    -0.191788336459E+03    0.56091E-04   -0.15076E-04  5920   0.108E-01
  60 F= -.19178834E+03 E0= -.19170310E+03  d E =-.151610E-02
       N       E                     dE             d eps       ncg     rms          rms(c)
DAV:   1    -0.191789969383E+03   -0.15768E-02   -0.15458E-01  8160   0.847E-01    0.120E-01
DAV:   2    -0.191790957483E+03   -0.98810E-03   -0.64381E-03 12400   0.372E-01    0.260E-01
DAV:   3    -0.191790194015E+03    0.76347E-03   -0.19019E-03 11720   0.348E-01    0.991E-02
DAV:   4    -0.191790154874E+03    0.39141E-04   -0.31029E-04  8160   0.126E-01
  61 F= -.19179015E+03 E0= -.19170483E+03  d E =-.181842E-02
       N       E                     dE             d eps       ncg     rms          rms(c)
DAV:   1    -0.191788482829E+03    0.17112E-02   -0.10506E-01  8160   0.704E-01    0.924E-02
DAV:   2    -0.191789639927E+03   -0.11571E-02   -0.48794E-03 12360   0.392E-01    0.285E-01
DAV:   3    -0.191788669266E+03    0.97066E-03   -0.16035E-03 10080   0.341E-01    0.560E-02
DAV:   4    -0.191788677072E+03   -0.78065E-05   -0.19689E-04  6600   0.945E-02
  62 F= -.19178868E+03 E0= -.19170347E+03  d E =0.147780E-02
       N       E                     dE             d eps       ncg     rms          rms(c)
DAV:   1    -0.191789642260E+03   -0.97299E-03   -0.66227E-02  8160   0.552E-01    0.720E-02
DAV:   2    -0.191790191207E+03   -0.54895E-03   -0.30108E-03 11400   0.290E-01    0.192E-01
DAV:   3    -0.191789754100E+03    0.43711E-03   -0.76981E-04  9760   0.235E-01    0.416E-02
DAV:   4    -0.191789760230E+03   -0.61300E-05   -0.66230E-05  5440   0.735E-02
  63 F= -.19178976E+03 E0= -.19170466E+03  d E =-.108316E-02
       N       E                     dE             d eps       ncg     rms          rms(c)
DAV:   1    -0.191790045010E+03   -0.29091E-03   -0.40898E-03  8160   0.150E-01    0.347E-02
DAV:   2    -0.191790178757E+03   -0.13375E-03   -0.30573E-04  9760   0.136E-01    0.105E-01
DAV:   3    -0.191790031661E+03    0.14710E-03   -0.14432E-04  6360   0.122E-01    0.179E-02
DAV:   4    -0.191790042540E+03   -0.10880E-04   -0.29265E-05  5440   0.386E-02
  64 F= -.19179004E+03 E0= -.19170488E+03  d E =-.282310E-03
       N       E                     dE             d eps       ncg     rms          rms(c)
DAV:   1    -0.191790633495E+03   -0.60183E-03   -0.21578E-02  8160   0.323E-01    0.535E-02
DAV:   2    -0.191790788298E+03   -0.15480E-03   -0.99324E-04 11240   0.171E-01    0.117E-01
DAV:   3    -0.191790624876E+03    0.16342E-03   -0.32518E-04  8840   0.153E-01    0.401E-02
DAV:   4    -0.191790616574E+03    0.83023E-05   -0.61181E-05  5480   0.616E-02
  65 F= -.19179062E+03 E0= -.19170535E+03  d E =-.574033E-03
       N       E                     dE             d eps       ncg     rms          rms(c)
DAV:   1    -0.191794045132E+03   -0.34203E-02   -0.75494E-01  8160   0.188E+00    0.264E-01
DAV:   2    -0.191796901994E+03   -0.28569E-02   -0.28190E-02 11600   0.724E-01    0.463E-01
DAV:   3    -0.191794832111E+03    0.20699E-02   -0.76205E-03 12240   0.694E-01    0.246E-01
DAV:   4    -0.191794289734E+03    0.54238E-03   -0.20228E-03 12200   0.323E-01    0.144E-01
DAV:   5    -0.191794057308E+03    0.23243E-03   -0.96937E-04 10520   0.214E-01    0.118E-01
DAV:   6    -0.191793986360E+03    0.70948E-04   -0.53520E-04  9680   0.202E-01
  66 F= -.19179399E+03 E0= -.19170819E+03  d E =-.336979E-02
       N       E                     dE             d eps       ncg     rms          rms(c)
DAV:   1    -0.191793181603E+03    0.87570E-03   -0.17498E-01  8160   0.914E-01    0.165E-01
DAV:   2    -0.191794485484E+03   -0.13039E-02   -0.87594E-03 11720   0.558E-01    0.363E-01
DAV:   3    -0.191792959519E+03    0.15260E-02   -0.27682E-03 11800   0.465E-01    0.112E-01
DAV:   4    -0.191792877951E+03    0.81568E-04   -0.61712E-04  8840   0.186E-01
  67 F= -.19179288E+03 E0= -.19170740E+03  d E =0.110841E-02
       N       E                     dE             d eps       ncg     rms          rms(c)
DAV:   1    -0.191792828231E+03    0.13129E-03   -0.82604E-02  8200   0.705E-01    0.161E-01
DAV:   2    -0.191792426611E+03    0.40162E-03   -0.46967E-03 11440   0.213E-01    0.129E-01
DAV:   3    -0.191792450910E+03   -0.24299E-04   -0.16055E-03 11360   0.283E-01    0.182E-01
DAV:   4    -0.191792208274E+03    0.24264E-03   -0.10392E-03 10280   0.283E-01    0.119E-01
DAV:   5    -0.191792021486E+03    0.18679E-03   -0.43130E-04  8360   0.138E-01    0.440E-02
DAV:   6    -0.191792019382E+03    0.21040E-05   -0.12835E-04  6720   0.911E-02
  68 F= -.19179202E+03 E0= -.19170717E+03  d E =0.858569E-03
       N       E                     dE             d eps       ncg     rms          rms(c)
DAV:   1    -0.191793898855E+03   -0.18774E-02   -0.14344E-01  8160   0.820E-01    0.127E-01
DAV:   2    -0.191794617274E+03   -0.71842E-03   -0.62310E-03 11440   0.393E-01    0.243E-01
DAV:   3    -0.191793946653E+03    0.67062E-03   -0.15932E-03 11280   0.328E-01    0.913E-02
DAV:   4    -0.191793908716E+03    0.37937E-04   -0.50094E-04  8440   0.152E-01
  69 F= -.19179391E+03 E0= -.19170879E+03  d E =-.188933E-02
       N       E                     dE             d eps       ncg     rms          rms(c)
DAV:   1    -0.191797825346E+03   -0.38787E-02   -0.69104E-01  8160   0.183E+00    0.296E-01
DAV:   2    -0.191798633071E+03   -0.80773E-03   -0.25606E-02 12480   0.596E-01    0.352E-01
DAV:   3    -0.191797886592E+03    0.74648E-03   -0.67136E-03 11640   0.631E-01    0.314E-01
DAV:   4    -0.191797034136E+03    0.85246E-03   -0.36447E-03 11680   0.455E-01    0.202E-01
DAV:   5    -0.191796662700E+03    0.37144E-03   -0.19373E-03 10040   0.310E-01    0.163E-01
DAV:   6    -0.191796425807E+03    0.23689E-03   -0.81019E-04 10600   0.240E-01    0.854E-02
DAV:   7    -0.191796347604E+03    0.78204E-04   -0.19358E-04  6960   0.107E-01
  70 F= -.19179635E+03 E0= -.19171040E+03  d E =-.243889E-02
       N       E                     dE             d eps       ncg     rms          rms(c)
DAV:   1    -0.191797142735E+03   -0.71693E-03   -0.73388E-02  8160   0.629E-01    0.160E-01
DAV:   2    -0.191797651307E+03   -0.50857E-03   -0.47493E-03 11360   0.463E-01    0.310E-01
DAV:   3    -0.191796529292E+03    0.11220E-02   -0.19238E-03 11360   0.408E-01    0.978E-02
DAV:   4    -0.191796439236E+03    0.90056E-04   -0.58640E-04  8880   0.160E-01
  71 F= -.19179644E+03 E0= -.19171111E+03  d E =-.916323E-04
       N       E                     dE             d eps       ncg     rms          rms(c)
DAV:   1    -0.191798216722E+03   -0.16874E-02   -0.11960E-01  8200   0.883E-01    0.252E-01
DAV:   2    -0.191797320673E+03    0.89605E-03   -0.92303E-03 11360   0.439E-01    0.297E-01
DAV:   3    -0.191797178544E+03    0.14213E-03   -0.51996E-03 11240   0.600E-01    0.312E-01
DAV:   4    -0.191796082472E+03    0.10961E-02   -0.26673E-03 11280   0.409E-01    0.127E-01
DAV:   5    -0.191796013354E+03    0.69118E-04   -0.11984E-03 10000   0.241E-01    0.137E-01
DAV:   6    -0.191795777921E+03    0.23543E-03   -0.47015E-04  8360   0.167E-01    0.353E-02
DAV:   7    -0.191795778021E+03   -0.99906E-07   -0.54371E-05  5640   0.528E-02
  72 F= -.19179578E+03 E0= -.19171141E+03  d E =0.661215E-03
       N       E                     dE             d eps       ncg     rms          rms(c)
DAV:   1    -0.191798395302E+03   -0.26174E-02   -0.11653E-01  8160   0.771E-01    0.171E-01
DAV:   2    -0.191799301146E+03   -0.90584E-03   -0.69565E-03 11360   0.498E-01    0.354E-01
DAV:   3    -0.191797895671E+03    0.14055E-02   -0.30144E-03 11080   0.460E-01    0.118E-01
DAV:   4    -0.191797867092E+03    0.28579E-04   -0.96833E-04 10000   0.220E-01
  73 F= -.19179787E+03 E0= -.19171300E+03  d E =-.208907E-02
       N       E                     dE             d eps       ncg     rms          rms(c)
DAV:   1    -0.191801592379E+03   -0.36967E-02   -0.57936E-01  8160   0.170E+00    0.288E-01
DAV:   2    -0.191801408088E+03    0.18429E-03   -0.21079E-02 12160   0.465E-01    0.266E-01
DAV:   3    -0.191801026988E+03    0.38110E-03   -0.56350E-03 11400   0.510E-01    0.292E-01
DAV:   4    -0.191800423897E+03    0.60309E-03   -0.29086E-03 11600   0.475E-01    0.220E-01
DAV:   5    -0.191799803280E+03    0.62062E-03   -0.13863E-03 10160   0.264E-01    0.926E-02
DAV:   6    -0.191799774964E+03    0.28316E-04   -0.52844E-04  9240   0.169E-01
  74 F= -.19179977E+03 E0= -.19171402E+03  d E =-.190787E-02
       N       E                     dE             d eps       ncg     rms          rms(c)
DAV:   1    -0.191800850989E+03   -0.10477E-02   -0.66704E-02  8160   0.576E-01    0.156E-01
DAV:   2    -0.191801579990E+03   -0.72900E-03   -0.49889E-03 11360   0.492E-01    0.334E-01
DAV:   3    -0.191800301608E+03    0.12784E-02   -0.21238E-03 10560   0.424E-01    0.107E-01
DAV:   4    -0.191800291703E+03    0.99041E-05   -0.71705E-04  8280   0.209E-01
  75 F= -.19180029E+03 E0= -.19171504E+03  d E =-.516739E-03
       N       E                     dE             d eps       ncg     rms          rms(c)
DAV:   1    -0.191801679734E+03   -0.13781E-02   -0.13512E-01  8160   0.860E-01    0.169E-01
DAV:   2    -0.191801556370E+03    0.12336E-03   -0.67995E-03 11360   0.285E-01    0.172E-01
DAV:   3    -0.191801362073E+03    0.19430E-03   -0.22217E-03 11360   0.325E-01    0.180E-01
DAV:   4    -0.191801112618E+03    0.24945E-03   -0.10970E-03 10000   0.287E-01    0.117E-01
DAV:   5    -0.191800921625E+03    0.19099E-03   -0.44186E-04  8760   0.131E-01    0.353E-02
DAV:   6    -0.191800899180E+03    0.22444E-04   -0.12081E-04  6320   0.424E-02
  76 F= -.19180090E+03 E0= -.19171610E+03  d E =-.607477E-03
       N       E                     dE             d eps       ncg     rms          rms(c)
DAV:   1    -0.191802134082E+03   -0.12125E-02   -0.50251E-02  8160   0.494E-01    0.109E-01
DAV:   2    -0.191803571119E+03   -0.14370E-02   -0.45758E-03 11400   0.487E-01    0.365E-01
DAV:   3    -0.191802019212E+03    0.15519E-02   -0.22882E-03 11080   0.397E-01    0.535E-02
DAV:   4    -0.191802062982E+03   -0.43771E-04   -0.22328E-04  8360   0.123E-01
  77 F= -.19180206E+03 E0= -.19171712E+03  d E =-.116380E-02
       N       E                     dE             d eps       ncg     rms          rms(c)
DAV:   1    -0.191804396195E+03   -0.23770E-02   -0.30818E-01  8160   0.121E+00    0.164E-01
DAV:   2    -0.191804847000E+03   -0.45080E-03   -0.92479E-03 12720   0.345E-01    0.197E-01
DAV:   3    -0.191804642757E+03    0.20424E-03   -0.21499E-03 12120   0.356E-01    0.184E-01
DAV:   4    -0.191804359752E+03    0.28300E-03   -0.11874E-03 10000   0.262E-01    0.112E-01
DAV:   5    -0.191804249363E+03    0.11039E-03   -0.54215E-04  8720   0.165E-01    0.868E-02
DAV:   6    -0.191804187052E+03    0.62311E-04   -0.22581E-04  7480   0.135E-01
  78 F= -.19180419E+03 E0= -.19171898E+03  d E =-.212407E-02
       N       E                     dE             d eps       ncg     rms          rms(c)
DAV:   1    -0.191804715672E+03   -0.46631E-03   -0.14981E-02  8160   0.276E-01    0.678E-02
DAV:   2    -0.191804958523E+03   -0.24285E-03   -0.13458E-03 11080   0.253E-01    0.162E-01
DAV:   3    -0.191804650294E+03    0.30823E-03   -0.47860E-04  8520   0.205E-01    0.504E-02
DAV:   4    -0.191804640895E+03    0.93988E-05   -0.13300E-04  6080   0.870E-02
  79 F= -.19180464E+03 E0= -.19171956E+03  d E =-.453843E-03
       N       E                     dE             d eps       ncg     rms          rms(c)
DAV:   1    -0.191806384689E+03   -0.17344E-02   -0.18588E-01  8160   0.926E-01    0.118E-01
DAV:   2    -0.191806932394E+03   -0.54771E-03   -0.58326E-03 12640   0.303E-01    0.187E-01
DAV:   3    -0.191806573805E+03    0.35859E-03   -0.15451E-03 10800   0.298E-01    0.130E-01
DAV:   4    -0.191806434500E+03    0.13930E-03   -0.52303E-04  8160   0.175E-01    0.670E-02
DAV:   5    -0.191806383440E+03    0.51061E-04   -0.19391E-04  5520   0.889E-02
  80 F= -.19180638E+03 E0= -.19172151E+03  d E =-.174254E-02
       N       E                     dE             d eps       ncg     rms          rms(c)
DAV:   1    -0.191806996230E+03   -0.56173E-03   -0.17326E-02  8160   0.298E-01    0.551E-02
DAV:   2    -0.191807436810E+03   -0.44058E-03   -0.11358E-03 11440   0.252E-01    0.192E-01
DAV:   3    -0.191806982783E+03    0.45403E-03   -0.54859E-04  8880   0.213E-01    0.219E-02
DAV:   4    -0.191807001602E+03   -0.18818E-04   -0.30514E-05  5520   0.351E-02
  81 F= -.19180700E+03 E0= -.19172211E+03  d E =-.618162E-03
       N       E                     dE             d eps       ncg     rms          rms(c)
DAV:   1    -0.191808096455E+03   -0.11137E-02   -0.64007E-02  8160   0.539E-01    0.633E-02
DAV:   2    -0.191808313350E+03   -0.21689E-03   -0.19802E-03 12400   0.182E-01    0.108E-01
DAV:   3    -0.191808200063E+03    0.11329E-03   -0.38371E-04  9560   0.160E-01    0.605E-02
DAV:   4    -0.191808179507E+03    0.20556E-04   -0.12270E-04  5520   0.860E-02
  82 F= -.19180818E+03 E0= -.19172333E+03  d E =-.117791E-02
       N       E                     dE             d eps       ncg     rms          rms(c)
DAV:   1    -0.191809867008E+03   -0.16669E-02   -0.13921E-01  8160   0.803E-01    0.995E-02
DAV:   2    -0.191810124526E+03   -0.25752E-03   -0.35098E-03 13600   0.208E-01    0.130E-01
DAV:   3    -0.191809994426E+03    0.13010E-03   -0.89999E-04 10840   0.227E-01    0.116E-01
DAV:   4    -0.191809895129E+03    0.99298E-04   -0.40287E-04  8160   0.156E-01
  83 F= -.19180990E+03 E0= -.19172488E+03  d E =-.171562E-02
       N       E                     dE             d eps       ncg     rms          rms(c)
DAV:   1    -0.191810257387E+03   -0.26296E-03   -0.80532E-03  8160   0.206E-01    0.401E-02
DAV:   2    -0.191810449748E+03   -0.19236E-03   -0.48215E-04 10120   0.164E-01    0.130E-01
DAV:   3    -0.191810246162E+03    0.20359E-03   -0.27097E-04  8240   0.144E-01    0.212E-02
DAV:   4    -0.191810258139E+03   -0.11977E-04   -0.29492E-05  5480   0.453E-02
  84 F= -.19181026E+03 E0= -.19172528E+03  d E =-.363010E-03
       N       E                     dE             d eps       ncg     rms          rms(c)
DAV:   1    -0.191812051412E+03   -0.18052E-02   -0.15464E-01  8160   0.835E-01    0.926E-02
DAV:   2    -0.191812415954E+03   -0.36454E-03   -0.39562E-03 12160   0.244E-01    0.134E-01
DAV:   3    -0.191812231239E+03    0.18471E-03   -0.77213E-04 10600   0.219E-01    0.944E-02
DAV:   4    -0.191812179149E+03    0.52091E-04   -0.28747E-04  8280   0.134E-01
  85 F= -.19181218E+03 E0= -.19172726E+03  d E =-.192101E-02
       N       E                     dE             d eps       ncg     rms          rms(c)
DAV:   1    -0.191812511156E+03   -0.27992E-03   -0.57019E-03  8160   0.196E-01    0.565E-02
DAV:   2    -0.191812932706E+03   -0.42155E-03   -0.90725E-04 10760   0.240E-01    0.191E-01
DAV:   3    -0.191812470491E+03    0.46222E-03   -0.59378E-04  8520   0.215E-01    0.314E-02
DAV:   4    -0.191812489669E+03   -0.19179E-04   -0.56670E-05  5520   0.612E-02
  86 F= -.19181249E+03 E0= -.19172765E+03  d E =-.310521E-03
       N       E                     dE             d eps       ncg     rms          rms(c)
DAV:   1    -0.191813207284E+03   -0.73679E-03   -0.63650E-02  8160   0.544E-01    0.965E-02
DAV:   2    -0.191814421169E+03   -0.12139E-02   -0.39472E-03 12600   0.408E-01    0.324E-01
DAV:   3    -0.191813185725E+03    0.12354E-02   -0.18597E-03 10040   0.362E-01    0.477E-02
DAV:   4    -0.191813184710E+03    0.10153E-05   -0.94672E-05  5480   0.635E-02
  87 F= -.19181318E+03 E0= -.19172862E+03  d E =-.695040E-03
       N       E                     dE             d eps       ncg     rms          rms(c)
DAV:   1    -0.191815988439E+03   -0.28027E-02   -0.40907E-01  8160   0.136E+00    0.149E-01
DAV:   2    -0.191817249776E+03   -0.12613E-02   -0.10062E-02 12320   0.397E-01    0.278E-01
DAV:   3    -0.191816490235E+03    0.75954E-03   -0.24191E-03 12080   0.408E-01    0.151E-01
DAV:   4    -0.191816332484E+03    0.15775E-03   -0.74554E-04  8600   0.187E-01    0.850E-02
DAV:   5    -0.191816262351E+03    0.70133E-04   -0.33628E-04  8000   0.131E-01
  88 F= -.19181626E+03 E0= -.19173186E+03  d E =-.307764E-02
       N       E                     dE             d eps       ncg     rms          rms(c)
DAV:   1    -0.191814926275E+03    0.14062E-02   -0.70347E-02  8160   0.580E-01    0.830E-02
DAV:   2    -0.191815877429E+03   -0.95115E-03   -0.31380E-03 13320   0.335E-01    0.258E-01
DAV:   3    -0.191814985641E+03    0.89179E-03   -0.12440E-03 10040   0.303E-01    0.558E-02
DAV:   4    -0.191814968609E+03    0.17032E-04   -0.13169E-04  5560   0.806E-02
  89 F= -.19181497E+03 E0= -.19173044E+03  d E =0.129374E-02
       N       E                     dE             d eps       ncg     rms          rms(c)
DAV:   1    -0.191810909098E+03    0.40765E-02   -0.81468E-01  8160   0.194E+00    0.257E-01
DAV:   2    -0.191816354527E+03   -0.54454E-02   -0.28551E-02 12720   0.890E-01    0.665E-01
DAV:   3    -0.191811524940E+03    0.48296E-02   -0.10027E-02 12600   0.821E-01    0.189E-01
DAV:   4    -0.191811197802E+03    0.32714E-03   -0.15461E-03 11480   0.211E-01    0.105E-01
DAV:   5    -0.191811004376E+03    0.19343E-03   -0.70029E-04 11360   0.107E-01    0.561E-02
DAV:   6    -0.191811055006E+03   -0.50630E-04   -0.34811E-04  7680   0.132E-01
  90 F= -.19181106E+03 E0= -.19172593E+03  d E =0.391360E-02
       N       E                     dE             d eps       ncg     rms          rms(c)
DAV:   1    -0.191806202718E+03    0.48017E-02   -0.87053E-01  8160   0.200E+00    0.236E-01
DAV:   2    -0.191808230126E+03   -0.20274E-02   -0.24628E-02 12880   0.563E-01    0.345E-01
DAV:   3    -0.191807537193E+03    0.69293E-03   -0.59645E-03 12440   0.594E-01    0.284E-01
DAV:   4    -0.191806783119E+03    0.75407E-03   -0.21853E-03 11200   0.338E-01    0.121E-01
DAV:   5    -0.191806526984E+03    0.25614E-03   -0.78278E-04 10200   0.128E-01    0.580E-02
DAV:   6    -0.191806631493E+03   -0.10451E-03   -0.39493E-04  9040   0.156E-01    0.108E-01
DAV:   7    -0.191806494018E+03    0.13747E-03   -0.21036E-04  7360   0.136E-01    0.226E-02
DAV:   8    -0.191806492473E+03    0.15450E-05   -0.25893E-05  6000   0.343E-02
  91 F= -.19180649E+03 E0= -.19172056E+03  d E =0.456253E-02
       N       E                     dE             d eps       ncg     rms          rms(c)
DAV:   1    -0.191812486321E+03   -0.59923E-02   -0.17276E+00  8160   0.281E+00    0.325E-01
DAV:   2    -0.191816951983E+03   -0.44657E-02   -0.47735E-02 12000   0.866E-01    0.528E-01
DAV:   3    -0.191814747093E+03    0.22049E-02   -0.11439E-02 12400   0.849E-01    0.364E-01
DAV:   4    -0.191813489146E+03    0.12579E-02   -0.38100E-03 11400   0.442E-01    0.164E-01
DAV:   5    -0.191813077752E+03    0.41139E-03   -0.16050E-03 10200   0.213E-01    0.102E-01
DAV:   6    -0.191813237191E+03   -0.15944E-03   -0.95023E-04 11600   0.245E-01    0.147E-01
DAV:   7    -0.191812972921E+03    0.26427E-03   -0.37220E-04  8760   0.169E-01    0.330E-02
DAV:   8    -0.191812977308E+03   -0.43862E-05   -0.63373E-05  6280   0.652E-02
  92 F= -.19181298E+03 E0= -.19172789E+03  d E =-.648483E-02
       N       E                     dE             d eps       ncg     rms          rms(c)
DAV:   1    -0.191813763406E+03   -0.79048E-03   -0.32440E-02  8160   0.391E-01    0.517E-02
DAV:   2    -0.191813893042E+03   -0.12964E-03   -0.12011E-03 13600   0.144E-01    0.924E-02
DAV:   3    -0.191813806388E+03    0.86654E-04   -0.28064E-04  8840   0.138E-01
  93 F= -.19181381E+03 E0= -.19172860E+03  d E =-.829080E-03
       N       E                     dE             d eps       ncg     rms          rms(c)
DAV:   1    -0.191814143354E+03   -0.25031E-03   -0.58522E-03  8160   0.175E-01    0.378E-02
DAV:   2    -0.191814178490E+03   -0.35136E-04   -0.31315E-04  8920   0.694E-02
  94 F= -.19181418E+03 E0= -.19172895E+03  d E =-.372102E-03
       N       E                     dE             d eps       ncg     rms          rms(c)
DAV:   1    -0.191816857253E+03   -0.27139E-02   -0.36355E-01  8160   0.128E+00    0.139E-01
DAV:   2    -0.191817661538E+03   -0.80429E-03   -0.89313E-03 12520   0.352E-01    0.205E-01
DAV:   3    -0.191817379396E+03    0.28214E-03   -0.17490E-03 11560   0.337E-01    0.158E-01
DAV:   4    -0.191817180867E+03    0.19853E-03   -0.71435E-04  9000   0.191E-01    0.809E-02
DAV:   5    -0.191817101651E+03    0.79216E-04   -0.27012E-04  7160   0.102E-01
  95 F= -.19181710E+03 E0= -.19173181E+03  d E =-.292316E-02
       N       E                     dE             d eps       ncg     rms          rms(c)
DAV:   1    -0.191816588573E+03    0.59229E-03   -0.11461E-02  8160   0.260E-01    0.782E-02
DAV:   2    -0.191817789631E+03   -0.12011E-02   -0.24272E-03 11840   0.416E-01    0.315E-01
DAV:   3    -0.191816527807E+03    0.12618E-02   -0.14207E-03  9560   0.349E-01    0.338E-02
DAV:   4    -0.191816533588E+03   -0.57815E-05   -0.53089E-05  5480   0.474E-02
  96 F= -.19181653E+03 E0= -.19173128E+03  d E =0.568063E-03
       N       E                     dE             d eps       ncg     rms          rms(c)
DAV:   1    -0.191819298282E+03   -0.27705E-02   -0.33104E-01  8160   0.121E+00    0.119E-01
DAV:   2    -0.191819939189E+03   -0.64091E-03   -0.78083E-03 12200   0.304E-01    0.141E-01
DAV:   3    -0.191819700311E+03    0.23888E-03   -0.13038E-03 10880   0.239E-01    0.107E-01
DAV:   4    -0.191819647609E+03    0.52702E-04   -0.38855E-04  8800   0.173E-01
  97 F= -.19181965E+03 E0= -.19173444E+03  d E =-.311402E-02
       N       E                     dE             d eps       ncg     rms          rms(c)
DAV:   1    -0.191819527484E+03    0.17283E-03   -0.20041E-04  5840   0.102E-01    0.384E-02
DAV:   2    -0.191819771981E+03   -0.24450E-03   -0.40999E-04  8760   0.186E-01    0.141E-01
DAV:   3    -0.191819518369E+03    0.25361E-03   -0.29606E-04  7840   0.159E-01    0.171E-02
DAV:   4    -0.191819529770E+03   -0.11401E-04   -0.23871E-05  5440   0.379E-02
  98 F= -.19181953E+03 E0= -.19173430E+03  d E =0.117839E-03
       N       E                     dE             d eps       ncg     rms          rms(c)
DAV:   1    -0.191819108534E+03    0.40983E-03   -0.24350E-02  8160   0.349E-01    0.680E-02
DAV:   2    -0.191819373090E+03   -0.26456E-03   -0.13035E-03 11040   0.232E-01    0.166E-01
DAV:   3    -0.191819033380E+03    0.33971E-03   -0.58059E-04  9280   0.207E-01    0.493E-02
DAV:   4    -0.191819020649E+03    0.12731E-04   -0.11972E-04  5840   0.821E-02
  99 F= -.19181902E+03 E0= -.19173362E+03  d E =0.509121E-03
       N       E                     dE             d eps       ncg     rms          rms(c)
DAV:   1    -0.191821397678E+03   -0.23643E-02   -0.22575E-01  8160   0.101E+00    0.112E-01
DAV:   2    -0.191822492898E+03   -0.10952E-02   -0.62901E-03 12720   0.444E-01    0.267E-01
DAV:   3    -0.191821606548E+03    0.88635E-03   -0.14356E-03 10400   0.340E-01    0.755E-02
DAV:   4    -0.191821593562E+03    0.12987E-04   -0.30963E-04  7640   0.115E-01
 100 F= -.19182159E+03 E0= -.19173622E+03  d E =-.257291E-02
