       N       E                     dE             d eps       ncg     rms          rms(c)
DAV:   1     0.112438459524E+04    0.11244E+04   -0.35860E+04  8160   0.577E+02
DAV:   2    -0.283211262112E+01   -0.11272E+04   -0.10861E+04 10960   0.173E+02
DAV:   3    -0.199732614855E+03   -0.19690E+03   -0.18861E+03 10920   0.820E+01
DAV:   4    -0.208900869858E+03   -0.91683E+01   -0.88679E+01 11880   0.261E+01
DAV:   5    -0.209278658610E+03   -0.37779E+00   -0.37681E+00 11800   0.388E+00    0.275E+01
DAV:   6    -0.237183677840E+03   -0.27905E+02   -0.10776E+02 12760   0.605E+01    0.594E+01
DAV:   7    -0.196643634998E+03    0.40540E+02   -0.17762E+02 13160   0.152E+02    0.204E+01
DAV:   8    -0.190114874796E+03    0.65288E+01   -0.20493E+01 11600   0.134E+01    0.138E+01
DAV:   9    -0.188312311216E+03    0.18026E+01   -0.35084E+00 12080   0.623E+00    0.939E+00
DAV:  10    -0.187133991126E+03    0.11783E+01   -0.17816E+00 13400   0.755E+00    0.348E+00
DAV:  11    -0.187009727497E+03    0.12426E+00   -0.67744E-01 12640   0.252E+00    0.235E+00
DAV:  12    -0.187017577808E+03   -0.78503E-02   -0.44963E-01 12960   0.311E+00    0.330E+00
DAV:  13    -0.186929506698E+03    0.88071E-01   -0.25548E-01 13240   0.306E+00    0.191E+00
DAV:  14    -0.186900245365E+03    0.29261E-01   -0.10519E-01 13080   0.174E+00    0.905E-01
DAV:  15    -0.186894067385E+03    0.61780E-02   -0.37871E-02 12360   0.909E-01    0.885E-01
DAV:  16    -0.186889769946E+03    0.42974E-02   -0.14216E-02 13080   0.638E-01    0.500E-01
DAV:  17    -0.186887059828E+03    0.27101E-02   -0.73357E-03 12680   0.395E-01    0.176E-01
DAV:  18    -0.186886520499E+03    0.53933E-03   -0.20215E-03 11920   0.152E-01    0.177E-01
DAV:  19    -0.186886280634E+03    0.23986E-03   -0.79252E-04 11200   0.138E-01    0.456E-02
DAV:  20    -0.186887178432E+03   -0.89780E-03   -0.85343E-04  9120   0.567E-02    0.422E-02
DAV:  21    -0.186888046104E+03   -0.86767E-03   -0.22020E-04  8200   0.522E-02    0.358E-02
DAV:  22    -0.186888854676E+03   -0.80857E-03   -0.10144E-04  6800   0.292E-02    0.336E-02
DAV:  23    -0.186890010721E+03   -0.11560E-02   -0.13747E-04  7480   0.407E-02    0.171E-02
DAV:  24    -0.186890589258E+03   -0.57854E-03   -0.26689E-05  6720   0.187E-02    0.442E-03
DAV:  25    -0.186890959035E+03   -0.36978E-03   -0.16960E-05  5560   0.900E-03    0.482E-03
DAV:  26    -0.186891194024E+03   -0.23499E-03   -0.90387E-06  6800   0.717E-03    0.157E-03
DAV:  27    -0.186891283138E+03   -0.89113E-04   -0.31424E-06  7240   0.379E-03
   1 F= -.18689128E+03 E0= -.18672064E+03  d E =-.186891E+03
       N       E                     dE             d eps       ncg     rms          rms(c)
DAV:   1    -0.187534175278E+03   -0.64298E+00   -0.27110E+02  8160   0.350E+01    0.468E+00
DAV:   2    -0.189604004619E+03   -0.20698E+01   -0.20456E+01 12280   0.159E+01    0.101E+01
DAV:   3    -0.189346167447E+03    0.25784E+00   -0.46090E+00 12400   0.126E+01    0.627E+00
DAV:   4    -0.188788961889E+03    0.55721E+00   -0.54319E-01 12520   0.426E+00    0.170E+00
DAV:   5    -0.188903366629E+03   -0.11440E+00   -0.47792E-01 12000   0.357E+00    0.508E+00
DAV:   6    -0.188751026664E+03    0.15234E+00   -0.65049E-01 12560   0.424E+00    0.197E+00
DAV:   7    -0.188741841763E+03    0.91849E-02   -0.15168E-01 11920   0.209E+00    0.200E+00
DAV:   8    -0.188711571361E+03    0.30270E-01   -0.82632E-02 13560   0.176E+00    0.921E-01
DAV:   9    -0.188702840886E+03    0.87305E-02   -0.16327E-02 10640   0.598E-01    0.247E-01
DAV:  10    -0.188702746827E+03    0.94059E-04   -0.37588E-03 11840   0.208E-01    0.182E-01
DAV:  11    -0.188702218547E+03    0.52828E-03   -0.20227E-03 11600   0.139E-01    0.106E-01
DAV:  12    -0.188702365953E+03   -0.14741E-03   -0.80638E-04 11320   0.865E-02    0.941E-02
DAV:  13    -0.188702268314E+03    0.97640E-04   -0.23736E-04  7960   0.527E-02
   2 F= -.18870227E+03 E0= -.18856405E+03  d E =-.181099E+01
       N       E                     dE             d eps       ncg     rms          rms(c)
DAV:   1    -0.190632727492E+03   -0.19304E+01   -0.31291E+01  9120   0.142E+01    0.445E+00
DAV:   2    -0.190583393015E+03    0.49334E-01   -0.27604E+00 11200   0.948E+00    0.725E+00
DAV:   3    -0.190115560797E+03    0.46783E+00   -0.13196E+00 12360   0.862E+00    0.425E+00
DAV:   4    -0.189902140415E+03    0.21342E+00   -0.70907E-01 12640   0.422E+00    0.251E+00
DAV:   5    -0.189858959298E+03    0.43181E-01   -0.34494E-01 12320   0.277E+00    0.241E+00
DAV:   6    -0.189804183501E+03    0.54776E-01   -0.12410E-01 12720   0.221E+00    0.776E-01
DAV:   7    -0.189797328455E+03    0.68550E-02   -0.14238E-02 11520   0.573E-01    0.213E-01
DAV:   8    -0.189798071740E+03   -0.74328E-03   -0.40505E-03 12440   0.326E-01    0.342E-01
DAV:   9    -0.189797329703E+03    0.74204E-03   -0.22823E-03 10680   0.308E-01    0.147E-01
DAV:  10    -0.189797639873E+03   -0.31017E-03   -0.93903E-04  9760   0.133E-01    0.131E-01
DAV:  11    -0.189797353821E+03    0.28605E-03   -0.47554E-04  9160   0.778E-02    0.209E-02
DAV:  12    -0.189797380763E+03   -0.26942E-04   -0.74860E-05  7200   0.285E-02
   3 F= -.18979738E+03 E0= -.18968092E+03  d E =-.109511E+01
       N       E                     dE             d eps       ncg     rms          rms(c)
DAV:   1    -0.191372119242E+03   -0.15748E+01   -0.75114E+01  8160   0.197E+01    0.457E+00
DAV:   2    -0.191188641581E+03    0.18348E+00   -0.53582E+00 13360   0.760E+00    0.449E+00
DAV:   3    -0.191344940272E+03   -0.15630E+00   -0.15081E+00 12200   0.905E+00    0.675E+00
DAV:   4    -0.190943215234E+03    0.40173E+00   -0.13493E+00 12400   0.764E+00    0.293E+00
DAV:   5    -0.190900128717E+03    0.43087E-01   -0.41375E-01 12280   0.387E+00    0.283E+00
DAV:   6    -0.190814705904E+03    0.85423E-01   -0.19659E-01 12320   0.310E+00    0.119E+00
DAV:   7    -0.190802820945E+03    0.11885E-01   -0.43184E-02 12560   0.110E+00    0.450E-01
DAV:   8    -0.190799385321E+03    0.34356E-02   -0.64594E-03 10280   0.326E-01    0.157E-01
DAV:   9    -0.190800329316E+03   -0.94399E-03   -0.24482E-03 12600   0.316E-01    0.317E-01
DAV:  10    -0.190799701328E+03    0.62799E-03   -0.22692E-03 11200   0.315E-01    0.118E-01
DAV:  11    -0.190799557985E+03    0.14334E-03   -0.52997E-04  9080   0.105E-01    0.482E-02
DAV:  12    -0.190799551590E+03    0.63952E-05   -0.11401E-04  7360   0.438E-02
   4 F= -.19079955E+03 E0= -.19070179E+03  d E =-.100217E+01
       N       E                     dE             d eps       ncg     rms          rms(c)
DAV:   1    -0.192240847000E+03   -0.14413E+01   -0.16106E+02  8160   0.283E+01    0.564E+00
DAV:   2    -0.191970604353E+03    0.27024E+00   -0.93968E+00 11040   0.775E+00    0.355E+00
DAV:   3    -0.192043094224E+03   -0.72490E-01   -0.17971E+00 12240   0.781E+00    0.604E+00
DAV:   4    -0.191850296075E+03    0.19280E+00   -0.14751E+00 12000   0.937E+00    0.458E+00
DAV:   5    -0.191597979795E+03    0.25232E+00   -0.59418E-01 12360   0.459E+00    0.154E+00
DAV:   6    -0.191584802117E+03    0.13178E-01   -0.14921E-01 12640   0.267E+00    0.152E+00
DAV:   7    -0.191567168416E+03    0.17634E-01   -0.80579E-02 12360   0.203E+00    0.712E-01
DAV:   8    -0.191560587859E+03    0.65806E-02   -0.13472E-02 11800   0.730E-01    0.389E-01
DAV:   9    -0.191559502370E+03    0.10855E-02   -0.44892E-03 11800   0.467E-01    0.205E-01
DAV:  10    -0.191559529125E+03   -0.26756E-04   -0.21862E-03 11480   0.194E-01    0.808E-02
DAV:  11    -0.191559477999E+03    0.51126E-04   -0.51099E-04 10800   0.841E-02
   5 F= -.19155948E+03 E0= -.19147314E+03  d E =-.759926E+00
       N       E                     dE             d eps       ncg     rms          rms(c)
DAV:   1    -0.191677007846E+03   -0.11748E+00   -0.86328E+00  8160   0.625E+00    0.739E-01
DAV:   2    -0.191740421423E+03   -0.63414E-01   -0.34764E-01 12880   0.295E+00    0.206E+00
DAV:   3    -0.191694634228E+03    0.45787E-01   -0.98564E-02 12520   0.237E+00    0.483E-01
DAV:   4    -0.191694745376E+03   -0.11115E-03   -0.12410E-02 11640   0.750E-01    0.593E-01
DAV:   5    -0.191691431887E+03    0.33135E-02   -0.83780E-03 11520   0.695E-01    0.269E-01
DAV:   6    -0.191691305645E+03    0.12624E-03   -0.35991E-03 11280   0.310E-01    0.191E-01
DAV:   7    -0.191690853873E+03    0.45177E-03   -0.19983E-03 11520   0.254E-01    0.173E-01
DAV:   8    -0.191690588874E+03    0.26500E-03   -0.71663E-04  9120   0.189E-01    0.502E-02
DAV:   9    -0.191690594170E+03   -0.52952E-05   -0.10254E-04  6160   0.540E-02
   6 F= -.19169059E+03 E0= -.19160580E+03  d E =-.131116E+00
       N       E                     dE             d eps       ncg     rms          rms(c)
DAV:   1    -0.191817969194E+03   -0.12738E+00   -0.10862E+01  8160   0.702E+00    0.740E-01
DAV:   2    -0.191861905108E+03   -0.43936E-01   -0.35141E-01 12520   0.246E+00    0.151E+00
DAV:   3    -0.191839157075E+03    0.22748E-01   -0.70819E-02 12520   0.206E+00    0.623E-01
DAV:   4    -0.191835452105E+03    0.37050E-02   -0.10857E-02 11840   0.709E-01    0.447E-01
DAV:   5    -0.191834553560E+03    0.89854E-03   -0.78877E-03 11720   0.692E-01    0.386E-01
DAV:   6    -0.191833793645E+03    0.75992E-03   -0.52607E-03 11760   0.441E-01    0.203E-01
DAV:   7    -0.191832931527E+03    0.86212E-03   -0.17204E-03 10400   0.170E-01    0.492E-02
DAV:   8    -0.191833009365E+03   -0.77838E-04   -0.31726E-04  8560   0.114E-01
   7 F= -.19183301E+03 E0= -.19175071E+03  d E =-.142415E+00
       N       E                     dE             d eps       ncg     rms          rms(c)
DAV:   1    -0.191961085798E+03   -0.12815E+00   -0.13115E+01  8160   0.776E+00    0.803E-01
DAV:   2    -0.192000056891E+03   -0.38971E-01   -0.44646E-01 12480   0.230E+00    0.108E+00
DAV:   3    -0.191994445419E+03    0.56115E-02   -0.56454E-02 12440   0.193E+00    0.856E-01
DAV:   4    -0.191984036481E+03    0.10409E-01   -0.12792E-02 12160   0.874E-01    0.269E-01
DAV:   5    -0.191987177275E+03   -0.31408E-02   -0.96163E-03 12720   0.707E-01    0.610E-01
DAV:   6    -0.191984011063E+03    0.31662E-02   -0.89132E-03 11800   0.743E-01    0.252E-01
DAV:   7    -0.191982999910E+03    0.10112E-02   -0.19176E-03 11440   0.233E-01    0.497E-02
DAV:   8    -0.191983052998E+03   -0.53088E-04   -0.32543E-04  8680   0.101E-01
   8 F= -.19198305E+03 E0= -.19190218E+03  d E =-.150044E+00
       N       E                     dE             d eps       ncg     rms          rms(c)
DAV:   1    -0.192118132922E+03   -0.13513E+00   -0.64997E+01  8160   0.173E+01    0.177E+00
DAV:   2    -0.192288864509E+03   -0.17073E+00   -0.23034E+00 11480   0.439E+00    0.163E+00
DAV:   3    -0.192330578079E+03   -0.41714E-01   -0.24894E-01 12080   0.417E+00    0.245E+00
DAV:   4    -0.192253072348E+03    0.77506E-01   -0.81489E-02 11760   0.265E+00    0.768E-01
DAV:   5    -0.192257707514E+03   -0.46352E-02   -0.35997E-02 12200   0.162E+00    0.108E+00
DAV:   6    -0.192246951958E+03    0.10756E-01   -0.32613E-02 12400   0.133E+00    0.448E-01
DAV:   7    -0.192245008333E+03    0.19436E-02   -0.96125E-03 11800   0.721E-01    0.373E-01
DAV:   8    -0.192243535818E+03    0.14725E-02   -0.28204E-03 11880   0.428E-01    0.106E-01
DAV:   9    -0.192243364900E+03    0.17092E-03   -0.73237E-04 10200   0.112E-01    0.535E-02
DAV:  10    -0.192243317684E+03    0.47216E-04   -0.24000E-04  8040   0.498E-02
   9 F= -.19224332E+03 E0= -.19216795E+03  d E =-.260265E+00
       N       E                     dE             d eps       ncg     rms          rms(c)
DAV:   1    -0.192293547750E+03   -0.50183E-01   -0.70741E+00  8160   0.572E+00    0.700E-01
DAV:   2    -0.192320361700E+03   -0.26814E-01   -0.31728E-01 12000   0.192E+00    0.101E+00
DAV:   3    -0.192316762599E+03    0.35991E-02   -0.44201E-02 12440   0.179E+00    0.834E-01
DAV:   4    -0.192308174443E+03    0.85882E-02   -0.11714E-02 12480   0.926E-01    0.309E-01
DAV:   5    -0.192308900948E+03   -0.72650E-03   -0.63285E-03 11880   0.679E-01    0.424E-01
DAV:   6    -0.192306922822E+03    0.19781E-02   -0.53003E-03 11880   0.540E-01    0.139E-01
DAV:   7    -0.192306787311E+03    0.13551E-03   -0.11387E-03 10840   0.242E-01    0.134E-01
DAV:   8    -0.192306595157E+03    0.19215E-03   -0.38739E-04  9600   0.167E-01    0.463E-02
DAV:   9    -0.192306571790E+03    0.23368E-04   -0.73191E-05  6680   0.498E-02
  10 F= -.19230657E+03 E0= -.19223349E+03  d E =-.632541E-01
       N       E                     dE             d eps       ncg     rms          rms(c)
DAV:   1    -0.192336658825E+03   -0.30064E-01   -0.30298E+00  8160   0.365E+00    0.426E-01
DAV:   2    -0.192352550789E+03   -0.15892E-01   -0.12739E-01 11160   0.144E+00    0.860E-01
DAV:   3    -0.192345471958E+03    0.70788E-02   -0.19243E-02 12480   0.121E+00    0.386E-01
DAV:   4    -0.192343767270E+03    0.17047E-02   -0.29189E-03 11880   0.417E-01    0.166E-01
DAV:   5    -0.192343895365E+03   -0.12809E-03   -0.17370E-03 12520   0.349E-01    0.202E-01
DAV:   6    -0.192343629560E+03    0.26580E-03   -0.14280E-03 11960   0.290E-01    0.107E-01
DAV:   7    -0.192343415104E+03    0.21446E-03   -0.42904E-04 10360   0.103E-01    0.255E-02
DAV:   8    -0.192343430813E+03   -0.15710E-04   -0.65654E-05  7000   0.611E-02
  11 F= -.19234343E+03 E0= -.19227226E+03  d E =-.368590E-01
       N       E                     dE             d eps       ncg     rms          rms(c)
DAV:   1    -0.192365434781E+03   -0.22020E-01   -0.16626E+00  8160   0.276E+00    0.351E-01
DAV:   2    -0.192372863044E+03   -0.74283E-02   -0.68226E-02 12080   0.107E+00    0.659E-01
DAV:   3    -0.192369095631E+03    0.37674E-02   -0.12441E-02 12440   0.965E-01    0.335E-01
DAV:   4    -0.192367695871E+03    0.13998E-02   -0.22646E-03 12520   0.356E-01    0.134E-01
DAV:   5    -0.192367800238E+03   -0.10437E-03   -0.13872E-03 12040   0.281E-01    0.180E-01
DAV:   6    -0.192367520400E+03    0.27984E-03   -0.11285E-03 10720   0.274E-01    0.903E-02
DAV:   7    -0.192367383749E+03    0.13665E-03   -0.25397E-04  8080   0.104E-01    0.265E-02
DAV:   8    -0.192367386569E+03   -0.28203E-05   -0.57428E-05  7920   0.573E-02
  12 F= -.19236739E+03 E0= -.19229730E+03  d E =-.239558E-01
       N       E                     dE             d eps       ncg     rms          rms(c)
DAV:   1    -0.192392901521E+03   -0.25518E-01   -0.17507E+01  8160   0.885E+00    0.970E-01
DAV:   2    -0.192469021846E+03   -0.76120E-01   -0.64361E-01 11400   0.315E+00    0.184E+00
DAV:   3    -0.192437326835E+03    0.31695E-01   -0.97423E-02 12400   0.269E+00    0.908E-01
DAV:   4    -0.192426900396E+03    0.10426E-01   -0.15695E-02 12480   0.947E-01    0.326E-01
DAV:   5    -0.192426523437E+03    0.37696E-03   -0.82450E-03 12480   0.556E-01    0.338E-01
DAV:   6    -0.192427176662E+03   -0.65323E-03   -0.79503E-03 12160   0.730E-01    0.418E-01
DAV:   7    -0.192424915220E+03    0.22614E-02   -0.34548E-03 11880   0.458E-01    0.104E-01
DAV:   8    -0.192424868050E+03    0.47169E-04   -0.47594E-04  9360   0.163E-01
  13 F= -.19242487E+03 E0= -.19235828E+03  d E =-.574815E-01
       N       E                     dE             d eps       ncg     rms          rms(c)
DAV:   1    -0.192433318355E+03   -0.84031E-02   -0.14019E+00  8160   0.251E+00    0.299E-01
DAV:   2    -0.192441091362E+03   -0.77730E-02   -0.71311E-02 12480   0.999E-01    0.547E-01
DAV:   3    -0.192438646672E+03    0.24447E-02   -0.95847E-03 12480   0.845E-01    0.305E-01
DAV:   4    -0.192437467346E+03    0.11793E-02   -0.16427E-03 11920   0.321E-01    0.106E-01
DAV:   5    -0.192437576043E+03   -0.10870E-03   -0.92476E-04 10520   0.223E-01    0.152E-01
DAV:   6    -0.192437426032E+03    0.15001E-03   -0.88252E-04 10680   0.240E-01    0.936E-02
DAV:   7    -0.192437318074E+03    0.10796E-03   -0.27181E-04  8040   0.124E-01    0.542E-02
DAV:   8    -0.192437288542E+03    0.29532E-04   -0.68159E-05  6760   0.742E-02
  14 F= -.19243729E+03 E0= -.19237122E+03  d E =-.124205E-01
       N       E                     dE             d eps       ncg     rms          rms(c)
DAV:   1    -0.192441635219E+03   -0.43171E-02   -0.39067E+00  8160   0.417E+00    0.458E-01
DAV:   2    -0.192459175336E+03   -0.17540E-01   -0.16173E-01 11960   0.149E+00    0.797E-01
DAV:   3    -0.192454019471E+03    0.51559E-02   -0.21045E-02 12160   0.126E+00    0.477E-01
DAV:   4    -0.192451186297E+03    0.28332E-02   -0.38825E-03 12480   0.498E-01    0.147E-01
DAV:   5    -0.192451073383E+03    0.11291E-03   -0.17082E-03 12320   0.211E-01    0.132E-01
DAV:   6    -0.192451181843E+03   -0.10846E-03   -0.14169E-03 12080   0.290E-01    0.169E-01
DAV:   7    -0.192450807654E+03    0.37419E-03   -0.53929E-04  9400   0.191E-01    0.318E-02
DAV:   8    -0.192450817468E+03   -0.98146E-05   -0.78227E-05  6160   0.655E-02
  15 F= -.19245082E+03 E0= -.19238581E+03  d E =-.135289E-01
       N       E                     dE             d eps       ncg     rms          rms(c)
DAV:   1    -0.192453105498E+03   -0.22978E-02   -0.17712E-01  8160   0.896E-01    0.104E-01
DAV:   2    -0.192453818715E+03   -0.71322E-03   -0.93145E-03 11440   0.308E-01    0.103E-01
DAV:   3    -0.192453821711E+03   -0.29960E-05   -0.70611E-04 11120   0.223E-01
  16 F= -.19245382E+03 E0= -.19238899E+03  d E =-.300424E-02
       N       E                     dE             d eps       ncg     rms          rms(c)
DAV:   1    -0.192455358633E+03   -0.15399E-02   -0.87985E-02  8160   0.641E-01    0.906E-02
DAV:   2    -0.192455785715E+03   -0.42708E-03   -0.40314E-03 12320   0.238E-01    0.148E-01
DAV:   3    -0.192455592105E+03    0.19361E-03   -0.67534E-04 11080   0.225E-01    0.897E-02
DAV:   4    -0.192455512617E+03    0.79488E-04   -0.17092E-04  6640   0.106E-01
  17 F= -.19245551E+03 E0= -.19239096E+03  d E =-.169091E-02
       N       E                     dE             d eps       ncg     rms          rms(c)
DAV:   1    -0.192457287986E+03   -0.16959E-02   -0.13094E-01  8160   0.769E-01    0.104E-01
DAV:   2    -0.192458097576E+03   -0.80959E-03   -0.66458E-03 12280   0.325E-01    0.196E-01
DAV:   3    -0.192457700416E+03    0.39716E-03   -0.10366E-03 11080   0.285E-01    0.888E-02
DAV:   4    -0.192457646181E+03    0.54234E-04   -0.20552E-04  7680   0.121E-01
  18 F= -.19245765E+03 E0= -.19239329E+03  d E =-.213356E-02
       N       E                     dE             d eps       ncg     rms          rms(c)
DAV:   1    -0.192459221888E+03   -0.15215E-02   -0.14597E-01  8160   0.816E-01    0.110E-01
DAV:   2    -0.192459824686E+03   -0.60280E-03   -0.68311E-03 11560   0.285E-01    0.151E-01
DAV:   3    -0.192459677563E+03    0.14712E-03   -0.96232E-04 11040   0.263E-01    0.115E-01
DAV:   4    -0.192459538283E+03    0.13928E-03   -0.28596E-04  8240   0.140E-01    0.632E-02
DAV:   5    -0.192459535124E+03    0.31592E-05   -0.16622E-04  7560   0.121E-01
  19 F= -.19245954E+03 E0= -.19239558E+03  d E =-.188894E-02
       N       E                     dE             d eps       ncg     rms          rms(c)
DAV:   1    -0.192460850217E+03   -0.13119E-02   -0.22494E-01  8160   0.101E+00    0.120E-01
DAV:   2    -0.192462079491E+03   -0.12293E-02   -0.11147E-02 11440   0.416E-01    0.222E-01
DAV:   3    -0.192461640864E+03    0.43863E-03   -0.15287E-03 11560   0.331E-01    0.114E-01
DAV:   4    -0.192461487022E+03    0.15384E-03   -0.23231E-04  7880   0.131E-01    0.522E-02
DAV:   5    -0.192461495026E+03   -0.80039E-05   -0.12092E-04  7160   0.106E-01
  20 F= -.19246150E+03 E0= -.19239787E+03  d E =-.195990E-02
       N       E                     dE             d eps       ncg     rms          rms(c)
DAV:   1    -0.192459902203E+03    0.15848E-02   -0.16793E+00  8160   0.274E+00    0.315E-01
DAV:   2    -0.192466683315E+03   -0.67811E-02   -0.82159E-02 11040   0.884E-01    0.336E-01
DAV:   3    -0.192467584926E+03   -0.90161E-03   -0.78950E-03 12440   0.767E-01    0.454E-01
DAV:   4    -0.192465048151E+03    0.25368E-02   -0.28283E-03 11800   0.480E-01    0.940E-02
DAV:   5    -0.192465180090E+03   -0.13194E-03   -0.10825E-03 10840   0.181E-01    0.134E-01
DAV:   6    -0.192465052902E+03    0.12719E-03   -0.73025E-04 10840   0.229E-01    0.100E-01
DAV:   7    -0.192464931234E+03    0.12167E-03   -0.18542E-04  6880   0.113E-01    0.284E-02
DAV:   8    -0.192464931705E+03   -0.47056E-06   -0.53216E-05  6720   0.512E-02
  21 F= -.19246493E+03 E0= -.19240214E+03  d E =-.343668E-02
       N       E                     dE             d eps       ncg     rms          rms(c)
DAV:   1    -0.192465078293E+03   -0.14706E-03   -0.40051E-03  8480   0.148E-01    0.283E-02
DAV:   2    -0.192465105198E+03   -0.26905E-04   -0.15702E-04  7160   0.841E-02
  22 F= -.19246511E+03 E0= -.19240232E+03  d E =-.173493E-03
