 vasp.5.4.1 05Feb16 (build Jul 05 2020 17:13:04) complex                        
  
 executed on           IFC91_ompi date 2024.08.22  14:17:09
 running on   40 total cores
 distrk:  each k-point on   40 cores,    1 groups
 distr:  one band on NCORES_PER_BAND=   1 cores,   40 groups


--------------------------------------------------------------------------------------------------------


 INCAR:
 POTCAR:   PAW_PBE V 08Apr2002                    
 POTCAR:   PAW_PBE Mo 08Apr2002                   
 POTCAR:   PAW_PBE W 08Apr2002                    
 POTCAR:    PAW_PBE S 17Jan2003                   

 ----------------------------------------------------------------------------- 
|                                                                             |
|           W    W    AA    RRRRR   N    N  II  N    N   GGGG   !!!           |
|           W    W   A  A   R    R  NN   N  II  NN   N  G    G  !!!           |
|           W    W  A    A  R    R  N N  N  II  N N  N  G       !!!           |
|           W WW W  AAAAAA  RRRRR   N  N N  II  N  N N  G  GGG   !            |
|           WW  WW  A    A  R   R   N   NN  II  N   NN  G    G                |
|           W    W  A    A  R    R  N    N  II  N    N   GGGG   !!!           |
|                                                                             |
|      For optimal performance we recommend to set                            |
|        NCORE= 4 - approx SQRT( number of cores)                             |
|      NCORE specifies how many cores store one orbital (NPAR=cpu/NCORE).     |
|      This setting can  greatly improve the performance of VASP for DFT.     |
|      The default, NPAR=number of cores might be grossly inefficient         |
|      on modern multi-core architectures or massively parallel machines.     |
|      Do your own testing !!!!                                               |
|      Unfortunately you need to use the default for GW and RPA calculations. |
|      (for HF NCORE is supported but not extensively tested yet)             |
|                                                                             |
 ----------------------------------------------------------------------------- 

 POTCAR:   PAW_PBE V 08Apr2002                    
   VRHFIN =V: p6 d4 s1                                                          
   LEXCH  = PE                                                                  
   EATOM  =   170.8679 eV,   12.5584 Ry                                         
                                                                                
   TITEL  = PAW_PBE V 08Apr2002                                                 
   LULTRA =        F    use ultrasoft PP ?                                      
   IUNSCR =        1    unscreen: 0-lin 1-nonlin 2-no                           
   RPACOR =    2.000    partial core radius                                     
   POMASS =   50.941; ZVAL   =    5.000    mass and valenz                      
   RCORE  =    2.700    outmost cutoff radius                                   
   RWIGS  =    2.500; RWIGS  =    1.323    wigner-seitz radius (au A)           
   ENMAX  =  192.543; ENMIN  =  144.408 eV                                      
   RCLOC  =    1.779    cutoff for local pot                                    
   LCOR   =        T    correct aug charges                                     
   LPAW   =        T    paw PP                                                  
   EAUG   =  358.662                                                            
   DEXC   =    -.034                                                            
   RMAX   =    3.323    core radius for proj-oper                               
   RAUG   =    1.300    factor for augmentation sphere                          
   RDEP   =    2.762    radius for radial grids                                 
   QCUT   =   -3.762; QGAM   =    7.524    optimization parameters              
                                                                                
   Description                                                                  
     l     E      TYP  RCUT    TYP  RCUT                                        
     2   .000     23  2.700                                                     
     2   .000     23  2.700                                                     
     0   .000     23  2.700                                                     
     0  2.000     23  2.700                                                     
     1   .000     23  2.700                                                     
     1  2.000     23  2.700                                                     
     3   .000      7   .000                                                     
  local pseudopotential read in
  partial core-charges read in
  atomic valenz-charges read in
  non local Contribution for L=           2  read in
    real space projection operators read in
  non local Contribution for L=           2  read in
    real space projection operators read in
  non local Contribution for L=           0  read in
    real space projection operators read in
  non local Contribution for L=           0  read in
    real space projection operators read in
  non local Contribution for L=           1  read in
    real space projection operators read in
  non local Contribution for L=           1  read in
    real space projection operators read in
    PAW grid and wavefunctions read in
 
   number of l-projection  operators is LMAX  =           6
   number of lm-projection operators is LMMAX =          18
 
 POTCAR:   PAW_PBE Mo 08Apr2002                   
   VRHFIN =Mo: 4p5s4d                                                           
   LEXCH  = PE                                                                  
   EATOM  =   217.5180 eV,   15.9871 Ry                                         
                                                                                
   TITEL  = PAW_PBE Mo 08Apr2002                                                
   LULTRA =        F    use ultrasoft PP ?                                      
   IUNSCR =        1    unscreen: 0-lin 1-nonlin 2-no                           
   RPACOR =    2.200    partial core radius                                     
   POMASS =   95.940; ZVAL   =    6.000    mass and valenz                      
   RCORE  =    2.750    outmost cutoff radius                                   
   RWIGS  =    2.750; RWIGS  =    1.455    wigner-seitz radius (au A)           
   ENMAX  =  224.584; ENMIN  =  168.438 eV                                      
   RCLOC  =    2.111    cutoff for local pot                                    
   LCOR   =        T    correct aug charges                                     
   LPAW   =        T    paw PP                                                  
   EAUG   =  345.278                                                            
   DEXC   =    -.088                                                            
   RMAX   =    3.077    core radius for proj-oper                               
   RAUG   =    1.300    factor for augmentation sphere                          
   RDEP   =    2.815    radius for radial grids                                 
   QCUT   =   -4.063; QGAM   =    8.126    optimization parameters              
                                                                                
   Description                                                                  
     l     E      TYP  RCUT    TYP  RCUT                                        
     2   .000     23  2.500                                                     
     2   .000     23  2.500                                                     
     0   .000     23  2.600                                                     
     0  1.000     23  2.600                                                     
     1   .400     23  2.750                                                     
     1  2.000     23  2.750                                                     
     3   .000      7   .000                                                     
  local pseudopotential read in
  partial core-charges read in
  atomic valenz-charges read in
  non local Contribution for L=           2  read in
    real space projection operators read in
  non local Contribution for L=           2  read in
    real space projection operators read in
  non local Contribution for L=           0  read in
    real space projection operators read in
  non local Contribution for L=           0  read in
    real space projection operators read in
  non local Contribution for L=           1  read in
    real space projection operators read in
  non local Contribution for L=           1  read in
    real space projection operators read in
    PAW grid and wavefunctions read in
 
   number of l-projection  operators is LMAX  =           6
   number of lm-projection operators is LMMAX =          18
 
 POTCAR:   PAW_PBE W 08Apr2002                    
   VRHFIN =W : 6s5d                                                             
   LEXCH  = PE                                                                  
   EATOM  =   204.6100 eV,   15.0384 Ry                                         
                                                                                
   TITEL  = PAW_PBE W 08Apr2002                                                 
   LULTRA =        F    use ultrasoft PP ?                                      
   IUNSCR =        1    unscreen: 0-lin 1-nonlin 2-no                           
   RPACOR =    2.330    partial core radius                                     
   POMASS =  183.850; ZVAL   =    6.000    mass and valenz                      
   RCORE  =    2.750    outmost cutoff radius                                   
   RWIGS  =    2.750; RWIGS  =    1.455    wigner-seitz radius (au A)           
   ENMAX  =  223.057; ENMIN  =  167.293 eV                                      
   RCLOC  =    2.147    cutoff for local pot                                    
   LCOR   =        T    correct aug charges                                     
   LPAW   =        T    paw PP                                                  
   EAUG   =  373.438                                                            
   DEXC   =    -.060                                                            
   RMAX   =    3.087    core radius for proj-oper                               
   RAUG   =    1.300    factor for augmentation sphere                          
   RDEP   =    2.886    radius for radial grids                                 
   QCUT   =   -4.049; QGAM   =    8.098    optimization parameters              
                                                                                
   Description                                                                  
     l     E      TYP  RCUT    TYP  RCUT                                        
     2   .000     23  2.500                                                     
     2   .000     23  2.500                                                     
     0   .000     23  2.500                                                     
     0   .000     23  2.500                                                     
     1   .200     23  2.750                                                     
     1  2.000     23  2.750                                                     
     3   .000      7   .000                                                     
  local pseudopotential read in
  partial core-charges read in
  atomic valenz-charges read in
  non local Contribution for L=           2  read in
    real space projection operators read in
  non local Contribution for L=           2  read in
    real space projection operators read in
  non local Contribution for L=           0  read in
    real space projection operators read in
  non local Contribution for L=           0  read in
    real space projection operators read in
  non local Contribution for L=           1  read in
    real space projection operators read in
  non local Contribution for L=           1  read in
    real space projection operators read in
    PAW grid and wavefunctions read in
 
   number of l-projection  operators is LMAX  =           6
   number of lm-projection operators is LMMAX =          18
 
 POTCAR:    PAW_PBE S 17Jan2003                   
   VRHFIN =S : s2p4                                                             
   LEXCH  = PE                                                                  
   EATOM  =   276.8230 eV,   20.3459 Ry                                         
                                                                                
   TITEL  = PAW_PBE S 17Jan2003                                                 
   LULTRA =        F    use ultrasoft PP ?                                      
   IUNSCR =        1    unscreen: 0-lin 1-nonlin 2-no                           
   RPACOR =    1.500    partial core radius                                     
   POMASS =   32.066; ZVAL   =    6.000    mass and valenz                      
   RCORE  =    1.900    outmost cutoff radius                                   
   RWIGS  =    2.200; RWIGS  =    1.164    wigner-seitz radius (au A)           
   ENMAX  =  280.000; ENMIN  =  194.016 eV                                      
   ICORE  =        2    local potential                                         
   LCOR   =        T    correct aug charges                                     
   LPAW   =        T    paw PP                                                  
   EAUG   =  335.092                                                            
   DEXC   =     .000                                                            
   RMAX   =    2.867    core radius for proj-oper                               
   RAUG   =    1.300    factor for augmentation sphere                          
   RDEP   =    1.954    radius for radial grids                                 
   QCUT   =   -4.360; QGAM   =    8.721    optimization parameters              
                                                                                
   Description                                                                  
     l     E      TYP  RCUT    TYP  RCUT                                        
     0   .000     23  1.900                                                     
     0   .000     23  1.900                                                     
     1   .000     23  1.900                                                     
     1   .000     23  1.900                                                     
     2   .000     23  1.900                                                     
  local pseudopotential read in
  partial core-charges read in
  atomic valenz-charges read in
  non local Contribution for L=           0  read in
    real space projection operators read in
  non local Contribution for L=           0  read in
    real space projection operators read in
  non local Contribution for L=           1  read in
    real space projection operators read in
  non local Contribution for L=           1  read in
    real space projection operators read in
    PAW grid and wavefunctions read in
 
   number of l-projection  operators is LMAX  =           4
   number of lm-projection operators is LMMAX =           8
 

 ----------------------------------------------------------------------------- 
|                                                                             |
|  ADVICE TO THIS USER RUNNING 'VASP/VAMP'   (HEAR YOUR MASTER'S VOICE ...):  |
|                                                                             |
|      You have a (more or less) 'large supercell' and for larger cells       |
|      it might be more efficient to use real space projection operators      |
|      So try LREAL= Auto  in the INCAR   file.                               |
|      Mind: If you want to do a very accurate calculations keep the          |
|      reciprocal projection scheme          (i.e. LREAL=.FALSE.)             |
|                                                                             |
 ----------------------------------------------------------------------------- 

 PAW_PBE V 08Apr2002                    :
 energy of atom  1       EATOM= -170.8679
 kinetic energy error for atom=    0.0047 (will be added to EATOM!!)
 PAW_PBE Mo 08Apr2002                   :
 energy of atom  2       EATOM= -217.5180
 kinetic energy error for atom=    0.0215 (will be added to EATOM!!)
 PAW_PBE W 08Apr2002                    :
 energy of atom  3       EATOM= -204.6100
 kinetic energy error for atom=    0.0205 (will be added to EATOM!!)
  PAW_PBE S 17Jan2003                   :
 energy of atom  4       EATOM= -276.8230
 kinetic energy error for atom=    0.0122 (will be added to EATOM!!)
 
 
 POSCAR: crystal structure from VMoWS2 with Hexag
  positions in cartesian coordinates
  No initial velocities read in
 exchange correlation table for  LEXCH =        8
   RHO(1)=    0.500       N(1)  =     2000
   RHO(2)=  100.500       N(2)  =     4000
 


--------------------------------------------------------------------------------------------------------


 ion  position               nearest neighbor table
   1  0.667  0.333  0.000-  19 2.34  22 2.34  25 2.36  24 2.36  17 2.36  16 2.36
   2  0.000  0.667  0.000-  27 2.34  12 2.34  14 2.36  15 2.36  24 2.36  25 2.36
   3  0.333  0.667  0.000-  15 2.34  18 2.34  20 2.36  21 2.36  13 2.36  12 2.36
   4  0.333  0.333  0.000-  13 2.34  16 2.34  19 2.36  18 2.36  11 2.36  10 2.36   8 3.34   7 3.34
                             5 3.36   6 3.36
   5  0.000  0.000  0.000-  23 2.34  14 2.34  11 2.36  10 2.36  27 2.36  26 2.36   9 3.34   7 3.34
                             8 3.34   6 3.36   4 3.36
   6  0.667  0.667  0.000-  21 2.34  24 2.34  27 2.36  26 2.36  19 2.36  18 2.36   9 3.34   5 3.36
                             4 3.36
   7  1.000  0.333  0.000-  25 2.34  10 2.34  13 2.36  12 2.36  22 2.36  23 2.36   5 3.34   4 3.34
                             9 3.36
   8  0.333  0.000  0.000-  11 2.34  20 2.34  17 2.36  16 2.36  15 2.36  14 2.36   4 3.34   9 3.34
                             5 3.34
   9  0.667  0.000  0.000-  17 2.34  26 2.34  23 2.36  22 2.36  21 2.36  20 2.36   5 3.34   6 3.34
                             8 3.34   7 3.36
  10  0.111  0.222  0.955-   7 2.34   5 2.36   4 2.36
  11  0.222  0.111  0.045-   8 2.34   5 2.36   4 2.36
  12  0.111  0.556  0.955-   2 2.34   7 2.36   3 2.36
  13  0.222  0.444  0.045-   4 2.34   7 2.36   3 2.36
  14  0.111  0.889  0.955-   5 2.34   2 2.36   8 2.36
  15  0.222  0.777  0.045-   3 2.34   2 2.36   8 2.36
  16  0.444  0.222  0.955-   4 2.34   8 2.36   1 2.36
  17  0.556  0.111  0.045-   9 2.34   8 2.36   1 2.36
  18  0.444  0.556  0.955-   3 2.34   4 2.36   6 2.36
  19  0.556  0.444  0.045-   1 2.34   4 2.36   6 2.36
  20  0.444  0.889  0.955-   8 2.34   3 2.36   9 2.36
  21  0.556  0.777  0.045-   6 2.34   3 2.36   9 2.36
  22  0.777  0.222  0.955-   1 2.34   9 2.36   7 2.36
  23  0.889  0.111  0.045-   5 2.34   9 2.36   7 2.36
  24  0.777  0.556  0.955-   6 2.34   1 2.36   2 2.36
  25  0.889  0.444  0.045-   7 2.34   1 2.36   2 2.36
  26  0.777  0.889  0.955-   9 2.34   6 2.36   5 2.36
  27  0.889  0.777  0.045-   2 2.34   6 2.36   5 2.36
 

IMPORTANT INFORMATION: All symmetrisations will be switched off!
NOSYMM: (Re-)initialisation of all symmetry stuff for point group C_1.

 
 
 KPOINTS: K-POINTS 	#supercell of CrS2 in hexagona

Automatic generation of k-mesh.
Space group operators:
 irot       det(A)        alpha          n_x          n_y          n_z        tau_x        tau_y        tau_z
    1     1.000000     0.000000     1.000000     0.000000     0.000000     0.000000     0.000000     0.000000
 
 Subroutine IBZKPT returns following result:
 ===========================================
 
 Found     34 irreducible k-points:
 
 Following reciprocal coordinates:
            Coordinates               Weight
  0.000000  0.000000  0.000000      1.000000
  0.125000  0.000000  0.000000      2.000000
  0.250000  0.000000  0.000000      2.000000
  0.375000  0.000000  0.000000      2.000000
  0.500000  0.000000  0.000000      1.000000
  0.000000  0.125000  0.000000      2.000000
  0.125000  0.125000  0.000000      2.000000
  0.250000  0.125000  0.000000      2.000000
  0.375000  0.125000  0.000000      2.000000
  0.500000  0.125000  0.000000      2.000000
 -0.375000  0.125000  0.000000      2.000000
 -0.250000  0.125000  0.000000      2.000000
 -0.125000  0.125000  0.000000      2.000000
  0.000000  0.250000  0.000000      2.000000
  0.125000  0.250000  0.000000      2.000000
  0.250000  0.250000  0.000000      2.000000
  0.375000  0.250000  0.000000      2.000000
  0.500000  0.250000  0.000000      2.000000
 -0.375000  0.250000  0.000000      2.000000
 -0.250000  0.250000  0.000000      2.000000
 -0.125000  0.250000  0.000000      2.000000
 -0.000000  0.375000  0.000000      2.000000
  0.125000  0.375000  0.000000      2.000000
  0.250000  0.375000  0.000000      2.000000
  0.375000  0.375000  0.000000      2.000000
  0.500000  0.375000  0.000000      2.000000
 -0.375000  0.375000  0.000000      2.000000
 -0.250000  0.375000  0.000000      2.000000
 -0.125000  0.375000  0.000000      2.000000
  0.000000  0.500000  0.000000      1.000000
  0.125000  0.500000  0.000000      2.000000
  0.250000  0.500000  0.000000      2.000000
  0.375000  0.500000  0.000000      2.000000
  0.500000  0.500000  0.000000      1.000000
 
 Following cartesian coordinates:
            Coordinates               Weight
  0.000000  0.000000  0.000000      1.000000
  0.007209  0.012401  0.000000      2.000000
  0.014418  0.024802  0.000000      2.000000
  0.021626  0.037202  0.000000      2.000000
  0.028835  0.049603  0.000000      1.000000
 -0.007209  0.012401  0.000000      2.000000
  0.000000  0.024802  0.000000      2.000000
  0.007209  0.037202  0.000000      2.000000
  0.014418  0.049603  0.000000      2.000000
  0.021626  0.062004  0.000000      2.000000
 -0.028835 -0.024802  0.000000      2.000000
 -0.021626 -0.012401  0.000000      2.000000
 -0.014418  0.000000  0.000000      2.000000
 -0.014418  0.024802  0.000000      2.000000
 -0.007209  0.037202  0.000000      2.000000
  0.000000  0.049603  0.000000      2.000000
  0.007209  0.062004  0.000000      2.000000
  0.014418  0.074405  0.000000      2.000000
 -0.036044 -0.012401  0.000000      2.000000
 -0.028835  0.000000  0.000000      2.000000
 -0.021626  0.012401  0.000000      2.000000
 -0.021626  0.037202  0.000000      2.000000
 -0.014418  0.049603  0.000000      2.000000
 -0.007209  0.062004  0.000000      2.000000
  0.000000  0.074405  0.000000      2.000000
  0.007209  0.086806  0.000000      2.000000
 -0.043253  0.000000  0.000000      2.000000
 -0.036044  0.012401  0.000000      2.000000
 -0.028835  0.024802  0.000000      2.000000
 -0.028835  0.049603  0.000000      1.000000
 -0.021626  0.062004  0.000000      2.000000
 -0.014418  0.074405  0.000000      2.000000
 -0.007209  0.086806  0.000000      2.000000
  0.000000  0.099206  0.000000      1.000000
 


--------------------------------------------------------------------------------------------------------




 Dimension of arrays:
   k-points           NKPTS =     34   k-points in BZ     NKDIM =     34   number of bands    NBANDS=    120
   number of dos      NEDOS =    301   number of ions     NIONS =     27
   non local maximal  LDIM  =      6   non local SUM 2l+1 LMDIM =     18
   total plane-waves  NPLWV = 222264
   max r-space proj   IRMAX =      1   max aug-charges    IRDMAX=   5642
   dimension x,y,z NGX =    42 NGY =   42 NGZ =  126
   dimension x,y,z NGXF=    84 NGYF=   84 NGZF=  252
   support grid    NGXF=    84 NGYF=   84 NGZF=  252
   ions per type =               3   3   3  18
 NGX,Y,Z   is equivalent  to a cutoff of   6.96,  6.96,  6.98 a.u.
 NGXF,Y,Z  is equivalent  to a cutoff of  13.92, 13.92, 13.96 a.u.


 I would recommend the setting:
   dimension x,y,z NGX =    41 NGY =   41 NGZ =  123
 SYSTEM =  unknown system                          
 POSCAR =  crystal structure from VMoWS2 with Hexag

 Startparameter for this run:
   NWRITE =      2    write-flag & timer
   PREC   = normal    normal or accurate (medium, high low for compatibility)
   ISTART =      0    job   : 0-new  1-cont  2-samecut
   ICHARG =      2    charge: 1-file 2-atom 10-const
   ISPIN  =      1    spin polarized calculation?
   LNONCOLLINEAR =      F non collinear calculations
   LSORBIT =      F    spin-orbit coupling
   INIWAV =      1    electr: 0-lowe 1-rand  2-diag
   LASPH  =      F    aspherical Exc in radial PAW
   METAGGA=      F    non-selfconsistent MetaGGA calc.

 Electronic Relaxation 1
   ENCUT  =  280.0 eV  20.58 Ry    4.54 a.u.  13.68 13.68 40.93*2*pi/ulx,y,z
   ENINI  =  280.0     initial cutoff
   ENAUG  =  373.4 eV  augmentation charge cutoff
   NELM   =     60;   NELMIN=  2; NELMDL= -5     # of ELM steps 
   EDIFF  = 0.1E-03   stopping-criterion for ELM
   LREAL  =      F    real-space projection
   NLSPLINE    = F    spline interpolate recip. space projectors
   LCOMPAT=      F    compatible to vasp.4.4
   GGA_COMPAT  = T    GGA compatible to vasp.4.4-vasp.4.6
   LMAXPAW     = -100 max onsite density
   LMAXMIX     =    2 max onsite mixed and CHGCAR
   VOSKOWN=      0    Vosko Wilk Nusair interpolation
   ROPT   =    0.00000   0.00000   0.00000   0.00000
 Ionic relaxation
   EDIFFG = 0.1E-02   stopping-criterion for IOM
   NSW    =    100    number of steps for IOM
   NBLOCK =      1;   KBLOCK =    100    inner block; outer block 
   IBRION =      1    ionic relax: 0-MD 1-quasi-New 2-CG
   NFREE  =      0    steps in history (QN), initial steepest desc. (CG)
   ISIF   =      3    stress and relaxation
   IWAVPR =     11    prediction:  0-non 1-charg 2-wave 3-comb
   ISYM   =      0    0-nonsym 1-usesym 2-fastsym
   LCORR  =      T    Harris-Foulkes like correction to forces

   POTIM  = 0.5000    time-step for ionic-motion
   TEIN   =    0.0    initial temperature
   TEBEG  =    0.0;   TEEND  =   0.0 temperature during run
   SMASS  =  -3.00    Nose mass-parameter (am)
   estimated Nose-frequenzy (Omega)   =  0.10E-29 period in steps =****** mass=  -0.230E-26a.u.
   SCALEE = 1.0000    scale energy and forces
   NPACO  =    256;   APACO  = 16.0  distance and # of slots for P.C.
   PSTRESS=    0.0 pullay stress

  Mass of Ions in am
   POMASS =  50.94 95.94183.85 32.07
  Ionic Valenz
   ZVAL   =   5.00  6.00  6.00  6.00
  Atomic Wigner-Seitz radii
   RWIGS  =  -1.00 -1.00 -1.00 -1.00
  virtual crystal weights 
   VCA    =   1.00  1.00  1.00  1.00
   NELECT =     159.0000    total number of electrons
   NUPDOWN=      -1.0000    fix difference up-down

 DOS related values:
   EMIN   =  10.00;   EMAX   =-10.00  energy-range for DOS
   EFERMI =   0.00
   ISMEAR =     0;   SIGMA  =   0.20  broadening in eV -4-tet -1-fermi 0-gaus

 Electronic relaxation 2 (details)
   IALGO  =     38    algorithm
   LDIAG  =      T    sub-space diagonalisation (order eigenvalues)
   LSUBROT=      F    optimize rotation matrix (better conditioning)
   TURBO    =      0    0=normal 1=particle mesh
   IRESTART =      0    0=no restart 2=restart with 2 vectors
   NREBOOT  =      0    no. of reboots
   NMIN     =      0    reboot dimension
   EREF     =   0.00    reference energy to select bands
   IMIX   =      4    mixing-type and parameters
     AMIX     =   0.40;   BMIX     =  1.00
     AMIX_MAG =   1.60;   BMIX_MAG =  1.00
     AMIN     =   0.10
     WC   =   100.;   INIMIX=   1;  MIXPRE=   1;  MAXMIX= -45

 Intra band minimization:
   WEIMIN = 0.0010     energy-eigenvalue tresh-hold
   EBREAK =  0.21E-06  absolut break condition
   DEPER  =   0.30     relativ break condition  

   TIME   =   0.40     timestep for ELM

  volume/ion in A,a.u.               =      97.10       655.29
  Fermi-wavevector in a.u.,A,eV,Ry     =   0.643191  1.215456  5.628665  0.413695
  Thomas-Fermi vector in A             =   1.710110
 
 Write flags
   LWAVE  =      F    write WAVECAR
   LCHARG =      F    write CHGCAR
   LVTOT  =      F    write LOCPOT, total local potential
   LVHAR  =      F    write LOCPOT, Hartree potential only
   LELF   =      F    write electronic localiz. function (ELF)
   LORBIT =      0    0 simple, 1 ext, 2 COOP (PROOUT)


 Dipole corrections
   LMONO  =      F    monopole corrections only (constant potential shift)
   LDIPOL =      F    correct potential (dipole corrections)
   IDIPOL =      0    1-x, 2-y, 3-z, 4-all directions 
   EPSILON=  1.0000000 bulk dielectric constant

 Exchange correlation treatment:
   GGA     =    --    GGA type
   LEXCH   =     8    internal setting for exchange type
   VOSKOWN=      0    Vosko Wilk Nusair interpolation
   LHFCALC =     F    Hartree Fock is set to
   LHFONE  =     F    Hartree Fock one center treatment
   AEXX    =    0.0000 exact exchange contribution

 Linear response parameters
   LEPSILON=     F    determine dielectric tensor
   LRPA    =     F    only Hartree local field effects (RPA)
   LNABLA  =     F    use nabla operator in PAW spheres
   LVEL    =     F    velocity operator in full k-point grid
   LINTERFAST=   F  fast interpolation
   KINTER  =     0    interpolate to denser k-point grid
   CSHIFT  =0.1000    complex shift for real part using Kramers Kronig
   OMEGAMAX=  -1.0    maximum frequency
   DEG_THRESHOLD= 0.2000000E-02 threshold for treating states as degnerate
   RTIME   =    0.100 relaxation time in fs

 Orbital magnetization related:
   ORBITALMAG=     F  switch on orbital magnetization
   LCHIMAG   =     F  perturbation theory with respect to B field
   DQ        =  0.001000  dq finite difference perturbation B field



--------------------------------------------------------------------------------------------------------


 quasi-Newton-method for relaxation of ions
 charge density and potential will be updated during run
 non-spin polarized calculation
 Variant of blocked Davidson
 Davidson routine will perform the subspace rotation
 perform sub-space diagonalisation
    after iterative eigenvector-optimisation
 modified Broyden-mixing scheme, WC =      100.0
 initial mixing is a Kerker type mixing with AMIX =  0.4000 and BMIX =      1.0000
 Hartree-type preconditioning will be used
 using additional bands           40
 reciprocal scheme for non local part
 use partial core corrections
 calculate Harris-corrections to forces 
   (improved forces if not selfconsistent)
 use gradient corrections 
 use of overlap-Matrix (Vanderbilt PP)
 Gauss-broadening in eV      SIGMA  =   0.20


--------------------------------------------------------------------------------------------------------


  energy-cutoff  :      280.00
  volume of cell :     2621.81
      direct lattice vectors                 reciprocal lattice vectors
     8.669999960  5.039999894  0.000000000     0.057670129  0.099206348  0.000000000
    -8.669999821  5.040000133  0.000000000    -0.057670126  0.099206350  0.000000000
     0.000000000  0.000000000 30.000000000     0.000000000  0.000000000  0.033333333

  length of vectors
    10.028484344 10.028484344 30.000000000     0.114750788  0.114750788  0.033333333


 
 k-points in units of 2pi/SCALE and weight: K-POINTS 	#supercell of CrS2 in hexagona
   0.00000000  0.00000000  0.00000000       0.016
   0.00720877  0.01240079  0.00000000       0.031
   0.01441753  0.02480159  0.00000000       0.031
   0.02162630  0.03720238  0.00000000       0.031
   0.02883506  0.04960317  0.00000000       0.016
  -0.00720877  0.01240079  0.00000000       0.031
   0.00000000  0.02480159  0.00000000       0.031
   0.00720877  0.03720238  0.00000000       0.031
   0.01441753  0.04960317  0.00000000       0.031
   0.02162630  0.06200397  0.00000000       0.031
  -0.02883506 -0.02480159  0.00000000       0.031
  -0.02162630 -0.01240079  0.00000000       0.031
  -0.01441753  0.00000000  0.00000000       0.031
  -0.01441753  0.02480159  0.00000000       0.031
  -0.00720877  0.03720238  0.00000000       0.031
   0.00000000  0.04960317  0.00000000       0.031
   0.00720877  0.06200397  0.00000000       0.031
   0.01441753  0.07440476  0.00000000       0.031
  -0.03604383 -0.01240079  0.00000000       0.031
  -0.02883506  0.00000000  0.00000000       0.031
  -0.02162630  0.01240079  0.00000000       0.031
  -0.02162630  0.03720238  0.00000000       0.031
  -0.01441753  0.04960317  0.00000000       0.031
  -0.00720877  0.06200397  0.00000000       0.031
   0.00000000  0.07440476  0.00000000       0.031
   0.00720877  0.08680556  0.00000000       0.031
  -0.04325260  0.00000000  0.00000000       0.031
  -0.03604383  0.01240079  0.00000000       0.031
  -0.02883506  0.02480159  0.00000000       0.031
  -0.02883506  0.04960317  0.00000000       0.016
  -0.02162630  0.06200397  0.00000000       0.031
  -0.01441753  0.07440476  0.00000000       0.031
  -0.00720876  0.08680556  0.00000000       0.031
   0.00000000  0.09920635  0.00000000       0.016
 
 k-points in reciprocal lattice and weights: K-POINTS 	#supercell of CrS2 in hexagona
   0.00000000  0.00000000  0.00000000       0.016
   0.12500000  0.00000000  0.00000000       0.031
   0.25000000  0.00000000  0.00000000       0.031
   0.37500000  0.00000000  0.00000000       0.031
   0.50000000  0.00000000  0.00000000       0.016
   0.00000000  0.12500000  0.00000000       0.031
   0.12500000  0.12500000  0.00000000       0.031
   0.25000000  0.12500000  0.00000000       0.031
   0.37500000  0.12500000  0.00000000       0.031
   0.50000000  0.12500000  0.00000000       0.031
  -0.37500000  0.12500000  0.00000000       0.031
  -0.25000000  0.12500000  0.00000000       0.031
  -0.12500000  0.12500000  0.00000000       0.031
   0.00000000  0.25000000  0.00000000       0.031
   0.12500000  0.25000000  0.00000000       0.031
   0.25000000  0.25000000  0.00000000       0.031
   0.37500000  0.25000000  0.00000000       0.031
   0.50000000  0.25000000  0.00000000       0.031
  -0.37500000  0.25000000  0.00000000       0.031
  -0.25000000  0.25000000  0.00000000       0.031
  -0.12500000  0.25000000  0.00000000       0.031
  -0.00000000  0.37500000  0.00000000       0.031
   0.12500000  0.37500000  0.00000000       0.031
   0.25000000  0.37500000  0.00000000       0.031
   0.37500000  0.37500000  0.00000000       0.031
   0.50000000  0.37500000  0.00000000       0.031
  -0.37500000  0.37500000  0.00000000       0.031
  -0.25000000  0.37500000  0.00000000       0.031
  -0.12500000  0.37500000  0.00000000       0.031
   0.00000000  0.50000000  0.00000000       0.016
   0.12500000  0.50000000  0.00000000       0.031
   0.25000000  0.50000000  0.00000000       0.031
   0.37500000  0.50000000  0.00000000       0.031
   0.50000000  0.50000000  0.00000000       0.016
 
 position of ions in fractional coordinates (direct lattice) 
   0.66666669  0.33333334  0.00000000
   0.00000000  0.66666669  0.00000000
   0.33333334  0.66666669  0.00000000
   0.33333334  0.33333334  0.00000000
   0.00000000  0.00000000  0.00000000
   0.66666669  0.66666669  0.00000000
   1.00000000  0.33333334  0.00000000
   0.33333334  0.00000000  0.00000000
   0.66666669  0.00000000  0.00000000
   0.11068511  0.22244981  0.95539999
   0.22244981  0.11068511  0.04460000
   0.11068511  0.55578315  0.95539999
   0.22244981  0.44401845  0.04460000
   0.11068511  0.88911647  0.95539999
   0.22244981  0.77735180  0.04460000
   0.44401845  0.22244981  0.95539999
   0.55578315  0.11068511  0.04460000
   0.44401845  0.55578315  0.95539999
   0.55578315  0.44401845  0.04460000
   0.44401845  0.88911647  0.95539999
   0.55578315  0.77735180  0.04460000
   0.77735180  0.22244981  0.95539999
   0.88911647  0.11068511  0.04460000
   0.77735180  0.55578315  0.95539999
   0.88911647  0.44401845  0.04460000
   0.77735180  0.88911647  0.95539999
   0.88911647  0.77735180  0.04460000
 
 position of ions in cartesian coordinates  (Angst):
   2.89000012  5.04000012  0.00000000
  -5.78000005  3.36000019  0.00000000
  -2.88999998  5.04000020  0.00000000
   0.00000005  3.36000011  0.00000000
   0.00000000  0.00000000  0.00000000
   0.00000009  6.72000022  0.00000000
   5.77999993  6.71999999  0.00000000
   2.89000007  1.68000002  0.00000000
   5.78000015  3.36000003  0.00000000
  -0.96899991  1.67900001 28.66199970
   0.96899995  1.67899998  1.33799996
  -3.85899993  3.35900011 28.66199970
  -1.92100007  3.35900008  1.33799996
  -6.74899970  5.03900005 28.66199970
  -4.81100010  5.03900017  1.33799996
   1.92100017  3.35900003 28.66199970
   3.85900003  3.35900000  1.33799996
  -0.96899986  5.03900012 28.66199970
   0.96900000  5.03900009  1.33799996
  -3.85899963  6.71900006 28.66199970
  -1.92100003  6.71900019  1.33799996
   4.81100024  5.03900004 28.66199970
   6.74899984  5.03899987  1.33799996
   1.92100021  6.71900014 28.66199970
   3.85899981  6.71899996  1.33799996
  -0.96899956  8.39900008 28.66199970
   0.96899979  8.39900005  1.33799996
 


--------------------------------------------------------------------------------------------------------


 k-point  1 :   0.0000 0.0000 0.0000  plane waves:   27959
 k-point  2 :   0.1250 0.0000 0.0000  plane waves:   27889
 k-point  3 :   0.2500 0.0000 0.0000  plane waves:   27875
 k-point  4 :   0.3750 0.0000 0.0000  plane waves:   27893
 k-point  5 :   0.5000 0.0000 0.0000  plane waves:   27932
 k-point  6 :   0.0000 0.1250 0.0000  plane waves:   27889
 k-point  7 :   0.1250 0.1250 0.0000  plane waves:   27906
 k-point  8 :   0.2500 0.1250 0.0000  plane waves:   27898
 k-point  9 :   0.3750 0.1250 0.0000  plane waves:   27888
 k-point 10 :   0.5000 0.1250 0.0000  plane waves:   27873
 k-point 11 :  -0.3750 0.1250 0.0000  plane waves:   27874
 k-point 12 :  -0.2500 0.1250 0.0000  plane waves:   27895
 k-point 13 :  -0.1250 0.1250 0.0000  plane waves:   27879
 k-point 14 :   0.0000 0.2500 0.0000  plane waves:   27875
 k-point 15 :   0.1250 0.2500 0.0000  plane waves:   27898
 k-point 16 :   0.2500 0.2500 0.0000  plane waves:   27920
 k-point 17 :   0.3750 0.2500 0.0000  plane waves:   27901
 k-point 18 :   0.5000 0.2500 0.0000  plane waves:   27875
 k-point 19 :  -0.3750 0.2500 0.0000  plane waves:   27894
 k-point 20 :  -0.2500 0.2500 0.0000  plane waves:   27870
 k-point 21 :  -0.1250 0.2500 0.0000  plane waves:   27895
 k-point 22 :  -0.0000 0.3750 0.0000  plane waves:   27893
 k-point 23 :   0.1250 0.3750 0.0000  plane waves:   27888
 k-point 24 :   0.2500 0.3750 0.0000  plane waves:   27901
 k-point 25 :   0.3750 0.3750 0.0000  plane waves:   27860
 k-point 26 :   0.5000 0.3750 0.0000  plane waves:   27895
 k-point 27 :  -0.3750 0.3750 0.0000  plane waves:   27858
 k-point 28 :  -0.2500 0.3750 0.0000  plane waves:   27894
 k-point 29 :  -0.1250 0.3750 0.0000  plane waves:   27874
 k-point 30 :   0.0000 0.5000 0.0000  plane waves:   27932
 k-point 31 :   0.1250 0.5000 0.0000  plane waves:   27873
 k-point 32 :   0.2500 0.5000 0.0000  plane waves:   27875
 k-point 33 :   0.3750 0.5000 0.0000  plane waves:   27895
 k-point 34 :   0.5000 0.5000 0.0000  plane waves:   27910

 maximum and minimum number of plane-waves per node :     27959    27858

 maximum number of plane-waves:     27959
 maximum index in each direction: 
   IXMAX=   14   IYMAX=   13   IZMAX=   40
   IXMIN=  -14   IYMIN=  -14   IZMIN=  -40

 WARNING: aliasing errors must be expected set NGX to  58 to avoid them
 WARNING: aliasing errors must be expected set NGY to  56 to avoid them
 WARNING: aliasing errors must be expected set NGZ to 162 to avoid them
 aliasing errors are usually negligible using standard VASP settings
 and one can safely disregard these warnings

 serial   3D FFT for wavefunctions

 total amount of memory used by VASP on root node   650782. kBytes
========================================================================

   base      :      30000. kBytes
   nonl-proj :     559647. kBytes
   fftplans  :       2414. kBytes
   grid      :      12150. kBytes
   one-center:        419. kBytes
   wavefun   :      46152. kBytes
 
     INWAV:  cpu time    0.0000: real time    0.0000
 Broyden mixing: mesh for mixing (old mesh)
   NGX = 27   NGY = 27   NGZ = 81
  (NGX  = 84   NGY  = 84   NGZ  =252)
  gives a total of  59049 points

 initial charge density was supplied:
 charge density of overlapping atoms calculated
 number of electron     159.0000000 magnetization 
 keeping initial charge density in first step


--------------------------------------------------------------------------------------------------------


 Maximum index for augmentation-charges          148 (set IRDMAX)


--------------------------------------------------------------------------------------------------------


 First call to EWALD:  gamma=   0.129
 Maximum number of real-space cells 4x 4x 2
 Maximum number of reciprocal cells 2x 2x 5

 FEWALD executed in parallel
    FEWALD:  cpu time    0.0016: real time    0.0015


----------------------------------------- Iteration    1(   1)  ---------------------------------------


    POTLOK:  cpu time    0.0362: real time    0.0366
    SETDIJ:  cpu time    0.0032: real time    0.0033
     EDDAV:  cpu time   21.9280: real time   21.9837
       DOS:  cpu time    0.0004: real time    0.0015
    --------------------------------------------
      LOOP:  cpu time   21.9747: real time   22.0325

 eigenvalue-minimisations  :  8160
 total energy-change (2. order) : 0.1124385E+04  (-0.3585979E+04)
 number of electron     159.0000000 magnetization 
 augmentation part      159.0000000 magnetization 

 Free energy of the ion-electron system (eV)
  ---------------------------------------------------
  alpha Z        PSCENC =        81.65567618
  Ewald energy   TEWEN  =     41890.23010370
  -Hartree energ DENC   =    -47722.85862477
  -exchange      EXHF   =         0.00000000
  -V(xc)+E(xc)   XCENC  =      -242.92963151
  PAW double counting   =      3467.42045192    -2871.19716117
  entropy T*S    EENTRO =        -0.53091802
  eigenvalues    EBANDS =      -238.84782535
  atomic energy  EATOM  =      6761.44252427
  Solvation  Ediel_sol  =         0.00000000
  ---------------------------------------------------
  free energy    TOTEN  =      1124.38459524 eV

  energy without entropy =     1124.91551326  energy(sigma->0) =     1124.65005425


--------------------------------------------------------------------------------------------------------




----------------------------------------- Iteration    1(   2)  ---------------------------------------


     EDDAV:  cpu time   27.7779: real time   27.8443
       DOS:  cpu time    0.0010: real time    0.0010
    --------------------------------------------
      LOOP:  cpu time   27.7798: real time   27.8528

 eigenvalue-minimisations  : 10960
 total energy-change (2. order) :-0.1127217E+04  (-0.1086129E+04)
 number of electron     159.0000000 magnetization 
 augmentation part      159.0000000 magnetization 

 Free energy of the ion-electron system (eV)
  ---------------------------------------------------
  alpha Z        PSCENC =        81.65567618
  Ewald energy   TEWEN  =     41890.23010370
  -Hartree energ DENC   =    -47722.85862477
  -exchange      EXHF   =         0.00000000
  -V(xc)+E(xc)   XCENC  =      -242.92963151
  PAW double counting   =      3467.42045192    -2871.19716117
  entropy T*S    EENTRO =        -0.17949680
  eigenvalues    EBANDS =     -1366.41595444
  atomic energy  EATOM  =      6761.44252427
  Solvation  Ediel_sol  =         0.00000000
  ---------------------------------------------------
  free energy    TOTEN  =        -2.83211262 eV

  energy without entropy =       -2.65261582  energy(sigma->0) =       -2.74236422


--------------------------------------------------------------------------------------------------------




----------------------------------------- Iteration    1(   3)  ---------------------------------------


     EDDAV:  cpu time   27.7811: real time   27.8480
       DOS:  cpu time    0.0010: real time    0.0010
    --------------------------------------------
      LOOP:  cpu time   27.7830: real time   27.8561

 eigenvalue-minimisations  : 10920
 total energy-change (2. order) :-0.1969005E+03  (-0.1886086E+03)
 number of electron     159.0000000 magnetization 
 augmentation part      159.0000000 magnetization 

 Free energy of the ion-electron system (eV)
  ---------------------------------------------------
  alpha Z        PSCENC =        81.65567618
  Ewald energy   TEWEN  =     41890.23010370
  -Hartree energ DENC   =    -47722.85862477
  -exchange      EXHF   =         0.00000000
  -V(xc)+E(xc)   XCENC  =      -242.92963151
  PAW double counting   =      3467.42045192    -2871.19716117
  entropy T*S    EENTRO =        -0.25552473
  eigenvalues    EBANDS =     -1563.24042874
  atomic energy  EATOM  =      6761.44252427
  Solvation  Ediel_sol  =         0.00000000
  ---------------------------------------------------
  free energy    TOTEN  =      -199.73261485 eV

  energy without entropy =     -199.47709013  energy(sigma->0) =     -199.60485249


--------------------------------------------------------------------------------------------------------




----------------------------------------- Iteration    1(   4)  ---------------------------------------


     EDDAV:  cpu time   29.7781: real time   29.8492
       DOS:  cpu time    0.0010: real time    0.0010
    --------------------------------------------
      LOOP:  cpu time   29.7800: real time   29.8573

 eigenvalue-minimisations  : 11880
 total energy-change (2. order) :-0.9168255E+01  (-0.8867939E+01)
 number of electron     159.0000000 magnetization 
 augmentation part      159.0000000 magnetization 

 Free energy of the ion-electron system (eV)
  ---------------------------------------------------
  alpha Z        PSCENC =        81.65567618
  Ewald energy   TEWEN  =     41890.23010370
  -Hartree energ DENC   =    -47722.85862477
  -exchange      EXHF   =         0.00000000
  -V(xc)+E(xc)   XCENC  =      -242.92963151
  PAW double counting   =      3467.42045192    -2871.19716117
  entropy T*S    EENTRO =        -0.29822441
  eigenvalues    EBANDS =     -1572.36598406
  atomic energy  EATOM  =      6761.44252427
  Solvation  Ediel_sol  =         0.00000000
  ---------------------------------------------------
  free energy    TOTEN  =      -208.90086986 eV

  energy without entropy =     -208.60264545  energy(sigma->0) =     -208.75175765


--------------------------------------------------------------------------------------------------------




----------------------------------------- Iteration    1(   5)  ---------------------------------------


     EDDAV:  cpu time   29.4558: real time   29.5269
       DOS:  cpu time    0.0010: real time    0.0010
    CHARGE:  cpu time    0.4629: real time    0.4641
    MIXING:  cpu time    0.0017: real time    0.0019
    --------------------------------------------
      LOOP:  cpu time   29.9222: real time   30.0009

 eigenvalue-minimisations  : 11800
 total energy-change (2. order) :-0.3777888E+00  (-0.3768094E+00)
 number of electron     159.0000111 magnetization 
 augmentation part       -9.7959172 magnetization 

 Broyden mixing:
  rms(total) = 0.27470E+01    rms(broyden)= 0.27466E+01
  rms(prec ) = 0.29323E+01
  weight for this iteration     100.00

 Free energy of the ion-electron system (eV)
  ---------------------------------------------------
  alpha Z        PSCENC =        81.65567618
  Ewald energy   TEWEN  =     41890.23010370
  -Hartree energ DENC   =    -47722.85862477
  -exchange      EXHF   =         0.00000000
  -V(xc)+E(xc)   XCENC  =      -242.92963151
  PAW double counting   =      3467.42045192    -2871.19716117
  entropy T*S    EENTRO =        -0.29457966
  eigenvalues    EBANDS =     -1572.74741757
  atomic energy  EATOM  =      6761.44252427
  Solvation  Ediel_sol  =         0.00000000
  ---------------------------------------------------
  free energy    TOTEN  =      -209.27865861 eV

  energy without entropy =     -208.98407895  energy(sigma->0) =     -209.13136878


--------------------------------------------------------------------------------------------------------




----------------------------------------- Iteration    1(   6)  ---------------------------------------


    POTLOK:  cpu time    0.0331: real time    0.0332
    SETDIJ:  cpu time    0.0026: real time    0.0026
     EDDAV:  cpu time   31.3692: real time   31.4444
       DOS:  cpu time    0.0011: real time    0.0011
    CHARGE:  cpu time    0.4557: real time    0.4567
    MIXING:  cpu time    0.0018: real time    0.0022
    --------------------------------------------
      LOOP:  cpu time   31.8642: real time   31.9488

 eigenvalue-minimisations  : 12760
 total energy-change (2. order) :-0.2790502E+02  (-0.1077619E+02)
 number of electron     159.0000106 magnetization 
 augmentation part        7.0902432 magnetization 

 Broyden mixing:
  rms(total) = 0.59397E+01    rms(broyden)= 0.59390E+01
  rms(prec ) = 0.65214E+01
  weight for this iteration     100.00

 eigenvalues of (default mixing * dielectric matrix)
  average eigenvalue GAMMA=   0.2933
  0.2933

 Free energy of the ion-electron system (eV)
  ---------------------------------------------------
  alpha Z        PSCENC =        81.65567618
  Ewald energy   TEWEN  =     41890.23010370
  -Hartree energ DENC   =    -47701.23551092
  -exchange      EXHF   =         0.00000000
  -V(xc)+E(xc)   XCENC  =      -233.62942280
  PAW double counting   =      3676.45328792    -3082.54319936
  entropy T*S    EENTRO =        -0.27134168
  eigenvalues    EBANDS =     -1629.28579515
  atomic energy  EATOM  =      6761.44252427
  Solvation  Ediel_sol  =         0.00000000
  ---------------------------------------------------
  free energy    TOTEN  =      -237.18367784 eV

  energy without entropy =     -236.91233616  energy(sigma->0) =     -237.04800700


--------------------------------------------------------------------------------------------------------




----------------------------------------- Iteration    1(   7)  ---------------------------------------


    POTLOK:  cpu time    0.0296: real time    0.0310
    SETDIJ:  cpu time    0.0024: real time    0.0025
     EDDAV:  cpu time   32.2003: real time   32.2778
       DOS:  cpu time    0.0010: real time    0.0010
    CHARGE:  cpu time    0.4677: real time    0.4688
    MIXING:  cpu time    0.0011: real time    0.0012
    --------------------------------------------
      LOOP:  cpu time   32.7043: real time   32.7911

 eigenvalue-minimisations  : 13160
 total energy-change (2. order) : 0.4054004E+02  (-0.1776204E+02)
 number of electron     159.0000087 magnetization 
 augmentation part       -6.2245197 magnetization 

 Broyden mixing:
  rms(total) = 0.20371E+01    rms(broyden)= 0.20351E+01
  rms(prec ) = 0.22617E+01
  weight for this iteration     100.00

 eigenvalues of (default mixing * dielectric matrix)
  average eigenvalue GAMMA=   0.5398
  0.8684  0.2112

 Free energy of the ion-electron system (eV)
  ---------------------------------------------------
  alpha Z        PSCENC =        81.65567618
  Ewald energy   TEWEN  =     41890.23010370
  -Hartree energ DENC   =    -47738.77238152
  -exchange      EXHF   =         0.00000000
  -V(xc)+E(xc)   XCENC  =      -235.01277528
  PAW double counting   =      3764.25880771    -3178.30284073
  entropy T*S    EENTRO =        -0.33698956
  eigenvalues    EBANDS =     -1541.80575976
  atomic energy  EATOM  =      6761.44252427
  Solvation  Ediel_sol  =         0.00000000
  ---------------------------------------------------
  free energy    TOTEN  =      -196.64363500 eV

  energy without entropy =     -196.30664543  energy(sigma->0) =     -196.47514022


--------------------------------------------------------------------------------------------------------




----------------------------------------- Iteration    1(   8)  ---------------------------------------


    POTLOK:  cpu time    0.0309: real time    0.0310
    SETDIJ:  cpu time    0.0025: real time    0.0025
     EDDAV:  cpu time   28.9645: real time   29.0342
       DOS:  cpu time    0.0011: real time    0.0011
    CHARGE:  cpu time    0.4721: real time    0.4733
    MIXING:  cpu time    0.0013: real time    0.0016
    --------------------------------------------
      LOOP:  cpu time   29.4733: real time   29.5519

 eigenvalue-minimisations  : 11600
 total energy-change (2. order) : 0.6528760E+01  (-0.2049342E+01)
 number of electron     159.0000095 magnetization 
 augmentation part       -6.4021926 magnetization 

 Broyden mixing:
  rms(total) = 0.13755E+01    rms(broyden)= 0.13750E+01
  rms(prec ) = 0.14865E+01
  weight for this iteration     100.00

 eigenvalues of (default mixing * dielectric matrix)
  average eigenvalue GAMMA=   0.5258
  1.0472  0.2650  0.2650

 Free energy of the ion-electron system (eV)
  ---------------------------------------------------
  alpha Z        PSCENC =        81.65567618
  Ewald energy   TEWEN  =     41890.23010370
  -Hartree energ DENC   =    -47761.62649868
  -exchange      EXHF   =         0.00000000
  -V(xc)+E(xc)   XCENC  =      -235.05032635
  PAW double counting   =      3902.77999863    -3318.37441777
  entropy T*S    EENTRO =        -0.26824021
  eigenvalues    EBANDS =     -1510.90369456
  atomic energy  EATOM  =      6761.44252427
  Solvation  Ediel_sol  =         0.00000000
  ---------------------------------------------------
  free energy    TOTEN  =      -190.11487480 eV

  energy without entropy =     -189.84663459  energy(sigma->0) =     -189.98075469


--------------------------------------------------------------------------------------------------------




----------------------------------------- Iteration    1(   9)  ---------------------------------------


    POTLOK:  cpu time    0.0316: real time    0.0317
    SETDIJ:  cpu time    0.0023: real time    0.0023
     EDDAV:  cpu time   30.0291: real time   30.1008
       DOS:  cpu time    0.0010: real time    0.0010
    CHARGE:  cpu time    0.4844: real time    0.4856
    MIXING:  cpu time    0.0012: real time    0.0012
    --------------------------------------------
      LOOP:  cpu time   30.5506: real time   30.6322

 eigenvalue-minimisations  : 12080
 total energy-change (2. order) : 0.1802564E+01  (-0.3508416E+00)
 number of electron     159.0000094 magnetization 
 augmentation part       -5.7275057 magnetization 

 Broyden mixing:
  rms(total) = 0.93924E+00    rms(broyden)= 0.93880E+00
  rms(prec ) = 0.10108E+01
  weight for this iteration     100.00

 eigenvalues of (default mixing * dielectric matrix)
  average eigenvalue GAMMA=   0.6943
  1.7041  0.5733  0.2198  0.2801

 Free energy of the ion-electron system (eV)
  ---------------------------------------------------
  alpha Z        PSCENC =        81.65567618
  Ewald energy   TEWEN  =     41890.23010370
  -Hartree energ DENC   =    -47765.65418661
  -exchange      EXHF   =         0.00000000
  -V(xc)+E(xc)   XCENC  =      -234.37183464
  PAW double counting   =      3960.82619523    -3377.13520428
  entropy T*S    EENTRO =        -0.32726630
  eigenvalues    EBANDS =     -1504.97831876
  atomic energy  EATOM  =      6761.44252427
  Solvation  Ediel_sol  =         0.00000000
  ---------------------------------------------------
  free energy    TOTEN  =      -188.31231122 eV

  energy without entropy =     -187.98504491  energy(sigma->0) =     -188.14867806


--------------------------------------------------------------------------------------------------------




----------------------------------------- Iteration    1(  10)  ---------------------------------------


    POTLOK:  cpu time    0.0328: real time    0.0329
    SETDIJ:  cpu time    0.0024: real time    0.0024
     EDDAV:  cpu time   32.7783: real time   32.8573
       DOS:  cpu time    0.0010: real time    0.0010
    CHARGE:  cpu time    0.4951: real time    0.4962
    MIXING:  cpu time    0.0013: real time    0.0013
    --------------------------------------------
      LOOP:  cpu time   33.3119: real time   33.4002

 eigenvalue-minimisations  : 13400
 total energy-change (2. order) : 0.1178320E+01  (-0.1781630E+00)
 number of electron     159.0000092 magnetization 
 augmentation part       -4.4093072 magnetization 

 Broyden mixing:
  rms(total) = 0.34806E+00    rms(broyden)= 0.34773E+00
  rms(prec ) = 0.38090E+00
  weight for this iteration     100.00

 eigenvalues of (default mixing * dielectric matrix)
  average eigenvalue GAMMA=   0.6929
  1.8685  0.6126  0.5013  0.2243  0.2578

 Free energy of the ion-electron system (eV)
  ---------------------------------------------------
  alpha Z        PSCENC =        81.65567618
  Ewald energy   TEWEN  =     41890.23010370
  -Hartree energ DENC   =    -47777.85473721
  -exchange      EXHF   =         0.00000000
  -V(xc)+E(xc)   XCENC  =      -232.75521445
  PAW double counting   =      4088.67746259    -3506.62548646
  entropy T*S    EENTRO =        -0.34130384
  eigenvalues    EBANDS =     -1491.56301591
  atomic energy  EATOM  =      6761.44252427
  Solvation  Ediel_sol  =         0.00000000
  ---------------------------------------------------
  free energy    TOTEN  =      -187.13399113 eV

  energy without entropy =     -186.79268729  energy(sigma->0) =     -186.96333921


--------------------------------------------------------------------------------------------------------




----------------------------------------- Iteration    1(  11)  ---------------------------------------


    POTLOK:  cpu time    0.0293: real time    0.0306
    SETDIJ:  cpu time    0.0024: real time    0.0024
     EDDAV:  cpu time   31.1865: real time   31.2610
       DOS:  cpu time    0.0010: real time    0.0010
    CHARGE:  cpu time    0.4982: real time    0.4994
    MIXING:  cpu time    0.0013: real time    0.0013
    --------------------------------------------
      LOOP:  cpu time   31.7209: real time   31.8053

 eigenvalue-minimisations  : 12640
 total energy-change (2. order) : 0.1242636E+00  (-0.6774440E-01)
 number of electron     159.0000092 magnetization 
 augmentation part       -4.2815302 magnetization 

 Broyden mixing:
  rms(total) = 0.23477E+00    rms(broyden)= 0.23439E+00
  rms(prec ) = 0.25754E+00
  weight for this iteration     100.00

 eigenvalues of (default mixing * dielectric matrix)
  average eigenvalue GAMMA=   0.8674
  1.9159  1.9159  0.6150  0.2875  0.2219  0.2480

 Free energy of the ion-electron system (eV)
  ---------------------------------------------------
  alpha Z        PSCENC =        81.65567618
  Ewald energy   TEWEN  =     41890.23010370
  -Hartree energ DENC   =    -47783.81481032
  -exchange      EXHF   =         0.00000000
  -V(xc)+E(xc)   XCENC  =      -232.40182842
  PAW double counting   =      4126.07998689    -3544.33761144
  entropy T*S    EENTRO =        -0.34862613
  eigenvalues    EBANDS =     -1485.51514221
  atomic energy  EATOM  =      6761.44252427
  Solvation  Ediel_sol  =         0.00000000
  ---------------------------------------------------
  free energy    TOTEN  =      -187.00972750 eV

  energy without entropy =     -186.66110136  energy(sigma->0) =     -186.83541443


--------------------------------------------------------------------------------------------------------




----------------------------------------- Iteration    1(  12)  ---------------------------------------


    POTLOK:  cpu time    0.0313: real time    0.0315
    SETDIJ:  cpu time    0.0024: real time    0.0024
     EDDAV:  cpu time   31.8009: real time   31.8770
       DOS:  cpu time    0.0010: real time    0.0010
    CHARGE:  cpu time    0.4977: real time    0.4989
    MIXING:  cpu time    0.0013: real time    0.0013
    --------------------------------------------
      LOOP:  cpu time   32.3358: real time   32.4218

 eigenvalue-minimisations  : 12960
 total energy-change (2. order) :-0.7850311E-02  (-0.4496277E-01)
 number of electron     159.0000089 magnetization 
 augmentation part       -4.4685661 magnetization 

 Broyden mixing:
  rms(total) = 0.33024E+00    rms(broyden)= 0.33014E+00
  rms(prec ) = 0.36598E+00
  weight for this iteration     100.00

 eigenvalues of (default mixing * dielectric matrix)
  average eigenvalue GAMMA=   0.7963
  1.9933  1.9933  0.6170  0.2762  0.2762  0.2136  0.2049

 Free energy of the ion-electron system (eV)
  ---------------------------------------------------
  alpha Z        PSCENC =        81.65567618
  Ewald energy   TEWEN  =     41890.23010370
  -Hartree energ DENC   =    -47796.75364358
  -exchange      EXHF   =         0.00000000
  -V(xc)+E(xc)   XCENC  =      -232.07296215
  PAW double counting   =      4179.87444797    -3598.10305484
  entropy T*S    EENTRO =        -0.33403938
  eigenvalues    EBANDS =     -1472.95662997
  atomic energy  EATOM  =      6761.44252427
  Solvation  Ediel_sol  =         0.00000000
  ---------------------------------------------------
  free energy    TOTEN  =      -187.01757781 eV

  energy without entropy =     -186.68353843  energy(sigma->0) =     -186.85055812


--------------------------------------------------------------------------------------------------------




----------------------------------------- Iteration    1(  13)  ---------------------------------------


    POTLOK:  cpu time    0.0306: real time    0.0319
    SETDIJ:  cpu time    0.0025: real time    0.0025
     EDDAV:  cpu time   32.4281: real time   32.5061
       DOS:  cpu time    0.0010: real time    0.0010
    CHARGE:  cpu time    0.4995: real time    0.5007
    MIXING:  cpu time    0.0014: real time    0.0014
    --------------------------------------------
      LOOP:  cpu time   32.9653: real time   33.0528

 eigenvalue-minimisations  : 13240
 total energy-change (2. order) : 0.8807111E-01  (-0.2554811E-01)
 number of electron     159.0000089 magnetization 
 augmentation part       -4.4079384 magnetization 

 Broyden mixing:
  rms(total) = 0.19056E+00    rms(broyden)= 0.19041E+00
  rms(prec ) = 0.21120E+00
  weight for this iteration     100.00

 eigenvalues of (default mixing * dielectric matrix)
  average eigenvalue GAMMA=   0.7796
  2.2848  1.7042  0.7498  0.5899  0.2993  0.2246  0.2409  0.1432

 Free energy of the ion-electron system (eV)
  ---------------------------------------------------
  alpha Z        PSCENC =        81.65567618
  Ewald energy   TEWEN  =     41890.23010370
  -Hartree energ DENC   =    -47799.23626137
  -exchange      EXHF   =         0.00000000
  -V(xc)+E(xc)   XCENC  =      -231.98866396
  PAW double counting   =      4187.64720672    -3605.86564533
  entropy T*S    EENTRO =        -0.33640155
  eigenvalues    EBANDS =     -1470.47804536
  atomic energy  EATOM  =      6761.44252427
  Solvation  Ediel_sol  =         0.00000000
  ---------------------------------------------------
  free energy    TOTEN  =      -186.92950670 eV

  energy without entropy =     -186.59310515  energy(sigma->0) =     -186.76130592


--------------------------------------------------------------------------------------------------------




----------------------------------------- Iteration    1(  14)  ---------------------------------------


    POTLOK:  cpu time    0.0306: real time    0.0307
    SETDIJ:  cpu time    0.0023: real time    0.0024
     EDDAV:  cpu time   32.1286: real time   32.2059
       DOS:  cpu time    0.0010: real time    0.0010
    CHARGE:  cpu time    0.4979: real time    0.4991
    MIXING:  cpu time    0.0016: real time    0.0016
    --------------------------------------------
      LOOP:  cpu time   32.6631: real time   32.7494

 eigenvalue-minimisations  : 13080
 total energy-change (2. order) : 0.2926133E-01  (-0.1051899E-01)
 number of electron     159.0000089 magnetization 
 augmentation part       -4.1697228 magnetization 

 Broyden mixing:
  rms(total) = 0.90517E-01    rms(broyden)= 0.90375E-01
  rms(prec ) = 0.10211E+00
  weight for this iteration     100.00

 eigenvalues of (default mixing * dielectric matrix)
  average eigenvalue GAMMA=   0.7429
  2.2879  1.6428  0.9869  0.5987  0.3003  0.2740  0.2291  0.2291  0.1375

 Free energy of the ion-electron system (eV)
  ---------------------------------------------------
  alpha Z        PSCENC =        81.65567618
  Ewald energy   TEWEN  =     41890.23010370
  -Hartree energ DENC   =    -47802.60052442
  -exchange      EXHF   =         0.00000000
  -V(xc)+E(xc)   XCENC  =      -231.87281663
  PAW double counting   =      4192.45114230    -3610.64303801
  entropy T*S    EENTRO =        -0.34101650
  eigenvalues    EBANDS =     -1467.22229626
  atomic energy  EATOM  =      6761.44252427
  Solvation  Ediel_sol  =         0.00000000
  ---------------------------------------------------
  free energy    TOTEN  =      -186.90024537 eV

  energy without entropy =     -186.55922887  energy(sigma->0) =     -186.72973712


--------------------------------------------------------------------------------------------------------




----------------------------------------- Iteration    1(  15)  ---------------------------------------


    POTLOK:  cpu time    0.0311: real time    0.0313
    SETDIJ:  cpu time    0.0024: real time    0.0024
     EDDAV:  cpu time   30.5680: real time   30.6417
       DOS:  cpu time    0.0010: real time    0.0010
    CHARGE:  cpu time    0.4964: real time    0.4976
    MIXING:  cpu time    0.0016: real time    0.0016
    --------------------------------------------
      LOOP:  cpu time   31.1027: real time   31.1849

 eigenvalue-minimisations  : 12360
 total energy-change (2. order) : 0.6177981E-02  (-0.3787066E-02)
 number of electron     159.0000090 magnetization 
 augmentation part       -4.1168098 magnetization 

 Broyden mixing:
  rms(total) = 0.88520E-01    rms(broyden)= 0.88450E-01
  rms(prec ) = 0.98159E-01
  weight for this iteration     100.00

 eigenvalues of (default mixing * dielectric matrix)
  average eigenvalue GAMMA=   0.7012
  2.2881  1.6388  1.0926  0.5965  0.3504  0.3031  0.2279  0.2337  0.1482  0.1327

 Free energy of the ion-electron system (eV)
  ---------------------------------------------------
  alpha Z        PSCENC =        81.65567618
  Ewald energy   TEWEN  =     41890.23010370
  -Hartree energ DENC   =    -47804.89883377
  -exchange      EXHF   =         0.00000000
  -V(xc)+E(xc)   XCENC  =      -231.83675373
  PAW double counting   =      4192.79289744    -3610.95528011
  entropy T*S    EENTRO =        -0.34323484
  eigenvalues    EBANDS =     -1464.98116652
  atomic energy  EATOM  =      6761.44252427
  Solvation  Ediel_sol  =         0.00000000
  ---------------------------------------------------
  free energy    TOTEN  =      -186.89406738 eV

  energy without entropy =     -186.55083254  energy(sigma->0) =     -186.72244996


--------------------------------------------------------------------------------------------------------




----------------------------------------- Iteration    1(  16)  ---------------------------------------


    POTLOK:  cpu time    0.0305: real time    0.0308
    SETDIJ:  cpu time    0.0024: real time    0.0024
     EDDAV:  cpu time   32.0529: real time   32.1294
       DOS:  cpu time    0.0011: real time    0.0011
    CHARGE:  cpu time    0.4980: real time    0.4992
    MIXING:  cpu time    0.0017: real time    0.0017
    --------------------------------------------
      LOOP:  cpu time   32.5867: real time   32.6735

 eigenvalue-minimisations  : 13080
 total energy-change (2. order) : 0.4297439E-02  (-0.1421579E-02)
 number of electron     159.0000090 magnetization 
 augmentation part       -4.1300909 magnetization 

 Broyden mixing:
  rms(total) = 0.49969E-01    rms(broyden)= 0.49937E-01
  rms(prec ) = 0.56348E-01
  weight for this iteration     100.00

 eigenvalues of (default mixing * dielectric matrix)
  average eigenvalue GAMMA=   0.7658
  2.3718  1.9259  1.5087  0.6990  0.6201  0.3084  0.2677  0.2246  0.2401  0.1392
  0.1183

 Free energy of the ion-electron system (eV)
  ---------------------------------------------------
  alpha Z        PSCENC =        81.65567618
  Ewald energy   TEWEN  =     41890.23010370
  -Hartree energ DENC   =    -47806.21789621
  -exchange      EXHF   =         0.00000000
  -V(xc)+E(xc)   XCENC  =      -231.81960630
  PAW double counting   =      4193.09807204    -3611.24618751
  entropy T*S    EENTRO =        -0.34326351
  eigenvalues    EBANDS =     -1463.68919260
  atomic energy  EATOM  =      6761.44252427
  Solvation  Ediel_sol  =         0.00000000
  ---------------------------------------------------
  free energy    TOTEN  =      -186.88976995 eV

  energy without entropy =     -186.54650644  energy(sigma->0) =     -186.71813819


--------------------------------------------------------------------------------------------------------




----------------------------------------- Iteration    1(  17)  ---------------------------------------


    POTLOK:  cpu time    0.0307: real time    0.0311
    SETDIJ:  cpu time    0.0024: real time    0.0024
     EDDAV:  cpu time   31.1014: real time   31.1762
       DOS:  cpu time    0.0002: real time    0.0010
    CHARGE:  cpu time    0.4992: real time    0.5004
    MIXING:  cpu time    0.0018: real time    0.0018
    --------------------------------------------
      LOOP:  cpu time   31.6378: real time   31.7218

 eigenvalue-minimisations  : 12680
 total energy-change (2. order) : 0.2710117E-02  (-0.7335682E-03)
 number of electron     159.0000090 magnetization 
 augmentation part       -4.1932053 magnetization 

 Broyden mixing:
  rms(total) = 0.17588E-01    rms(broyden)= 0.17524E-01
  rms(prec ) = 0.21536E-01
  weight for this iteration     100.00

 eigenvalues of (default mixing * dielectric matrix)
  average eigenvalue GAMMA=   0.7793
  2.3446  2.3446  1.4383  0.8588  0.6035  0.4729  0.3089  0.2239  0.2559  0.2438
  0.1392  0.1177

 Free energy of the ion-electron system (eV)
  ---------------------------------------------------
  alpha Z        PSCENC =        81.65567618
  Ewald energy   TEWEN  =     41890.23010370
  -Hartree energ DENC   =    -47811.80437030
  -exchange      EXHF   =         0.00000000
  -V(xc)+E(xc)   XCENC  =      -231.74698035
  PAW double counting   =      4194.69703347    -3612.78595004
  entropy T*S    EENTRO =        -0.34132670
  eigenvalues    EBANDS =     -1458.23377006
  atomic energy  EATOM  =      6761.44252427
  Solvation  Ediel_sol  =         0.00000000
  ---------------------------------------------------
  free energy    TOTEN  =      -186.88705983 eV

  energy without entropy =     -186.54573313  energy(sigma->0) =     -186.71639648


--------------------------------------------------------------------------------------------------------




----------------------------------------- Iteration    1(  18)  ---------------------------------------


    POTLOK:  cpu time    0.0307: real time    0.0310
    SETDIJ:  cpu time    0.0025: real time    0.0025
     EDDAV:  cpu time   29.6206: real time   29.6913
       DOS:  cpu time    0.0010: real time    0.0010
    CHARGE:  cpu time    0.4990: real time    0.5002
    MIXING:  cpu time    0.0019: real time    0.0019
    --------------------------------------------
      LOOP:  cpu time   30.1568: real time   30.2365

 eigenvalue-minimisations  : 11920
 total energy-change (2. order) : 0.5393291E-03  (-0.2021545E-03)
 number of electron     159.0000090 magnetization 
 augmentation part       -4.2079555 magnetization 

 Broyden mixing:
  rms(total) = 0.17679E-01    rms(broyden)= 0.17669E-01
  rms(prec ) = 0.20530E-01
  weight for this iteration     100.00

 eigenvalues of (default mixing * dielectric matrix)
  average eigenvalue GAMMA=   0.7860
  2.3661  2.3661  1.2617  1.2617  0.6748  0.6180  0.3822  0.3066  0.2242  0.2576
  0.2421  0.1392  0.1176

 Free energy of the ion-electron system (eV)
  ---------------------------------------------------
  alpha Z        PSCENC =        81.65567618
  Ewald energy   TEWEN  =     41890.23010370
  -Hartree energ DENC   =    -47815.27886062
  -exchange      EXHF   =         0.00000000
  -V(xc)+E(xc)   XCENC  =      -231.71297163
  PAW double counting   =      4194.96134858    -3613.01685459
  entropy T*S    EENTRO =        -0.34105238
  eigenvalues    EBANDS =     -1454.82643400
  atomic energy  EATOM  =      6761.44252427
  Solvation  Ediel_sol  =         0.00000000
  ---------------------------------------------------
  free energy    TOTEN  =      -186.88652050 eV

  energy without entropy =     -186.54546812  energy(sigma->0) =     -186.71599431


--------------------------------------------------------------------------------------------------------




----------------------------------------- Iteration    1(  19)  ---------------------------------------


    POTLOK:  cpu time    0.0302: real time    0.0306
    SETDIJ:  cpu time    0.0023: real time    0.0023
     EDDAV:  cpu time   28.0903: real time   28.1574
       DOS:  cpu time    0.0011: real time    0.0011
    CHARGE:  cpu time    0.5015: real time    0.5027
    MIXING:  cpu time    0.0019: real time    0.0019
    --------------------------------------------
      LOOP:  cpu time   28.6284: real time   28.7049

 eigenvalue-minimisations  : 11200
 total energy-change (2. order) : 0.2398648E-03  (-0.7925154E-04)
 number of electron     159.0000090 magnetization 
 augmentation part       -4.1831157 magnetization 

 Broyden mixing:
  rms(total) = 0.45615E-02    rms(broyden)= 0.45447E-02
  rms(prec ) = 0.75325E-02
  weight for this iteration     100.00

 eigenvalues of (default mixing * dielectric matrix)
  average eigenvalue GAMMA=   0.8839
  2.6902  2.6902  1.5979  1.4816  0.9971  0.6282  0.6282  0.3736  0.3073  0.2242
  0.2577  0.2422  0.1392  0.1176

 Free energy of the ion-electron system (eV)
  ---------------------------------------------------
  alpha Z        PSCENC =        81.65567618
  Ewald energy   TEWEN  =     41890.23010370
  -Hartree energ DENC   =    -47817.69689332
  -exchange      EXHF   =         0.00000000
  -V(xc)+E(xc)   XCENC  =      -231.69271603
  PAW double counting   =      4194.41144770    -3612.45371877
  entropy T*S    EENTRO =        -0.34157488
  eigenvalues    EBANDS =     -1452.44112949
  atomic energy  EATOM  =      6761.44252427
  Solvation  Ediel_sol  =         0.00000000
  ---------------------------------------------------
  free energy    TOTEN  =      -186.88628063 eV

  energy without entropy =     -186.54470576  energy(sigma->0) =     -186.71549320


--------------------------------------------------------------------------------------------------------




----------------------------------------- Iteration    1(  20)  ---------------------------------------


    POTLOK:  cpu time    0.0326: real time    0.0329
    SETDIJ:  cpu time    0.0025: real time    0.0025
     EDDAV:  cpu time   23.8297: real time   23.8871
       DOS:  cpu time    0.0010: real time    0.0010
    CHARGE:  cpu time    0.4998: real time    0.5010
    MIXING:  cpu time    0.0020: real time    0.0020
    --------------------------------------------
      LOOP:  cpu time   24.3688: real time   24.4358

 eigenvalue-minimisations  :  9120
 total energy-change (2. order) :-0.8977984E-03  (-0.8534279E-04)
 number of electron     159.0000090 magnetization 
 augmentation part       -4.1873179 magnetization 

 Broyden mixing:
  rms(total) = 0.42236E-02    rms(broyden)= 0.42227E-02
  rms(prec ) = 0.56573E-02
  weight for this iteration     100.00

 eigenvalues of (default mixing * dielectric matrix)
  average eigenvalue GAMMA=   0.9205
  3.1219  2.5679  1.8777  1.5120  0.8994  0.8994  0.6333  0.6333  0.3737  0.3073
  0.2242  0.2577  0.2422  0.1392  0.1176

 Free energy of the ion-electron system (eV)
  ---------------------------------------------------
  alpha Z        PSCENC =        81.65567618
  Ewald energy   TEWEN  =     41890.23010370
  -Hartree energ DENC   =    -47824.34083541
  -exchange      EXHF   =         0.00000000
  -V(xc)+E(xc)   XCENC  =      -231.63626453
  PAW double counting   =      4193.08490320    -3611.10559792
  entropy T*S    EENTRO =        -0.34125545
  eigenvalues    EBANDS =     -1445.87643247
  atomic energy  EATOM  =      6761.44252427
  Solvation  Ediel_sol  =         0.00000000
  ---------------------------------------------------
  free energy    TOTEN  =      -186.88717843 eV

  energy without entropy =     -186.54592298  energy(sigma->0) =     -186.71655071


--------------------------------------------------------------------------------------------------------




----------------------------------------- Iteration    1(  21)  ---------------------------------------


    POTLOK:  cpu time    0.0310: real time    0.0311
    SETDIJ:  cpu time    0.0024: real time    0.0024
     EDDAV:  cpu time   21.8730: real time   21.9252
       DOS:  cpu time    0.0010: real time    0.0011
    CHARGE:  cpu time    0.4974: real time    0.4986
    MIXING:  cpu time    0.0019: real time    0.0019
    --------------------------------------------
      LOOP:  cpu time   22.4077: real time   22.4692

 eigenvalue-minimisations  :  8200
 total energy-change (2. order) :-0.8676719E-03  (-0.2201980E-04)
 number of electron     159.0000090 magnetization 
 augmentation part       -4.1804177 magnetization 

 Broyden mixing:
  rms(total) = 0.35769E-02    rms(broyden)= 0.35728E-02
  rms(prec ) = 0.45811E-02
  weight for this iteration     100.00

 eigenvalues of (default mixing * dielectric matrix)
  average eigenvalue GAMMA=   0.9534
  3.6110  2.4194  2.1704  1.5975  1.0531  1.0531  0.6359  0.6359  0.4165  0.3739
  0.3073  0.2242  0.2422  0.2577  0.1392  0.1176

 Free energy of the ion-electron system (eV)
  ---------------------------------------------------
  alpha Z        PSCENC =        81.65567618
  Ewald energy   TEWEN  =     41890.23010370
  -Hartree energ DENC   =    -47827.10712911
  -exchange      EXHF   =         0.00000000
  -V(xc)+E(xc)   XCENC  =      -231.61758821
  PAW double counting   =      4192.72944326    -3610.75006025
  entropy T*S    EENTRO =        -0.34138808
  eigenvalues    EBANDS =     -1443.12962787
  atomic energy  EATOM  =      6761.44252427
  Solvation  Ediel_sol  =         0.00000000
  ---------------------------------------------------
  free energy    TOTEN  =      -186.88804610 eV

  energy without entropy =     -186.54665802  energy(sigma->0) =     -186.71735206


--------------------------------------------------------------------------------------------------------




----------------------------------------- Iteration    1(  22)  ---------------------------------------


    POTLOK:  cpu time    0.0306: real time    0.0310
    SETDIJ:  cpu time    0.0024: real time    0.0024
     EDDAV:  cpu time   19.0606: real time   19.1061
       DOS:  cpu time    0.0010: real time    0.0010
    CHARGE:  cpu time    0.4965: real time    0.4977
    MIXING:  cpu time    0.0021: real time    0.0021
    --------------------------------------------
      LOOP:  cpu time   19.5945: real time   19.6490

 eigenvalue-minimisations  :  6800
 total energy-change (2. order) :-0.8085718E-03  (-0.1014424E-04)
 number of electron     159.0000090 magnetization 
 augmentation part       -4.1795415 magnetization 

 Broyden mixing:
  rms(total) = 0.33616E-02    rms(broyden)= 0.33603E-02
  rms(prec ) = 0.39719E-02
  weight for this iteration     100.00

 eigenvalues of (default mixing * dielectric matrix)
  average eigenvalue GAMMA=   1.0842
  4.8920  2.5290  2.5290  1.7188  1.4871  0.9900  0.9900  0.6269  0.6269  0.2242
  0.2422  0.2577  0.3073  0.3722  0.3823  0.1392  0.1176

 Free energy of the ion-electron system (eV)
  ---------------------------------------------------
  alpha Z        PSCENC =        81.65567618
  Ewald energy   TEWEN  =     41890.23010370
  -Hartree energ DENC   =    -47829.21909242
[...]
    104      -0.6197      0.00000
    105      -0.4298      0.00000
    106      -0.2813      0.00000
    107      -0.1533      0.00000
    108      -0.0216      0.00000
    109       0.0264      0.00000
    110       0.1197      0.00000
    111       0.4216      0.00000
    112       0.7137      0.00000
    113       0.8136      0.00000
    114       0.8825      0.00000
    115       1.0800      0.00000
    116       1.2325      0.00000
    117       1.2925      0.00000
    118       2.1299      0.00000
    119       2.3170      0.00000
    120       2.3859      0.00000

 k-point    34 :       0.5000    0.5000    0.0000
  band No.  band energies     occupation 
      1     -17.5055      2.00000
      2     -17.3589      2.00000
      3     -16.7595      2.00000
      4     -16.6790      2.00000
      5     -16.6728      2.00000
      6     -16.4365      2.00000
      7     -16.3312      2.00000
      8     -16.2413      2.00000
      9     -16.0439      2.00000
     10     -15.9957      2.00000
     11     -15.9371      2.00000
     12     -15.8466      2.00000
     13     -15.7232      2.00000
     14     -15.7085      2.00000
     15     -15.6552      2.00000
     16     -15.5572      2.00000
     17     -15.2895      2.00000
     18     -15.2548      2.00000
     19      -9.8367      2.00000
     20      -9.4163      2.00000
     21      -9.1694      2.00000
     22      -9.1061      2.00000
     23      -8.9551      2.00000
     24      -8.8275      2.00000
     25      -8.5374      2.00000
     26      -8.4616      2.00000
     27      -8.4194      2.00000
     28      -8.3041      2.00000
     29      -8.2773      2.00000
     30      -8.1961      2.00000
     31      -8.1477      2.00000
     32      -8.1069      2.00000
     33      -7.9667      2.00000
     34      -7.8815      2.00000
     35      -7.7769      2.00000
     36      -7.7357      2.00000
     37      -7.5221      2.00000
     38      -7.3548      2.00000
     39      -7.3117      2.00000
     40      -7.2372      2.00000
     41      -7.1271      2.00000
     42      -7.0829      2.00000
     43      -7.0533      2.00000
     44      -7.0437      2.00000
     45      -6.8177      2.00000
     46      -6.7470      2.00000
     47      -6.6170      2.00000
     48      -6.5829      2.00000
     49      -6.5616      2.00000
     50      -6.5327      2.00000
     51      -6.4516      2.00000
     52      -6.3418      2.00000
     53      -6.2595      2.00000
     54      -6.2228      2.00000
     55      -6.1675      2.00000
     56      -6.0735      2.00000
     57      -6.0439      2.00000
     58      -5.8799      2.00000
     59      -5.8413      2.00000
     60      -5.7982      2.00000
     61      -5.7059      2.00000
     62      -5.6109      2.00000
     63      -5.5336      2.00000
     64      -5.4028      2.00000
     65      -5.2769      2.00000
     66      -5.1957      2.00000
     67      -4.9554      2.00000
     68      -4.8682      2.00000
     69      -4.7933      2.00000
     70      -4.6580      2.00000
     71      -4.5176      2.00000
     72      -4.4472      2.00000
     73      -4.3571      2.00000
     74      -4.2303      2.00000
     75      -4.1578      2.00000
     76      -4.0479      2.00000
     77      -4.0248      2.00000
     78      -3.7259      1.99965
     79      -3.5504      1.98037
     80      -3.0942      0.37180
     81      -2.9890      0.10172
     82      -2.7696      0.00143
     83      -2.6607      0.00008
     84      -2.5476      0.00000
     85      -2.4498      0.00000
     86      -2.3619      0.00000
     87      -2.0525      0.00000
     88      -2.0206      0.00000
     89      -1.9761      0.00000
     90      -1.8225      0.00000
     91      -1.7020      0.00000
     92      -1.6237      0.00000
     93      -1.5129      0.00000
     94      -1.4379      0.00000
     95      -1.3321      0.00000
     96      -1.2125      0.00000
     97      -1.0692      0.00000
     98      -1.0605      0.00000
     99      -0.9742      0.00000
    100      -0.9093      0.00000
    101      -0.8570      0.00000
    102      -0.6862      0.00000
    103      -0.6481      0.00000
    104      -0.6247      0.00000
    105      -0.4050      0.00000
    106      -0.2797      0.00000
    107      -0.1649      0.00000
    108       0.0135      0.00000
    109       0.0291      0.00000
    110       0.0971      0.00000
    111       0.4333      0.00000
    112       0.7596      0.00000
    113       0.8285      0.00000
    114       0.9111      0.00000
    115       1.0618      0.00000
    116       1.1962      0.00000
    117       1.2652      0.00000
    118       2.1904      0.00000
    119       2.2570      0.00000
    120       2.4094      0.00000


--------------------------------------------------------------------------------------------------------


 soft charge-density along one line, spin component           1
         0         1         2         3         4         5         6         7         8         9
 total charge-density along one line
 
 pseudopotential strength for first ion, spin component:           1
 -7.251  -0.003  -0.004   0.001  -0.000   0.683   0.000   0.001
 -0.003  -7.176   0.001   0.003  -0.001   0.000   0.660  -0.000
 -0.004   0.001  -7.117   0.004  -0.020   0.001  -0.000   0.645
  0.001   0.003   0.004  -7.146   0.013  -0.000  -0.001  -0.001
 -0.000  -0.001  -0.020   0.013  -7.252   0.000   0.000   0.006
  0.683   0.000   0.001  -0.000   0.000   0.330   0.000  -0.000
  0.000   0.660  -0.000  -0.001   0.000   0.000   0.337   0.000
  0.001  -0.000   0.645  -0.001   0.006  -0.000   0.000   0.341
 -0.000  -0.001  -0.001   0.651  -0.003   0.000   0.000   0.000
  0.000   0.000   0.006  -0.003   0.684   0.000  -0.000  -0.002
 -0.001  -0.000  -0.021  -0.001  -0.006   0.000   0.000   0.005
 -0.000  -0.000  -0.007  -0.001  -0.002   0.000   0.000   0.002
 -0.006  -0.000   0.000   0.000   0.000  -0.001  -0.000   0.000
  0.000   0.000   0.004  -0.011   0.004  -0.000  -0.000  -0.001
 -0.000   0.000   0.001   0.008  -0.007  -0.000  -0.000   0.001
 -0.004  -0.002   0.000   0.000   0.000   0.000   0.000  -0.000
  0.000  -0.000   0.001  -0.009   0.004  -0.000   0.000  -0.000
 -0.001   0.000  -0.001   0.006  -0.004   0.000  -0.000   0.000
 total augmentation occupancy for first ion, spin component:           1
  0.823   0.147  -0.010   0.006   0.001   0.442   0.194  -0.001  -0.002  -0.002   0.002   0.000   0.011   0.007   0.000   0.002
  0.147   1.086   0.002  -0.001   0.009   0.192   0.655   0.002   0.003   0.007  -0.008  -0.000  -0.071   0.009   0.007  -0.002
 -0.010   0.002   0.834  -0.043  -0.035  -0.001   0.002   0.334  -0.045   0.003   0.169   0.004  -0.001   0.005  -0.085  -0.000
  0.006  -0.001  -0.043   1.076  -0.149  -0.002   0.003  -0.044   0.633  -0.229  -0.029  -0.005   0.004  -0.100   0.112   0.000
  0.001   0.009  -0.035  -0.149   0.805  -0.002   0.008   0.001  -0.232   0.416   0.036  -0.002  -0.010   0.093   0.010  -0.001
  0.442   0.192  -0.001  -0.002  -0.002   0.354   0.197   0.001  -0.000   0.001   0.001   0.000  -0.037   0.002  -0.000   0.000
  0.194   0.655   0.002   0.003   0.008   0.197   0.572   0.001   0.002   0.005  -0.007  -0.001  -0.069   0.002   0.001  -0.006
 -0.001   0.002   0.334  -0.044   0.001   0.001   0.001   0.266  -0.030   0.009   0.045   0.009  -0.000   0.007  -0.018  -0.000
 -0.002   0.003  -0.045   0.633  -0.232  -0.000   0.002  -0.030   0.577  -0.228  -0.061  -0.008   0.003  -0.107   0.102   0.000
 -0.002   0.007   0.003  -0.229   0.416   0.001   0.005   0.009  -0.228   0.372  -0.022  -0.002  -0.003   0.091  -0.036  -0.000
  0.002  -0.008   0.169  -0.029   0.036   0.001  -0.007   0.045  -0.061  -0.022   1.398   0.135   0.013   0.023  -0.062   0.000
  0.000  -0.000   0.004  -0.005  -0.002   0.000  -0.001   0.009  -0.008  -0.002   0.135   0.026  -0.000   0.002  -0.011   0.000
  0.011  -0.071  -0.001   0.004  -0.010  -0.037  -0.069  -0.000   0.003  -0.003   0.013  -0.000   0.345  -0.002   0.000   0.027
  0.007   0.009   0.005  -0.100   0.093   0.002   0.002   0.007  -0.107   0.091   0.023   0.002  -0.002   0.420  -0.016  -0.000
  0.000   0.007  -0.085   0.112   0.010  -0.000   0.001  -0.018   0.102  -0.036  -0.062  -0.011   0.000  -0.016   0.355   0.000
  0.002  -0.002  -0.000   0.000  -0.001   0.000  -0.006  -0.000   0.000  -0.000   0.000   0.000   0.027  -0.000   0.000   0.003
  0.000   0.001  -0.000   0.002   0.004   0.000   0.000   0.000  -0.006   0.006   0.001   0.000  -0.000   0.028  -0.000  -0.000
  0.001   0.000  -0.002   0.003   0.003   0.000   0.000  -0.004   0.008   0.000  -0.003  -0.001   0.000  -0.000   0.025   0.000


------------------------ aborting loop because EDIFF is reached ----------------------------------------


    CHARGE:  cpu time    0.4581: real time    0.4591
    FORLOC:  cpu time    0.0064: real time    0.0064
    FORNL :  cpu time    5.3416: real time    5.3544
    STRESS:  cpu time   32.7078: real time   32.7860
    FORCOR:  cpu time    0.0339: real time    0.0353
    FORHAR:  cpu time    0.0124: real time    0.0124
    MIXING:  cpu time    0.0010: real time    0.0010
    OFIELD:  cpu time    0.0000: real time    0.0000

  FORCE on cell =-STRESS in cart. coord.  units (eV):
  Direction    XX          YY          ZZ          XY          YZ          ZX
  --------------------------------------------------------------------------------------
  Alpha Z    89.19168    89.19168    89.19168
  Ewald   49148.11769 49235.85442-54125.73274     1.29511     1.81493   -21.11983
  Hartree 49879.35868 49934.59835-49548.68486     0.84049     0.26467   -13.32509
  E(xc)    -611.40493  -609.03397  -617.68504     0.01972    -0.08420     0.93631
  Local  ************************101112.19700    -1.68213    -1.98447    44.35312
  n-local  1216.60993  1213.24534  1248.51896    -0.14350     0.49128     3.01819
  augment  -212.37040  -213.46199  -214.76057     0.39440     0.35681    -0.78636
  Kinetic  2020.46433  2002.01621  2054.98690    -0.72525    -0.84406   -12.98772
  Fock        0.00000     0.00000     0.00000     0.00000     0.00000     0.00000
  -------------------------------------------------------------------------------------
  Total       0.27065     0.17690    -1.96867    -0.00117     0.01496     0.08861
  in kB       0.18066     0.11808    -1.31408    -0.00078     0.00999     0.05915
  external pressure =       -0.34 kB  Pullay stress =        0.00 kB


 VOLUME and BASIS-vectors are now :
 -----------------------------------------------------------------------------
  energy-cutoff  :      280.00
  volume of cell :     2400.29
      direct lattice vectors                 reciprocal lattice vectors
     8.335756462  4.793095705  0.000000000     0.060020919  0.104250002  0.000000000
    -8.340992442  4.802244825  0.000000000    -0.059906569  0.104184560  0.000000000
     0.000000000  0.000000000 30.000000000     0.000000000  0.000000000  0.033333333

  length of vectors
     9.615539623  9.624640787 30.000000000     0.120293697  0.120179946  0.033333333


 FORCES acting on ions
    electron-ion (+dipol)            ewald-force                    non-local-force                 convergence-correction
 -----------------------------------------------------------------------------------------------
   -.219E+02 0.194E+00 0.229E+02   0.233E+02 0.112E+00 -.228E+02   -.140E+01 -.282E+00 -.149E+00   -.160E-02 -.238E-01 0.455E-02
   -.266E+02 0.200E+01 0.119E+02   0.281E+02 -.240E+01 -.117E+02   -.156E+01 0.376E+00 -.181E+00   0.311E-01 0.241E-01 0.612E-02
   0.225E+02 -.279E+00 -.236E+02   -.239E+02 0.266E+00 0.234E+02   0.145E+01 0.918E-02 0.198E+00   0.167E-01 0.241E-02 0.105E-01
   -.658E+00 -.231E+02 0.840E+00   0.738E+00 0.229E+02 -.893E+00   0.649E-02 0.119E+00 0.498E-01   -.863E-01 0.212E-01 0.932E-02
   -.745E+01 0.408E+01 0.215E+01   0.727E+01 -.401E+01 -.221E+01   0.232E+00 -.899E-01 0.631E-01   -.524E-01 0.219E-01 0.300E-02
   -.482E+01 0.198E+02 0.160E+01   0.489E+01 -.197E+02 -.157E+01   0.509E-01 -.148E-01 -.295E-01   -.116E+00 -.414E-01 0.123E-01
   0.359E+02 -.545E+01 -.133E+02   -.369E+02 0.572E+01 0.131E+02   0.990E+00 -.308E+00 0.258E+00   0.330E-01 0.470E-01 0.457E-02
   -.345E+02 -.347E+01 0.120E+02   0.356E+02 0.357E+01 -.119E+02   -.111E+01 -.110E+00 -.151E+00   0.278E-01 0.195E-02 0.465E-02
   0.366E+02 0.618E+01 -.162E+02   -.374E+02 -.643E+01 0.160E+02   0.826E+00 0.304E+00 0.197E+00   0.889E-02 -.500E-01 0.693E-02
   0.165E+02 -.698E+01 0.629E+03   -.173E+02 0.739E+01 -.632E+03   0.803E+00 -.434E+00 0.343E+01   -.204E-01 0.229E-01 0.149E-01
   -.197E+02 -.387E+01 -.625E+03   0.208E+02 0.439E+01 0.628E+03   -.105E+01 -.540E+00 -.338E+01   -.264E-01 0.146E-01 0.159E-01
   0.990E+01 -.544E+01 0.483E+03   -.101E+02 0.546E+01 -.488E+03   0.830E-01 -.888E-01 0.480E+01   0.119E+00 0.759E-01 0.313E-01
   0.226E+02 -.103E+02 -.603E+03   -.234E+02 0.106E+02 0.607E+03   0.790E+00 -.401E+00 -.375E+01   -.193E-01 0.750E-01 -.672E-01
   -.266E+02 0.346E+01 0.604E+03   0.277E+02 -.364E+01 -.607E+03   -.108E+01 0.141E+00 0.334E+01   -.102E-01 0.390E-01 -.529E-01
   -.151E+02 0.202E+01 -.495E+03   0.150E+02 -.222E+01 0.500E+03   0.151E-01 0.166E+00 -.480E+01   0.136E+00 0.335E-01 -.235E-02
   -.232E+02 -.910E+01 0.604E+03   0.239E+02 0.953E+01 -.608E+03   -.682E+00 -.393E+00 0.376E+01   -.291E-01 -.359E-01 -.389E-01
   -.490E+01 -.350E+01 -.490E+03   0.427E+01 0.363E+01 0.495E+03   0.576E+00 -.874E-01 -.498E+01   0.539E-01 -.398E-01 0.300E-01
   0.682E+01 0.205E+00 0.567E+03   -.872E+01 -.107E+00 -.570E+03   0.200E+01 -.873E-01 0.308E+01   -.108E+00 -.120E-01 0.830E-01
   -.834E+01 -.150E+01 -.564E+03   0.106E+02 0.157E+01 0.567E+03   -.220E+01 -.512E-01 -.299E+01   -.841E-01 -.196E-01 0.381E-01
   0.783E+01 0.483E+01 0.488E+03   -.740E+01 -.497E+01 -.493E+03   -.508E+00 0.192E+00 0.506E+01   0.814E-01 -.636E-01 0.524E-01
   0.223E+02 0.969E+01 -.607E+03   -.229E+02 -.994E+01 0.611E+03   0.620E+00 0.322E+00 -.390E+01   -.399E-01 -.722E-01 -.618E-01
   0.203E+02 0.148E+00 0.507E+03   -.206E+02 -.104E+00 -.512E+03   0.260E+00 -.321E-01 0.503E+01   0.608E-01 -.106E-01 -.154E-01
   0.252E+02 0.454E+00 -.627E+03   -.259E+02 -.565E+00 0.631E+03   0.775E+00 0.114E+00 -.374E+01   -.456E-02 -.131E-02 -.146E-02
   -.218E+02 0.652E+01 0.591E+03   0.228E+02 -.667E+01 -.594E+03   -.950E+00 0.145E+00 0.340E+01   -.348E-01 -.444E-02 -.805E-01
   -.374E+01 0.200E+01 -.484E+03   0.281E+01 -.187E+01 0.488E+03   0.844E+00 -.144E+00 -.475E+01   0.756E-01 0.547E-02 0.578E-01
   0.142E+02 0.693E+01 0.627E+03   -.151E+02 -.749E+01 -.630E+03   0.955E+00 0.564E+00 0.338E+01   -.411E-01 -.112E-01 0.391E-02
   -.205E+02 0.442E+01 -.604E+03   0.220E+02 -.503E+01 0.607E+03   -.142E+01 0.599E+00 -.294E+01   -.538E-01 0.504E-02 0.604E-01
 -----------------------------------------------------------------------------------------------
   0.752E+00 0.341E-02 -.433E+00   0.000E+00 -.213E-13 0.000E+00   -.661E+00 -.119E-01 0.323E+00   -.836E-01 0.405E-02 0.129E+00
 
 
 POSITION                                       TOTAL-FORCE (eV/Angst)
 -----------------------------------------------------------------------------------
      2.44343      4.80315     -0.08177        -0.012421     -0.000060     -0.030785
     -5.83076      3.20400     -0.04923        -0.005703     -0.000776     -0.003640
     -2.45846      4.80348      0.08404         0.015514     -0.001289      0.029380
      0.00122      3.00441     -0.00227        -0.000581      0.000783      0.005488
     -0.04267      0.01715     -0.00772         0.003271     -0.004213      0.002829
     -0.03560      6.57901     -0.00349         0.001923     -0.000233      0.004057
      5.84738      6.36618      0.04651         0.001111      0.007109      0.006554
      2.48044      1.56967     -0.04345        -0.000639     -0.004793     -0.004934
      5.86225      3.23171      0.05448         0.000195     -0.000710      0.005014
     -0.90212      1.57539     28.30336        -0.003426     -0.000882      0.004862
      0.89704      1.56457      1.68359         0.002977     -0.001621     -0.004728
     -3.69788      3.23053     28.73304         0.002046      0.004178      0.008881
     -1.83105      3.20874      1.65503         0.004970     -0.002233      0.005809
     -6.48784      4.75928     28.35198        -0.001626      0.000545     -0.001453
     -4.61348      4.77434      1.31083        -0.002708     -0.000515     -0.003702
      1.82232      3.20561     28.34346        -0.004347     -0.002570     -0.003170
      3.68638      3.23389      1.28915        -0.004355      0.004375     -0.011622
     -0.89916      4.79624     28.49043        -0.005745     -0.001185      0.006485
      0.88554      4.79873      1.49997         0.006650      0.000348     -0.008276
     -3.68953      6.37006     28.71824         0.002528     -0.002579      0.011780
     -1.83080      6.39582      1.66856         0.005327      0.005098      0.001822
      4.59511      4.79312     28.65391         0.001019      0.001868      0.005297
      6.50765      4.79488      1.72117         0.002442      0.001569     -0.004468
      1.84345      6.42206     28.38633        -0.002712      0.000745     -0.005556
      3.67351      6.37944      1.26889        -0.002915     -0.002207     -0.014923
     -0.90780      8.02376     28.30982        -0.004909     -0.000571      0.004458
      0.95437      8.01483      1.61511         0.002116     -0.000182     -0.005458
 -----------------------------------------------------------------------------------
    total drift:                                0.007544     -0.004469      0.019160


--------------------------------------------------------------------------------------------------------



  FREE ENERGIE OF THE ION-ELECTRON SYSTEM (eV)
  ---------------------------------------------------
  free  energy   TOTEN  =      -192.46510520 eV

  energy  without entropy=     -192.33953146  energy(sigma->0) =     -192.40231833
 
 d Force = 0.9991131E-04[ 0.678E-04, 0.132E-03]  d Energy = 0.1734933E-03-0.736E-04
 d Force =-0.7250524E+00[-0.725E+00,-0.725E+00]  d Ewald  = 0.8304616E+01-0.903E+01


--------------------------------------------------------------------------------------------------------


    POTLOK:  cpu time    0.0354: real time    0.0374


--------------------------------------------------------------------------------------------------------


 Quasi-Newton relaxation of ions (Broydens 2nd method)
  g(Force)  = 0.183E-03   g(Stress)= 0.187E-03

 retain information from N=  3 steps
 eigenvalues of (default step * inverse Hessian matrix)
  average eigenvalue of G=   3.4769
 eigenvalue spectrum of G is  7.5751  1.4278  1.4278


--------------------------------------------------------------------------------------------------------


  
 reached required accuracy - stopping structural energy minimisation
     LOOP+:  cpu time   81.5135: real time   81.7206
    4ORBIT:  cpu time    0.0000: real time    0.0000

 total amount of memory used by VASP on root node   650782. kBytes
========================================================================

   base      :      30000. kBytes
   nonl-proj :     559647. kBytes
   fftplans  :       2414. kBytes
   grid      :      12150. kBytes
   one-center:        419. kBytes
   wavefun   :      46152. kBytes
 
  
  
 General timing and accounting informations for this job:
 ========================================================
  
                  Total CPU time used (sec):     6155.583
                            User time (sec):     6132.865
                          System time (sec):       22.719
                         Elapsed time (sec):     6172.011
  
                   Maximum memory used (kb):      745172.
                   Average memory used (kb):           0.
  
                          Minor page faults:       929315
                          Major page faults:            5
                 Voluntary context switches:         5763
