   27   27  100    1
  0.9710400E+02  0.1002848E-08  0.1002848E-08  0.3000000E-08  0.5000000E-15
  1.000000000000000E-004
  CAR 
 unknown system                          
    159     34    120
 
  0.0000000E+00  0.0000000E+00  0.0000000E+00  0.1562500E-01
    1      -17.821404   1.000000
    2      -16.682762   1.000000
    3      -16.649994   1.000000
    4      -16.603130   1.000000
    5      -16.528918   1.000000
    6      -16.462444   1.000000
    7      -16.364857   1.000000
    8      -16.321529   1.000000
    9      -16.159616   1.000000
   10      -16.117951   1.000000
   11      -16.031792   1.000000
   12      -15.978652   1.000000
   13      -15.863361   1.000000
   14      -15.812765   1.000000
   15      -15.616350   1.000000
   16      -15.511679   1.000000
   17      -15.314438   1.000000
   18      -15.243282   1.000000
   19       -9.376638   1.000000
   20       -9.052369   1.000000
   21       -8.879565   1.000000
   22       -8.855316   1.000000
   23       -8.726109   1.000000
   24       -8.685535   1.000000
   25       -8.626828   1.000000
   26       -8.565601   1.000000
   27       -8.473061   1.000000
   28       -8.418179   1.000000
   29       -8.389114   1.000000
   30       -8.325677   1.000000
   31       -8.240830   1.000000
   32       -8.172058   1.000000
   33       -8.156704   1.000000
   34       -8.100151   1.000000
   35       -7.898545   1.000000
   36       -7.821955   1.000000
   37       -7.691065   1.000000
   38       -7.560393   1.000000
   39       -7.512872   1.000000
   40       -7.461274   1.000000
   41       -7.343357   1.000000
   42       -7.181027   1.000000
   43       -7.133319   1.000000
   44       -6.923268   1.000000
   45       -6.857349   1.000000
   46       -6.844495   1.000000
   47       -6.765870   1.000000
   48       -6.722151   1.000000
   49       -6.618129   1.000000
   50       -6.502166   1.000000
   51       -6.453180   1.000000
   52       -6.351738   1.000000
   53       -6.250380   1.000000
   54       -6.219554   1.000000
   55       -6.154546   1.000000
   56       -5.997215   1.000000
   57       -5.929877   1.000000
   58       -5.895097   1.000000
   59       -5.736432   1.000000
   60       -5.702151   1.000000
   61       -5.521865   1.000000
   62       -5.354243   1.000000
   63       -5.327544   1.000000
   64       -5.171492   1.000000
   65       -5.003067   1.000000
   66       -4.937884   1.000000
   67       -4.903944   1.000000
   68       -4.817388   1.000000
   69       -4.758470   1.000000
   70       -4.695909   1.000000
   71       -4.551327   1.000000
   72       -4.530401   1.000000
   73       -4.490828   1.000000
   74       -4.397589   1.000000
   75       -4.249624   1.000000
   76       -3.920724   0.999969
   77       -3.671280   0.987528
   78       -3.656719   0.983794
   79       -3.540263   0.905885
   80       -3.390420   0.601135
   81       -3.240007   0.209748
   82       -2.758698   0.000013
   83       -2.655081   0.000000
   84       -2.563815   0.000000
   85       -2.487458   0.000000
   86       -2.443847   0.000000
   87       -2.392086   0.000000
   88       -2.252102   0.000000
   89       -2.167318   0.000000
   90       -2.071820   0.000000
   91       -1.820355   0.000000
   92       -1.606164   0.000000
   93       -1.506423   0.000000
   94       -1.379683   0.000000
   95       -1.302606   0.000000
   96       -1.214881   0.000000
   97       -1.066542   0.000000
   98       -0.851802   0.000000
   99       -0.793730   0.000000
  100       -0.636759   0.000000
  101       -0.609868   0.000000
  102       -0.550351   0.000000
  103       -0.348966   0.000000
  104       -0.328187   0.000000
  105       -0.105164   0.000000
  106        0.013173   0.000000
  107        0.095886   0.000000
  108        0.163849   0.000000
  109        0.200565   0.000000
  110        0.276091   0.000000
  111        0.387246   0.000000
  112        0.423215   0.000000
  113        0.461159   0.000000
  114        0.725271   0.000000
  115        0.912890   0.000000
  116        0.918998   0.000000
  117        1.100440   0.000000
  118        1.640700   0.000000
  119        1.832687   0.000000
  120        2.161387   0.000000
 
  0.1250000E+00  0.2775558E-16  0.0000000E+00  0.3125000E-01
    1      -17.796405   1.000000
    2      -16.812847   1.000000
    3      -16.663996   1.000000
    4      -16.599156   1.000000
    5      -16.532692   1.000000
    6      -16.403631   1.000000
    7      -16.383555   1.000000
    8      -16.295760   1.000000
    9      -16.156418   1.000000
   10      -16.085549   1.000000
   11      -16.042491   1.000000
   12      -15.942333   1.000000
   13      -15.837402   1.000000
   14      -15.803838   1.000000
   15      -15.629041   1.000000
   16      -15.520751   1.000000
   17      -15.319543   1.000000
   18      -15.248464   1.000000
   19       -9.380043   1.000000
   20       -9.196669   1.000000
   21       -8.981187   1.000000
   22       -8.901493   1.000000
   23       -8.783684   1.000000
   24       -8.675424   1.000000
   25       -8.657511   1.000000
   26       -8.545626   1.000000
   27       -8.472856   1.000000
   28       -8.443601   1.000000
   29       -8.365188   1.000000
   30       -8.247782   1.000000
   31       -8.185292   1.000000
   32       -8.129485   1.000000
   33       -8.063896   1.000000
   34       -7.961048   1.000000
   35       -7.854516   1.000000
   36       -7.764751   1.000000
   37       -7.691253   1.000000
   38       -7.552915   1.000000
   39       -7.506363   1.000000
   40       -7.483347   1.000000
   41       -7.312506   1.000000
   42       -7.182524   1.000000
   43       -7.135653   1.000000
   44       -6.995809   1.000000
   45       -6.943000   1.000000
   46       -6.839908   1.000000
   47       -6.761669   1.000000
   48       -6.664851   1.000000
   49       -6.583124   1.000000
   50       -6.494673   1.000000
   51       -6.401349   1.000000
   52       -6.365759   1.000000
   53       -6.281059   1.000000
   54       -6.225059   1.000000
   55       -6.182904   1.000000
   56       -6.063002   1.000000
   57       -5.940522   1.000000
   58       -5.831218   1.000000
   59       -5.739042   1.000000
   60       -5.654509   1.000000
   61       -5.497708   1.000000
   62       -5.442910   1.000000
   63       -5.322935   1.000000
   64       -5.241531   1.000000
   65       -5.158959   1.000000
   66       -5.008039   1.000000
   67       -4.882195   1.000000
   68       -4.802313   1.000000
   69       -4.740703   1.000000
   70       -4.650585   1.000000
   71       -4.609931   1.000000
   72       -4.460056   1.000000
   73       -4.379121   1.000000
   74       -4.334477   1.000000
   75       -4.180795   1.000000
   76       -3.958462   0.999990
   77       -3.775810   0.998565
   78       -3.711345   0.994224
   79       -3.595710   0.956173
   80       -3.357814   0.510260
   81       -3.163631   0.088933
   82       -2.753017   0.000011
   83       -2.646940   0.000000
   84       -2.563391   0.000000
   85       -2.502079   0.000000
   86       -2.402300   0.000000
   87       -2.355065   0.000000
   88       -2.239063   0.000000
   89       -2.149342   0.000000
   90       -2.058931   0.000000
   91       -1.812205   0.000000
   92       -1.620264   0.000000
   93       -1.491822   0.000000
   94       -1.376866   0.000000
   95       -1.303818   0.000000
   96       -1.219147   0.000000
   97       -1.063926   0.000000
   98       -0.871026   0.000000
   99       -0.806259   0.000000
  100       -0.739352   0.000000
  101       -0.652413   0.000000
  102       -0.577689   0.000000
  103       -0.451104   0.000000
  104       -0.335992   0.000000
  105       -0.165264   0.000000
  106       -0.000487   0.000000
  107        0.032395   0.000000
  108        0.105083   0.000000
  109        0.214032   0.000000
  110        0.288972   0.000000
  111        0.352590   0.000000
  112        0.456490   0.000000
  113        0.640989   0.000000
  114        0.765305   0.000000
  115        0.813307   0.000000
  116        1.025336   0.000000
  117        1.075023   0.000000
  118        1.683686   0.000000
  119        1.872600   0.000000
  120        2.196116   0.000000
 
  0.2500000E+00  0.5551115E-16  0.0000000E+00  0.3125000E-01
    1      -17.722430   1.000000
    2      -17.023818   1.000000
    3      -16.688678   1.000000
    4      -16.629443   1.000000
    5      -16.547898   1.000000
    6      -16.384054   1.000000
    7      -16.328784   1.000000
    8      -16.281735   1.000000
    9      -16.132842   1.000000
   10      -16.044831   1.000000
   11      -16.028093   1.000000
   12      -15.886707   1.000000
   13      -15.794340   1.000000
   14      -15.764262   1.000000
   15      -15.651831   1.000000
   16      -15.542111   1.000000
   17      -15.332450   1.000000
   18      -15.262674   1.000000
   19       -9.537206   1.000000
   20       -9.269761   1.000000
   21       -9.142648   1.000000
   22       -8.999571   1.000000
   23       -8.885255   1.000000
   24       -8.755012   1.000000
   25       -8.607307   1.000000
   26       -8.519851   1.000000
   27       -8.433455   1.000000
   28       -8.418056   1.000000
   29       -8.296191   1.000000
   30       -8.204861   1.000000
   31       -8.168887   1.000000
   32       -8.137169   1.000000
   33       -7.860573   1.000000
   34       -7.821746   1.000000
   35       -7.719108   1.000000
   36       -7.711311   1.000000
   37       -7.611859   1.000000
   38       -7.553267   1.000000
   39       -7.476243   1.000000
   40       -7.396135   1.000000
   41       -7.252882   1.000000
   42       -7.180056   1.000000
   43       -7.130792   1.000000
   44       -7.052583   1.000000
   45       -6.974087   1.000000
   46       -6.870782   1.000000
   47       -6.776484   1.000000
   48       -6.647611   1.000000
   49       -6.582566   1.000000
   50       -6.416566   1.000000
   51       -6.393696   1.000000
   52       -6.375065   1.000000
   53       -6.251838   1.000000
   54       -6.230301   1.000000
   55       -6.158617   1.000000
   56       -6.073049   1.000000
   57       -6.003365   1.000000
   58       -5.852033   1.000000
   59       -5.742576   1.000000
   60       -5.676399   1.000000
   61       -5.616532   1.000000
   62       -5.509025   1.000000
   63       -5.448458   1.000000
   64       -5.368746   1.000000
   65       -5.261904   1.000000
   66       -5.062675   1.000000
   67       -4.840807   1.000000
   68       -4.798143   1.000000
   69       -4.688025   1.000000
   70       -4.633457   1.000000
   71       -4.500185   1.000000
   72       -4.393632   1.000000
   73       -4.332665   1.000000
   74       -4.229094   1.000000
   75       -4.182274   1.000000
   76       -3.991907   0.999997
   77       -3.952361   0.999988
   78       -3.768363   0.998298
   79       -3.598888   0.958218
   80       -3.336317   0.449754
   81       -3.059956   0.018742
   82       -2.739168   0.000007
   83       -2.638892   0.000000
   84       -2.569949   0.000000
   85       -2.482787   0.000000
   86       -2.370166   0.000000
   87       -2.246176   0.000000
   88       -2.198034   0.000000
   89       -2.092880   0.000000
   90       -2.018604   0.000000
   91       -1.788899   0.000000
   92       -1.637394   0.000000
   93       -1.473886   0.000000
   94       -1.387160   0.000000
   95       -1.315747   0.000000
   96       -1.243359   0.000000
   97       -1.064986   0.000000
   98       -0.967950   0.000000
   99       -0.910976   0.000000
  100       -0.855528   0.000000
  101       -0.752469   0.000000
  102       -0.637786   0.000000
  103       -0.531419   0.000000
  104       -0.391606   0.000000
  105       -0.289308   0.000000
  106       -0.198326   0.000000
  107       -0.049438   0.000000
  108        0.081602   0.000000
  109        0.180928   0.000000
  110        0.289917   0.000000
  111        0.399057   0.000000
  112        0.528324   0.000000
  113        0.715333   0.000000
  114        0.794690   0.000000
  115        0.904570   0.000000
  116        1.081940   0.000000
  117        1.126605   0.000000
  118        1.804216   0.000000
  119        1.986061   0.000000
  120        2.299159   0.000000
 
  0.3750000E+00  0.0000000E+00  0.0000000E+00  0.3125000E-01
    1      -17.603192   1.000000
    2      -17.237635   1.000000
    3      -16.719471   1.000000
    4      -16.647325   1.000000
    5      -16.554966   1.000000
    6      -16.394836   1.000000
    7      -16.290980   1.000000
    8      -16.267993   1.000000
    9      -16.112806   1.000000
   10      -16.012447   1.000000
   11      -15.971800   1.000000
   12      -15.860442   1.000000
   13      -15.782648   1.000000
   14      -15.741459   1.000000
   15      -15.650751   1.000000
   16      -15.544205   1.000000
   17      -15.346449   1.000000
   18      -15.280117   1.000000
   19       -9.726684   1.000000
   20       -9.311757   1.000000
   21       -9.202828   1.000000
   22       -9.052470   1.000000
   23       -8.941588   1.000000
   24       -8.822440   1.000000
   25       -8.545744   1.000000
   26       -8.509601   1.000000
   27       -8.402026   1.000000
   28       -8.369967   1.000000
   29       -8.280077   1.000000
   30       -8.212771   1.000000
   31       -8.148866   1.000000
   32       -8.107887   1.000000
   33       -7.916916   1.000000
   34       -7.781029   1.000000
   35       -7.710933   1.000000
   36       -7.611650   1.000000
   37       -7.570332   1.000000
   38       -7.475688   1.000000
   39       -7.370479   1.000000
   40       -7.316684   1.000000
   41       -7.214304   1.000000
   42       -7.116434   1.000000
   43       -7.096418   1.000000
   44       -7.010228   1.000000
   45       -6.901497   1.000000
   46       -6.829504   1.000000
   47       -6.753631   1.000000
   48       -6.651237   1.000000
   49       -6.566706   1.000000
   50       -6.426251   1.000000
   51       -6.389947   1.000000
   52       -6.370391   1.000000
   53       -6.243199   1.000000
   54       -6.216390   1.000000
   55       -6.134673   1.000000
   56       -6.054441   1.000000
   57       -6.004982   1.000000
   58       -5.911023   1.000000
   59       -5.845899   1.000000
   60       -5.814535   1.000000
   61       -5.721171   1.000000
   62       -5.683097   1.000000
   63       -5.533867   1.000000
   64       -5.429791   1.000000
   65       -5.226603   1.000000
   66       -4.986146   1.000000
   67       -4.839472   1.000000
   68       -4.804167   1.000000
   69       -4.741182   1.000000
   70       -4.613682   1.000000
   71       -4.550947   1.000000
   72       -4.369736   1.000000
   73       -4.337398   1.000000
   74       -4.199352   1.000000
   75       -4.144034   1.000000
   76       -4.094069   1.000000
   77       -3.861109   0.999831
   78       -3.745603   0.997178
   79       -3.580248   0.945042
   80       -3.351883   0.493533
   81       -2.989503   0.004960
   82       -2.720787   0.000004
   83       -2.639436   0.000000
   84       -2.591098   0.000000
   85       -2.428615   0.000000
   86       -2.346052   0.000000
   87       -2.183309   0.000000
   88       -2.120432   0.000000
   89       -2.012746   0.000000
   90       -1.943822   0.000000
   91       -1.755828   0.000000
   92       -1.649450   0.000000
   93       -1.496179   0.000000
   94       -1.401871   0.000000
   95       -1.348237   0.000000
   96       -1.317259   0.000000
   97       -1.116944   0.000000
   98       -1.099333   0.000000
   99       -1.001042   0.000000
  100       -0.924117   0.000000
  101       -0.782290   0.000000
  102       -0.703477   0.000000
  103       -0.537982   0.000000
  104       -0.456656   0.000000
  105       -0.389182   0.000000
  106       -0.312894   0.000000
  107       -0.172686   0.000000
  108        0.018387   0.000000
  109        0.113250   0.000000
  110        0.295575   0.000000
  111        0.438250   0.000000
  112        0.574383   0.000000
  113        0.693625   0.000000
  114        0.819775   0.000000
  115        1.017968   0.000000
  116        1.163094   0.000000
  117        1.213712   0.000000
  118        1.985641   0.000000
  119        2.159523   0.000000
  120        2.465827   0.000000
 
  0.5000000E+00  0.1110223E-15  0.0000000E+00  0.1562500E-01
    1      -17.473743   1.000000
    2      -17.400304   1.000000
    3      -16.731361   1.000000
    4      -16.655926   1.000000
    5      -16.552001   1.000000
    6      -16.404320   1.000000
    7      -16.285430   1.000000
    8      -16.257153   1.000000
    9      -16.105843   1.000000
   10      -15.991347   1.000000
   11      -15.938654   1.000000
   12      -15.854966   1.000000
   13      -15.801838   1.000000
   14      -15.726448   1.000000
   15      -15.659175   1.000000
   16      -15.528125   1.000000
   17      -15.352456   1.000000
   18      -15.288891   1.000000
   19       -9.797594   1.000000
   20       -9.346152   1.000000
   21       -9.217997   1.000000
   22       -9.059692   1.000000
   23       -8.931205   1.000000
   24       -8.849955   1.000000
   25       -8.583449   1.000000
   26       -8.483099   1.000000
   27       -8.390744   1.000000
   28       -8.340055   1.000000
   29       -8.237582   1.000000
   30       -8.219043   1.000000
   31       -8.148123   1.000000
   32       -8.070114   1.000000
   33       -7.978372   1.000000
   34       -7.796880   1.000000
   35       -7.755102   1.000000
   36       -7.615268   1.000000
   37       -7.559975   1.000000
   38       -7.419012   1.000000
   39       -7.369949   1.000000
   40       -7.229991   1.000000
   41       -7.176979   1.000000
   42       -7.082551   1.000000
   43       -7.008861   1.000000
   44       -6.986325   1.000000
   45       -6.890113   1.000000
   46       -6.828053   1.000000
   47       -6.710493   1.000000
   48       -6.559925   1.000000
   49       -6.530444   1.000000
   50       -6.475222   1.000000
   51       -6.434948   1.000000
   52       -6.376127   1.000000
   53       -6.321078   1.000000
   54       -6.218598   1.000000
   55       -6.138888   1.000000
   56       -6.043939   1.000000
   57       -5.991586   1.000000
   58       -5.946838   1.000000
   59       -5.933896   1.000000
   60       -5.823170   1.000000
   61       -5.706294   1.000000
   62       -5.687229   1.000000
   63       -5.535809   1.000000
   64       -5.495185   1.000000
   65       -5.169591   1.000000
   66       -5.106903   1.000000
   67       -4.920314   1.000000
   68       -4.805203   1.000000
   69       -4.741644   1.000000
   70       -4.580631   1.000000
   71       -4.543931   1.000000
   72       -4.359146   1.000000
   73       -4.325522   1.000000
   74       -4.199766   1.000000
   75       -4.174657   1.000000
   76       -4.070256   1.000000
   77       -3.817790   0.999478
   78       -3.727010   0.995810
   79       -3.560250   0.927465
   80       -3.371249   0.548045
   81       -2.964647   0.002940
   82       -2.710404   0.000003
   83       -2.641320   0.000000
   84       -2.599993   0.000000
   85       -2.413272   0.000000
   86       -2.321151   0.000000
   87       -2.168289   0.000000
   88       -2.087171   0.000000
   89       -1.967799   0.000000
   90       -1.890521   0.000000
   91       -1.723130   0.000000
   92       -1.676744   0.000000
   93       -1.519794   0.000000
   94       -1.405633   0.000000
   95       -1.386830   0.000000
   96       -1.363455   0.000000
   97       -1.157183   0.000000
   98       -1.147165   0.000000
   99       -1.025257   0.000000
  100       -0.930105   0.000000
  101       -0.791656   0.000000
  102       -0.729159   0.000000
  103       -0.550161   0.000000
  104       -0.478877   0.000000
  105       -0.411725   0.000000
  106       -0.345776   0.000000
  107       -0.237158   0.000000
  108       -0.013397   0.000000
  109        0.090682   0.000000
  110        0.289700   0.000000
  111        0.447370   0.000000
  112        0.590229   0.000000
  113        0.687999   0.000000
  114        0.828884   0.000000
  115        1.054346   0.000000
  116        1.199737   0.000000
  117        1.253748   0.000000
  118        2.199535   0.000000
  119        2.231842   0.000000
  120        2.364740   0.000000
 
  0.0000000E+00  0.1250000E+00  0.0000000E+00  0.3125000E-01
    1      -17.797875   1.000000
    2      -16.758085   1.000000
    3      -16.670738   1.000000
    4      -16.647281   1.000000
    5      -16.540960   1.000000
    6      -16.435238   1.000000
    7      -16.372910   1.000000
    8      -16.263140   1.000000
    9      -16.157709   1.000000
   10      -16.125240   1.000000
   11      -16.006139   1.000000
   12      -15.947588   1.000000
   13      -15.860687   1.000000
   14      -15.771062   1.000000
   15      -15.624113   1.000000
   16      -15.516521   1.000000
   17      -15.324543   1.000000
   18      -15.253032   1.000000
   19       -9.388833   1.000000
   20       -9.118723   1.000000
   21       -9.017097   1.000000
   22       -8.930768   1.000000
   23       -8.789575   1.000000
   24       -8.717667   1.000000
   25       -8.654734   1.000000
   26       -8.587698   1.000000
   27       -8.490664   1.000000
   28       -8.424861   1.000000
   29       -8.308869   1.000000
   30       -8.255429   1.000000
   31       -8.196384   1.000000
   32       -8.152932   1.000000
   33       -8.038739   1.000000
   34       -7.925367   1.000000
   35       -7.833911   1.000000
   36       -7.796212   1.000000
   37       -7.666591   1.000000
   38       -7.590129   1.000000
   39       -7.474305   1.000000
   40       -7.399665   1.000000
   41       -7.338096   1.000000
   42       -7.202334   1.000000
   43       -7.142666   1.000000
   44       -6.988272   1.000000
   45       -6.936387   1.000000
   46       -6.840571   1.000000
   47       -6.802302   1.000000
   48       -6.737951   1.000000
   49       -6.574575   1.000000
   50       -6.500101   1.000000
   51       -6.442606   1.000000
   52       -6.325823   1.000000
   53       -6.278072   1.000000
   54       -6.206435   1.000000
   55       -6.157730   1.000000
   56       -6.022940   1.000000
   57       -5.898330   1.000000
   58       -5.868367   1.000000
   59       -5.721676   1.000000
   60       -5.658058   1.000000
   61       -5.476212   1.000000
   62       -5.422470   1.000000
   63       -5.314337   1.000000
   64       -5.207638   1.000000
   65       -5.150344   1.000000
   66       -5.046452   1.000000
   67       -4.980540   1.000000
   68       -4.844243   1.000000
   69       -4.775889   1.000000
   70       -4.706113   1.000000
   71       -4.560942   1.000000
   72       -4.439634   1.000000
   73       -4.356663   1.000000
   74       -4.317734   1.000000
   75       -4.139830   1.000000
   76       -3.906515   0.999953
   77       -3.823325   0.999546
   78       -3.694825   0.991996
   79       -3.564806   0.931806
   80       -3.409345   0.651771
   81       -3.137602   0.062834
   82       -2.763506   0.000015
   83       -2.665120   0.000001
   84       -2.605622   0.000000
   85       -2.506602   0.000000
   86       -2.423055   0.000000
   87       -2.383284   0.000000
   88       -2.257789   0.000000
   89       -2.115791   0.000000
   90       -2.057268   0.000000
   91       -1.765289   0.000000
   92       -1.619267   0.000000
   93       -1.505684   0.000000
   94       -1.380561   0.000000
   95       -1.290901   0.000000
   96       -1.189816   0.000000
   97       -1.071554   0.000000
   98       -0.877788   0.000000
   99       -0.781741   0.000000
  100       -0.721599   0.000000
  101       -0.631841   0.000000
  102       -0.602406   0.000000
  103       -0.496192   0.000000
  104       -0.288154   0.000000
  105       -0.129826   0.000000
  106       -0.060999   0.000000
  107        0.039456   0.000000
  108        0.095203   0.000000
  109        0.199312   0.000000
  110        0.267109   0.000000
  111        0.373243   0.000000
  112        0.439476   0.000000
  113        0.498773   0.000000
  114        0.804147   0.000000
  115        0.941636   0.000000
  116        0.972665   0.000000
  117        1.128448   0.000000
  118        1.685226   0.000000
  119        1.869646   0.000000
  120        2.196554   0.000000
 
  0.1250000E+00  0.1250000E+00  0.0000000E+00  0.3125000E-01
    1      -17.750468   1.000000
    2      -16.909125   1.000000
    3      -16.761076   1.000000
    4      -16.630064   1.000000
    5      -16.504060   1.000000
    6      -16.401317   1.000000
    7      -16.350197   1.000000
    8      -16.255879   1.000000
    9      -16.152689   1.000000
   10      -16.096174   1.000000
   11      -15.994678   1.000000
   12      -15.930824   1.000000
   13      -15.808549   1.000000
   14      -15.738954   1.000000
   15      -15.636050   1.000000
   16      -15.536781   1.000000
   17      -15.333852   1.000000
   18      -15.263126   1.000000
   19       -9.434579   1.000000
   20       -9.325920   1.000000
   21       -9.074876   1.000000
   22       -9.030974   1.000000
   23       -8.827269   1.000000
   24       -8.716722   1.000000
   25       -8.648594   1.000000
   26       -8.549158   1.000000
   27       -8.474983   1.000000
   28       -8.372240   1.000000
   29       -8.310680   1.000000
   30       -8.240689   1.000000
   31       -8.157270   1.000000
   32       -8.100475   1.000000
   33       -7.996194   1.000000
   34       -7.818142   1.000000
   35       -7.774064   1.000000
   36       -7.725813   1.000000
   37       -7.619560   1.000000
   38       -7.508023   1.000000
   39       -7.438815   1.000000
   40       -7.329272   1.000000
   41       -7.279255   1.000000
   42       -7.227596   1.000000
   43       -7.151912   1.000000
   44       -7.068842   1.000000
   45       -6.964874   1.000000
   46       -6.907812   1.000000
   47       -6.763190   1.000000
   48       -6.711075   1.000000
   49       -6.580160   1.000000
   50       -6.477748   1.000000
   51       -6.419379   1.000000
   52       -6.343100   1.000000
   53       -6.259489   1.000000
   54       -6.224381   1.000000
   55       -6.126083   1.000000
   56       -6.055627   1.000000
   57       -5.945302   1.000000
   58       -5.840958   1.000000
   59       -5.725591   1.000000
   60       -5.619477   1.000000
   61       -5.570056   1.000000
   62       -5.458178   1.000000
   63       -5.401635   1.000000
   64       -5.310481   1.000000
   65       -5.240508   1.000000
   66       -5.102098   1.000000
   67       -5.008012   1.000000
   68       -4.823340   1.000000
   69       -4.768260   1.000000
   70       -4.611440   1.000000
   71       -4.520575   1.000000
   72       -4.353029   1.000000
   73       -4.309164   1.000000
   74       -4.261013   1.000000
   75       -4.094124   1.000000
   76       -4.027653   0.999999
   77       -3.932965   0.999979
   78       -3.706587   0.993647
   79       -3.602130   0.960225
   80       -3.269949   0.275729
   81       -3.159624   0.084459
   82       -2.760541   0.000013
   83       -2.654810   0.000000
   84       -2.579032   0.000000
   85       -2.520916   0.000000
   86       -2.418929   0.000000
   87       -2.308055   0.000000
   88       -2.222430   0.000000
   89       -2.075151   0.000000
   90       -2.023740   0.000000
   91       -1.759679   0.000000
   92       -1.641890   0.000000
   93       -1.473090   0.000000
   94       -1.386032   0.000000
   95       -1.296816   0.000000
   96       -1.203937   0.000000
   97       -1.070064   0.000000
   98       -0.918050   0.000000
   99       -0.884902   0.000000
  100       -0.807729   0.000000
  101       -0.735879   0.000000
  102       -0.642914   0.000000
  103       -0.553228   0.000000
  104       -0.346959   0.000000
  105       -0.225226   0.000000
  106       -0.087890   0.000000
  107       -0.018074   0.000000
  108        0.076631   0.000000
  109        0.128025   0.000000
  110        0.221274   0.000000
  111        0.393256   0.000000
  112        0.469796   0.000000
  113        0.649279   0.000000
  114        0.830308   0.000000
  115        0.945050   0.000000
  116        1.066428   0.000000
  117        1.135374   0.000000
  118        1.767058   0.000000
  119        1.945767   0.000000
  120        2.265446   0.000000
 
  0.2500000E+00  0.1250000E+00  0.0000000E+00  0.3125000E-01
    1      -17.656289   1.000000
    2      -17.112413   1.000000
    3      -16.843334   1.000000
    4      -16.612306   1.000000
    5      -16.482012   1.000000
    6      -16.372115   1.000000
    7      -16.313907   1.000000
    8      -16.258204   1.000000
    9      -16.136666   1.000000
   10      -16.057478   1.000000
   11      -15.985023   1.000000
   12      -15.905711   1.000000
   13      -15.774397   1.000000
   14      -15.711330   1.000000
   15      -15.626737   1.000000
   16      -15.554667   1.000000
   17      -15.349220   1.000000
   18      -15.274518   1.000000
   19       -9.616462   1.000000
   20       -9.431575   1.000000
   21       -9.207954   1.000000
   22       -9.043911   1.000000
   23       -8.879968   1.000000
   24       -8.703536   1.000000
   25       -8.571211   1.000000
   26       -8.474523   1.000000
   27       -8.407690   1.000000
   28       -8.355438   1.000000
   29       -8.321552   1.000000
   30       -8.233665   1.000000
   31       -8.168814   1.000000
   32       -8.125185   1.000000
   33       -7.942495   1.000000
   34       -7.862560   1.000000
   35       -7.782420   1.000000
   36       -7.589835   1.000000
   37       -7.516296   1.000000
   38       -7.439024   1.000000
   39       -7.372221   1.000000
   40       -7.287320   1.000000
   41       -7.243930   1.000000
   42       -7.176432   1.000000
   43       -7.088690   1.000000
   44       -7.053280   1.000000
   45       -6.941510   1.000000
   46       -6.866274   1.000000
   47       -6.791631   1.000000