<?xml version="1.0" encoding="ISO-8859-1"?>
<modeling>
 <generator>
  <i name="program" type="string">vasp </i>
  <i name="version" type="string">5.4.1  </i>
  <i name="subversion" type="string">05Feb16 (build Jul 05 2020 17:13:04) complex                          parallel </i>
  <i name="platform" type="string">IFC91_ompi </i>
  <i name="date" type="string">2024 08 25 </i>
  <i name="time" type="string">18:09:24 </i>
 </generator>
 <incar>
  <i type="int" name="ISTART">     0</i>
  <i type="string" name="PREC">normal</i>
  <i type="string" name="ALGO"> Normal</i>
  <i type="int" name="ISPIN">     1</i>
  <i type="int" name="ICHARG">     2</i>
  <i type="int" name="IBRION">     1</i>
  <i type="int" name="NSW">   100</i>
  <i type="int" name="ISIF">     3</i>
  <i type="int" name="ISYM">     0</i>
  <i name="SYMPREC">      0.00000001</i>
  <i name="POTIM">      0.50000000</i>
  <i type="logical" name="LREAL"> F  </i>
  <i type="logical" name="LPLANE"> F  </i>
  <i type="int" name="ISMEAR">     0</i>
  <i type="logical" name="LWAVE"> F  </i>
  <i type="logical" name="LCHARG"> F  </i>
  <v type="int" name="KPOINT_BSE">    -1     0     0     0</v>
 </incar>
 <kpoints>
  <generation param="Gamma">
   <v type="int" name="divisions">       8        8        1 </v>
   <v name="usershift">      0.00000000       0.00000000       0.00000000 </v>
   <v name="genvec1">      0.12500000       0.00000000       0.00000000 </v>
   <v name="genvec2">     -0.00000000       0.12500000       0.00000000 </v>
   <v name="genvec3">      0.00000000       0.00000000       1.00000000 </v>
   <v name="shift">      0.00000000       0.00000000       0.00000000 </v>
  </generation>
  <varray name="kpointlist" >
   <v>       0.00000000       0.00000000       0.00000000 </v>
   <v>       0.12500000       0.00000000       0.00000000 </v>
   <v>       0.25000000       0.00000000       0.00000000 </v>
   <v>       0.37500000       0.00000000       0.00000000 </v>
   <v>       0.50000000       0.00000000       0.00000000 </v>
   <v>       0.00000000       0.12500000       0.00000000 </v>
   <v>       0.12500000       0.12500000       0.00000000 </v>
   <v>       0.25000000       0.12500000       0.00000000 </v>
   <v>       0.37500000       0.12500000       0.00000000 </v>
   <v>       0.50000000       0.12500000       0.00000000 </v>
   <v>      -0.37500000       0.12500000       0.00000000 </v>
   <v>      -0.25000000       0.12500000       0.00000000 </v>
   <v>      -0.12500000       0.12500000       0.00000000 </v>
   <v>       0.00000000       0.25000000       0.00000000 </v>
   <v>       0.12500000       0.25000000       0.00000000 </v>
   <v>       0.25000000       0.25000000       0.00000000 </v>
   <v>       0.37500000       0.25000000       0.00000000 </v>
   <v>       0.50000000       0.25000000       0.00000000 </v>
   <v>      -0.37500000       0.25000000       0.00000000 </v>
   <v>      -0.25000000       0.25000000       0.00000000 </v>
   <v>      -0.12500000       0.25000000       0.00000000 </v>
   <v>      -0.00000000       0.37500000       0.00000000 </v>
   <v>       0.12500000       0.37500000       0.00000000 </v>
   <v>       0.25000000       0.37500000       0.00000000 </v>
   <v>       0.37500000       0.37500000       0.00000000 </v>
   <v>       0.50000000       0.37500000       0.00000000 </v>
   <v>      -0.37500000       0.37500000       0.00000000 </v>
   <v>      -0.25000000       0.37500000       0.00000000 </v>
   <v>      -0.12500000       0.37500000       0.00000000 </v>
   <v>       0.00000000       0.50000000       0.00000000 </v>
   <v>       0.12500000       0.50000000       0.00000000 </v>
   <v>       0.25000000       0.50000000       0.00000000 </v>
   <v>       0.37500000       0.50000000       0.00000000 </v>
   <v>       0.50000000       0.50000000       0.00000000 </v>
  </varray>
  <varray name="weights" >
   <v>       0.01562500 </v>
   <v>       0.03125000 </v>
   <v>       0.03125000 </v>
   <v>       0.03125000 </v>
   <v>       0.01562500 </v>
   <v>       0.03125000 </v>
   <v>       0.03125000 </v>
   <v>       0.03125000 </v>
   <v>       0.03125000 </v>
   <v>       0.03125000 </v>
   <v>       0.03125000 </v>
   <v>       0.03125000 </v>
   <v>       0.03125000 </v>
   <v>       0.03125000 </v>
   <v>       0.03125000 </v>
   <v>       0.03125000 </v>
   <v>       0.03125000 </v>
   <v>       0.03125000 </v>
   <v>       0.03125000 </v>
   <v>       0.03125000 </v>
   <v>       0.03125000 </v>
   <v>       0.03125000 </v>
   <v>       0.03125000 </v>
   <v>       0.03125000 </v>
   <v>       0.03125000 </v>
   <v>       0.03125000 </v>
   <v>       0.03125000 </v>
   <v>       0.03125000 </v>
   <v>       0.03125000 </v>
   <v>       0.01562500 </v>
   <v>       0.03125000 </v>
   <v>       0.03125000 </v>
   <v>       0.03125000 </v>
   <v>       0.01562500 </v>
  </varray>
 </kpoints>
 <parameters>
  <separator name="general" >
   <i type="string" name="SYSTEM">unknown system</i>
   <i type="logical" name="LCOMPAT"> F  </i>
  </separator>
  <separator name="electronic" >
   <i type="string" name="PREC">normal</i>
   <i name="ENMAX">    280.00000000</i>
   <i name="ENAUG">    373.43800000</i>
   <i name="EDIFF">      0.00010000</i>
   <i type="int" name="IALGO">    38</i>
   <i type="int" name="IWAVPR">    11</i>
   <i type="int" name="NBANDS">   120</i>
   <i name="NELECT">    159.00000000</i>
   <i type="int" name="TURBO">     0</i>
   <i type="int" name="IRESTART">     0</i>
   <i type="int" name="NREBOOT">     0</i>
   <i type="int" name="NMIN">     0</i>
   <i name="EREF">      0.00000000</i>
   <separator name="electronic smearing" >
    <i type="int" name="ISMEAR">     0</i>
    <i name="SIGMA">      0.20000000</i>
    <i name="KSPACING">      0.50000000</i>
    <i type="logical" name="KGAMMA"> T  </i>
   </separator>
   <separator name="electronic projectors" >
    <i type="logical" name="LREAL"> F  </i>
    <v name="ROPT">      0.00000000      0.00000000      0.00000000      0.00000000</v>
    <i type="int" name="LMAXPAW">  -100</i>
    <i type="int" name="LMAXMIX">     2</i>
    <i type="logical" name="NLSPLINE"> F  </i>
   </separator>
   <separator name="electronic startup" >
    <i type="int" name="ISTART">     0</i>
    <i type="int" name="ICHARG">     2</i>
    <i type="int" name="INIWAV">     1</i>
   </separator>
   <separator name="electronic spin" >
    <i type="int" name="ISPIN">     1</i>
    <i type="logical" name="LNONCOLLINEAR"> F  </i>
    <v name="MAGMOM">      1.00000000      1.00000000      1.00000000      1.00000000      1.00000000      1.00000000      1.00000000      1.00000000      1.00000000      1.00000000      1.00000000      1.00000000      1.00000000      1.00000000      1.00000000      1.00000000      1.00000000      1.00000000      1.00000000      1.00000000
      1.00000000      1.00000000      1.00000000      1.00000000      1.00000000      1.00000000      1.00000000</v>
    <i name="NUPDOWN">     -1.00000000</i>
    <i type="logical" name="LSORBIT"> F  </i>
    <v name="SAXIS">      0.00000000      0.00000000      1.00000000</v>
    <i type="logical" name="LSPIRAL"> F  </i>
    <v name="QSPIRAL">      0.00000000      0.00000000      0.00000000</v>
    <i type="logical" name="LZEROZ"> F  </i>
   </separator>
   <separator name="electronic exchange-correlation" >
    <i type="logical" name="LASPH"> F  </i>
    <i type="logical" name="LMETAGGA"> F  </i>
   </separator>
   <separator name="electronic convergence" >
    <i type="int" name="NELM">    60</i>
    <i type="int" name="NELMDL">    -5</i>
    <i type="int" name="NELMIN">     2</i>
    <i name="ENINI">    280.00000000</i>
    <separator name="electronic convergence detail" >
     <i type="logical" name="LDIAG"> T  </i>
     <i type="logical" name="LSUBROT"> F  </i>
     <i name="WEIMIN">      0.00100000</i>
     <i name="EBREAK">      0.00000021</i>
     <i name="DEPER">      0.30000000</i>
     <i type="int" name="NRMM">     4</i>
     <i name="TIME">      0.40000000</i>
    </separator>
   </separator>
   <separator name="electronic mixer" >
    <i name="AMIX">      0.40000000</i>
    <i name="BMIX">      1.00000000</i>
    <i name="AMIN">      0.10000000</i>
    <i name="AMIX_MAG">      1.60000000</i>
    <i name="BMIX_MAG">      1.00000000</i>
    <separator name="electronic mixer details" >
     <i type="int" name="IMIX">     4</i>
     <i type="logical" name="MIXFIRST"> F  </i>
     <i type="int" name="MAXMIX">   -45</i>
     <i name="WC">    100.00000000</i>
     <i type="int" name="INIMIX">     1</i>
     <i type="int" name="MIXPRE">     1</i>
     <i type="int" name="MREMOVE">     5</i>
    </separator>
   </separator>
   <separator name="electronic dipolcorrection" >
    <i type="logical" name="LDIPOL"> F  </i>
    <i type="logical" name="LMONO"> F  </i>
    <i type="int" name="IDIPOL">     0</i>
    <i name="EPSILON">      1.00000000</i>
    <v name="DIPOL">   -100.00000000   -100.00000000   -100.00000000</v>
    <i name="EFIELD">      0.00000000</i>
   </separator>
  </separator>
  <separator name="grids" >
   <i type="int" name="NGX">    42</i>
   <i type="int" name="NGY">    42</i>
   <i type="int" name="NGZ">   126</i>
   <i type="int" name="NGXF">    84</i>
   <i type="int" name="NGYF">    84</i>
   <i type="int" name="NGZF">   252</i>
   <i type="logical" name="ADDGRID"> F  </i>
  </separator>
  <separator name="ionic" >
   <i type="int" name="NSW">   100</i>
   <i type="int" name="IBRION">     1</i>
   <i type="int" name="ISIF">     3</i>
   <i name="PSTRESS">      0.00000000</i>
   <i name="EDIFFG">      0.00100000</i>
   <i type="int" name="NFREE">     0</i>
   <i name="POTIM">      0.50000000</i>
   <i name="SMASS">     -3.00000000</i>
   <i name="SCALEE">      1.00000000</i>
  </separator>
  <separator name="ionic md" >
   <i name="TEBEG">      0.00010000</i>
   <i name="TEEND">      0.00010000</i>
   <i type="int" name="NBLOCK">     1</i>
   <i type="int" name="KBLOCK">   100</i>
   <i type="int" name="NPACO">   256</i>
   <i name="APACO">     16.00000000</i>
  </separator>
  <separator name="symmetry" >
   <i type="int" name="ISYM">     0</i>
   <i name="SYMPREC">      0.00000001</i>
  </separator>
  <separator name="dos" >
   <i type="logical" name="LORBIT"> F  </i>
   <v name="RWIGS">     -1.00000000     -1.00000000     -1.00000000     -1.00000000</v>
   <i type="int" name="NEDOS">   301</i>
   <i name="EMIN">     10.00000000</i>
   <i name="EMAX">    -10.00000000</i>
   <i name="EFERMI">      0.00000000</i>
  </separator>
  <separator name="writing" >
   <i type="int" name="NWRITE">     2</i>
   <i type="logical" name="LWAVE"> F  </i>
   <i type="logical" name="LCHARG"> F  </i>
   <i type="logical" name="LPARD"> F  </i>
   <i type="logical" name="LVTOT"> F  </i>
   <i type="logical" name="LVHAR"> F  </i>
   <i type="logical" name="LELF"> F  </i>
   <i type="logical" name="LOPTICS"> F  </i>
   <v name="STM">      0.00000000      0.00000000      0.00000000      0.00000000      0.00000000      0.00000000      0.00000000</v>
  </separator>
  <separator name="performance" >
   <i type="int" name="NPAR">    40</i>
   <i type="int" name="NSIM">     4</i>
   <i type="int" name="NBLK">    -1</i>
   <i type="logical" name="LPLANE"> F  </i>
   <i type="logical" name="LSCALAPACK"> T  </i>
   <i type="logical" name="LSCAAWARE"> F  </i>
   <i type="logical" name="LSCALU"> F  </i>
   <i type="logical" name="LASYNC"> F  </i>
   <i type="logical" name="LORBITALREAL"> F  </i>
  </separator>
  <separator name="miscellaneous" >
   <i type="int" name="IDIOT">     3</i>
   <i type="logical" name="LMUSIC"> F  </i>
   <v name="POMASS">     50.94100000     95.94000000    183.85000000     32.06600000</v>
   <v name="DARWINR">      0.00000000      0.00000000      0.00000000      0.00000000</v>
   <v name="DARWINV">      1.00000000      1.00000000      1.00000000      1.00000000</v>
   <i type="logical" name="LCORR"> T  </i>
  </separator>
  <i type="logical" name="GGA_COMPAT"> T  </i>
  <i type="logical" name="LBERRY"> F  </i>
  <i type="int" name="ICORELEVEL">     0</i>
  <i type="logical" name="LDAU"> F  </i>
  <i type="int" name="I_CONSTRAINED_M">     0</i>
  <separator name="electronic exchange-correlation" >
   <i type="string" name="GGA">--</i>
   <i type="int" name="VOSKOWN">     0</i>
   <i type="logical" name="LHFCALC"> F  </i>
   <i type="string" name="PRECFOCK"></i>
   <i type="logical" name="LSYMGRAD"> F  </i>
   <i type="logical" name="LHFONE"> F  </i>
   <i type="logical" name="LRHFCALC"> F  </i>
   <i type="logical" name="LTHOMAS"> F  </i>
   <i type="logical" name="LMODELHF"> F  </i>
   <i name="ENCUT4O">     -1.00000000</i>
   <i type="int" name="EXXOEP">     0</i>
   <i type="int" name="FOURORBIT">     0</i>
   <i name="AEXX">      0.00000000</i>
   <i name="HFALPHA">      0.00000000</i>
   <i name="MCALPHA">      0.00000000</i>
   <i name="ALDAX">      1.00000000</i>
   <i name="AGGAX">      1.00000000</i>
   <i name="ALDAC">      1.00000000</i>
   <i name="AGGAC">      1.00000000</i>
   <i type="int" name="NKREDX">     1</i>
   <i type="int" name="NKREDY">     1</i>
   <i type="int" name="NKREDZ">     1</i>
   <i type="logical" name="SHIFTRED"> F  </i>
   <i type="logical" name="ODDONLY"> F  </i>
   <i type="logical" name="EVENONLY"> F  </i>
   <i type="int" name="LMAXFOCK">     0</i>
   <i type="int" name="NMAXFOCKAE">     0</i>
   <i type="logical" name="LFOCKAEDFT"> F  </i>
   <i name="HFSCREEN">      0.00000000</i>
   <i name="HFSCREENC">      0.00000000</i>
   <i type="int" name="NBANDSGWLOW">     0</i>
  </separator>
  <separator name="vdW DFT" >
   <i type="logical" name="LUSE_VDW"> F  </i>
   <i name="Zab_VDW">     -0.84910000</i>
   <i name="PARAM1">      0.12340000</i>
   <i name="PARAM2">      1.00000000</i>
   <i name="PARAM3">      0.00000000</i>
  </separator>
  <separator name="model GW" >
   <i type="int" name="MODEL_GW">     0</i>
   <i name="MODEL_EPS0">     58.26239943</i>
   <i name="MODEL_ALPHA">      1.00000000</i>
  </separator>
  <separator name="linear response parameters" >
   <i type="logical" name="LEPSILON"> F  </i>
   <i type="logical" name="LRPA"> F  </i>
   <i type="logical" name="LNABLA"> F  </i>
   <i type="logical" name="LVEL"> F  </i>
   <i type="int" name="KINTER">     0</i>
   <i name="CSHIFT">      0.10000000</i>
   <i name="OMEGAMAX">     -1.00000000</i>
   <i name="DEG_THRESHOLD">      0.00200000</i>
  </separator>
  <separator name="orbital magnetization" >
   <i type="logical" name="NUCIND"> F  </i>
   <v name="MAGPOS">      0.00000000      0.00000000      0.00000000</v>
   <i type="logical" name="LNICSALL"> T  </i>
   <i type="logical" name="ORBITALMAG"> F  </i>
   <i type="logical" name="LMAGBLOCH"> F  </i>
   <i type="logical" name="LCHIMAG"> F  </i>
   <i type="logical" name="LGAUGE"> T  </i>
   <i type="int" name="MAGATOM">     0</i>
   <v name="MAGDIPOL">      0.00000000      0.00000000      0.00000000</v>
   <v name="AVECCONST">      0.00000000      0.00000000      0.00000000</v>
  </separator>
  <separator name="response functions" >
   <i type="logical" name="LADDER"> F  </i>
   <i type="logical" name="LFXC"> F  </i>
   <i type="logical" name="LHARTREE"> T  </i>
   <i type="int" name="IBSE">     0</i>
   <v type="int" name="KPOINT">    -1     0     0     0</v>
   <i type="logical" name="LTCTE"> F  </i>
   <i type="logical" name="LTETE"> F  </i>
   <i type="logical" name="LTRIPLET"> F  </i>
   <i type="logical" name="LFXCEPS"> F  </i>
   <i type="logical" name="LFXHEG"> F  </i>
   <i type="int" name="NATURALO">     0</i>
   <i type="logical" name="L2ORDER"> F  </i>
   <i type="logical" name="LUSEW"> F  </i>
   <i name="ENCUTGW">     -2.00000000</i>
   <i name="ENCUTGWSOFT">     -2.00000000</i>
   <i name="ENCUTLF">     -1.00000000</i>
   <i type="int" name="LMAXMP2">    -1</i>
   <i name="SCISSOR">      0.00000000</i>
   <i type="int" name="NOMEGA">     0</i>
   <i type="int" name="NOMEGAR">     0</i>
   <i type="int" name="NBANDSGW">    -1</i>
   <i type="int" name="NBANDSO">    -1</i>
   <i type="int" name="NBANDSV">    -1</i>
   <i type="int" name="NELM">     1</i>
   <i type="int" name="NELMHF">     1</i>
   <i type="int" name="DIM">     3</i>
   <i type="int" name="ANTIRES">     0</i>
   <i name="OMEGAMAX">    -30.00000000</i>
   <i name="OMEGAMIN">    -30.00000000</i>
   <i name="OMEGATL">   -200.00000000</i>
   <i type="int" name="OMEGAGRID">     0</i>
   <i name="CSHIFT">     -0.10000000</i>
   <i type="logical" name="SELFENERGY"> F  </i>
   <i type="logical" name="LSPECTRAL"> F  </i>
   <i type="logical" name="LSPECTRALGW"> F  </i>
   <i type="logical" name="LSINGLES"> F  </i>
   <i type="logical" name="LFERMIGW"> F  </i>
   <i type="logical" name="ODDONLYGW"> F  </i>
   <i type="logical" name="EVENONLYGW"> F  </i>
   <i type="int" name="NKREDLFX">     1</i>
   <i type="int" name="NKREDLFY">     1</i>
   <i type="int" name="NKREDLFZ">     1</i>
   <i type="int" name="MAXMEM">  1800</i>
   <i type="int" name="TELESCOPE">     0</i>
   <i type="int" name="TAUPAR">     1</i>
   <i type="int" name="OMEGAPAR">    -1</i>
   <i name="LAMBDA">      1.00000000</i>
  </separator>
  <separator name="External order field" >
   <i name="OFIELD_KAPPA">      0.00000000</i>
   <v name="OFIELD_K">      0.00000000      0.00000000      0.00000000</v>
   <i name="OFIELD_Q6_NEAR">      0.00000000</i>
   <i name="OFIELD_Q6_FAR">      0.00000000</i>
   <i name="OFIELD_A">      0.00000000</i>
  </separator>
 </parameters>
 <atominfo>
  <atoms>      27 </atoms>
  <types>       4 </types>
  <array name="atoms" >
   <dimension dim="1">ion</dimension>
   <field type="string">element</field>
   <field type="int">atomtype</field>
   <set>
    <rc><c>V </c><c>   1</c></rc>
    <rc><c>V </c><c>   1</c></rc>
    <rc><c>V </c><c>   1</c></rc>
    <rc><c>Mo</c><c>   2</c></rc>
    <rc><c>Mo</c><c>   2</c></rc>
    <rc><c>Mo</c><c>   2</c></rc>
    <rc><c>W </c><c>   3</c></rc>
    <rc><c>W </c><c>   3</c></rc>
    <rc><c>W </c><c>   3</c></rc>
    <rc><c>S </c><c>   4</c></rc>
    <rc><c>S </c><c>   4</c></rc>
    <rc><c>S </c><c>   4</c></rc>
    <rc><c>S </c><c>   4</c></rc>
    <rc><c>S </c><c>   4</c></rc>
    <rc><c>S </c><c>   4</c></rc>
    <rc><c>S </c><c>   4</c></rc>
    <rc><c>S </c><c>   4</c></rc>
    <rc><c>S </c><c>   4</c></rc>
    <rc><c>S </c><c>   4</c></rc>
    <rc><c>S </c><c>   4</c></rc>
    <rc><c>S </c><c>   4</c></rc>
    <rc><c>S </c><c>   4</c></rc>
    <rc><c>S </c><c>   4</c></rc>
    <rc><c>S </c><c>   4</c></rc>
    <rc><c>S </c><c>   4</c></rc>
    <rc><c>S </c><c>   4</c></rc>
    <rc><c>S </c><c>   4</c></rc>
   </set>
  </array>
  <array name="atomtypes" >
   <dimension dim="1">type</dimension>
   <field type="int">atomspertype</field>
   <field type="string">element</field>
   <field>mass</field>
   <field>valence</field>
   <field type="string">pseudopotential</field>
   <set>
    <rc><c>   3</c><c>V </c><c>     50.94100000</c><c>      5.00000000</c><c> PAW_PBE V 08Apr2002                    </c></rc>
    <rc><c>   3</c><c>Mo</c><c>     95.94000000</c><c>      6.00000000</c><c> PAW_PBE Mo 08Apr2002                   </c></rc>
    <rc><c>   3</c><c>W </c><c>    183.85000000</c><c>      6.00000000</c><c> PAW_PBE W 08Apr2002                    </c></rc>
    <rc><c>  18</c><c>S </c><c>     32.06600000</c><c>      6.00000000</c><c>  PAW_PBE S 17Jan2003                   </c></rc>
   </set>
  </array>
 </atominfo>
 <structure name="initialpos" >
  <crystal>
   <varray name="basis" >
    <v>       8.66999996       5.03999989       0.00000000 </v>
    <v>      -8.66999982       5.04000013       0.00000000 </v>
    <v>       0.00000000       0.00000000      30.00000000 </v>
   </varray>
   <i name="volume">   2621.80797419 </i>
   <varray name="rec_basis" >
    <v>       0.05767013       0.09920635       0.00000000 </v>
    <v>      -0.05767013       0.09920635       0.00000000 </v>
    <v>       0.00000000       0.00000000       0.03333333 </v>
   </varray>
  </crystal>
  <varray name="positions" >
   <v>       0.33333334       0.00000000       0.00000000 </v>
   <v>       1.00000000       0.33333334       0.00000000 </v>
   <v>       0.66666669       0.00000000       0.00000000 </v>
   <v>       0.33333334       0.33333334       0.00000000 </v>
   <v>       0.00000000       0.66666669       0.00000000 </v>
   <v>       0.66666669       0.66666669       0.00000000 </v>
   <v>       0.00000000       0.00000000       0.00000000 </v>
   <v>       0.33333334       0.66666669       0.00000000 </v>
   <v>       0.66666669       0.33333334       0.00000000 </v>
   <v>       0.11068511       0.22244981       0.95539999 </v>
   <v>       0.22244981       0.11068511       0.04460000 </v>
   <v>       0.11068511       0.55578315       0.95539999 </v>
   <v>       0.22244981       0.44401845       0.04460000 </v>
   <v>       0.11068511       0.88911647       0.95539999 </v>
   <v>       0.22244981       0.77735180       0.04460000 </v>
   <v>       0.44401845       0.22244981       0.95539999 </v>
   <v>       0.55578315       0.11068511       0.04460000 </v>
   <v>       0.44401845       0.55578315       0.95539999 </v>
   <v>       0.55578315       0.44401845       0.04460000 </v>
   <v>       0.44401845       0.88911647       0.95539999 </v>
   <v>       0.55578315       0.77735180       0.04460000 </v>
   <v>       0.77735180       0.22244981       0.95539999 </v>
   <v>       0.88911647       0.11068511       0.04460000 </v>
   <v>       0.77735180       0.55578315       0.95539999 </v>
   <v>       0.88911647       0.44401845       0.04460000 </v>
   <v>       0.77735180       0.88911647       0.95539999 </v>
   <v>       0.88911647       0.77735180       0.04460000 </v>
  </varray>
 </structure>
 <calculation>
  <scstep>
   <time name="dav">   21.66   21.71</time>
   <time name="total">   21.70   21.76</time>
   <energy>
    <i name="alphaZ">     81.65567618 </i>
    <i name="ewald">  41890.23010373 </i>
    <i name="hartreedc"> -47722.84937028 </i>
    <i name="XCdc">   -242.93160842 </i>
    <i name="pawpsdc">   3467.42045192 </i>
    <i name="pawaedc">  -2871.19716117 </i>
    <i name="eentropy">     -0.52985569 </i>
    <i name="bandstr">   -238.94309228 </i>
    <i name="atom">   6761.44252427 </i>
    <i name="e_fr_energy">   1124.29766824 </i>
    <i name="e_wo_entrp">   1124.82752393 </i>
    <i name="e_0_energy">   1124.56259609 </i>
   </energy>
  </scstep>
  <scstep>
   <time name="dav">   28.04   28.11</time>
   <time name="total">   28.04   28.11</time>
   <energy>
    <i name="e_fr_energy">     -1.13947412 </i>
    <i name="e_wo_entrp">     -0.94563671 </i>
    <i name="e_0_energy">     -1.04255541 </i>
   </energy>
  </scstep>
  <scstep>
   <time name="dav">   27.43   27.49</time>
   <time name="total">   27.43   27.50</time>
   <energy>
    <i name="e_fr_energy">   -199.77585279 </i>
    <i name="e_wo_entrp">   -199.50213920 </i>
    <i name="e_0_energy">   -199.63899600 </i>
   </energy>
  </scstep>
  <scstep>
   <time name="dav">   29.50   29.57</time>
   <time name="total">   29.50   29.58</time>
   <energy>
    <i name="e_fr_energy">   -208.92100900 </i>
    <i name="e_wo_entrp">   -208.62312568 </i>
    <i name="e_0_energy">   -208.77206734 </i>
   </energy>
  </scstep>
  <scstep>
   <time name="dav">   28.29   28.36</time>
   <time name="total">   28.76   28.84</time>
   <energy>
    <i name="e_fr_energy">   -209.27169529 </i>
    <i name="e_wo_entrp">   -208.97728621 </i>
    <i name="e_0_energy">   -209.12449075 </i>
   </energy>
  </scstep>
  <scstep>
   <time name="dav">   31.09   31.16</time>
   <time name="total">   31.59   31.67</time>
   <energy>
    <i name="e_fr_energy">   -237.42889764 </i>
    <i name="e_wo_entrp">   -237.14283678 </i>
    <i name="e_0_energy">   -237.28586721 </i>
   </energy>
  </scstep>
  <scstep>
   <time name="dav">   32.29   32.37</time>
   <time name="total">   32.80   32.88</time>
   <energy>
    <i name="e_fr_energy">   -196.70483710 </i>
    <i name="e_wo_entrp">   -196.37756760 </i>
    <i name="e_0_energy">   -196.54120235 </i>
   </energy>
  </scstep>
  <scstep>
   <time name="dav">   28.54   28.61</time>
   <time name="total">   29.05   29.13</time>
   <energy>
    <i name="e_fr_energy">   -190.35920504 </i>
    <i name="e_wo_entrp">   -190.09405845 </i>
    <i name="e_0_energy">   -190.22663174 </i>
   </energy>
  </scstep>
  <scstep>
   <time name="dav">   29.59   29.67</time>
   <time name="total">   30.12   30.20</time>
   <energy>
    <i name="e_fr_energy">   -188.34419174 </i>
    <i name="e_wo_entrp">   -188.02152017 </i>
    <i name="e_0_energy">   -188.18285596 </i>
   </energy>
  </scstep>
  <scstep>
   <time name="dav">   32.13   32.21</time>
   <time name="total">   32.67   32.75</time>
   <energy>
    <i name="e_fr_energy">   -187.12746267 </i>
    <i name="e_wo_entrp">   -186.77995360 </i>
    <i name="e_0_energy">   -186.95370813 </i>
   </energy>
  </scstep>
  <scstep>
   <time name="dav">   30.08   30.16</time>
   <time name="total">   30.61   30.70</time>
   <energy>
    <i name="e_fr_energy">   -187.11348865 </i>
    <i name="e_wo_entrp">   -186.77297773 </i>
    <i name="e_0_energy">   -186.94323319 </i>
   </energy>
  </scstep>
  <scstep>
   <time name="dav">   29.69   29.76</time>
   <time name="total">   30.22   30.31</time>
   <energy>
    <i name="e_fr_energy">   -187.14541799 </i>
    <i name="e_wo_entrp">   -186.81204076 </i>
    <i name="e_0_energy">   -186.97872937 </i>
   </energy>
  </scstep>
  <scstep>
   <time name="dav">   31.72   31.80</time>
   <time name="total">   32.26   32.34</time>
   <energy>
    <i name="e_fr_energy">   -186.99070005 </i>
    <i name="e_wo_entrp">   -186.65558195 </i>
    <i name="e_0_energy">   -186.82314100 </i>
   </energy>
  </scstep>
  <scstep>
   <time name="dav">   31.56   31.64</time>
   <time name="total">   32.09   32.18</time>
   <energy>
    <i name="e_fr_energy">   -186.95790426 </i>
    <i name="e_wo_entrp">   -186.61460516 </i>
    <i name="e_0_energy">   -186.78625471 </i>
   </energy>
  </scstep>
  <scstep>
   <time name="dav">   31.36   31.44</time>
   <time name="total">   31.90   31.98</time>
   <energy>
    <i name="e_fr_energy">   -186.95680434 </i>
    <i name="e_wo_entrp">   -186.61359186 </i>
    <i name="e_0_energy">   -186.78519810 </i>
   </energy>
  </scstep>
  <scstep>
   <time name="dav">   32.42   32.50</time>
   <time name="total">   32.95   33.04</time>
   <energy>
    <i name="e_fr_energy">   -186.95356117 </i>
    <i name="e_wo_entrp">   -186.61068452 </i>
    <i name="e_0_energy">   -186.78212285 </i>
   </energy>
  </scstep>
  <scstep>
   <time name="dav">   30.68   30.75</time>
   <time name="total">   31.21   31.30</time>
   <energy>
    <i name="e_fr_energy">   -186.95150581 </i>
    <i name="e_wo_entrp">   -186.61028042 </i>
    <i name="e_0_energy">   -186.78089312 </i>
   </energy>
  </scstep>
  <scstep>
   <time name="dav">   29.06   29.13</time>
   <time name="total">   29.60   29.67</time>
   <energy>
    <i name="e_fr_energy">   -186.95123451 </i>
    <i name="e_wo_entrp">   -186.60947933 </i>
    <i name="e_0_energy">   -186.78035692 </i>
   </energy>
  </scstep>
  <scstep>
   <time name="dav">   22.87   22.93</time>
   <time name="total">   22.91   22.97</time>
   <energy>
    <i name="alphaZ">     81.65567618 </i>
    <i name="ewald">  41890.23010373 </i>
    <i name="hartreedc"> -47818.43280805 </i>
    <i name="XCdc">   -231.67368443 </i>
    <i name="pawpsdc">   4194.37453050 </i>
    <i name="pawaedc">  -3612.43763209 </i>
    <i name="eentropy">     -0.34179158 </i>
    <i name="bandstr">  -1451.76821460 </i>
    <i name="atom">   6761.44252427 </i>
    <i name="e_fr_energy">   -186.95129608 </i>
    <i name="e_wo_entrp">   -186.60950450 </i>
    <i name="e_0_energy">   -186.78040029 </i>
   </energy>
  </scstep>
  <structure>
   <crystal>
    <varray name="basis" >
     <v>       8.66999996       5.03999989       0.00000000 </v>
     <v>      -8.66999982       5.04000013       0.00000000 </v>
     <v>       0.00000000       0.00000000      30.00000000 </v>
    </varray>
    <i name="volume">   2621.80797419 </i>
    <varray name="rec_basis" >
     <v>       0.05767013       0.09920635       0.00000000 </v>
     <v>      -0.05767013       0.09920635       0.00000000 </v>
     <v>       0.00000000       0.00000000       0.03333333 </v>
    </varray>
   </crystal>
   <varray name="positions" >
    <v>       0.33333334       0.00000000       0.00000000 </v>
    <v>       1.00000000       0.33333334       0.00000000 </v>
    <v>       0.66666669       0.00000000       0.00000000 </v>
    <v>       0.33333334       0.33333334       0.00000000 </v>
    <v>       0.00000000       0.66666669       0.00000000 </v>
    <v>       0.66666669       0.66666669       0.00000000 </v>
    <v>       0.00000000       0.00000000       0.00000000 </v>
    <v>       0.33333334       0.66666669       0.00000000 </v>
    <v>       0.66666669       0.33333334       0.00000000 </v>
    <v>       0.11068511       0.22244981       0.95539999 </v>
    <v>       0.22244981       0.11068511       0.04460000 </v>
    <v>       0.11068511       0.55578315       0.95539999 </v>
    <v>       0.22244981       0.44401845       0.04460000 </v>
    <v>       0.11068511       0.88911647       0.95539999 </v>
    <v>       0.22244981       0.77735180       0.04460000 </v>
    <v>       0.44401845       0.22244981       0.95539999 </v>
    <v>       0.55578315       0.11068511       0.04460000 </v>
    <v>       0.44401845       0.55578315       0.95539999 </v>
    <v>       0.55578315       0.44401845       0.04460000 </v>
    <v>       0.44401845       0.88911647       0.95539999 </v>
    <v>       0.55578315       0.77735180       0.04460000 </v>
    <v>       0.77735180       0.22244981       0.95539999 </v>
    <v>       0.88911647       0.11068511       0.04460000 </v>
    <v>       0.77735180       0.55578315       0.95539999 </v>
    <v>       0.88911647       0.44401845       0.04460000 </v>
    <v>       0.77735180       0.88911647       0.95539999 </v>
    <v>       0.88911647       0.77735180       0.04460000 </v>
   </varray>
  </structure>
  <varray name="forces" >
   <v>      -0.15137134      -0.06993255      -0.07604763 </v>
   <v>       0.00097572       0.18157774       0.07482314 </v>
   <v>       0.14507151      -0.08881437       0.00194847 </v>
   <v>       0.00166959       0.28332595       0.07464848 </v>
   <v>      -0.26453257      -0.16559050      -0.07861582 </v>
   <v>       0.26980995      -0.14558604       0.00300732 </v>
   <v>       0.20005170      -0.12662966       0.00300728 </v>
   <v>       0.21547188      -0.11339272       0.00424547 </v>
   <v>      -0.40587398       0.22032019      -0.00718887 </v>
   <v>      -0.65790560      -0.14799264      -2.05943271 </v>
   <v>       0.64335405      -0.13274268       2.09771243 </v>
   <v>       0.59787594      -0.54153090      -2.13670041 </v>
   <v>      -0.61568148      -0.57240248       2.19569672 </v>
   <v>       0.38059068       0.71552917      -2.20881091 </v>
   <v>      -0.36225294       0.70274278       2.10796797 </v>
   <v>       0.63925889      -0.57561531      -2.14749186 </v>
   <v>       0.24166830      -0.53085921       1.38131297 </v>
   <v>      -0.04666328       0.02939981      -2.88988535 </v>
   <v>       0.02787887      -0.00829319       2.94523129 </v>
   <v>      -0.26664536       0.52650803      -1.42561460 </v>
   <v>      -0.60425288       0.54434062       2.13523395 </v>
   <v>       0.75235386       0.00024610      -1.43018623 </v>
   <v>      -0.75969176       0.01844170       1.47311483 </v>
   <v>       0.20730288      -0.13071609      -2.93925200 </v>
   <v>       0.70008055      -0.15654783       2.11196398 </v>
   <v>      -0.65454566       0.14221206      -2.09381151 </v>
   <v>      -0.23399755       0.14200200       2.88312360 </v>
  </varray>
  <varray name="stress" >
   <v>       7.51455082      -0.07495916      -1.56186048 </v>
   <v>      -0.07495930       4.48439225      -0.00909808 </v>
   <v>      -1.56186036      -0.00909808      31.03852667 </v>
  </varray>
  <energy>
   <i name="e_fr_energy">   -186.95129608 </i>
   <i name="e_wo_entrp">   -186.78040029 </i>
   <i name="e_0_energy">     -0.34179158 </i>
  </energy>
  <time name="totalsc">  607.65  609.25</time>
 </calculation>
 <calculation>
  <scstep>
   <time name="dav">   21.66   21.71</time>
   <time name="total">   22.21   22.27</time>
   <energy>
    <i name="alphaZ">     78.86607569 </i>
    <i name="ewald">  39351.98598330 </i>
    <i name="hartreedc"> -45300.82558236 </i>
    <i name="XCdc">   -239.12897309 </i>
    <i name="pawpsdc">   4193.09210312 </i>
    <i name="pawaedc">  -3611.13493211 </i>
    <i name="eentropy">     -0.27647243 </i>
    <i name="bandstr">  -1421.59903521 </i>
    <i name="atom">   6761.44252427 </i>
    <i name="e_fr_energy">   -187.57830881 </i>
    <i name="e_wo_entrp">   -187.30183638 </i>
    <i name="e_0_energy">   -187.44007259 </i>
   </energy>
  </scstep>
  <scstep>
   <time name="dav">   29.68   29.75</time>
   <time name="total">   30.22   30.30</time>
   <energy>
    <i name="e_fr_energy">   -189.80150958 </i>
    <i name="e_wo_entrp">   -189.44865852 </i>
    <i name="e_0_energy">   -189.62508405 </i>
   </energy>
  </scstep>
  <scstep>
   <time name="dav">   29.91   29.98</time>
   <time name="total">   30.46   30.55</time>
   <energy>
    <i name="e_fr_energy">   -189.32012391 </i>
    <i name="e_wo_entrp">   -189.05767933 </i>
    <i name="e_0_energy">   -189.18890162 </i>
   </energy>
  </scstep>
  <scstep>
   <time name="dav">   30.43   30.50</time>
   <time name="total">   30.98   31.06</time>
   <energy>
    <i name="e_fr_energy">   -188.82999953 </i>
    <i name="e_wo_entrp">   -188.55002129 </i>
    <i name="e_0_energy">   -188.69001041 </i>
   </energy>
  </scstep>
  <scstep>
   <time name="dav">   29.17   29.24</time>
   <time name="total">   29.71   29.79</time>
   <energy>
    <i name="e_fr_energy">   -188.91367262 </i>
    <i name="e_wo_entrp">   -188.63022038 </i>
    <i name="e_0_energy">   -188.77194650 </i>
   </energy>
  </scstep>
  <scstep>
   <time name="dav">   29.79   29.86</time>
   <time name="total">   30.33   30.41</time>
   <energy>
    <i name="e_fr_energy">   -188.84041318 </i>
    <i name="e_wo_entrp">   -188.55689780 </i>
    <i name="e_0_energy">   -188.69865549 </i>
   </energy>
  </scstep>
  <scstep>
   <time name="dav">   30.19   30.26</time>
   <time name="total">   30.74   30.82</time>
   <energy>
    <i name="e_fr_energy">   -188.74223534 </i>
    <i name="e_wo_entrp">   -188.46476234 </i>
    <i name="e_0_energy">   -188.60349884 </i>
   </energy>
  </scstep>
  <scstep>
   <time name="dav">   28.62   28.69</time>
   <time name="total">   29.17   29.25</time>
   <energy>
    <i name="e_fr_energy">   -188.74120009 </i>
    <i name="e_wo_entrp">   -188.46397041 </i>
    <i name="e_0_energy">   -188.60258525 </i>
   </energy>
  </scstep>
  <scstep>
   <time name="dav">   28.26   28.32</time>
   <time name="total">   28.80   28.88</time>
   <energy>
    <i name="e_fr_energy">   -188.72715684 </i>
    <i name="e_wo_entrp">   -188.44881856 </i>
    <i name="e_0_energy">   -188.58798770 </i>
   </energy>
  </scstep>
  <scstep>
   <time name="dav">   27.75   27.82</time>
   <time name="total">   28.30   28.37</time>
   <energy>
    <i name="e_fr_energy">   -188.72421073 </i>
    <i name="e_wo_entrp">   -188.44691328 </i>
    <i name="e_0_energy">   -188.58556200 </i>
   </energy>
  </scstep>
  <scstep>
   <time name="dav">   29.42   29.49</time>
   <time name="total">   29.97   30.05</time>
   <energy>
    <i name="e_fr_energy">   -188.72397460 </i>
    <i name="e_wo_entrp">   -188.44741643 </i>
    <i name="e_0_energy">   -188.58569551 </i>
   </energy>
  </scstep>
  <scstep>
   <time name="dav">   27.05   27.11</time>
   <time name="total">   27.59   27.66</time>
   <energy>
    <i name="e_fr_energy">   -188.72393988 </i>
    <i name="e_wo_entrp">   -188.44743353 </i>
    <i name="e_0_energy">   -188.58568671 </i>
   </energy>
  </scstep>
  <scstep>
   <time name="dav">   17.38   17.42</time>
   <time name="total">   17.93   17.98</time>
   <energy>
    <i name="e_fr_energy">   -188.72409861 </i>
    <i name="e_wo_entrp">   -188.44746752 </i>
    <i name="e_0_energy">   -188.58578307 </i>
   </energy>
  </scstep>
  <scstep>
   <time name="dav">   19.30   19.34</time>
   <time name="total">   19.86   20.12</time>
   <energy>
    <i name="e_fr_energy">   -188.72426682 </i>
    <i name="e_wo_entrp">   -188.44760636 </i>
    <i name="e_0_energy">   -188.58593659 </i>
   </energy>
  </scstep>
  <scstep>
   <time name="dav">   17.62   17.66</time>
   <time name="total">   17.65   17.70</time>
   <energy>
    <i name="alphaZ">     78.86607569 </i>
    <i name="ewald">  39351.98598330 </i>
    <i name="hartreedc"> -45317.62701662 </i>
    <i name="XCdc">   -238.00709271 </i>
    <i name="pawpsdc">   3948.46762027 </i>
    <i name="pawaedc">  -3362.97442556 </i>
    <i name="eentropy">     -0.27669878 </i>
    <i name="bandstr">  -1410.60133288 </i>
    <i name="atom">   6761.44252427 </i>
    <i name="e_fr_energy">   -188.72436304 </i>
    <i name="e_wo_entrp">   -188.44766425 </i>
    <i name="e_0_energy">   -188.58601365 </i>
   </energy>
  </scstep>
  <structure>
   <crystal>
    <varray name="basis" >
     <v>       8.85938871       5.10418300       0.00000000 </v>
     <v>      -8.86159781       5.10798367       0.00000000 </v>
     <v>       0.00000000       0.00000000      30.00000000 </v>
    </varray>
    <i name="volume">   2714.54489220 </i>
    <varray name="rec_basis" >
     <v>       0.05645127       0.09793462       0.00000000 </v>
     <v>      -0.05640927       0.09791021       0.00000000 </v>
     <v>       0.00000000       0.00000000       0.03333333 </v>
    </varray>
   </crystal>
   <varray name="positions" >
    <v>       0.33257751       0.00008644      -0.00012229 </v>
    <v>       1.00087174       0.33419966       0.00012032 </v>
    <v>       0.66664524      -0.00082868       0.00000313 </v>
    <v>       0.33469398       0.33468469       0.00012004 </v>
    <v>      -0.00152848       0.66661015      -0.00012642 </v>
    <v>       0.66672057       0.66521926       0.00000484 </v>
    <v>      -0.00004947      -0.00116262       0.00000484 </v>
    <v>       0.33339013       0.66552451       0.00000683 </v>
    <v>       0.66659193       0.33551700      -0.00001156 </v>
    <v>       0.10814642       0.22357192       0.95208824 </v>
    <v>       0.22360442       0.10825989       0.04797331 </v>
    <v>       0.10975674       0.55152801       0.95196399 </v>
    <v>       0.21799738       0.44299187       0.04813087 </v>
    <v>       0.11516848       0.89148211       0.95184803 </v>
    <v>       0.22480527       0.78172295       0.04798980 </v>
    <v>       0.44304209       0.21791641       0.95194663 </v>
    <v>       0.55391483       0.10747207       0.04682127 </v>
    <v>       0.44402934       0.55605368       0.95075280 </v>
    <v>       0.55582102       0.44390120       0.04933619 </v>
    <v>       0.44579646       0.89237817       0.95310748 </v>
    <v>       0.55670723       0.78163813       0.04803364 </v>
    <v>       0.77944614       0.22035782       0.95310012 </v>
    <v>       0.88709114       0.11288696       0.04696890 </v>
    <v>       0.77730294       0.55458080       0.95067341 </v>
    <v>       0.89031497       0.44132148       0.04799622 </v>
    <v>       0.77621137       0.89161814       0.95203296 </v>
    <v>       0.88914507       0.77868243       0.04923632 </v>
   </varray>
  </structure>
  <varray name="forces" >
   <v>      -0.14752065      -0.12754423       0.05422992 </v>
   <v>       0.03548038       0.19061703      -0.05673976 </v>
   <v>       0.12736508      -0.06945316       0.00028777 </v>
   <v>      -0.03716147       0.46056956      -0.04443635 </v>
   <v>      -0.41766786      -0.19562233       0.04707826 </v>
   <v>       0.42837109      -0.24769547      -0.00066904 </v>
   <v>       0.28627448      -0.18951388      -0.01733052 </v>
   <v>       0.30185465      -0.15569552       0.01299366 </v>
   <v>      -0.56476220       0.32936969       0.00474732 </v>
   <v>       0.02479542      -0.11136570       0.14899834 </v>
   <v>      -0.02494334      -0.10107278      -0.03712121 </v>
   <v>       0.07321101       0.05546250       0.05757916 </v>
   <v>      -0.08273067       0.04736728       0.09118574 </v>
   <v>      -0.11029801       0.05604692      -0.07879946 </v>
   <v>       0.11151385       0.04972244      -0.17728917 </v>
   <v>       0.08748592       0.05815354       0.02567895 </v>
   <v>      -0.06378443       0.07980288      -0.24124810 </v>
   <v>      -0.14131509       0.01250103      -0.12345883 </v>
   <v>       0.14055482       0.00449786       0.25538750 </v>
   <v>       0.05708826      -0.07764068       0.12726030 </v>
   <v>      -0.07241300      -0.06060788      -0.05130201 </v>
   <v>      -0.11050016      -0.00073416       0.26487982 </v>
   <v>       0.10736599       0.00575328      -0.14815210 </v>
   <v>       0.05115338      -0.10862532      -0.26492284 </v>
   <v>      -0.02603527      -0.11772502      -0.01784589 </v>
   <v>       0.03107691       0.10531543       0.03572706 </v>
   <v>      -0.06445908       0.10811670       0.13328148 </v>
  </varray>
  <varray name="stress" >
   <v>     -19.99261312       0.00945624       0.05886194 </v>
   <v>       0.00945609     -19.53910028       0.03161106 </v>
   <v>       0.05886183       0.03161118      -1.66492577 </v>
  </varray>
  <energy>
   <i name="e_fr_energy">   -188.72436304 </i>
   <i name="e_wo_entrp">   -188.58601365 </i>
   <i name="e_0_energy">     -0.27669878 </i>
  </energy>
  <time name="totalsc">  445.91  447.30</time>
 </calculation>
 <calculation>
  <scstep>
   <time name="dav">   23.45   23.50</time>
   <time name="total">   23.98   24.04</time>
   <energy>
    <i name="alphaZ">     82.30110391 </i>
    <i name="ewald">  41281.58600979 </i>
    <i name="hartreedc"> -47278.08291656 </i>
    <i name="XCdc">   -233.86499062 </i>
    <i name="pawpsdc">   3948.41951961 </i>
    <i name="pawaedc">  -3362.92666577 </i>
    <i name="eentropy">     -0.23298777 </i>
    <i name="bandstr">  -1389.30976084 </i>
    <i name="atom">   6761.44252427 </i>
    <i name="e_fr_energy">   -190.66816396 </i>
    <i name="e_wo_entrp">   -190.43517619 </i>
    <i name="e_0_energy">   -190.55167008 </i>
   </energy>
  </scstep>
  <scstep>
   <time name="dav">   29.34   29.41</time>
   <time name="total">   29.87   29.94</time>
   <energy>
    <i name="e_fr_energy">   -190.59619205 </i>
    <i name="e_wo_entrp">   -190.36866318 </i>
    <i name="e_0_energy">   -190.48242761 </i>
   </energy>
  </scstep>
  <scstep>
   <time name="dav">   29.74   29.81</time>
   <time name="total">   30.27   30.35</time>
   <energy>
    <i name="e_fr_energy">   -190.15446585 </i>
    <i name="e_wo_entrp">   -189.90184561 </i>
    <i name="e_0_energy">   -190.02815573 </i>
   </energy>
  </scstep>
  <scstep>
   <time name="dav">   31.52   31.60</time>
   <time name="total">   32.06   32.15</time>
   <energy>
    <i name="e_fr_energy">   -189.93366538 </i>
    <i name="e_wo_entrp">   -189.70381019 </i>
    <i name="e_0_energy">   -189.81873778 </i>
   </energy>
  </scstep>
  <scstep>
   <time name="dav">   29.90   29.97</time>
   <time name="total">   30.43   30.51</time>
   <energy>
    <i name="e_fr_energy">   -189.89325760 </i>
    <i name="e_wo_entrp">   -189.66315108 </i>
    <i name="e_0_energy">   -189.77820434 </i>
   </energy>
  </scstep>
  <scstep>
   <time name="dav">   30.24   30.32</time>
   <time name="total">   30.78   30.86</time>
   <energy>
    <i name="e_fr_energy">   -189.83562641 </i>
    <i name="e_wo_entrp">   -189.60055625 </i>
    <i name="e_0_energy">   -189.71809133 </i>
   </energy>
  </scstep>
  <scstep>
   <time name="dav">   28.62   28.69</time>
   <time name="total">   29.16   29.23</time>
   <energy>
    <i name="e_fr_energy">   -189.82885283 </i>
    <i name="e_wo_entrp">   -189.59500564 </i>
    <i name="e_0_energy">   -189.71192924 </i>
   </energy>
  </scstep>
  <scstep>
   <time name="dav">   27.94   28.00</time>
   <time name="total">   28.47   28.54</time>
   <energy>
    <i name="e_fr_energy">   -189.82880972 </i>
    <i name="e_wo_entrp">   -189.59482985 </i>
    <i name="e_0_energy">   -189.71181979 </i>
   </energy>
  </scstep>
  <scstep>
   <time name="dav">   26.78   26.84</time>
   <time name="total">   27.31   27.38</time>
   <energy>
    <i name="e_fr_energy">   -189.82907290 </i>
    <i name="e_wo_entrp">   -189.59509124 </i>
    <i name="e_0_energy">   -189.71208207 </i>
   </energy>
  </scstep>
  <scstep>
   <time name="dav">   25.75   25.81</time>
   <time name="total">   26.28   26.35</time>
   <energy>
    <i name="e_fr_energy">   -189.82941403 </i>
    <i name="e_wo_entrp">   -189.59540884 </i>
    <i name="e_0_energy">   -189.71241144 </i>
   </energy>
  </scstep>
  <scstep>
   <time name="dav">   23.10   23.15</time>
   <time name="total">   23.63   23.69</time>
   <energy>
    <i name="e_fr_energy">   -189.82883768 </i>
    <i name="e_wo_entrp">   -189.59473246 </i>
    <i name="e_0_energy">   -189.71178507 </i>
   </energy>
  </scstep>
  <scstep>
   <time name="dav">   16.99   17.03</time>
   <time name="total">   17.03   17.07</time>
   <energy>
    <i name="alphaZ">     82.30110391 </i>
    <i name="ewald">  41281.58600979 </i>
    <i name="hartreedc"> -47252.97605266 </i>
    <i name="XCdc">   -235.25706854 </i>
    <i name="pawpsdc">   4038.21159064 </i>
    <i name="pawaedc">  -3453.92414312 </i>
    <i name="eentropy">     -0.23413551 </i>
    <i name="bandstr">  -1410.97871412 </i>
    <i name="atom">   6761.44252427 </i>
    <i name="e_fr_energy">   -189.82888533 </i>
    <i name="e_wo_entrp">   -189.59474982 </i>
    <i name="e_0_energy">   -189.71181758 </i>
   </energy>
  </scstep>
  <structure>
   <crystal>
    <varray name="basis" >
     <v>       8.67044278       4.99785482       0.00000000 </v>
     <v>      -8.67250171       5.00139743       0.00000000 </v>
     <v>       0.00000000       0.00000000      30.00000000 </v>
    </varray>
    <i name="volume">   2601.24703987 </i>
    <varray name="rec_basis" >
     <v>       0.05768077       0.10001936       0.00000000 </v>
     <v>      -0.05763991       0.09999561       0.00000000 </v>
     <v>       0.00000000       0.00000000       0.03333333 </v>
    </varray>
   </crystal>
   <varray name="positions" >
    <v>       0.33222350       0.00001560      -0.00009155 </v>
    <v>       1.00122324       0.33448298       0.00008816 </v>
    <v>       0.66665183      -0.00106648       0.00000330 </v>
    <v>       0.33542530       0.33548714       0.00009485 </v>
    <v>      -0.00225518       0.66668508      -0.00009974 </v>
    <v>       0.66671928       0.66439598       0.00000446 </v>
    <v>      -0.00009027      -0.00175274      -0.00000499 </v>
    <v>       0.33342060       0.66497576       0.00001419 </v>
    <v>       0.66659831       0.33660709      -0.00000887 </v>
    <v>       0.10798476       0.22336272       0.95217269 </v>
    <v>       0.22341216       0.10811554       0.04795227 </v>
    <v>       0.10991938       0.55155013       0.95199662 </v>
    <v>       0.21799685       0.44315009       0.04818256 </v>
    <v>       0.11515594       0.89168122       0.95180336 </v>
    <v>       0.22499512       0.78169877       0.04788931 </v>
    <v>       0.44322292       0.21792931       0.95196119 </v>
    <v>       0.55398650       0.10766612       0.04668453 </v>
    <v>       0.44391450       0.55621005       0.95068282 </v>
    <v>       0.55596344       0.44377387       0.04948095 </v>
    <v>       0.44572196       0.89219415       0.95317961 </v>
    <v>       0.55653678       0.78160668       0.04800457 </v>
    <v>       0.77933885       0.22046259       0.95325026 </v>
    <v>       0.88720379       0.11279355       0.04688492 </v>
    <v>       0.77717115       0.55435088       0.95052325 </v>
    <v>       0.89009393       0.44115046       0.04798611 </v>
    <v>       0.77641658       0.89176367       0.95205321 </v>
    <v>       0.88926324       0.77892427       0.04931186 </v>
   </varray>
  </structure>
  <varray name="forces" >
   <v>      -0.16367866      -0.15569400       0.07264237 </v>
   <v>       0.05128007       0.21821685      -0.07491663 </v>
   <v>       0.13299004      -0.07542223       0.00045171 </v>
   <v>      -0.05337212       0.50661065      -0.05464779 </v>
   <v>      -0.46588837      -0.20821097       0.05702380 </v>
   <v>       0.47840485      -0.27766232      -0.00085637 </v>
   <v>       0.31432870      -0.20833862      -0.02094392 </v>
   <v>       0.33197972      -0.17357615       0.01741135 </v>
   <v>      -0.61184752       0.35661347       0.00403292 </v>
   <v>      -0.07159801      -0.04271757      -0.32135873 </v>
   <v>       0.07260999      -0.02200804       0.44409376 </v>
   <v>       0.05601292      -0.06683245      -0.42416030 </v>
   <v>      -0.07113886      -0.08406684       0.60676231 </v>
   <v>       0.01443915       0.11121517      -0.59704598 </v>
   <v>       0.00420945       0.09857478       0.29543527 </v>
   <v>       0.08433900      -0.06032022      -0.46824559 </v>
   <v>       0.00190856      -0.02955116       0.19583391 </v>
   <v>      -0.06053342       0.02534799      -0.68189180 </v>
   <v>       0.05753591       0.00598752       0.83724335 </v>
   <v>      -0.01634464       0.04343120      -0.32763745 </v>
   <v>      -0.05285684       0.06429003       0.43718732 </v>
   <v>       0.02092174      -0.00038983      -0.17211069 </v>
   <v>      -0.03758121       0.00967022       0.30671389 </v>
   <v>       0.01053549      -0.03994252      -0.84636744 </v>
   <v>       0.07752957      -0.05380228       0.47608209 </v>
   <v>      -0.06719640       0.02501534      -0.45220780 </v>
   <v>      -0.03698913       0.03356197       0.69147642 </v>
  </varray>
  <varray name="stress" >
   <v>     -10.26214157       0.00458861       0.04478938 </v>
   <v>       0.00458853      -9.90567346       0.03154340 </v>
   <v>       0.04478959       0.03154316       6.48098439 </v>
  </varray>
  <energy>
   <i name="e_fr_energy">   -189.82888533 </i>
   <i name="e_wo_entrp">   -189.71181758 </i>
   <i name="e_0_energy">     -0.23413551 </i>
  </energy>
  <time name="totalsc">  371.41  372.39</time>
 </calculation>
 <calculation>
  <scstep>
   <time name="dav">   21.69   21.74</time>
   <time name="total">   22.21   22.26</time>
   <energy>
    <i name="alphaZ">     85.82287030 </i>
    <i name="ewald">  42837.80982111 </i>
    <i name="hartreedc"> -48854.09048666 </i>
    <i name="XCdc">   -232.91828107 </i>
    <i name="pawpsdc">   4038.28127215 </i>
    <i name="pawaedc">  -3453.99121853 </i>
    <i name="eentropy">     -0.19812645 </i>
    <i name="bandstr">  -1373.59431355 </i>
    <i name="atom">   6761.44252427 </i>
    <i name="e_fr_energy">   -191.43593844 </i>
    <i name="e_wo_entrp">   -191.23781199 </i>
    <i name="e_0_energy">   -191.33687521 </i>
   </energy>
  </scstep>
  <scstep>
   <time name="dav">   32.31   32.38</time>
   <time name="total">   32.82   32.90</time>
   <energy>
    <i name="e_fr_energy">   -191.21947055 </i>
    <i name="e_wo_entrp">   -191.01863813 </i>
    <i name="e_0_energy">   -191.11905434 </i>
   </energy>
  </scstep>
  <scstep>
   <time name="dav">   29.50   29.57</time>
   <time name="total">   30.01   30.08</time>
   <energy>
    <i name="e_fr_energy">   -191.43990351 </i>
    <i name="e_wo_entrp">   -191.21178387 </i>
    <i name="e_0_energy">   -191.32584369 </i>
   </energy>
  </scstep>
  <scstep>
   <time name="dav">   28.80   28.87</time>
   <time name="total">   29.32   29.39</time>
   <energy>
    <i name="e_fr_energy">   -191.04187656 </i>
    <i name="e_wo_entrp">   -190.82588306 </i>
    <i name="e_0_energy">   -190.93387981 </i>
   </energy>
  </scstep>
  <scstep>
   <time name="dav">   28.60   28.67</time>
   <time name="total">   29.13   29.20</time>
   <energy>
    <i name="e_fr_energy">   -191.02919531 </i>
    <i name="e_wo_entrp">   -190.83838213 </i>
    <i name="e_0_energy">   -190.93378872 </i>
   </energy>
  </scstep>
  <scstep>
   <time name="dav">   27.88   27.95</time>
   <time name="total">   28.40   28.47</time>
   <energy>
    <i name="e_fr_energy">   -190.84012901 </i>
    <i name="e_wo_entrp">   -190.63663615 </i>
    <i name="e_0_energy">   -190.73838258 </i>
   </energy>
  </scstep>
  <scstep>
   <time name="dav">   28.72   28.79</time>
   <time name="total">   29.24   29.32</time>
   <energy>
    <i name="e_fr_energy">   -190.83683492 </i>
    <i name="e_wo_entrp">   -190.63346068 </i>
    <i name="e_0_energy">   -190.73514780 </i>
   </energy>
  </scstep>
  <scstep>
   <time name="dav">   26.66   26.72</time>
   <time name="total">   27.18   27.25</time>
   <energy>
    <i name="e_fr_energy">   -190.83411266 </i>
    <i name="e_wo_entrp">   -190.63042737 </i>
    <i name="e_0_energy">   -190.73227001 </i>
   </energy>
  </scstep>
  <scstep>
   <time name="dav">   28.84   28.91</time>
   <time name="total">   29.35   29.43</time>
   <energy>
    <i name="e_fr_energy">   -190.83385028 </i>
    <i name="e_wo_entrp">   -190.63025512 </i>
    <i name="e_0_energy">   -190.73205270 </i>
   </energy>
  </scstep>
  <scstep>
   <time name="dav">   29.07   29.14</time>
   <time name="total">   29.60   29.68</time>
   <energy>
    <i name="e_fr_energy">   -190.83395466 </i>
    <i name="e_wo_entrp">   -190.63045163 </i>
    <i name="e_0_energy">   -190.73220315 </i>
   </energy>
  </scstep>
  <scstep>
   <time name="dav">   24.85   24.91</time>
   <time name="total">   25.37   25.44</time>
   <energy>
    <i name="e_fr_energy">   -190.83381859 </i>
    <i name="e_wo_entrp">   -190.63021151 </i>
    <i name="e_0_energy">   -190.73201505 </i>
   </energy>
  </scstep>
  <scstep>
   <time name="dav">   18.46   18.51</time>
   <time name="total">   18.50   18.55</time>
   <energy>
    <i name="alphaZ">     85.82287030 </i>
    <i name="ewald">  42837.80982111 </i>
    <i name="hartreedc"> -48825.57886423 </i>
    <i name="XCdc">   -234.26833087 </i>
    <i name="pawpsdc">   4064.55383126 </i>
    <i name="pawaedc">  -3480.45897158 </i>
    <i name="eentropy">     -0.20373049 </i>
    <i name="bandstr">  -1399.95297332 </i>
    <i name="atom">   6761.44252427 </i>
    <i name="e_fr_energy">   -190.83382355 </i>
    <i name="e_wo_entrp">   -190.63009305 </i>
    <i name="e_0_energy">   -190.73195830 </i>
   </energy>
  </scstep>
  <structure>
   <crystal>
    <varray name="basis" >
     <v>       8.48586184       4.89711296       0.00000000 </v>
     <v>      -8.48779360       4.90043956       0.00000000 </v>
     <v>       0.00000000       0.00000000      30.00000000 </v>
    </varray>
    <i name="volume">   2494.50411293 </i>
    <varray name="rec_basis" >
     <v>       0.05893483       0.10207793       0.00000000 </v>
     <v>      -0.05889483       0.10205469       0.00000000 </v>
     <v>       0.00000000       0.00000000       0.03333333 </v>
    </varray>
   </crystal>
   <varray name="positions" >
    <v>       0.33055778      -0.00041711       0.00007505 </v>
    <v>       1.00287254       0.33571449      -0.00008296 </v>
    <v>       0.66665304      -0.00204497       0.00000437 </v>
    <v>       0.33850706       0.33900193      -0.00002735 </v>
    <v>      -0.00535324       0.66710272       0.00002717 </v>
    <v>       0.66670566       0.66077145       0.00000252 </v>
    <v>      -0.00026678      -0.00428769      -0.00005156 </v>
    <v>       0.33353182       0.66259459       0.00005413 </v>
    <v>       0.66662178       0.34119951      -0.00000111 </v>
    <v>       0.10749000       0.22366703       0.95110160 </v>
    <v>       0.22387848       0.10777208       0.04928745 </v>
    <v>       0.10936883       0.55064398       0.95070237 </v>
    <v>       0.21689611       0.44253121       0.04988491 </v>
    <v>       0.11622762       0.89228530       0.95011889 </v>
    <v>       0.22559681       0.78258189       0.04890863 </v>
    <v>       0.44284600       0.21695071       0.95056496 </v>
    <v>       0.55362735       0.10710218       0.04746649 </v>
    <v>       0.44400434       0.55650342       0.94878771 </v>
    <v>       0.55609252       0.44372758       0.05171864 </v>
    <v>       0.44613431       0.89293835       0.95210876 </v>
    <v>       0.55709280       0.78248857       0.04933166 </v>
    <v>       0.77960427       0.22019420       0.95251762 </v>
    <v>       0.88692738       0.11321096       0.04791231 </v>
    <v>       0.77707266       0.55429422       0.94826697 </v>
    <v>       0.89034887       0.44054255       0.04939861 </v>
    <v>       0.77598461       0.89210435       0.95069541 </v>
    <v>       0.88919184       0.77904094       0.05122666 </v>
   </varray>
  </structure>
  <varray name="forces" >
   <v>      -0.13503810      -0.18179362       0.07727336 </v>
   <v>       0.09294640       0.20807282      -0.07768162 </v>
   <v>       0.09715077      -0.05913888       0.00060370 </v>
   <v>      -0.09438716       0.54656876      -0.02744308 </v>
   <v>      -0.52560023      -0.19899307       0.02518651 </v>
   <v>       0.47918883      -0.27446920       0.00203463 </v>
   <v>       0.31361265      -0.25478464      -0.02301876 </v>
   <v>       0.37516006      -0.14775946       0.02864220 </v>
   <v>      -0.56646831       0.32626656      -0.00555942 </v>
   <v>       0.04636622       0.01189608      -0.15987696 </v>
   <v>      -0.02673127       0.03242175       0.24598711 </v>
   <v>      -0.03643579      -0.00209902      -0.24164988 </v>
   <v>       0.01438740      -0.03727649       0.46964952 </v>
   <v>       0.04347856       0.00653783      -0.46735398 </v>
   <v>       0.00575255      -0.03433952       0.14993414 </v>
   <v>       0.00880169       0.03047471      -0.30433181 </v>
   <v>      -0.05653261       0.04780404       0.10111235 </v>
   <v>       0.01912480       0.06546385      -0.52965956 </v>
   <v>      -0.02055022       0.00664854       0.68231000 </v>
   <v>       0.00920582      -0.01685969      -0.23633296 </v>
   <v>       0.05405052      -0.00648706       0.28580112 </v>
   <v>      -0.06386509       0.01577853      -0.09347473 </v>
   <v>       0.01444556       0.01107762       0.23092239 </v>
   <v>      -0.01093846       0.01285995      -0.68167275 </v>
   <v>      -0.03364513      -0.01965297       0.31216587 </v>
   <v>       0.04552978      -0.04282892      -0.29354357 </v>
   <v>      -0.04900924      -0.04538849       0.52997620 </v>
  </varray>
  <varray name="stress" >
   <v>      -5.62935255      -0.09314142      -0.15752128 </v>
   <v>      -0.09314153      -5.77606105      -0.13111225 </v>
   <v>      -0.15752153      -0.13111229       4.60475164 </v>
  </varray>
  <energy>
   <i name="e_fr_energy">   -190.83382355 </i>
   <i name="e_wo_entrp">   -190.73195830 </i>
   <i name="e_0_energy">     -0.20373049 </i>
  </energy>
  <time name="totalsc">  372.88  373.86</time>
 </calculation>
 <calculation>
  <scstep>
   <time name="dav">   21.72   21.77</time>
   <time name="total">   22.22   22.28</time>
   <energy>
    <i name="alphaZ">     90.04492722 </i>
    <i name="ewald">  44613.00683067 </i>
    <i name="hartreedc"> -50654.40534206 </i>
    <i name="XCdc">   -231.89352345 </i>
    <i name="pawpsdc">   4064.46928290 </i>
    <i name="pawaedc">  -3480.37000685 </i>
    <i name="eentropy">     -0.19289162 </i>
    <i name="bandstr">  -1354.26265140 </i>
    <i name="atom">   6761.44252427 </i>
    <i name="e_fr_energy">   -192.16085031 </i>
    <i name="e_wo_entrp">   -191.96795869 </i>
    <i name="e_0_energy">   -192.06440450 </i>
   </energy>
  </scstep>
  <scstep>
   <time name="dav">   27.11   27.17</time>
   <time name="total">   27.61   27.69</time>
   <energy>
    <i name="e_fr_energy">   -191.90017982 </i>
    <i name="e_wo_entrp">   -191.68868258 </i>
    <i name="e_0_energy">   -191.79443120 </i>
   </energy>
  </scstep>
  <scstep>
   <time name="dav">   30.02   30.10</time>
   <time name="total">   30.53   30.61</time>
   <energy>
    <i name="e_fr_energy">   -192.18329147 </i>
    <i name="e_wo_entrp">   -191.98084742 </i>
    <i name="e_0_energy">   -192.08206945 </i>
   </energy>
  </scstep>
  <scstep>
   <time name="dav">   30.30   30.38</time>
   <time name="total">   30.81   30.89</time>
   <energy>
    <i name="e_fr_energy">   -191.71984271 </i>
    <i name="e_wo_entrp">   -191.51056808 </i>
    <i name="e_0_energy">   -191.61520540 </i>
   </energy>
  </scstep>
  <scstep>
   <time name="dav">   28.49   28.56</time>
   <time name="total">   29.00   29.07</time>
   <energy>
    <i name="e_fr_energy">   -191.53696703 </i>
    <i name="e_wo_entrp">   -191.33102698 </i>
    <i name="e_0_energy">   -191.43399701 </i>
   </energy>
  </scstep>
  <scstep>
   <time name="dav">   30.73   30.80</time>
   <time name="total">   31.23   31.32</time>
   <energy>
    <i name="e_fr_energy">   -191.53221342 </i>
    <i name="e_wo_entrp">   -191.33642016 </i>
    <i name="e_0_energy">   -191.43431679 </i>
   </energy>
  </scstep>
  <scstep>
   <time name="dav">   30.54   30.62</time>
   <time name="total">   31.05   31.13</time>
   <energy>
    <i name="e_fr_energy">   -191.50395295 </i>
    <i name="e_wo_entrp">   -191.29925012 </i>
    <i name="e_0_energy">   -191.40160154 </i>
   </energy>
  </scstep>
  <scstep>
   <time name="dav">   27.77   27.84</time>
   <time name="total">   28.28   28.35</time>
   <energy>
    <i name="e_fr_energy">   -191.50081523 </i>
    <i name="e_wo_entrp">   -191.29749312 </i>
    <i name="e_0_energy">   -191.39915418 </i>
   </energy>
  </scstep>
  <scstep>
   <time name="dav">   29.35   29.42</time>
   <time name="total">   29.85   29.93</time>
   <energy>
    <i name="e_fr_energy">   -191.50118197 </i>
    <i name="e_wo_entrp">   -191.29796829 </i>
    <i name="e_0_energy">   -191.39957513 </i>
   </energy>
  </scstep>
  <scstep>
   <time name="dav">   28.67   28.74</time>
   <time name="total">   29.18   29.26</time>
   <energy>
    <i name="e_fr_energy">   -191.50066155 </i>
    <i name="e_wo_entrp">   -191.29735485 </i>
    <i name="e_0_energy">   -191.39900820 </i>
   </energy>
  </scstep>
  <scstep>
   <time name="dav">   24.37   24.43</time>
   <time name="total">   24.40   24.47</time>
   <energy>
    <i name="alphaZ">     90.04492722 </i>
    <i name="ewald">  44613.00683067 </i>
    <i name="hartreedc"> -50621.52313868 </i>
    <i name="XCdc">   -233.36841223 </i>
    <i name="pawpsdc">   4086.17892072 </i>
    <i name="pawaedc">  -3502.18195675 </i>
    <i name="eentropy">     -0.20346814 </i>
    <i name="bandstr">  -1384.89685976 </i>
    <i name="atom">   6761.44252427 </i>
    <i name="e_fr_energy">   -191.50063268 </i>
    <i name="e_wo_entrp">   -191.29716455 </i>
    <i name="e_0_energy">   -191.39889861 </i>
   </energy>
  </scstep>
  <structure>
   <crystal>
    <varray name="basis" >
     <v>       8.28510351       4.77438544       0.00000000 </v>
     <v>      -8.29237003       4.78695223       0.00000000 </v>
     <v>       0.00000000       0.00000000      30.00000000 </v>
    </varray>
    <i name="volume">   2377.54096253 </i>
    <varray name="rec_basis" >
     <v>       0.06040214       0.10463378       0.00000000 </v>
     <v>      -0.06024357       0.10454209       0.00000000 </v>
     <v>       0.00000000       0.00000000       0.03333333 </v>
    </varray>
   </crystal>
   <varray name="positions" >
    <v>       0.32737119      -0.00163971       0.00039030 </v>
    <v>       1.00607370       0.33766191      -0.00040053 </v>
    <v>       0.66661614      -0.00350325       0.00000680 </v>
    <v>       0.34445172       0.34622061      -0.00015758 </v>
    <v>      -0.01141736       0.66831889       0.00015075 </v>
    <v>       0.66672272       0.65403399       0.00000876 </v>
    <v>      -0.00107857      -0.00950719      -0.00014335 </v>
    <v>       0.33427023       0.65815207       0.00016383 </v>
    <v>       0.66661950       0.34922894      -0.00001847 </v>
    <v>       0.10779124       0.22385517       0.94995409 </v>
    <v>       0.22446047       0.10822734       0.05079860 </v>
    <v>       0.10870855       0.55036978       0.94921558 </v>
    <v>       0.21605135       0.44160936       0.05226628 </v>
    <v>       0.11709746       0.89221192       0.94774773 </v>
    <v>       0.22540191       0.78265313       0.05001153 </v>
    <v>       0.44286148       0.21671575       0.94883265 </v>
    <v>       0.55354051       0.10747612       0.04832002 </v>
    <v>       0.44494374       0.55706848       0.94612499 </v>
    <v>       0.55597289       0.44401177       0.05499801 </v>
    <v>       0.44628751       0.89324626       0.95071473 </v>
    <v>       0.55777926       0.78256562       0.05098041 </v>
    <v>       0.77961585       0.22050910       0.95170211 </v>
    <v>       0.88688816       0.11353145       0.04927732 </v>
    <v>       0.77721150       0.55467361       0.94498546 </v>
    <v>       0.89027315       0.44039441       0.05116136 </v>
    <v>       0.77541246       0.89142714       0.94901336 </v>
    <v>       0.88828769       0.77870180       0.05389514 </v>
   </varray>
  </structure>
  <varray name="forces" >
   <v>      -0.05639360      -0.20827619       0.00319102 </v>
   <v>       0.15958297       0.15467928       0.00033835 </v>
   <v>       0.02157605      -0.01881169      -0.00331127 </v>
   <v>      -0.17025114       0.32175803       0.07606497 </v>
   <v>      -0.36101191      -0.01822290      -0.07351192 </v>
   <v>       0.07698748      -0.04484547      -0.00341374 </v>
   <v>       0.20624212      -0.33270201       0.01291679 </v>
   <v>       0.39439658      -0.01393389      -0.02183885 </v>
   <v>      -0.21979142       0.12202225       0.00974580 </v>
   <v>       0.21629865       0.05414043       0.11605415 </v>
   <v>      -0.14180283       0.06645064      -0.10115881 </v>
   <v>      -0.12823895       0.09121768       0.09910292 </v>
   <v>       0.08670311       0.01560048       0.17587846 </v>
   <v>       0.03263681      -0.08496255      -0.17409065 </v>
   <v>       0.06043961      -0.21823527      -0.11365060 </v>
   <v>      -0.08412619       0.12988686       0.00903772 </v>
   <v>      -0.12536333       0.13371702      -0.11705718 </v>
   <v>       0.07616554       0.15112830      -0.22468925 </v>
   <v>      -0.05073827      -0.01173811       0.28660722 </v>
   <v>       0.02697702      -0.09448667       0.02797148 </v>
   <v>       0.16532070      -0.08784495       0.03213738 </v>
   <v>      -0.17539764       0.04621994       0.11385918 </v>
   <v>       0.09312493       0.02617897      -0.02362515 </v>
   <v>      -0.01596774       0.05087476      -0.29198583 </v>
   <v>      -0.15405860       0.00945676      -0.01784920 </v>
   <v>       0.15975623      -0.09829501      -0.02552613 </v>
   <v>      -0.09306615      -0.14097670       0.22880313 </v>
  </varray>
  <varray name="stress" >
   <v>       0.06025325      -0.26431398      -0.29337572 </v>
   <v>      -0.26431409      -0.18553607      -0.49874969 </v>
   <v>      -0.29337580      -0.49874946      -0.37942878 </v>
  </varray>
  <energy>
   <i name="e_fr_energy">   -191.50063268 </i>
   <i name="e_wo_entrp">   -191.39889861 </i>
   <i name="e_0_energy">     -0.20346814 </i>
  </energy>
  <time name="totalsc">  355.83  356.77</time>
 </calculation>
 <calculation>
  <scstep>
   <time name="dav">   21.69   21.74</time>
   <time name="total">   22.20   22.25</time>
   <energy>
    <i name="alphaZ">     90.08383042 </i>
    <i name="ewald">  44611.51512737 </i>
    <i name="hartreedc"> -50621.17259635 </i>
    <i name="XCdc">   -233.42224153 </i>
    <i name="pawpsdc">   4086.27735233 </i>
    <i name="pawaedc">  -3502.27395853 </i>
    <i name="eentropy">     -0.20645403 </i>
    <i name="bandstr">  -1383.80912325 </i>
    <i name="atom">   6761.44252427 </i>
    <i name="e_fr_energy">   -191.56553930 </i>
    <i name="e_wo_entrp">   -191.35908528 </i>
    <i name="e_0_energy">   -191.46231229 </i>
   </energy>
  </scstep>
  <scstep>
   <time name="dav">   31.23   31.30</time>
   <time name="total">   31.74   31.83</time>
   <energy>
    <i name="e_fr_energy">   -191.63064262 </i>
    <i name="e_wo_entrp">   -191.41172505 </i>
    <i name="e_0_energy">   -191.52118383 </i>
   </energy>
  </scstep>
  <scstep>
   <time name="dav">   30.79   30.86</time>
   <time name="total">   31.29   31.37</time>
   <energy>
    <i name="e_fr_energy">   -191.57767157 </i>
    <i name="e_wo_entrp">   -191.37036631 </i>
    <i name="e_0_energy">   -191.47401894 </i>
   </energy>
  </scstep>
  <scstep>
   <time name="dav">   28.76   28.83</time>
   <time name="total">   29.26   29.34</time>
   <energy>
    <i name="e_fr_energy">   -191.57887775 </i>
    <i name="e_wo_entrp">   -191.36765348 </i>
    <i name="e_0_energy">   -191.47326562 </i>
   </energy>
  </scstep>
  <scstep>
   <time name="dav">   28.68   28.75</time>
   <time name="total">   29.18   29.26</time>
   <energy>
    <i name="e_fr_energy">   -191.57607967 </i>
    <i name="e_wo_entrp">   -191.36754483 </i>
    <i name="e_0_energy">   -191.47181225 </i>
   </energy>
  </scstep>
  <scstep>
   <time name="dav">   26.45   26.52</time>
   <time name="total">   26.96   27.03</time>
   <energy>
    <i name="e_fr_energy">   -191.57575915 </i>
    <i name="e_wo_entrp">   -191.36621924 </i>
    <i name="e_0_energy">   -191.47098920 </i>
   </energy>
  </scstep>
  <scstep>
   <time name="dav">   27.40   27.47</time>
   <time name="total">   27.91   27.98</time>
   <energy>
    <i name="e_fr_energy">   -191.57573526 </i>
    <i name="e_wo_entrp">   -191.36648756 </i>
    <i name="e_0_energy">   -191.47111141 </i>
   </energy>
  </scstep>
  <scstep>
   <time name="dav">   23.25   23.31</time>
   <time name="total">   23.76   23.82</time>
   <energy>
    <i name="e_fr_energy">   -191.57551132 </i>
    <i name="e_wo_entrp">   -191.36621341 </i>
    <i name="e_0_energy">   -191.47086237 </i>
   </energy>
  </scstep>
  <scstep>
   <time name="dav">   17.86   17.91</time>
   <time name="total">   17.90   17.95</time>
   <energy>
    <i name="alphaZ">     90.08383042 </i>
    <i name="ewald">  44611.51512737 </i>
    <i name="hartreedc"> -50621.98228608 </i>
    <i name="XCdc">   -233.41098152 </i>
    <i name="pawpsdc">   4084.28087252 </i>
    <i name="pawaedc">  -3500.24372093 </i>
    <i name="eentropy">     -0.20921969 </i>
    <i name="bandstr">  -1383.05167045 </i>
    <i name="atom">   6761.44252427 </i>
    <i name="e_fr_energy">   -191.57552409 </i>
    <i name="e_wo_entrp">   -191.36630440 </i>
    <i name="e_0_energy">   -191.47091425 </i>
   </energy>
  </scstep>
  <structure>
   <crystal>
    <varray name="basis" >
     <v>       8.28266738       4.76592891       0.00000000 </v>
     <v>      -8.29669327       4.79020684       0.00000000 </v>
     <v>       0.00000000       0.00000000      30.00000000 </v>
    </varray>
    <i name="volume">   2376.51420835 </i>
    <varray name="rec_basis" >
     <v>       0.06046932       0.10473356       0.00000000 </v>
     <v>      -0.06016285       0.10455651       0.00000000 </v>
     <v>       0.00000000       0.00000000       0.03333333 </v>
    </varray>
   </crystal>
   <varray name="positions" >
    <v>       0.32613669      -0.00253586       0.00039662 </v>
    <v>       1.00733855       0.33798728      -0.00040115 </v>
    <v>       0.66658372      -0.00366716       0.00000145 </v>
    <v>       0.34560782       0.34837661      -0.00003504 </v>
    <v>      -0.01258986       0.66928620       0.00003233 </v>
    <v>       0.66672071       0.65355708       0.00000326 </v>
    <v>      -0.00216622      -0.01181681      -0.00012279 </v>
    <v>       0.33535807       0.65691225       0.00012888 </v>
    <v>       0.66659485       0.35051972      -0.00000275 </v>
    <v>       0.10870094       0.22349902       0.95013647 </v>
    <v>       0.22438523       0.10898043       0.05064167 </v>
    <v>       0.10879255       0.55120533       0.94936928 </v>
    <v>       0.21638051       0.44143081       0.05256062 </v>
    <v>       0.11676598       0.89168552       0.94745632 </v>
    <v>       0.22447058       0.78137068       0.04983287 </v>
    <v>       0.44327350       0.21761857       0.94883977 </v>
    <v>       0.55385108       0.10852098       0.04813482 </v>
    <v>       0.44593788       0.55761437       0.94575057 </v>
    <v>       0.55576398       0.44410173       0.05547484 </v>
    <v>       0.44588803       0.89269049       0.95075387 </v>
    <v>       0.55782120       0.78163812       0.05103957 </v>
    <v>       0.77933707       0.22125678       0.95188230 </v>
    <v>       0.88729329       0.11339385       0.04924510 </v>
    <v>       0.77742369       0.55498015       0.94449991 </v>
    <v>       0.88987025       0.44089194       0.05114009 </v>
    <v>       0.77537866       0.89045928       0.94896477 </v>
    <v>       0.88729569       0.77825708       0.05427625 </v>
   </varray>
  </structure>
  <varray name="forces" >
   <v>      -0.04615513      -0.22358050       0.02100998 </v>
   <v>       0.17813071       0.15082735      -0.01960301 </v>
   <v>       0.00010752      -0.00577846      -0.00087381 </v>
   <v>      -0.20127157       0.33821349       0.02591109 </v>
   <v>      -0.39563405       0.00505195      -0.02776209 </v>
   <v>       0.08864517      -0.05185786       0.00170431 </v>
   <v>       0.21848325      -0.37387456       0.02778440 </v>
   <v>       0.43422250      -0.00135195      -0.02363176 </v>
   <v>      -0.24867401       0.13958761      -0.00546834 </v>
   <v>       0.16970080       0.01959061       0.14779666 </v>
   <v>      -0.10061232       0.03884359      -0.13592472 </v>
   <v>      -0.08348880       0.06902228       0.13430607 </v>
   <v>       0.04702688       0.01906844       0.16119953 </v>
   <v>       0.01255269      -0.05043066      -0.15823910 </v>
   <v>       0.06642698      -0.15637989      -0.14979448 </v>
   <v>      -0.08092809       0.06638640       0.05624850 </v>
   <v>      -0.08330442       0.06493538      -0.13531650 </v>
   <v>       0.06315402       0.10273208      -0.18847934 </v>
   <v>      -0.03386297       0.00440962       0.18286117 </v>
   <v>       0.02010362      -0.06615251       0.04815107 </v>
   <v>       0.09369124      -0.04307729       0.04383787 </v>
   <v>      -0.09571175       0.04100654       0.13695808 </v>
   <v>       0.06548568       0.01586978      -0.04794284 </v>
   <v>      -0.01642934       0.02236019      -0.17890916 </v>
   <v>      -0.09703913       0.03896587      -0.05707656 </v>
   <v>       0.08514863      -0.06056051      -0.04339169 </v>
   <v>      -0.05976808      -0.10382698       0.18464468 </v>
  </varray>
  <varray name="stress" >
   <v>       0.12062796      -0.03820846      -0.18958121 </v>
   <v>      -0.03820849       0.06187374      -0.28574872 </v>
   <v>      -0.18958128      -0.28574870      -1.02622824 </v>
  </varray>
  <energy>
   <i name="e_fr_energy">   -191.57552409 </i>
   <i name="e_wo_entrp">   -191.47091425 </i>
   <i name="e_0_energy">     -0.20921969 </i>
  </energy>
  <time name="totalsc">  282.29  283.03</time>
 </calculation>
 <calculation>
  <scstep>
   <time name="dav">   21.63   21.68</time>
   <time name="total">   22.14   22.19</time>
   <energy>
    <i name="alphaZ">     90.00553117 </i>
    <i name="ewald">  44570.89296707 </i>
    <i name="hartreedc"> -50580.54658836 </i>
    <i name="XCdc">   -233.49014219 </i>
    <i name="pawpsdc">   4084.28855913 </i>
    <i name="pawaedc">  -3500.25164389 </i>
    <i name="eentropy">     -0.20859096 </i>
    <i name="bandstr">  -1383.78477828 </i>
    <i name="atom">   6761.44252427 </i>
    <i name="e_fr_energy">   -191.65216203 </i>
    <i name="e_wo_entrp">   -191.44357107 </i>
    <i name="e_0_energy">   -191.54786655 </i>
   </energy>
  </scstep>
  <scstep>
   <time name="dav">   32.40   32.48</time>
   <time name="total">   32.90   32.99</time>
   <energy>
    <i name="e_fr_energy">   -191.76106039 </i>
    <i name="e_wo_entrp">   -191.52775377 </i>
    <i name="e_0_energy">   -191.64440708 </i>
   </energy>
  </scstep>
  <scstep>
   <time name="dav">   30.16   30.23</time>
   <time name="total">   30.66   30.74</time>
   <energy>
    <i name="e_fr_energy">   -191.66437575 </i>
    <i name="e_wo_entrp">   -191.45406610 </i>
    <i name="e_0_energy">   -191.55922092 </i>
   </energy>
  </scstep>
  <scstep>
   <time name="dav">   28.38   28.45</time>
   <time name="total">   28.89   28.96</time>
   <energy>
    <i name="e_fr_energy">   -191.66919332 </i>
    <i name="e_wo_entrp">   -191.45184373 </i>
    <i name="e_0_energy">   -191.56051852 </i>
   </energy>
  </scstep>
  <scstep>
   <time name="dav">   28.65   28.72</time>
   <time name="total">   29.15   29.23</time>
   <energy>
    <i name="e_fr_energy">   -191.66089229 </i>
    <i name="e_wo_entrp">   -191.44772618 </i>
    <i name="e_0_energy">   -191.55430924 </i>
   </energy>
  </scstep>
  <scstep>
   <time name="dav">   25.54   25.60</time>
   <time name="total">   26.05   26.11</time>
   <energy>
    <i name="e_fr_energy">   -191.66056353 </i>
    <i name="e_wo_entrp">   -191.44637309 </i>
    <i name="e_0_energy">   -191.55346831 </i>
   </energy>
  </scstep>
  <scstep>
   <time name="dav">   26.03   26.09</time>
   <time name="total">   26.53   26.60</time>
   <energy>
    <i name="e_fr_energy">   -191.66025875 </i>
    <i name="e_wo_entrp">   -191.44632185 </i>
    <i name="e_0_energy">   -191.55329030 </i>
   </energy>
  </scstep>
  <scstep>
   <time name="dav">   19.57   19.62</time>
   <time name="total">   19.61   19.66</time>
   <energy>
    <i name="alphaZ">     90.00553117 </i>
    <i name="ewald">  44570.89296707 </i>
    <i name="hartreedc"> -50581.89375049 </i>
    <i name="XCdc">   -233.43271504 </i>
    <i name="pawpsdc">   4085.38471543 </i>
    <i name="pawaedc">  -3501.36230189 </i>
    <i name="eentropy">     -0.21387508 </i>
    <i name="bandstr">  -1382.48337367 </i>
    <i name="atom">   6761.44252427 </i>
    <i name="e_fr_energy">   -191.66027823 </i>
    <i name="e_wo_entrp">   -191.44640315 </i>
    <i name="e_0_energy">   -191.55334069 </i>
   </energy>
  </scstep>
  <structure>
   <crystal>
    <varray name="basis" >
     <v>       8.28648875       4.76658026       0.00000000 </v>
     <v>      -8.30164459       4.79281398       0.00000000 </v>
     <v>       0.00000000       0.00000000      30.00000000 </v>
    </varray>
    <i name="volume">   2378.58162875 </i>
    <varray name="rec_basis" >
     <v>       0.06044965       0.10470498       0.00000000 </v>
     <v>      -0.06011877       0.10451382       0.00000000 </v>
     <v>       0.00000000       0.00000000       0.03333333 </v>
    </varray>
   </crystal>
   <varray name="positions" >
    <v>       0.32453262      -0.00380917       0.00043785 </v>
    <v>       1.00896482       0.33828348      -0.00043948 </v>
    <v>       0.66654683      -0.00369036      -0.00000033 </v>
    <v>       0.34700370       0.35127175       0.00001880 </v>
    <v>      -0.01399352       0.67079341      -0.00002540 </v>
    <v>       0.66671618       0.65294515       0.00000687 </v>
    <v>      -0.00377700      -0.01502668      -0.00006400 </v>
    <v>       0.33698025       0.65531531       0.00007889 </v>
    <v>       0.66656890       0.35229177      -0.00001433 </v>
    <v>       0.10946119       0.22298673       0.95045675 </v>
    <v>       0.22425226       0.10960297       0.05034268 </v>
[...]
      <set comment="kpoint 31">
       <r>  -17.4475    1.0000 </r>
       <r>  -17.2448    1.0000 </r>
       <r>  -16.9101    1.0000 </r>
       <r>  -16.5580    1.0000 </r>
       <r>  -16.4821    1.0000 </r>
       <r>  -16.3685    1.0000 </r>
       <r>  -16.2266    1.0000 </r>
       <r>  -16.1453    1.0000 </r>
       <r>  -16.0383    1.0000 </r>
       <r>  -15.9728    1.0000 </r>
       <r>  -15.9478    1.0000 </r>
       <r>  -15.8931    1.0000 </r>
       <r>  -15.8009    1.0000 </r>
       <r>  -15.7660    1.0000 </r>
       <r>  -15.6803    1.0000 </r>
       <r>  -15.5794    1.0000 </r>
       <r>  -15.5415    1.0000 </r>
       <r>  -15.3952    1.0000 </r>
       <r>   -9.6358    1.0000 </r>
       <r>   -9.3632    1.0000 </r>
       <r>   -9.2784    1.0000 </r>
       <r>   -8.8899    1.0000 </r>
       <r>   -8.8295    1.0000 </r>
       <r>   -8.7049    1.0000 </r>
       <r>   -8.4948    1.0000 </r>
       <r>   -8.4825    1.0000 </r>
       <r>   -8.4166    1.0000 </r>
       <r>   -8.3191    1.0000 </r>
       <r>   -8.2808    1.0000 </r>
       <r>   -8.2184    1.0000 </r>
       <r>   -8.1580    1.0000 </r>
       <r>   -8.0681    1.0000 </r>
       <r>   -8.0035    1.0000 </r>
       <r>   -7.9192    1.0000 </r>
       <r>   -7.8271    1.0000 </r>
       <r>   -7.6515    1.0000 </r>
       <r>   -7.5940    1.0000 </r>
       <r>   -7.4075    1.0000 </r>
       <r>   -7.2644    1.0000 </r>
       <r>   -7.1665    1.0000 </r>
       <r>   -7.1366    1.0000 </r>
       <r>   -7.0877    1.0000 </r>
       <r>   -6.9932    1.0000 </r>
       <r>   -6.9375    1.0000 </r>
       <r>   -6.8919    1.0000 </r>
       <r>   -6.8112    1.0000 </r>
       <r>   -6.7183    1.0000 </r>
       <r>   -6.6433    1.0000 </r>
       <r>   -6.6121    1.0000 </r>
       <r>   -6.5512    1.0000 </r>
       <r>   -6.4518    1.0000 </r>
       <r>   -6.3643    1.0000 </r>
       <r>   -6.2641    1.0000 </r>
       <r>   -6.1884    1.0000 </r>
       <r>   -6.1671    1.0000 </r>
       <r>   -6.1146    1.0000 </r>
       <r>   -6.0319    1.0000 </r>
       <r>   -5.9263    1.0000 </r>
       <r>   -5.8706    1.0000 </r>
       <r>   -5.7942    1.0000 </r>
       <r>   -5.7213    1.0000 </r>
       <r>   -5.6322    1.0000 </r>
       <r>   -5.5018    1.0000 </r>
       <r>   -5.4442    1.0000 </r>
       <r>   -5.2486    1.0000 </r>
       <r>   -5.1277    1.0000 </r>
       <r>   -5.0316    1.0000 </r>
       <r>   -4.9103    1.0000 </r>
       <r>   -4.8084    1.0000 </r>
       <r>   -4.6982    1.0000 </r>
       <r>   -4.6278    1.0000 </r>
       <r>   -4.5567    1.0000 </r>
       <r>   -4.4714    1.0000 </r>
       <r>   -4.3616    1.0000 </r>
       <r>   -4.2532    1.0000 </r>
       <r>   -4.0803    1.0000 </r>
       <r>   -3.8713    0.9995 </r>
       <r>   -3.7369    0.9902 </r>
       <r>   -3.6724    0.9698 </r>
       <r>   -3.4159    0.5258 </r>
       <r>   -3.0664    0.0080 </r>
       <r>   -2.7628    0.0000 </r>
       <r>   -2.6982    0.0000 </r>
       <r>   -2.6075    0.0000 </r>
       <r>   -2.4557    0.0000 </r>
       <r>   -2.3978    0.0000 </r>
       <r>   -2.3214    0.0000 </r>
       <r>   -2.2496    0.0000 </r>
       <r>   -2.0893    0.0000 </r>
       <r>   -1.9867    0.0000 </r>
       <r>   -1.8468    0.0000 </r>
       <r>   -1.7316    0.0000 </r>
       <r>   -1.5116    0.0000 </r>
       <r>   -1.3321    0.0000 </r>
       <r>   -1.2849    0.0000 </r>
       <r>   -1.1710    0.0000 </r>
       <r>   -1.1324    0.0000 </r>
       <r>   -1.0167    0.0000 </r>
       <r>   -0.9538    0.0000 </r>
       <r>   -0.9194    0.0000 </r>
       <r>   -0.8277    0.0000 </r>
       <r>   -0.7215    0.0000 </r>
       <r>   -0.6920    0.0000 </r>
       <r>   -0.6136    0.0000 </r>
       <r>   -0.5612    0.0000 </r>
       <r>   -0.4549    0.0000 </r>
       <r>   -0.3658    0.0000 </r>
       <r>   -0.3050    0.0000 </r>
       <r>   -0.1077    0.0000 </r>
       <r>    0.1377    0.0000 </r>
       <r>    0.2605    0.0000 </r>
       <r>    0.6011    0.0000 </r>
       <r>    0.7838    0.0000 </r>
       <r>    0.9007    0.0000 </r>
       <r>    1.0447    0.0000 </r>
       <r>    1.1738    0.0000 </r>
       <r>    1.2750    0.0000 </r>
       <r>    2.1060    0.0000 </r>
       <r>    2.2651    0.0000 </r>
       <r>    2.3625    0.0000 </r>
      </set>
      <set comment="kpoint 32">
       <r>  -17.4690    1.0000 </r>
       <r>  -17.1035    1.0000 </r>
       <r>  -17.0831    1.0000 </r>
       <r>  -16.5541    1.0000 </r>
       <r>  -16.4032    1.0000 </r>
       <r>  -16.3415    1.0000 </r>
       <r>  -16.2270    1.0000 </r>
       <r>  -16.1697    1.0000 </r>
       <r>  -16.0413    1.0000 </r>
       <r>  -15.9877    1.0000 </r>
       <r>  -15.9380    1.0000 </r>
       <r>  -15.9232    1.0000 </r>
       <r>  -15.7803    1.0000 </r>
       <r>  -15.7468    1.0000 </r>
       <r>  -15.7423    1.0000 </r>
       <r>  -15.5634    1.0000 </r>
       <r>  -15.5555    1.0000 </r>
       <r>  -15.3680    1.0000 </r>
       <r>   -9.5293    1.0000 </r>
       <r>   -9.4948    1.0000 </r>
       <r>   -9.3775    1.0000 </r>
       <r>   -8.8652    1.0000 </r>
       <r>   -8.7246    1.0000 </r>
       <r>   -8.5197    1.0000 </r>
       <r>   -8.4886    1.0000 </r>
       <r>   -8.4678    1.0000 </r>
       <r>   -8.4172    1.0000 </r>
       <r>   -8.3443    1.0000 </r>
       <r>   -8.3110    1.0000 </r>
       <r>   -8.2721    1.0000 </r>
       <r>   -8.1387    1.0000 </r>
       <r>   -8.1323    1.0000 </r>
       <r>   -8.0335    1.0000 </r>
       <r>   -7.9494    1.0000 </r>
       <r>   -7.9076    1.0000 </r>
       <r>   -7.6004    1.0000 </r>
       <r>   -7.5183    1.0000 </r>
       <r>   -7.4878    1.0000 </r>
       <r>   -7.2942    1.0000 </r>
       <r>   -7.1655    1.0000 </r>
       <r>   -7.0915    1.0000 </r>
       <r>   -7.0437    1.0000 </r>
       <r>   -6.9924    1.0000 </r>
       <r>   -6.9768    1.0000 </r>
       <r>   -6.9184    1.0000 </r>
       <r>   -6.8698    1.0000 </r>
       <r>   -6.7253    1.0000 </r>
       <r>   -6.6505    1.0000 </r>
       <r>   -6.5505    1.0000 </r>
       <r>   -6.5323    1.0000 </r>
       <r>   -6.4410    1.0000 </r>
       <r>   -6.3712    1.0000 </r>
       <r>   -6.2546    1.0000 </r>
       <r>   -6.2540    1.0000 </r>
       <r>   -6.1548    1.0000 </r>
       <r>   -6.1125    1.0000 </r>
       <r>   -5.9767    1.0000 </r>
       <r>   -5.9580    1.0000 </r>
       <r>   -5.8416    1.0000 </r>
       <r>   -5.7353    1.0000 </r>
       <r>   -5.7196    1.0000 </r>
       <r>   -5.5253    1.0000 </r>
       <r>   -5.4697    1.0000 </r>
       <r>   -5.3573    1.0000 </r>
       <r>   -5.2822    1.0000 </r>
       <r>   -5.2240    1.0000 </r>
       <r>   -5.2177    1.0000 </r>
       <r>   -4.8860    1.0000 </r>
       <r>   -4.8319    1.0000 </r>
       <r>   -4.6615    1.0000 </r>
       <r>   -4.6158    1.0000 </r>
       <r>   -4.5429    1.0000 </r>
       <r>   -4.5393    1.0000 </r>
       <r>   -4.3551    1.0000 </r>
       <r>   -4.2474    1.0000 </r>
       <r>   -4.0821    1.0000 </r>
       <r>   -3.8721    0.9995 </r>
       <r>   -3.7031    0.9819 </r>
       <r>   -3.6731    0.9701 </r>
       <r>   -3.4038    0.4916 </r>
       <r>   -3.0505    0.0059 </r>
       <r>   -2.7656    0.0000 </r>
       <r>   -2.6985    0.0000 </r>
       <r>   -2.6177    0.0000 </r>
       <r>   -2.4312    0.0000 </r>
       <r>   -2.4249    0.0000 </r>
       <r>   -2.3081    0.0000 </r>
       <r>   -2.2535    0.0000 </r>
       <r>   -2.1064    0.0000 </r>
       <r>   -2.0023    0.0000 </r>
       <r>   -1.8186    0.0000 </r>
       <r>   -1.7632    0.0000 </r>
       <r>   -1.4881    0.0000 </r>
       <r>   -1.3468    0.0000 </r>
       <r>   -1.3112    0.0000 </r>
       <r>   -1.1697    0.0000 </r>
       <r>   -1.0986    0.0000 </r>
       <r>   -1.0147    0.0000 </r>
       <r>   -0.9683    0.0000 </r>
       <r>   -0.8911    0.0000 </r>
       <r>   -0.8104    0.0000 </r>
       <r>   -0.7190    0.0000 </r>
       <r>   -0.6532    0.0000 </r>
       <r>   -0.6013    0.0000 </r>
       <r>   -0.5874    0.0000 </r>
       <r>   -0.5175    0.0000 </r>
       <r>   -0.3876    0.0000 </r>
       <r>   -0.3041    0.0000 </r>
       <r>   -0.0779    0.0000 </r>
       <r>    0.1656    0.0000 </r>
       <r>    0.2544    0.0000 </r>
       <r>    0.6240    0.0000 </r>
       <r>    0.7638    0.0000 </r>
       <r>    0.8952    0.0000 </r>
       <r>    1.1005    0.0000 </r>
       <r>    1.1089    0.0000 </r>
       <r>    1.2359    0.0000 </r>
       <r>    2.0745    0.0000 </r>
       <r>    2.2333    0.0000 </r>
       <r>    2.5210    0.0000 </r>
      </set>
      <set comment="kpoint 33">
       <r>  -17.4473    1.0000 </r>
       <r>  -17.2450    1.0000 </r>
       <r>  -16.9102    1.0000 </r>
       <r>  -16.5580    1.0000 </r>
       <r>  -16.4822    1.0000 </r>
       <r>  -16.3682    1.0000 </r>
       <r>  -16.2260    1.0000 </r>
       <r>  -16.1454    1.0000 </r>
       <r>  -16.0387    1.0000 </r>
       <r>  -15.9730    1.0000 </r>
       <r>  -15.9481    1.0000 </r>
       <r>  -15.8928    1.0000 </r>
       <r>  -15.8017    1.0000 </r>
       <r>  -15.7655    1.0000 </r>
       <r>  -15.6800    1.0000 </r>
       <r>  -15.5787    1.0000 </r>
       <r>  -15.5422    1.0000 </r>
       <r>  -15.3951    1.0000 </r>
       <r>   -9.6359    1.0000 </r>
       <r>   -9.3635    1.0000 </r>
       <r>   -9.2783    1.0000 </r>
       <r>   -8.8900    1.0000 </r>
       <r>   -8.8298    1.0000 </r>
       <r>   -8.7054    1.0000 </r>
       <r>   -8.4944    1.0000 </r>
       <r>   -8.4820    1.0000 </r>
       <r>   -8.4167    1.0000 </r>
       <r>   -8.3187    1.0000 </r>
       <r>   -8.2807    1.0000 </r>
       <r>   -8.2186    1.0000 </r>
       <r>   -8.1574    1.0000 </r>
       <r>   -8.0683    1.0000 </r>
       <r>   -8.0038    1.0000 </r>
       <r>   -7.9192    1.0000 </r>
       <r>   -7.8273    1.0000 </r>
       <r>   -7.6511    1.0000 </r>
       <r>   -7.5941    1.0000 </r>
       <r>   -7.4080    1.0000 </r>
       <r>   -7.2643    1.0000 </r>
       <r>   -7.1672    1.0000 </r>
       <r>   -7.1372    1.0000 </r>
       <r>   -7.0883    1.0000 </r>
       <r>   -6.9926    1.0000 </r>
       <r>   -6.9375    1.0000 </r>
       <r>   -6.8922    1.0000 </r>
       <r>   -6.8093    1.0000 </r>
       <r>   -6.7176    1.0000 </r>
       <r>   -6.6438    1.0000 </r>
       <r>   -6.6116    1.0000 </r>
       <r>   -6.5517    1.0000 </r>
       <r>   -6.4517    1.0000 </r>
       <r>   -6.3639    1.0000 </r>
       <r>   -6.2640    1.0000 </r>
       <r>   -6.1891    1.0000 </r>
       <r>   -6.1680    1.0000 </r>
       <r>   -6.1150    1.0000 </r>
       <r>   -6.0310    1.0000 </r>
       <r>   -5.9270    1.0000 </r>
       <r>   -5.8712    1.0000 </r>
       <r>   -5.7941    1.0000 </r>
       <r>   -5.7207    1.0000 </r>
       <r>   -5.6322    1.0000 </r>
       <r>   -5.5025    1.0000 </r>
       <r>   -5.4451    1.0000 </r>
       <r>   -5.2485    1.0000 </r>
       <r>   -5.1276    1.0000 </r>
       <r>   -5.0311    1.0000 </r>
       <r>   -4.9091    1.0000 </r>
       <r>   -4.8085    1.0000 </r>
       <r>   -4.6970    1.0000 </r>
       <r>   -4.6295    1.0000 </r>
       <r>   -4.5564    1.0000 </r>
       <r>   -4.4706    1.0000 </r>
       <r>   -4.3609    1.0000 </r>
       <r>   -4.2546    1.0000 </r>
       <r>   -4.0804    1.0000 </r>
       <r>   -3.8721    0.9995 </r>
       <r>   -3.7356    0.9900 </r>
       <r>   -3.6727    0.9700 </r>
       <r>   -3.4184    0.5328 </r>
       <r>   -3.0682    0.0083 </r>
       <r>   -2.7621    0.0000 </r>
       <r>   -2.6969    0.0000 </r>
       <r>   -2.6079    0.0000 </r>
       <r>   -2.4534    0.0000 </r>
       <r>   -2.3987    0.0000 </r>
       <r>   -2.3213    0.0000 </r>
       <r>   -2.2489    0.0000 </r>
       <r>   -2.0890    0.0000 </r>
       <r>   -1.9864    0.0000 </r>
       <r>   -1.8448    0.0000 </r>
       <r>   -1.7330    0.0000 </r>
       <r>   -1.5119    0.0000 </r>
       <r>   -1.3324    0.0000 </r>
       <r>   -1.2859    0.0000 </r>
       <r>   -1.1718    0.0000 </r>
       <r>   -1.1327    0.0000 </r>
       <r>   -1.0160    0.0000 </r>
       <r>   -0.9535    0.0000 </r>
       <r>   -0.9203    0.0000 </r>
       <r>   -0.8275    0.0000 </r>
       <r>   -0.7219    0.0000 </r>
       <r>   -0.6929    0.0000 </r>
       <r>   -0.6136    0.0000 </r>
       <r>   -0.5616    0.0000 </r>
       <r>   -0.4545    0.0000 </r>
       <r>   -0.3639    0.0000 </r>
       <r>   -0.3049    0.0000 </r>
       <r>   -0.1065    0.0000 </r>
       <r>    0.1381    0.0000 </r>
       <r>    0.2611    0.0000 </r>
       <r>    0.6011    0.0000 </r>
       <r>    0.7839    0.0000 </r>
       <r>    0.8999    0.0000 </r>
       <r>    1.0442    0.0000 </r>
       <r>    1.1732    0.0000 </r>
       <r>    1.2739    0.0000 </r>
       <r>    2.1060    0.0000 </r>
       <r>    2.2652    0.0000 </r>
       <r>    2.3626    0.0000 </r>
      </set>
      <set comment="kpoint 34">
       <r>  -17.4062    1.0000 </r>
       <r>  -17.3301    1.0000 </r>
       <r>  -16.7544    1.0000 </r>
       <r>  -16.6434    1.0000 </r>
       <r>  -16.5422    1.0000 </r>
       <r>  -16.3762    1.0000 </r>
       <r>  -16.2142    1.0000 </r>
       <r>  -16.1481    1.0000 </r>
       <r>  -16.0329    1.0000 </r>
       <r>  -15.9649    1.0000 </r>
       <r>  -15.9459    1.0000 </r>
       <r>  -15.8710    1.0000 </r>
       <r>  -15.8172    1.0000 </r>
       <r>  -15.7680    1.0000 </r>
       <r>  -15.6284    1.0000 </r>
       <r>  -15.5899    1.0000 </r>
       <r>  -15.5336    1.0000 </r>
       <r>  -15.4321    1.0000 </r>
       <r>   -9.6790    1.0000 </r>
       <r>   -9.2665    1.0000 </r>
       <r>   -9.1033    1.0000 </r>
       <r>   -9.0017    1.0000 </r>
       <r>   -8.9710    1.0000 </r>
       <r>   -8.7867    1.0000 </r>
       <r>   -8.5391    1.0000 </r>
       <r>   -8.4849    1.0000 </r>
       <r>   -8.4314    1.0000 </r>
       <r>   -8.3125    1.0000 </r>
       <r>   -8.2248    1.0000 </r>
       <r>   -8.1954    1.0000 </r>
       <r>   -8.1058    1.0000 </r>
       <r>   -8.0713    1.0000 </r>
       <r>   -8.0047    1.0000 </r>
       <r>   -7.9066    1.0000 </r>
       <r>   -7.7911    1.0000 </r>
       <r>   -7.6657    1.0000 </r>
       <r>   -7.4779    1.0000 </r>
       <r>   -7.4363    1.0000 </r>
       <r>   -7.3110    1.0000 </r>
       <r>   -7.2250    1.0000 </r>
       <r>   -7.1326    1.0000 </r>
       <r>   -7.0823    1.0000 </r>
       <r>   -6.9976    1.0000 </r>
       <r>   -6.9148    1.0000 </r>
       <r>   -6.8418    1.0000 </r>
       <r>   -6.7932    1.0000 </r>
       <r>   -6.7095    1.0000 </r>
       <r>   -6.6268    1.0000 </r>
       <r>   -6.5824    1.0000 </r>
       <r>   -6.5569    1.0000 </r>
       <r>   -6.4884    1.0000 </r>
       <r>   -6.4223    1.0000 </r>
       <r>   -6.2404    1.0000 </r>
       <r>   -6.2169    1.0000 </r>
       <r>   -6.1720    1.0000 </r>
       <r>   -6.1122    1.0000 </r>
       <r>   -6.0185    1.0000 </r>
       <r>   -5.9805    1.0000 </r>
       <r>   -5.8627    1.0000 </r>
       <r>   -5.8061    1.0000 </r>
       <r>   -5.7629    1.0000 </r>
       <r>   -5.6274    1.0000 </r>
       <r>   -5.5822    1.0000 </r>
       <r>   -5.4501    1.0000 </r>
       <r>   -5.2976    1.0000 </r>
       <r>   -4.9731    1.0000 </r>
       <r>   -4.9549    1.0000 </r>
       <r>   -4.8891    1.0000 </r>
       <r>   -4.7879    1.0000 </r>
       <r>   -4.7340    1.0000 </r>
       <r>   -4.6336    1.0000 </r>
       <r>   -4.6001    1.0000 </r>
       <r>   -4.4375    1.0000 </r>
       <r>   -4.3287    1.0000 </r>
       <r>   -4.2730    1.0000 </r>
       <r>   -4.0762    1.0000 </r>
       <r>   -3.8718    0.9995 </r>
       <r>   -3.7587    0.9936 </r>
       <r>   -3.6936    0.9787 </r>
       <r>   -3.4258    0.5535 </r>
       <r>   -3.0844    0.0113 </r>
       <r>   -2.7604    0.0000 </r>
       <r>   -2.6950    0.0000 </r>
       <r>   -2.5983    0.0000 </r>
       <r>   -2.4578    0.0000 </r>
       <r>   -2.3933    0.0000 </r>
       <r>   -2.3326    0.0000 </r>
       <r>   -2.2423    0.0000 </r>
       <r>   -2.0702    0.0000 </r>
       <r>   -1.9717    0.0000 </r>
       <r>   -1.8684    0.0000 </r>
       <r>   -1.7050    0.0000 </r>
       <r>   -1.5352    0.0000 </r>
       <r>   -1.2984    0.0000 </r>
       <r>   -1.2642    0.0000 </r>
       <r>   -1.2144    0.0000 </r>
       <r>   -1.1407    0.0000 </r>
       <r>   -1.0124    0.0000 </r>
       <r>   -0.9676    0.0000 </r>
       <r>   -0.9232    0.0000 </r>
       <r>   -0.8425    0.0000 </r>
       <r>   -0.7509    0.0000 </r>
       <r>   -0.7088    0.0000 </r>
       <r>   -0.6003    0.0000 </r>
       <r>   -0.5317    0.0000 </r>
       <r>   -0.4263    0.0000 </r>
       <r>   -0.3374    0.0000 </r>
       <r>   -0.3148    0.0000 </r>
       <r>   -0.1241    0.0000 </r>
       <r>    0.1118    0.0000 </r>
       <r>    0.2593    0.0000 </r>
       <r>    0.5830    0.0000 </r>
       <r>    0.8040    0.0000 </r>
       <r>    0.8980    0.0000 </r>
       <r>    1.0308    0.0000 </r>
       <r>    1.2004    0.0000 </r>
       <r>    1.3103    0.0000 </r>
       <r>    2.1953    0.0000 </r>
       <r>    2.2078    0.0000 </r>
       <r>    2.3439    0.0000 </r>
      </set>
     </set>
    </set>
   </array>
  </eigenvalues>
  <separator name="orbital magnetization" >
   <v name="MAGDIPOLOUT">      0.00000000      0.00000000      0.00000000</v>
  </separator>
 </calculation>
 <structure name="finalpos" >
  <crystal>
   <varray name="basis" >
    <v>       8.41140243       4.79981516       0.00000000 </v>
    <v>      -8.46054339       4.88491966       0.00000000 </v>
    <v>       0.00000000       0.00000000      30.00000000 </v>
   </varray>
   <i name="volume">   2450.94208499 </i>
   <varray name="rec_basis" >
    <v>       0.05979235       0.10355867       0.00000000 </v>
    <v>      -0.05875066       0.10295717       0.00000000 </v>
    <v>       0.00000000       0.00000000       0.03333333 </v>
   </varray>
  </crystal>
  <varray name="positions" >
   <v>       0.30580304      -0.03852525      -0.00166027 </v>
   <v>       1.02749166       0.32214955       0.00170383 </v>
   <v>       0.66640749       0.03661086      -0.00004169 </v>
   <v>       0.35088226       0.36665080       0.00044133 </v>
   <v>      -0.01773774       0.68231972      -0.00045173 </v>
   <v>       0.66665413       0.64761488       0.00000736 </v>
   <v>      -0.01160960      -0.03267063      -0.00049032 </v>
   <v>       0.34493838       0.64559589       0.00050837 </v>
   <v>       0.66651104       0.36328491      -0.00000394 </v>
   <v>       0.11720047       0.21861374       0.95069395 </v>
   <v>       0.22615930       0.10982992       0.04359502 </v>
   <v>       0.10702115       0.55016569       0.95646067 </v>
   <v>       0.22224589       0.44209263       0.05571127 </v>
   <v>       0.11093358       0.88640123       0.94431309 </v>
   <v>       0.21601101       0.76801560       0.04928409 </v>
   <v>       0.44193999       0.21660908       0.95318984 </v>
   <v>       0.54355395       0.11244958       0.04759625 </v>
   <v>       0.45415771       0.56243293       0.94364323 </v>
   <v>       0.55435739       0.44712382       0.05680399 </v>
   <v>       0.44666781       0.88905718       0.95154244 </v>
   <v>       0.56178946       0.78884404       0.04779490 </v>
   <v>       0.78971613       0.23553546       0.95242038 </v>
   <v>       0.88637990       0.10894568       0.04842809 </v>
   <v>       0.77886925       0.55936727       0.94318522 </v>
   <v>       0.89126266       0.44113461       0.04674970 </v>
   <v>       0.77146775       0.89366665       0.95221201 </v>
   <v>       0.87914040       0.77489862       0.05636282 </v>
  </varray>
 </structure>
</modeling>
