unknown system                          
           1
     8.855296    5.104992    0.000000
    -8.855398    5.105169    0.000000
     0.000000    0.000000   30.000000
   V    Mo   W    S 
   3   3   3  18
Direct configuration=     1
   0.66666669  0.00000000  0.00000000
   1.00000000  0.33333334  0.00000000
   0.66666669  0.66666669  0.00000000
   0.33333334  0.66666669  0.00000000
   0.00000000  0.00000000  0.00000000
   0.66666669  0.33333334  0.00000000
   0.00000000  0.66666669  0.00000000
   0.33333334  0.00000000  0.00000000
   0.33333334  0.33333334  0.00000000
   0.11068511  0.22244981  0.95539999
   0.22244981  0.11068511  0.04460000
   0.11068511  0.55578315  0.95539999
   0.22244981  0.44401845  0.04460000
   0.11068511  0.88911647  0.95539999
   0.22244981  0.77735180  0.04460000
   0.44401845  0.22244981  0.95539999
   0.55578315  0.11068511  0.04460000
   0.44401845  0.55578315  0.95539999
   0.55578315  0.44401845  0.04460000
   0.44401845  0.88911647  0.95539999
   0.55578315  0.77735180  0.04460000
   0.77735180  0.22244981  0.95539999
   0.88911647  0.11068511  0.04460000
   0.77735180  0.55578315  0.95539999
   0.88911647  0.44401845  0.04460000
   0.77735180  0.88911647  0.95539999
   0.88911647  0.77735180  0.04460000
unknown system                          
           1
     8.666966    4.998684    0.000000
    -8.667147    4.998997    0.000000
     0.000000    0.000000   30.000000
   V    Mo   W    S 
   3   3   3  18
Direct configuration=     2
   0.66720776  0.00001503 -0.00000676
   0.99951645  0.33283618 -0.00016830
   0.66658505  0.66711224  0.00017221
   0.33350737  0.66679960  0.00006114
  -0.00020284  0.00004582  0.00001477
   0.66669530  0.33315710 -0.00007595
  -0.00028824  0.66635245 -0.00021057
   0.33358389 -0.00012743 -0.00000585
   0.33332293  0.33371979  0.00021978
   0.10940781  0.22504129  0.95197981
   0.22304942  0.11158576  0.04928707
   0.10823806  0.55132419  0.95189324
   0.21817199  0.44167372  0.04805045
   0.11146533  0.88828914  0.95072134
   0.22183217  0.77825024  0.04925105
   0.44354862  0.22154024  0.95074285
   0.55685823  0.10812818  0.04800397
   0.44836181  0.55675439  0.95194995
   0.55669899  0.44843580  0.04809886
   0.44833670  0.89144766  0.95192235
   0.55991059  0.77955313  0.04690733
   0.77994899  0.22004788  0.95303364
   0.88661129  0.11313998  0.04694895
   0.77635913  0.55836729  0.95202573
   0.89164030  0.44287138  0.04798131
   0.77328162  0.88684403  0.95311766
   0.88456575  0.77500935  0.04808386
unknown system                          
           1
     8.484328    4.898298    0.000000
    -8.484010    4.897747    0.000000
     0.000000    0.000000   30.000000
   V    Mo   W    S 
   3   3   3  18
Direct configuration=     3
   0.66725520  0.00001974 -0.00000750
   0.99947324  0.33281971 -0.00018679
   0.66655217  0.66712684  0.00019213
   0.33330049  0.66684897  0.00006429
   0.00025562  0.00004476  0.00001571
   0.66643952  0.33309938 -0.00008016
  -0.00008534  0.66652025 -0.00023146
   0.33340593 -0.00014151 -0.00000657
   0.33335599  0.33356963  0.00024037
   0.10959318  0.22522394  0.95198021
   0.22333420  0.11171380  0.04931268
   0.10801059  0.55130394  0.95188475
   0.21815150  0.44145761  0.04803721
   0.11158011  0.88815238  0.95069170
   0.22169171  0.77835946  0.04925484
   0.44326808  0.22143529  0.95074539
   0.55669710  0.10796175  0.04799707
   0.44837779  0.55660665  0.95198746
   0.55654304  0.44846502  0.04811060
   0.44836209  0.89164424  0.95193925
   0.56001117  0.77963248  0.04689140
   0.77999689  0.21999866  0.95305802
   0.88655174  0.11316671  0.04690252
   0.77655086  0.55855652  0.95203071
   0.89180227  0.44305384  0.04795040
   0.77319507  0.88678936  0.95315598
   0.88454423  0.77478504  0.04806966
unknown system                          
           1
     8.265910    4.772390    0.000000
    -8.264997    4.770807    0.000000
     0.000000    0.000000   30.000000
   V    Mo   W    S 
   3   3   3  18
Direct configuration=     4
   0.66698055  0.00004203 -0.00000692
   0.99972187  0.33322418 -0.00017631
   0.66636673  0.66666323  0.00018426
   0.33204019  0.66700621  0.00004318
   0.00287457  0.00004239  0.00001192
   0.66499867  0.33288452 -0.00005525
   0.00129651  0.66771801 -0.00020124
   0.33211364 -0.00017354 -0.00000613
   0.33353086  0.33238734  0.00020607
   0.10922260  0.22590213  0.95053364
   0.22370634  0.11182573  0.05107844
   0.10720377  0.55003921  0.95035182
   0.21684336  0.44066807  0.04944541
   0.11172026  0.88804910  0.94890966
   0.22146159  0.77840509  0.05090319
   0.44288970  0.22141696  0.94912389
   0.55727457  0.10733474  0.04942185
   0.44952843  0.55719081  0.95070434
   0.55713525  0.44974306  0.04964930
   0.44966497  0.89239068  0.95054226
   0.56115117  0.78038627  0.04815864
   0.78051653  0.21936655  0.95182123
   0.88599812  0.11363957  0.04802356
   0.77602497  0.55925265  0.95058878
   0.89234996  0.44256964  0.04925668
   0.77220111  0.88624915  0.95200659
   0.88339817  0.77399065  0.04948105
unknown system                          
           1
     8.254173    4.765975    0.000000
    -8.250200    4.759091    0.000000
     0.000000    0.000000   30.000000
   V    Mo   W    S 
   3   3   3  18
Direct configuration=     5
   0.66605582  0.00003728 -0.00000537
   1.00078095  0.33467594  0.00003382
   0.66587442  0.66509383 -0.00002471
   0.32912034  0.66733178 -0.00002922
   0.00871042  0.00001127  0.00000711
   0.66174487  0.33250999  0.00002191
   0.00494565  0.67096282 -0.00004003
   0.32850327 -0.00029557 -0.00000674
   0.33392380  0.32923749  0.00004458
   0.10878297  0.22624981  0.94857401
   0.22407427  0.11198755  0.05379381
   0.10633016  0.54863402  0.94807622
   0.21549921  0.44000539  0.05126782
   0.11190691  0.88791355  0.94618536
   0.22136607  0.77842969  0.05323730
   0.44274353  0.22139884  0.94680455
   0.55789764  0.10676914  0.05131444
   0.45044921  0.55800218  0.94917197
   0.55769204  0.45118007  0.05192636
   0.45103947  0.89305901  0.94867923
   0.56190174  0.78113381  0.05001425
   0.78073182  0.21873855  0.94997862
   0.88584303  0.11377434  0.04952052
   0.77543953  0.55984790  0.94874635
   0.89239087  0.44189386  0.05081187
   0.77201509  0.88605766  0.95049172
   0.88245134  0.77357424  0.05140414
unknown system                          
           1
     8.257210    4.767818    0.000000
    -8.251860    4.758551    0.000000
     0.000000    0.000000   30.000000
   V    Mo   W    S 
   3   3   3  18
Direct configuration=     6
   0.66568862  0.00003982 -0.00000426
   1.00134483  0.33550829  0.00007745
   0.66555750  0.66419933 -0.00007164
   0.32797785  0.66760818 -0.00003898
   0.01058336  0.00000460  0.00000861
   0.66031960  0.33222204  0.00003038
   0.00678420  0.67261499 -0.00005655
   0.32701056 -0.00030857 -0.00000324
   0.33411170  0.32759839  0.00005977
   0.10896969  0.22588132  0.94847420
   0.22431041  0.11207698  0.05432642
   0.10615346  0.54880407  0.94781036
   0.21589237  0.44009951  0.05128429
   0.11207397  0.88782380  0.94564477
   0.22164111  0.77872648  0.05363627
   0.44273070  0.22108502  0.94641111
   0.55738803  0.10675714  0.05139641
   0.44977716  0.55779568  0.94921706
   0.55732604  0.45102581  0.05219676
   0.45055552  0.89306907  0.94859173
   0.56139033  0.78089713  0.05007722
   0.78046431  0.21897849  0.94991321
   0.88643821  0.11339364  0.04947271
   0.77576358  0.55976070  0.94873938
   0.89194554  0.44211926  0.05075540
   0.77299227  0.88645450  0.95054403
   0.88302354  0.77397880  0.05150704
unknown system                          
           1
     8.260410    4.769763    0.000000
    -8.252151    4.755456    0.000000
     0.000000    0.000000   30.000000
   V    Mo   W    S 
   3   3   3  18
Direct configuration=     7
   0.66551130  0.00004588 -0.00000509
   1.00172894  0.33619366  0.00012099
   0.66520861  0.66346144 -0.00011521
   0.32695776  0.66810682 -0.00004446
   0.01211395  0.00000543  0.00000616
   0.65878107  0.33171291  0.00003792
   0.00858346  0.67413688 -0.00003771
   0.32591746 -0.00031409 -0.00000333
   0.33440196  0.32609501  0.00004118
   0.10919349  0.22566329  0.94849538
   0.22447995  0.11210780  0.05467217
   0.10601241  0.54895221  0.94766377
   0.21623513  0.44012972  0.05118145
   0.11222847  0.88779794  0.94529805
   0.22182555  0.77902826  0.05387707
   0.44261992  0.22077258  0.94617227
   0.55693570  0.10671294  0.05137960
   0.44918737  0.55750813  0.94938825
   0.55702388  0.45088866  0.05234515
   0.45015197  0.89310937  0.94860879
   0.56102048  0.78067147  0.04999863
   0.78031447  0.21920210  0.94998772
   0.88688618  0.11314543  0.04930233
   0.77608903  0.55974103  0.94884726
   0.89165081  0.44241500  0.05057566
   0.77368356  0.88670870  0.95072109
   0.88347156  0.77421585  0.05148482
unknown system                          
           1
     8.260133    4.769564    0.000000
    -8.252676    4.756648    0.000000
     0.000000    0.000000   30.000000
   V    Mo   W    S 
   3   3   3  18
Direct configuration=     8
   0.66547785  0.00004604 -0.00000708
   1.00223924  0.33716008  0.00019382
   0.66465609  0.66238885 -0.00019001
   0.32536996  0.66914718 -0.00006999
   0.01425483  0.00000698  0.00000517
   0.65608911  0.33067263  0.00006598
   0.01141772  0.67650083 -0.00005097
   0.32451251 -0.00031350  0.00000014
   0.33493120  0.32377851  0.00005456
   0.10954520  0.22542715  0.94855951
   0.22469233  0.11214464  0.05512536
   0.10580658  0.54916122  0.94748050
   0.21675432  0.44017819  0.05094826
   0.11242013  0.88776579  0.94484002
   0.22212702  0.77956603  0.05425260
   0.44238780  0.22022774  0.94579527
   0.55635873  0.10660711  0.05134909
   0.44831843  0.55702887  0.94971763
   0.55660211  0.45069835  0.05253560
   0.44968480  0.89321172  0.94864131
   0.56056162  0.78037552  0.04984648
   0.78013970  0.21949866  0.95013686
   0.88747068  0.11290317  0.04901314
   0.77656829  0.55970405  0.94908708
   0.89126432  0.44290715  0.05023608
   0.77450153  0.88694989  0.95102016
   0.88406234  0.77447163  0.05141335
unknown system                          
           1
     8.260426    4.769781    0.000000
    -8.253492    4.757769    0.000000
     0.000000    0.000000   30.000000
   V    Mo   W    S 
   3   3   3  18
Direct configuration=     9
   0.66550554  0.00004549 -0.00000663
   1.00208041  0.33686993  0.00017205
   0.66481379  0.66270835 -0.00016758
   0.32584538  0.66887657 -0.00006194
   0.01357936  0.00000707  0.00000530
   0.65685202  0.33094455  0.00005720
   0.01057972  0.67578347 -0.00004799
   0.32498421 -0.00031307 -0.00000092
   0.33479530  0.32448293  0.00005149
   0.10944217  0.22550639  0.94854295
   0.22462376  0.11213102  0.05498503
   0.10587064  0.54909841  0.94753638
   0.21660397  0.44016919  0.05101151
   0.11236008  0.88777853  0.94498196
   0.22203839  0.77941205  0.05414083
   0.44245137  0.22038425  0.94590714
   0.55653975  0.10663573  0.05135999
   0.44857452  0.55717004  0.94962461
   0.55673197  0.45075597  0.05247800
   0.44983571  0.89318459  0.94862995
   0.56070637  0.78046656  0.04989019
   0.78019599  0.21940763  0.95009441
   0.88728760  0.11298576  0.04909969
   0.77642329  0.55970909  0.94902172
   0.89137739  0.44276207  0.05033188
   0.77423781  0.88686625  0.95093078
   0.88387794  0.77438564  0.05143189
unknown system                          
           1
     8.259901    4.769022    0.000000
    -8.251895    4.755154    0.000000
     0.000000    0.000000   30.000000
   V    Mo   W    S 
   3   3   3  18
Direct configuration=    10
   0.66559489  0.00007978 -0.00000591
   1.00204630  0.33680914  0.00016316
   0.66484618  0.66278292 -0.00015379
   0.32577848  0.66901683 -0.00006120
   0.01357484  0.00003929  0.00000497
   0.65665649  0.33075736  0.00005678
   0.01074962  0.67589665 -0.00005104
   0.32499089 -0.00030133 -0.00000153
   0.33479622  0.32432859  0.00005458
   0.10943017  0.22557234  0.94855975
   0.22461935  0.11210152  0.05495794
   0.10586576  0.54906214  0.94755124
   0.21661558  0.44018780  0.05098771
   0.11238509  0.88780971  0.94500952
   0.22205528  0.77945121  0.05413965
   0.44242914  0.22034616  0.94590752
   0.55655486  0.10658129  0.05135370
   0.44856781  0.55717995  0.94964182
   0.55675954  0.45077337  0.05246805
   0.44990433  0.89323959  0.94863755
   0.56071952  0.78047764  0.04988431
   0.78022022  0.21941077  0.95010543
   0.88726492  0.11303617  0.04910467
   0.77642676  0.55967600  0.94903812
   0.89136914  0.44273623  0.05030644
   0.77417969  0.88683647  0.95092035
   0.88381339  0.77432688  0.05142009
unknown system                          
           1
     8.252520    4.764004    0.000000
    -8.241019    4.744086    0.000000
     0.000000    0.000000   30.000000
   V    Mo   W    S 
   3   3   3  18
Direct configuration=    11
   0.66504541 -0.00006302 -0.00000399
   1.00223863  0.33723496  0.00014358
   0.66456137  0.66222977 -0.00014272
   0.32577350  0.66867842 -0.00003850
   0.01450003 -0.00005707  0.00000659
   0.65693739  0.33127477  0.00004054
   0.01068401  0.67615713 -0.00005523
   0.32440167 -0.00035721  0.00001100
   0.33466717  0.32422037  0.00006210
   0.10950547  0.22542339  0.94853160
   0.22474599  0.11222047  0.05508573
   0.10577308  0.54907273  0.94748074
   0.21658142  0.44006065  0.05107301
   0.11240848  0.88769784  0.94485734
   0.22209095  0.77941699  0.05417185
   0.44250355  0.22037496  0.94587345
   0.55640938  0.10669533  0.05133852
   0.44851952  0.55709026  0.94956858
   0.55669532  0.45087182  0.05255314
   0.44965383  0.89314666  0.94863151
   0.56064267  0.78036323  0.04987144
   0.78017417  0.21948599  0.95012555
   0.88738592  0.11285047  0.04900921
   0.77650939  0.55985262  0.94895064
   0.89140845  0.44288007  0.05038088
   0.77443176  0.88695124  0.95101388
   0.88396592  0.77444159  0.05145945
unknown system                          
           1
     8.256949    4.766666    0.000000
    -8.243310    4.743044    0.000000
     0.000000    0.000000   30.000000
   V    Mo   W    S 
   3   3   3  18
Direct configuration=    12
   0.66310531 -0.00047802 -0.00000711
   1.00277364  0.33892464  0.00017622
   0.66321976  0.66010174 -0.00019753
   0.32547317  0.66783806 -0.00003201
   0.01765952 -0.00028520 -0.00000249
   0.65737212  0.33264231  0.00003311
   0.01098797  0.67706991 -0.00003847
   0.32275846 -0.00054854  0.00001275
   0.33460158  0.32373064  0.00003830
   0.10979663  0.22498132  0.94850592
   0.22526847  0.11255364  0.05558851
   0.10558014  0.54921877  0.94730528
   0.21648361  0.43970618  0.05121259
   0.11266701  0.88742039  0.94430763
   0.22227199  0.77945620  0.05427552
   0.44264656  0.22030862  0.94579108
   0.55586172  0.10707595  0.05126329
   0.44821097  0.55669003  0.94948023
   0.55647269  0.45103976  0.05281604
   0.44876010  0.89285749  0.94865587
   0.56029729  0.77992436  0.04982249
   0.78003342  0.21982942  0.95022933
   0.88783213  0.11228570  0.04855130
   0.77674960  0.56034045  0.94877827
   0.89151693  0.44342570  0.05044685
   0.77529395  0.88730287  0.95145469
   0.88451974  0.77480205  0.05153223
unknown system                          
           1
     8.276436    4.778298    0.000000
    -8.260758    4.751142    0.000000
     0.000000    0.000000   30.000000
   V    Mo   W    S 
   3   3   3  18
Direct configuration=    13
   0.66191807 -0.00067279 -0.00001119
   1.00305757  0.34023066  0.00025041
   0.66205911  0.65851680 -0.00027294
   0.32486461  0.66781259 -0.00004164
   0.01985541 -0.00033816 -0.00000866
   0.65676658  0.33294669  0.00004135
   0.01201680  0.67804227 -0.00003829
   0.32184134 -0.00066235  0.00000539
   0.33490782  0.32294463  0.00003819
   0.11001312  0.22474031  0.94853893
   0.22567661  0.11272839  0.05599175
   0.10549388  0.54937965  0.94717169
   0.21654494  0.43956357  0.05116588
   0.11293605  0.88729007  0.94388301
   0.22249239  0.77966712  0.05442561
   0.44265292  0.22007766  0.94565753
   0.55545756  0.10725966  0.05124948
   0.44776827  0.55630994  0.94954737
   0.55626835  0.45100296  0.05301735
   0.44819724  0.89273581  0.94864321
   0.55999885  0.77959998  0.04977725
   0.77995764  0.22012531  0.95032088
   0.88819259  0.11195651  0.04815707
   0.77696002  0.56054387  0.94878870
   0.89147778  0.44386282  0.05034630
   0.77592071  0.88752303  0.95183409
   0.88491823  0.77502745  0.05152118
unknown system                          
           1
     8.274720    4.777466    0.000000
    -8.259940    4.751866    0.000000
     0.000000    0.000000   30.000000
   V    Mo   W    S 
   3   3   3  18
Direct configuration=    14
   0.66092202 -0.00071121 -0.00000656
   1.00305258  0.34160911  0.00030627
   0.66052278  0.65693977 -0.00029769
   0.32384064  0.66899518  0.00002525
   0.02173166 -0.00015737  0.00000081
   0.65462513  0.33192604 -0.00000876
   0.01428136  0.67944722 -0.00013062
   0.32157844 -0.00072793  0.00002501
   0.33576967  0.32149664  0.00015897
   0.11024423  0.22466324  0.94871534
   0.22613520  0.11284213  0.05625050
   0.10547939  0.54955620  0.94701188
   0.21688925  0.43966194  0.05087569
   0.11324663  0.88718818  0.94359724
   0.22285368  0.78009486  0.05465002
   0.44260171  0.21964328  0.94542337
   0.55521469  0.10729588  0.05134581
   0.44693926  0.55577177  0.94974739
   0.55603377  0.45076032  0.05321679
   0.44793967  0.89273031  0.94851437
   0.55965939  0.77931199  0.04967562
   0.77991688  0.22043680  0.95045253
   0.88853991  0.11175013  0.04766918
   0.77723625  0.56046329  0.94903628
   0.89121099  0.44437635  0.05010571
   0.77648039  0.88768009  0.95231494
   0.88526888  0.77517026  0.05132455
unknown system                          
           1
     8.277495    4.778963    0.000000
    -8.260779    4.750008    0.000000
     0.000000    0.000000   30.000000
   V    Mo   W    S 
   3   3   3  18
Direct configuration=    15
   0.66167925 -0.00053966 -0.00001326
   1.00278427  0.34115556  0.00030713
   0.66073234  0.65751743 -0.00030208
   0.32375930  0.66991527 -0.00002206
   0.02058886 -0.00005105 -0.00001451
   0.65365475  0.33083883  0.00001527
   0.01474766  0.67932091 -0.00012588
   0.32244253 -0.00063875  0.00000233
   0.33617330  0.32146041  0.00012678
   0.11027271  0.22488907  0.94880312
   0.22590428  0.11264872  0.05605994
   0.10561796  0.54957206  0.94707237
   0.21710101  0.43988452  0.05070657
   0.11317159  0.88735916  0.94384387
   0.22277747  0.78020838  0.05467647
   0.44240481  0.21953696  0.94540521
   0.55547546  0.10712403  0.05140090
   0.44687774  0.55585550  0.94991828
   0.55610465  0.45060978  0.05311741
   0.44833877  0.89284900  0.94849600
   0.55976026  0.77949536  0.04966501
   0.77993461  0.22028829  0.95043294
   0.88840219  0.11202807  0.04781190
   0.77720823  0.56018858  0.94924144
   0.89103688  0.44422455  0.04996616
   0.77612729  0.88748443  0.95220303
   0.88513627  0.77498905  0.05120557
unknown system                          
           1
     8.272774    4.776024    0.000000
    -8.259159    4.752443    0.000000
     0.000000    0.000000   30.000000
   V    Mo   W    S 
   3   3   3  18
Direct configuration=    16
   0.66076258 -0.00064491 -0.00001428
   1.00283860  0.34220377  0.00034142
   0.65960860  0.65626377 -0.00033009
   0.32323521  0.67049954 -0.00000350
   0.02209548 -0.00000461 -0.00001811
   0.65255653  0.33045698 -0.00000379
   0.01597166  0.68014939 -0.00016006
   0.32214086 -0.00070571  0.00000474
   0.33668584  0.32069846  0.00016286
   0.11049499  0.22479463  0.94891448
   0.22621464  0.11274728  0.05625586
   0.10561185  0.54971249  0.94697185
   0.21729394  0.43989554  0.05055876
   0.11337850  0.88727707  0.94363823
   0.22296895  0.78044344  0.05480383
   0.44236721  0.21929190  0.94528262
   0.55529390  0.10722036  0.05143385
   0.44638490  0.55551113  0.95003314
   0.55596325  0.45050734  0.05325332
   0.44807125  0.89278224  0.94844220
   0.55952703  0.77928808  0.04959627
   0.77986532  0.22048247  0.95052353
   0.88864182  0.11184452  0.04747922
   0.77739104  0.56021517  0.94936968
   0.89089582  0.44458503  0.04983618
   0.77652323  0.88759720  0.95253767
   0.88543146  0.77510184  0.05109005
unknown system                          
           1
     8.282031    4.782078    0.000000
    -8.267013    4.756067    0.000000
     0.000000    0.000000   30.000000
   V    Mo   W    S 
   3   3   3  18
Direct configuration=    17
   0.66271000 -0.00044157 -0.00001358
   1.00257886  0.34021609  0.00029713
   0.66140123  0.65840717 -0.00029123
   0.32390318  0.67067326 -0.00002997
   0.01950818 -0.00006453 -0.00000025
   0.65298651  0.33004953  0.00003652
   0.01500397  0.67950708 -0.00012153
   0.32283855 -0.00059988  0.00001577
   0.33626782  0.32131025  0.00014113
   0.11022637  0.22505996  0.94879847
   0.22562661  0.11249200  0.05587001
   0.10568724  0.54962455  0.94712912
   0.21732162  0.44009869  0.05062048
   0.11303539  0.88748009  0.94403427
   0.22269507  0.78026717  0.05467745
   0.44226586  0.21949347  0.94537739
   0.55562953  0.10687287  0.05138348
   0.44694929  0.55602939  0.95002560
   0.55611821  0.45052137  0.05300477
   0.44872823  0.89306226  0.94853012
   0.55991464  0.77973115  0.04964584
   0.77987817  0.22005170  0.95040620
   0.88819273  0.11223436  0.04806082
   0.77717882  0.55996326  0.94935811
   0.89088224  0.44404216  0.04988371
   0.77573404  0.88730904  0.95198684
   0.88495210  0.77482357  0.05117324
unknown system                          
           1
     8.283250    4.782695    0.000000
    -8.266769    4.754149    0.000000
     0.000000    0.000000   30.000000
   V    Mo   W    S 
   3   3   3  18
Direct configuration=    18
   0.66426675 -0.00018300 -0.00002130
   1.00248362  0.33944672  0.00032630
   0.66202725  0.65923978 -0.00031623
   0.32347138  0.67200450 -0.00008405
   0.01837209  0.00011868 -0.00001338
   0.65124655  0.32836386  0.00006965
   0.01608713  0.67999396 -0.00013166
   0.32343608 -0.00050820  0.00000209
   0.33652904  0.32060097  0.00012204
   0.11029276  0.22523891  0.94881384
   0.22532082  0.11228602  0.05584239
   0.10573034  0.54970004  0.94716543
   0.21772947  0.44041684  0.05040341
   0.11292783  0.88769841  0.94409131
   0.22271172  0.78057380  0.05488524
   0.44195132  0.21918905  0.94517394
   0.55567228  0.10655133  0.05143689
   0.44663310  0.55607283  0.95024379
   0.55605951  0.45035985  0.05299858
   0.44909980  0.89338705  0.94850306
   0.55996976  0.77991731  0.04964664
   0.77983637  0.21992251  0.95039946
   0.88814907  0.11251562  0.04829294
   0.77729471  0.55956911  0.94957582
   0.89055135  0.44393462  0.04964197
   0.77547845  0.88712435  0.95176932
   0.88488590  0.77467954  0.05116241
unknown system                          
           1
     8.283030    4.782496    0.000000
    -8.265668    4.752424    0.000000
     0.000000    0.000000   30.000000
   V    Mo   W    S 
   3   3   3  18
Direct configuration=    19
   0.66409009 -0.00019618 -0.00002069
   1.00254019  0.33998808  0.00035684
   0.66144981  0.65858925 -0.00033161
   0.32300402  0.67277534 -0.00007138
   0.01900379  0.00016927 -0.00000774
   0.65000417  0.32764457  0.00007033
   0.01715669  0.68063739 -0.00014646
   0.32344699 -0.00051555  0.00000807
   0.33698579  0.31997060  0.00015734
   0.11046894  0.22523726  0.94888417
   0.22542238  0.11230039  0.05593249
   0.10573678  0.54980091  0.94709581
   0.21798483  0.44051820  0.05023757
   0.11300737  0.88769437  0.94399528
   0.22282779  0.78079955  0.05501443
   0.44184568  0.21895767  0.94503591
   0.55559068  0.10654249  0.05148454
   0.44622055  0.55587823  0.95038422
   0.55594696  0.45024206  0.05306447
   0.44903013  0.89340547  0.94844850
   0.55981786  0.77980806  0.04958926
   0.77979354  0.22003625  0.95045597
   0.88831280  0.11248293  0.04813389
   0.77744727  0.55947566  0.94973751
   0.89033695  0.44412779  0.04949003
   0.77566916  0.88713281  0.95193502
   0.88507322  0.77471160  0.05106616
unknown system                          
           1
     8.287982    4.785345    0.000000
    -8.268995    4.752460    0.000000
     0.000000    0.000000   30.000000
   V    Mo   W    S 
   3   3   3  18
Direct configuration=    20
   0.66446222 -0.00015802 -0.00002157
   1.00256543  0.34000258  0.00037775
   0.66137789  0.65849583 -0.00034262
   0.32268162  0.67352124 -0.00007348
   0.01899714  0.00020768 -0.00000249
   0.64891179  0.32688053  0.00008216
   0.01795941  0.68113998 -0.00015162
   0.32355816 -0.00050101  0.00001142
   0.33728920  0.31947554  0.00017708
   0.11057481  0.22527987  0.94891823
   0.22537664  0.11225502  0.05594821
   0.10574755  0.54987921  0.94707474
   0.21823266  0.44065767  0.05009897
   0.11300268  0.88774399  0.94397967
   0.22287511  0.78098016  0.05511540
   0.44171184  0.21877726  0.94492543
   0.55555647  0.10644853  0.05150927
   0.44595317  0.55580769  0.95052123
   0.55586554  0.45013996  0.05307299
   0.44909083  0.89349851  0.94842720
   0.55975936  0.77979728  0.04954760
   0.77975758  0.22005730  0.95048658
   0.88838141  0.11253509  0.04812515
   0.77755004  0.55932993  0.94988166
   0.89013494  0.44419314  0.04934705
   0.77568971  0.88707983  0.95195566
   0.88515123  0.77468966  0.05100823
unknown system                          
           1
     8.309653    4.798461    0.000000
    -8.284522    4.754928    0.000000
     0.000000    0.000000   30.000000
   V    Mo   W    S 
   3   3   3  18
Direct configuration=    21
   0.66406584 -0.00020518 -0.00002485
   1.00264049  0.34064117  0.00039160
   0.66073133  0.65775689 -0.00035650
   0.32236126  0.67391321 -0.00007229
   0.01966782  0.00024581 -0.00000864
   0.64819689  0.32656632  0.00007466
   0.01863075  0.68151404 -0.00017104
   0.32355011 -0.00051872  0.00000834
   0.33762420  0.31912784  0.00018834
   0.11069472  0.22526475  0.94897954
   0.22548404  0.11226612  0.05603538
   0.10576921  0.54994301  0.94701020
   0.21838432  0.44070626  0.05000470
   0.11309065  0.88773837  0.94389773
   0.22297826  0.78113935  0.05521265
   0.44165645  0.21861790  0.94483420
   0.55550222  0.10649851  0.05157165
   0.44568409  0.55568076  0.95059422
   0.55582410  0.45008828  0.05314914
   0.44898260  0.89345584  0.94836090
   0.55963699  0.77967320  0.04952799
   0.77974569  0.22017764  0.95051329
   0.88854004  0.11250933  0.04798407
   0.77764504  0.55929831  0.94997697
   0.88999095  0.44432458  0.04927492
   0.77586363  0.88707395  0.95210519
   0.88527277  0.77471689  0.05093755
unknown system                          
           1
     8.313784    4.800903    0.000000
    -8.284538    4.750244    0.000000
     0.000000    0.000000   30.000000
   V    Mo   W    S 
   3   3   3  18
Direct configuration=    22
   0.66317624 -0.00015479 -0.00003333
   1.00282043  0.34286033  0.00047615
   0.65838585  0.65529494 -0.00040626
   0.32103300  0.67636927 -0.00005948
   0.02183266  0.00059568 -0.00001869
   0.64446021  0.32404060  0.00006636
   0.02184174  0.68306497 -0.00022317
   0.32408688 -0.00050671  0.00001696
   0.33903584  0.31739757  0.00024265
   0.11127998  0.22539962  0.94925623
   0.22579281  0.11225141  0.05632443
   0.10591636  0.55031938  0.94675513
   0.21930841  0.44111728  0.04943576
   0.11337606  0.88779480  0.94361363
   0.22338484  0.78195514  0.05569030
   0.44124487  0.21779680  0.94434848
   0.55540285  0.10651621  0.05180732
   0.44423812  0.55516879  0.95100783
   0.55554131  0.44964271  0.05346430
   0.44886491  0.89348601  0.94810965
   0.55911500  0.77933924  0.04939373
   0.77961124  0.22055700  0.95067979
   0.88904476  0.11255892  0.04746595
   0.77819098  0.55887562  0.95052528
   0.88911662  0.44477073  0.04880762
   0.77635638  0.88700435  0.95263769
   0.88575611  0.77469858  0.05061558
unknown system                          
           1
     8.319607    4.804261    0.000000
    -8.289828    4.752680    0.000000
     0.000000    0.000000   30.000000
   V    Mo   W    S 
   3   3   3  18
Direct configuration=    23
   0.66286819 -0.00009270 -0.00004971
   1.00275434  0.34383171  0.00052009
   0.65703832  0.65410267 -0.00044036
   0.32055326  0.67823864 -0.00006809
   0.02288106  0.00076169 -0.00003649
   0.64203843  0.32214321  0.00006234
   0.02382840  0.68409724 -0.00028443
   0.32451134 -0.00046756 -0.00000226
   0.33996074  0.31637244  0.00027923
   0.11167858  0.22560509  0.94943338
   0.22593813  0.11220596  0.05643395
   0.10609339  0.55071247  0.94661954
   0.22010356  0.44147697  0.04899246
   0.11352982  0.88783823  0.94355454
   0.22360290  0.78259339  0.05601825
   0.44081840  0.21717053  0.94404044
   0.55540607  0.10633242  0.05197940
   0.44327923  0.55488458  0.95133067
   0.55527885  0.44918578  0.05358928
   0.44901159  0.89364396  0.94796405
   0.55884832  0.77925995  0.04928604
   0.77945212  0.22065710  0.95077852
   0.88925689  0.11266014  0.04720724
   0.77860307  0.55851414  0.95100087
   0.88841601  0.44502394  0.04847533
   0.77648688  0.88688778  0.95294293
   0.88597657  0.77457468  0.05037270
unknown system                          
           1
     8.326610    4.808735    0.000000
    -8.293679    4.751691    0.000000
     0.000000    0.000000   30.000000
   V    Mo   W    S 
   3   3   3  18
Direct configuration=    24
   0.66285525 -0.00008127 -0.00005123
   1.00269598  0.34383842  0.00052165
   0.65687677  0.65401448 -0.00043738
   0.32062442  0.67847553 -0.00006524
   0.02288216  0.00078373 -0.00003350
   0.64185367  0.32191422  0.00006822
   0.02399001  0.68418491 -0.00027683
   0.32462546 -0.00046879  0.00000815
   0.34004039  0.31631832  0.00027870
   0.11171438  0.22565522  0.94943765
   0.22592990  0.11217338  0.05645262
   0.10614457  0.55078523  0.94659455
   0.22023921  0.44154740  0.04893384
   0.11354833  0.88787099  0.94352939
   0.22362578  0.78268840  0.05606805
   0.44074204  0.21707657  0.94397958
   0.55541647  0.10626618  0.05201780
   0.44315844  0.55487699  0.95135946
   0.55525908  0.44911938  0.05360861
   0.44908376  0.89370789  0.94792384