 vasp.5.4.1 05Feb16 (build Jul 05 2020 17:13:04) complex                        
  
 executed on           IFC91_ompi date 2024.07.06  16:28:09
 running on   40 total cores
 distrk:  each k-point on   40 cores,    1 groups
 distr:  one band on NCORES_PER_BAND=   1 cores,   40 groups


--------------------------------------------------------------------------------------------------------


 INCAR:
 POTCAR:   PAW_PBE V 08Apr2002                    
 POTCAR:   PAW_PBE Mo 08Apr2002                   
 POTCAR:   PAW_PBE W 08Apr2002                    
 POTCAR:    PAW_PBE S 17Jan2003                   

 ----------------------------------------------------------------------------- 
|                                                                             |
|           W    W    AA    RRRRR   N    N  II  N    N   GGGG   !!!           |
|           W    W   A  A   R    R  NN   N  II  NN   N  G    G  !!!           |
|           W    W  A    A  R    R  N N  N  II  N N  N  G       !!!           |
|           W WW W  AAAAAA  RRRRR   N  N N  II  N  N N  G  GGG   !            |
|           WW  WW  A    A  R   R   N   NN  II  N   NN  G    G                |
|           W    W  A    A  R    R  N    N  II  N    N   GGGG   !!!           |
|                                                                             |
|      For optimal performance we recommend to set                            |
|        NCORE= 4 - approx SQRT( number of cores)                             |
|      NCORE specifies how many cores store one orbital (NPAR=cpu/NCORE).     |
|      This setting can  greatly improve the performance of VASP for DFT.     |
|      The default, NPAR=number of cores might be grossly inefficient         |
|      on modern multi-core architectures or massively parallel machines.     |
|      Do your own testing !!!!                                               |
|      Unfortunately you need to use the default for GW and RPA calculations. |
|      (for HF NCORE is supported but not extensively tested yet)             |
|                                                                             |
 ----------------------------------------------------------------------------- 

 POTCAR:   PAW_PBE V 08Apr2002                    
   VRHFIN =V: p6 d4 s1                                                          
   LEXCH  = PE                                                                  
   EATOM  =   170.8679 eV,   12.5584 Ry                                         
                                                                                
   TITEL  = PAW_PBE V 08Apr2002                                                 
   LULTRA =        F    use ultrasoft PP ?                                      
   IUNSCR =        1    unscreen: 0-lin 1-nonlin 2-no                           
   RPACOR =    2.000    partial core radius                                     
   POMASS =   50.941; ZVAL   =    5.000    mass and valenz                      
   RCORE  =    2.700    outmost cutoff radius                                   
   RWIGS  =    2.500; RWIGS  =    1.323    wigner-seitz radius (au A)           
   ENMAX  =  192.543; ENMIN  =  144.408 eV                                      
   RCLOC  =    1.779    cutoff for local pot                                    
   LCOR   =        T    correct aug charges                                     
   LPAW   =        T    paw PP                                                  
   EAUG   =  358.662                                                            
   DEXC   =    -.034                                                            
   RMAX   =    3.323    core radius for proj-oper                               
   RAUG   =    1.300    factor for augmentation sphere                          
   RDEP   =    2.762    radius for radial grids                                 
   QCUT   =   -3.762; QGAM   =    7.524    optimization parameters              
                                                                                
   Description                                                                  
     l     E      TYP  RCUT    TYP  RCUT                                        
     2   .000     23  2.700                                                     
     2   .000     23  2.700                                                     
     0   .000     23  2.700                                                     
     0  2.000     23  2.700                                                     
     1   .000     23  2.700                                                     
     1  2.000     23  2.700                                                     
     3   .000      7   .000                                                     
  local pseudopotential read in
  partial core-charges read in
  atomic valenz-charges read in
  non local Contribution for L=           2  read in
    real space projection operators read in
  non local Contribution for L=           2  read in
    real space projection operators read in
  non local Contribution for L=           0  read in
    real space projection operators read in
  non local Contribution for L=           0  read in
    real space projection operators read in
  non local Contribution for L=           1  read in
    real space projection operators read in
  non local Contribution for L=           1  read in
    real space projection operators read in
    PAW grid and wavefunctions read in
 
   number of l-projection  operators is LMAX  =           6
   number of lm-projection operators is LMMAX =          18
 
 POTCAR:   PAW_PBE Mo 08Apr2002                   
   VRHFIN =Mo: 4p5s4d                                                           
   LEXCH  = PE                                                                  
   EATOM  =   217.5180 eV,   15.9871 Ry                                         
                                                                                
   TITEL  = PAW_PBE Mo 08Apr2002                                                
   LULTRA =        F    use ultrasoft PP ?                                      
   IUNSCR =        1    unscreen: 0-lin 1-nonlin 2-no                           
   RPACOR =    2.200    partial core radius                                     
   POMASS =   95.940; ZVAL   =    6.000    mass and valenz                      
   RCORE  =    2.750    outmost cutoff radius                                   
   RWIGS  =    2.750; RWIGS  =    1.455    wigner-seitz radius (au A)           
   ENMAX  =  224.584; ENMIN  =  168.438 eV                                      
   RCLOC  =    2.111    cutoff for local pot                                    
   LCOR   =        T    correct aug charges                                     
   LPAW   =        T    paw PP                                                  
   EAUG   =  345.278                                                            
   DEXC   =    -.088                                                            
   RMAX   =    3.077    core radius for proj-oper                               
   RAUG   =    1.300    factor for augmentation sphere                          
   RDEP   =    2.815    radius for radial grids                                 
   QCUT   =   -4.063; QGAM   =    8.126    optimization parameters              
                                                                                
   Description                                                                  
     l     E      TYP  RCUT    TYP  RCUT                                        
     2   .000     23  2.500                                                     
     2   .000     23  2.500                                                     
     0   .000     23  2.600                                                     
     0  1.000     23  2.600                                                     
     1   .400     23  2.750                                                     
     1  2.000     23  2.750                                                     
     3   .000      7   .000                                                     
  local pseudopotential read in
  partial core-charges read in
  atomic valenz-charges read in
  non local Contribution for L=           2  read in
    real space projection operators read in
  non local Contribution for L=           2  read in
    real space projection operators read in
  non local Contribution for L=           0  read in
    real space projection operators read in
  non local Contribution for L=           0  read in
    real space projection operators read in
  non local Contribution for L=           1  read in
    real space projection operators read in
  non local Contribution for L=           1  read in
    real space projection operators read in
    PAW grid and wavefunctions read in
 
   number of l-projection  operators is LMAX  =           6
   number of lm-projection operators is LMMAX =          18
 
 POTCAR:   PAW_PBE W 08Apr2002                    
   VRHFIN =W : 6s5d                                                             
   LEXCH  = PE                                                                  
   EATOM  =   204.6100 eV,   15.0384 Ry                                         
                                                                                
   TITEL  = PAW_PBE W 08Apr2002                                                 
   LULTRA =        F    use ultrasoft PP ?                                      
   IUNSCR =        1    unscreen: 0-lin 1-nonlin 2-no                           
   RPACOR =    2.330    partial core radius                                     
   POMASS =  183.850; ZVAL   =    6.000    mass and valenz                      
   RCORE  =    2.750    outmost cutoff radius                                   
   RWIGS  =    2.750; RWIGS  =    1.455    wigner-seitz radius (au A)           
   ENMAX  =  223.057; ENMIN  =  167.293 eV                                      
   RCLOC  =    2.147    cutoff for local pot                                    
   LCOR   =        T    correct aug charges                                     
   LPAW   =        T    paw PP                                                  
   EAUG   =  373.438                                                            
   DEXC   =    -.060                                                            
   RMAX   =    3.087    core radius for proj-oper                               
   RAUG   =    1.300    factor for augmentation sphere                          
   RDEP   =    2.886    radius for radial grids                                 
   QCUT   =   -4.049; QGAM   =    8.098    optimization parameters              
                                                                                
   Description                                                                  
     l     E      TYP  RCUT    TYP  RCUT                                        
     2   .000     23  2.500                                                     
     2   .000     23  2.500                                                     
     0   .000     23  2.500                                                     
     0   .000     23  2.500                                                     
     1   .200     23  2.750                                                     
     1  2.000     23  2.750                                                     
     3   .000      7   .000                                                     
  local pseudopotential read in
  partial core-charges read in
  atomic valenz-charges read in
  non local Contribution for L=           2  read in
    real space projection operators read in
  non local Contribution for L=           2  read in
    real space projection operators read in
  non local Contribution for L=           0  read in
    real space projection operators read in
  non local Contribution for L=           0  read in
    real space projection operators read in
  non local Contribution for L=           1  read in
    real space projection operators read in
  non local Contribution for L=           1  read in
    real space projection operators read in
    PAW grid and wavefunctions read in
 
   number of l-projection  operators is LMAX  =           6
   number of lm-projection operators is LMMAX =          18
 
 POTCAR:    PAW_PBE S 17Jan2003                   
   VRHFIN =S : s2p4                                                             
   LEXCH  = PE                                                                  
   EATOM  =   276.8230 eV,   20.3459 Ry                                         
                                                                                
   TITEL  = PAW_PBE S 17Jan2003                                                 
   LULTRA =        F    use ultrasoft PP ?                                      
   IUNSCR =        1    unscreen: 0-lin 1-nonlin 2-no                           
   RPACOR =    1.500    partial core radius                                     
   POMASS =   32.066; ZVAL   =    6.000    mass and valenz                      
   RCORE  =    1.900    outmost cutoff radius                                   
   RWIGS  =    2.200; RWIGS  =    1.164    wigner-seitz radius (au A)           
   ENMAX  =  280.000; ENMIN  =  194.016 eV                                      
   ICORE  =        2    local potential                                         
   LCOR   =        T    correct aug charges                                     
   LPAW   =        T    paw PP                                                  
   EAUG   =  335.092                                                            
   DEXC   =     .000                                                            
   RMAX   =    2.867    core radius for proj-oper                               
   RAUG   =    1.300    factor for augmentation sphere                          
   RDEP   =    1.954    radius for radial grids                                 
   QCUT   =   -4.360; QGAM   =    8.721    optimization parameters              
                                                                                
   Description                                                                  
     l     E      TYP  RCUT    TYP  RCUT                                        
     0   .000     23  1.900                                                     
     0   .000     23  1.900                                                     
     1   .000     23  1.900                                                     
     1   .000     23  1.900                                                     
     2   .000     23  1.900                                                     
  local pseudopotential read in
  partial core-charges read in
  atomic valenz-charges read in
  non local Contribution for L=           0  read in
    real space projection operators read in
  non local Contribution for L=           0  read in
    real space projection operators read in
  non local Contribution for L=           1  read in
    real space projection operators read in
  non local Contribution for L=           1  read in
    real space projection operators read in
    PAW grid and wavefunctions read in
 
   number of l-projection  operators is LMAX  =           4
   number of lm-projection operators is LMMAX =           8
 

 ----------------------------------------------------------------------------- 
|                                                                             |
|  ADVICE TO THIS USER RUNNING 'VASP/VAMP'   (HEAR YOUR MASTER'S VOICE ...):  |
|                                                                             |
|      You have a (more or less) 'large supercell' and for larger cells       |
|      it might be more efficient to use real space projection operators      |
|      So try LREAL= Auto  in the INCAR   file.                               |
|      Mind: If you want to do a very accurate calculations keep the          |
|      reciprocal projection scheme          (i.e. LREAL=.FALSE.)             |
|                                                                             |
 ----------------------------------------------------------------------------- 

 PAW_PBE V 08Apr2002                    :
 energy of atom  1       EATOM= -170.8679
 kinetic energy error for atom=    0.0047 (will be added to EATOM!!)
 PAW_PBE Mo 08Apr2002                   :
 energy of atom  2       EATOM= -217.5180
 kinetic energy error for atom=    0.0215 (will be added to EATOM!!)
 PAW_PBE W 08Apr2002                    :
 energy of atom  3       EATOM= -204.6100
 kinetic energy error for atom=    0.0205 (will be added to EATOM!!)
  PAW_PBE S 17Jan2003                   :
 energy of atom  4       EATOM= -276.8230
 kinetic energy error for atom=    0.0122 (will be added to EATOM!!)
 
 
 POSCAR: crystal structure from VMoWS2 with Hexag
  positions in cartesian coordinates
  No initial velocities read in
 exchange correlation table for  LEXCH =        8
   RHO(1)=    0.500       N(1)  =     2000
   RHO(2)=  100.500       N(2)  =     4000
 


--------------------------------------------------------------------------------------------------------


 ion  position               nearest neighbor table
   1  0.667  0.000  0.000-  17 2.34  26 2.34  23 2.36  22 2.36  21 2.36  20 2.36
   2  1.000  0.333  0.000-  25 2.34  10 2.34  13 2.36  12 2.36  22 2.36  23 2.36
   3  0.667  0.333  0.000-  19 2.34  22 2.34  25 2.36  24 2.36  17 2.36  16 2.36
   4  0.333  0.333  0.000-  13 2.34  16 2.34  19 2.36  18 2.36  11 2.36  10 2.36   5 3.34   9 3.34
                             7 3.36   6 3.36
   5  0.333  0.667  0.000-  15 2.34  18 2.34  20 2.36  21 2.36  13 2.36  12 2.36   9 3.34   4 3.34
                             8 3.34   6 3.34
   6  0.667  0.667  0.000-  21 2.34  24 2.34  27 2.36  26 2.36  19 2.36  18 2.36   8 3.34   5 3.34
                             7 3.36   4 3.36
   7  0.000  0.000  0.000-  23 2.34  14 2.34  11 2.36  10 2.36  27 2.36  26 2.36   8 3.34   9 3.34
                             6 3.36   4 3.36
   8  0.000  0.667  0.000-  27 2.34  12 2.34  14 2.36  15 2.36  24 2.36  25 2.36   6 3.34   7 3.34
                             5 3.34   9 3.36
   9  0.333  0.000  0.000-  11 2.34  20 2.34  17 2.36  16 2.36  15 2.36  14 2.36   5 3.34   4 3.34
                             7 3.34   8 3.36
  10  0.111  0.222  0.955-   2 2.34   7 2.36   4 2.36
  11  0.222  0.111  0.045-   9 2.34   7 2.36   4 2.36
  12  0.111  0.556  0.955-   8 2.34   2 2.36   5 2.36
  13  0.222  0.444  0.045-   4 2.34   2 2.36   5 2.36
  14  0.111  0.889  0.955-   7 2.34   8 2.36   9 2.36
  15  0.222  0.777  0.045-   5 2.34   8 2.36   9 2.36
  16  0.444  0.222  0.955-   4 2.34   9 2.36   3 2.36
  17  0.556  0.111  0.045-   1 2.34   9 2.36   3 2.36
  18  0.444  0.556  0.955-   5 2.34   4 2.36   6 2.36
  19  0.556  0.444  0.045-   3 2.34   4 2.36   6 2.36
  20  0.444  0.889  0.955-   9 2.34   5 2.36   1 2.36
  21  0.556  0.777  0.045-   6 2.34   5 2.36   1 2.36
  22  0.777  0.222  0.955-   3 2.34   1 2.36   2 2.36
  23  0.889  0.111  0.045-   7 2.34   1 2.36   2 2.36
  24  0.777  0.556  0.955-   6 2.34   3 2.36   8 2.36
  25  0.889  0.444  0.045-   2 2.34   3 2.36   8 2.36
  26  0.777  0.889  0.955-   1 2.34   6 2.36   7 2.36
  27  0.889  0.777  0.045-   8 2.34   6 2.36   7 2.36
 

IMPORTANT INFORMATION: All symmetrisations will be switched off!
NOSYMM: (Re-)initialisation of all symmetry stuff for point group C_1.

 
 
 KPOINTS: K-POINTS 	#supercell of CrS2 in hexagona

Automatic generation of k-mesh.
Space group operators:
 irot       det(A)        alpha          n_x          n_y          n_z        tau_x        tau_y        tau_z
    1     1.000000     0.000000     1.000000     0.000000     0.000000     0.000000     0.000000     0.000000
 
 Subroutine IBZKPT returns following result:
 ===========================================
 
 Found     34 irreducible k-points:
 
 Following reciprocal coordinates:
            Coordinates               Weight
  0.000000  0.000000  0.000000      1.000000
  0.125000  0.000000  0.000000      2.000000
  0.250000  0.000000  0.000000      2.000000
  0.375000  0.000000  0.000000      2.000000
  0.500000  0.000000  0.000000      1.000000
  0.000000  0.125000  0.000000      2.000000
  0.125000  0.125000  0.000000      2.000000
  0.250000  0.125000  0.000000      2.000000
  0.375000  0.125000  0.000000      2.000000
  0.500000  0.125000  0.000000      2.000000
 -0.375000  0.125000  0.000000      2.000000
 -0.250000  0.125000  0.000000      2.000000
 -0.125000  0.125000  0.000000      2.000000
  0.000000  0.250000  0.000000      2.000000
  0.125000  0.250000  0.000000      2.000000
  0.250000  0.250000  0.000000      2.000000
  0.375000  0.250000  0.000000      2.000000
  0.500000  0.250000  0.000000      2.000000
 -0.375000  0.250000  0.000000      2.000000
 -0.250000  0.250000  0.000000      2.000000
 -0.125000  0.250000  0.000000      2.000000
 -0.000000  0.375000  0.000000      2.000000
  0.125000  0.375000  0.000000      2.000000
  0.250000  0.375000  0.000000      2.000000
  0.375000  0.375000  0.000000      2.000000
  0.500000  0.375000  0.000000      2.000000
 -0.375000  0.375000  0.000000      2.000000
 -0.250000  0.375000  0.000000      2.000000
 -0.125000  0.375000  0.000000      2.000000
  0.000000  0.500000  0.000000      1.000000
  0.125000  0.500000  0.000000      2.000000
  0.250000  0.500000  0.000000      2.000000
  0.375000  0.500000  0.000000      2.000000
  0.500000  0.500000  0.000000      1.000000
 
 Following cartesian coordinates:
            Coordinates               Weight
  0.000000  0.000000  0.000000      1.000000
  0.007209  0.012401  0.000000      2.000000
  0.014418  0.024802  0.000000      2.000000
  0.021626  0.037202  0.000000      2.000000
  0.028835  0.049603  0.000000      1.000000
 -0.007209  0.012401  0.000000      2.000000
  0.000000  0.024802  0.000000      2.000000
  0.007209  0.037202  0.000000      2.000000
  0.014418  0.049603  0.000000      2.000000
  0.021626  0.062004  0.000000      2.000000
 -0.028835 -0.024802  0.000000      2.000000
 -0.021626 -0.012401  0.000000      2.000000
 -0.014418  0.000000  0.000000      2.000000
 -0.014418  0.024802  0.000000      2.000000
 -0.007209  0.037202  0.000000      2.000000
  0.000000  0.049603  0.000000      2.000000
  0.007209  0.062004  0.000000      2.000000
  0.014418  0.074405  0.000000      2.000000
 -0.036044 -0.012401  0.000000      2.000000
 -0.028835  0.000000  0.000000      2.000000
 -0.021626  0.012401  0.000000      2.000000
 -0.021626  0.037202  0.000000      2.000000
 -0.014418  0.049603  0.000000      2.000000
 -0.007209  0.062004  0.000000      2.000000
  0.000000  0.074405  0.000000      2.000000
  0.007209  0.086806  0.000000      2.000000
 -0.043253  0.000000  0.000000      2.000000
 -0.036044  0.012401  0.000000      2.000000
 -0.028835  0.024802  0.000000      2.000000
 -0.028835  0.049603  0.000000      1.000000
 -0.021626  0.062004  0.000000      2.000000
 -0.014418  0.074405  0.000000      2.000000
 -0.007209  0.086806  0.000000      2.000000
  0.000000  0.099206  0.000000      1.000000
 


--------------------------------------------------------------------------------------------------------




 Dimension of arrays:
   k-points           NKPTS =     34   k-points in BZ     NKDIM =     34   number of bands    NBANDS=    120
   number of dos      NEDOS =    301   number of ions     NIONS =     27
   non local maximal  LDIM  =      6   non local SUM 2l+1 LMDIM =     18
   total plane-waves  NPLWV = 222264
   max r-space proj   IRMAX =      1   max aug-charges    IRDMAX=   5642
   dimension x,y,z NGX =    42 NGY =   42 NGZ =  126
   dimension x,y,z NGXF=    84 NGYF=   84 NGZF=  252
   support grid    NGXF=    84 NGYF=   84 NGZF=  252
   ions per type =               3   3   3  18
 NGX,Y,Z   is equivalent  to a cutoff of   6.96,  6.96,  6.98 a.u.
 NGXF,Y,Z  is equivalent  to a cutoff of  13.92, 13.92, 13.96 a.u.


 I would recommend the setting:
   dimension x,y,z NGX =    41 NGY =   41 NGZ =  123
 SYSTEM =  unknown system                          
 POSCAR =  crystal structure from VMoWS2 with Hexag

 Startparameter for this run:
   NWRITE =      2    write-flag & timer
   PREC   = normal    normal or accurate (medium, high low for compatibility)
   ISTART =      0    job   : 0-new  1-cont  2-samecut
   ICHARG =      2    charge: 1-file 2-atom 10-const
   ISPIN  =      1    spin polarized calculation?
   LNONCOLLINEAR =      F non collinear calculations
   LSORBIT =      F    spin-orbit coupling
   INIWAV =      1    electr: 0-lowe 1-rand  2-diag
   LASPH  =      F    aspherical Exc in radial PAW
   METAGGA=      F    non-selfconsistent MetaGGA calc.

 Electronic Relaxation 1
   ENCUT  =  280.0 eV  20.58 Ry    4.54 a.u.  13.68 13.68 40.93*2*pi/ulx,y,z
   ENINI  =  280.0     initial cutoff
   ENAUG  =  373.4 eV  augmentation charge cutoff
   NELM   =     60;   NELMIN=  2; NELMDL= -5     # of ELM steps 
   EDIFF  = 0.1E-03   stopping-criterion for ELM
   LREAL  =      F    real-space projection
   NLSPLINE    = F    spline interpolate recip. space projectors
   LCOMPAT=      F    compatible to vasp.4.4
   GGA_COMPAT  = T    GGA compatible to vasp.4.4-vasp.4.6
   LMAXPAW     = -100 max onsite density
   LMAXMIX     =    2 max onsite mixed and CHGCAR
   VOSKOWN=      0    Vosko Wilk Nusair interpolation
   ROPT   =    0.00000   0.00000   0.00000   0.00000
 Ionic relaxation
   EDIFFG = 0.1E-02   stopping-criterion for IOM
   NSW    =    100    number of steps for IOM
   NBLOCK =      1;   KBLOCK =    100    inner block; outer block 
   IBRION =      1    ionic relax: 0-MD 1-quasi-New 2-CG
   NFREE  =      0    steps in history (QN), initial steepest desc. (CG)
   ISIF   =      3    stress and relaxation
   IWAVPR =     11    prediction:  0-non 1-charg 2-wave 3-comb
   ISYM   =      0    0-nonsym 1-usesym 2-fastsym
   LCORR  =      T    Harris-Foulkes like correction to forces

   POTIM  = 0.5000    time-step for ionic-motion
   TEIN   =    0.0    initial temperature
   TEBEG  =    0.0;   TEEND  =   0.0 temperature during run
   SMASS  =  -3.00    Nose mass-parameter (am)
   estimated Nose-frequenzy (Omega)   =  0.10E-29 period in steps =****** mass=  -0.230E-26a.u.
   SCALEE = 1.0000    scale energy and forces
   NPACO  =    256;   APACO  = 16.0  distance and # of slots for P.C.
   PSTRESS=    0.0 pullay stress

  Mass of Ions in am
   POMASS =  50.94 95.94183.85 32.07
  Ionic Valenz
   ZVAL   =   5.00  6.00  6.00  6.00
  Atomic Wigner-Seitz radii
   RWIGS  =  -1.00 -1.00 -1.00 -1.00
  virtual crystal weights 
   VCA    =   1.00  1.00  1.00  1.00
   NELECT =     159.0000    total number of electrons
   NUPDOWN=      -1.0000    fix difference up-down

 DOS related values:
   EMIN   =  10.00;   EMAX   =-10.00  energy-range for DOS
   EFERMI =   0.00
   ISMEAR =     0;   SIGMA  =   0.20  broadening in eV -4-tet -1-fermi 0-gaus

 Electronic relaxation 2 (details)
   IALGO  =     38    algorithm
   LDIAG  =      T    sub-space diagonalisation (order eigenvalues)
   LSUBROT=      F    optimize rotation matrix (better conditioning)
   TURBO    =      0    0=normal 1=particle mesh
   IRESTART =      0    0=no restart 2=restart with 2 vectors
   NREBOOT  =      0    no. of reboots
   NMIN     =      0    reboot dimension
   EREF     =   0.00    reference energy to select bands
   IMIX   =      4    mixing-type and parameters
     AMIX     =   0.40;   BMIX     =  1.00
     AMIX_MAG =   1.60;   BMIX_MAG =  1.00
     AMIN     =   0.10
     WC   =   100.;   INIMIX=   1;  MIXPRE=   1;  MAXMIX= -45

 Intra band minimization:
   WEIMIN = 0.0010     energy-eigenvalue tresh-hold
   EBREAK =  0.21E-06  absolut break condition
   DEPER  =   0.30     relativ break condition  

   TIME   =   0.40     timestep for ELM

  volume/ion in A,a.u.               =      97.10       655.29
  Fermi-wavevector in a.u.,A,eV,Ry     =   0.643191  1.215456  5.628665  0.413695
  Thomas-Fermi vector in A             =   1.710110
 
 Write flags
   LWAVE  =      F    write WAVECAR
   LCHARG =      F    write CHGCAR
   LVTOT  =      F    write LOCPOT, total local potential
   LVHAR  =      F    write LOCPOT, Hartree potential only
   LELF   =      F    write electronic localiz. function (ELF)
   LORBIT =      0    0 simple, 1 ext, 2 COOP (PROOUT)


 Dipole corrections
   LMONO  =      F    monopole corrections only (constant potential shift)
   LDIPOL =      F    correct potential (dipole corrections)
   IDIPOL =      0    1-x, 2-y, 3-z, 4-all directions 
   EPSILON=  1.0000000 bulk dielectric constant

 Exchange correlation treatment:
   GGA     =    --    GGA type
   LEXCH   =     8    internal setting for exchange type
   VOSKOWN=      0    Vosko Wilk Nusair interpolation
   LHFCALC =     F    Hartree Fock is set to
   LHFONE  =     F    Hartree Fock one center treatment
   AEXX    =    0.0000 exact exchange contribution

 Linear response parameters
   LEPSILON=     F    determine dielectric tensor
   LRPA    =     F    only Hartree local field effects (RPA)
   LNABLA  =     F    use nabla operator in PAW spheres
   LVEL    =     F    velocity operator in full k-point grid
   LINTERFAST=   F  fast interpolation
   KINTER  =     0    interpolate to denser k-point grid
   CSHIFT  =0.1000    complex shift for real part using Kramers Kronig
   OMEGAMAX=  -1.0    maximum frequency
   DEG_THRESHOLD= 0.2000000E-02 threshold for treating states as degnerate
   RTIME   =    0.100 relaxation time in fs

 Orbital magnetization related:
   ORBITALMAG=     F  switch on orbital magnetization
   LCHIMAG   =     F  perturbation theory with respect to B field
   DQ        =  0.001000  dq finite difference perturbation B field



--------------------------------------------------------------------------------------------------------


 quasi-Newton-method for relaxation of ions
 charge density and potential will be updated during run
 non-spin polarized calculation
 Variant of blocked Davidson
 Davidson routine will perform the subspace rotation
 perform sub-space diagonalisation
    after iterative eigenvector-optimisation
 modified Broyden-mixing scheme, WC =      100.0
 initial mixing is a Kerker type mixing with AMIX =  0.4000 and BMIX =      1.0000
 Hartree-type preconditioning will be used
 using additional bands           40
 reciprocal scheme for non local part
 use partial core corrections
 calculate Harris-corrections to forces 
   (improved forces if not selfconsistent)
 use gradient corrections 
 use of overlap-Matrix (Vanderbilt PP)
 Gauss-broadening in eV      SIGMA  =   0.20


--------------------------------------------------------------------------------------------------------


  energy-cutoff  :      280.00
  volume of cell :     2621.81
      direct lattice vectors                 reciprocal lattice vectors
     8.669999960  5.039999894  0.000000000     0.057670129  0.099206348  0.000000000
    -8.669999821  5.040000133  0.000000000    -0.057670126  0.099206350  0.000000000
     0.000000000  0.000000000 30.000000000     0.000000000  0.000000000  0.033333333

  length of vectors
    10.028484344 10.028484344 30.000000000     0.114750788  0.114750788  0.033333333


 
 k-points in units of 2pi/SCALE and weight: K-POINTS 	#supercell of CrS2 in hexagona
   0.00000000  0.00000000  0.00000000       0.016
   0.00720877  0.01240079  0.00000000       0.031
   0.01441753  0.02480159  0.00000000       0.031
   0.02162630  0.03720238  0.00000000       0.031
   0.02883506  0.04960317  0.00000000       0.016
  -0.00720877  0.01240079  0.00000000       0.031
   0.00000000  0.02480159  0.00000000       0.031
   0.00720877  0.03720238  0.00000000       0.031
   0.01441753  0.04960317  0.00000000       0.031
   0.02162630  0.06200397  0.00000000       0.031
  -0.02883506 -0.02480159  0.00000000       0.031
  -0.02162630 -0.01240079  0.00000000       0.031
  -0.01441753  0.00000000  0.00000000       0.031
  -0.01441753  0.02480159  0.00000000       0.031
  -0.00720877  0.03720238  0.00000000       0.031
   0.00000000  0.04960317  0.00000000       0.031
   0.00720877  0.06200397  0.00000000       0.031
   0.01441753  0.07440476  0.00000000       0.031
  -0.03604383 -0.01240079  0.00000000       0.031
  -0.02883506  0.00000000  0.00000000       0.031
  -0.02162630  0.01240079  0.00000000       0.031
  -0.02162630  0.03720238  0.00000000       0.031
  -0.01441753  0.04960317  0.00000000       0.031
  -0.00720877  0.06200397  0.00000000       0.031
   0.00000000  0.07440476  0.00000000       0.031
   0.00720877  0.08680556  0.00000000       0.031
  -0.04325260  0.00000000  0.00000000       0.031
  -0.03604383  0.01240079  0.00000000       0.031
  -0.02883506  0.02480159  0.00000000       0.031
  -0.02883506  0.04960317  0.00000000       0.016
  -0.02162630  0.06200397  0.00000000       0.031
  -0.01441753  0.07440476  0.00000000       0.031
  -0.00720876  0.08680556  0.00000000       0.031
   0.00000000  0.09920635  0.00000000       0.016
 
 k-points in reciprocal lattice and weights: K-POINTS 	#supercell of CrS2 in hexagona
   0.00000000  0.00000000  0.00000000       0.016
   0.12500000  0.00000000  0.00000000       0.031
   0.25000000  0.00000000  0.00000000       0.031
   0.37500000  0.00000000  0.00000000       0.031
   0.50000000  0.00000000  0.00000000       0.016
   0.00000000  0.12500000  0.00000000       0.031
   0.12500000  0.12500000  0.00000000       0.031
   0.25000000  0.12500000  0.00000000       0.031
   0.37500000  0.12500000  0.00000000       0.031
   0.50000000  0.12500000  0.00000000       0.031
  -0.37500000  0.12500000  0.00000000       0.031
  -0.25000000  0.12500000  0.00000000       0.031
  -0.12500000  0.12500000  0.00000000       0.031
   0.00000000  0.25000000  0.00000000       0.031
   0.12500000  0.25000000  0.00000000       0.031
   0.25000000  0.25000000  0.00000000       0.031
   0.37500000  0.25000000  0.00000000       0.031
   0.50000000  0.25000000  0.00000000       0.031
  -0.37500000  0.25000000  0.00000000       0.031
  -0.25000000  0.25000000  0.00000000       0.031
  -0.12500000  0.25000000  0.00000000       0.031
  -0.00000000  0.37500000  0.00000000       0.031
   0.12500000  0.37500000  0.00000000       0.031
   0.25000000  0.37500000  0.00000000       0.031
   0.37500000  0.37500000  0.00000000       0.031
   0.50000000  0.37500000  0.00000000       0.031
  -0.37500000  0.37500000  0.00000000       0.031
  -0.25000000  0.37500000  0.00000000       0.031
  -0.12500000  0.37500000  0.00000000       0.031
   0.00000000  0.50000000  0.00000000       0.016
   0.12500000  0.50000000  0.00000000       0.031
   0.25000000  0.50000000  0.00000000       0.031
   0.37500000  0.50000000  0.00000000       0.031
   0.50000000  0.50000000  0.00000000       0.016
 
 position of ions in fractional coordinates (direct lattice) 
   0.66666669  0.00000000  0.00000000
   1.00000000  0.33333334  0.00000000
   0.66666669  0.33333334  0.00000000
   0.33333334  0.33333334  0.00000000
   0.33333334  0.66666669  0.00000000
   0.66666669  0.66666669  0.00000000
   0.00000000  0.00000000  0.00000000
   0.00000000  0.66666669  0.00000000
   0.33333334  0.00000000  0.00000000
   0.11068511  0.22244981  0.95539999
   0.22244981  0.11068511  0.04460000
   0.11068511  0.55578315  0.95539999
   0.22244981  0.44401845  0.04460000
   0.11068511  0.88911647  0.95539999
   0.22244981  0.77735180  0.04460000
   0.44401845  0.22244981  0.95539999
   0.55578315  0.11068511  0.04460000
   0.44401845  0.55578315  0.95539999
   0.55578315  0.44401845  0.04460000
   0.44401845  0.88911647  0.95539999
   0.55578315  0.77735180  0.04460000
   0.77735180  0.22244981  0.95539999
   0.88911647  0.11068511  0.04460000
   0.77735180  0.55578315  0.95539999
   0.88911647  0.44401845  0.04460000
   0.77735180  0.88911647  0.95539999
   0.88911647  0.77735180  0.04460000
 
 position of ions in cartesian coordinates  (Angst):
   5.78000015  3.36000003  0.00000000
   5.77999993  6.71999999  0.00000000
   2.89000012  5.04000012  0.00000000
   0.00000005  3.36000011  0.00000000
  -2.88999998  5.04000020  0.00000000
   0.00000009  6.72000022  0.00000000
   0.00000000  0.00000000  0.00000000
  -5.78000005  3.36000019  0.00000000
   2.89000007  1.68000002  0.00000000
  -0.96899991  1.67900001 28.66199970
   0.96899995  1.67899998  1.33799996
  -3.85899993  3.35900011 28.66199970
  -1.92100007  3.35900008  1.33799996
  -6.74899970  5.03900005 28.66199970
  -4.81100010  5.03900017  1.33799996
   1.92100017  3.35900003 28.66199970
   3.85900003  3.35900000  1.33799996
  -0.96899986  5.03900012 28.66199970
   0.96900000  5.03900009  1.33799996
  -3.85899963  6.71900006 28.66199970
  -1.92100003  6.71900019  1.33799996
   4.81100024  5.03900004 28.66199970
   6.74899984  5.03899987  1.33799996
   1.92100021  6.71900014 28.66199970
   3.85899981  6.71899996  1.33799996
  -0.96899956  8.39900008 28.66199970
   0.96899979  8.39900005  1.33799996
 


--------------------------------------------------------------------------------------------------------


 k-point  1 :   0.0000 0.0000 0.0000  plane waves:   27959
 k-point  2 :   0.1250 0.0000 0.0000  plane waves:   27889
 k-point  3 :   0.2500 0.0000 0.0000  plane waves:   27875
 k-point  4 :   0.3750 0.0000 0.0000  plane waves:   27893
 k-point  5 :   0.5000 0.0000 0.0000  plane waves:   27932
 k-point  6 :   0.0000 0.1250 0.0000  plane waves:   27889
 k-point  7 :   0.1250 0.1250 0.0000  plane waves:   27906
 k-point  8 :   0.2500 0.1250 0.0000  plane waves:   27898
 k-point  9 :   0.3750 0.1250 0.0000  plane waves:   27888
 k-point 10 :   0.5000 0.1250 0.0000  plane waves:   27873
 k-point 11 :  -0.3750 0.1250 0.0000  plane waves:   27874
 k-point 12 :  -0.2500 0.1250 0.0000  plane waves:   27895
 k-point 13 :  -0.1250 0.1250 0.0000  plane waves:   27879
 k-point 14 :   0.0000 0.2500 0.0000  plane waves:   27875
 k-point 15 :   0.1250 0.2500 0.0000  plane waves:   27898
 k-point 16 :   0.2500 0.2500 0.0000  plane waves:   27920
 k-point 17 :   0.3750 0.2500 0.0000  plane waves:   27901
 k-point 18 :   0.5000 0.2500 0.0000  plane waves:   27875
 k-point 19 :  -0.3750 0.2500 0.0000  plane waves:   27894
 k-point 20 :  -0.2500 0.2500 0.0000  plane waves:   27870
 k-point 21 :  -0.1250 0.2500 0.0000  plane waves:   27895
 k-point 22 :  -0.0000 0.3750 0.0000  plane waves:   27893
 k-point 23 :   0.1250 0.3750 0.0000  plane waves:   27888
 k-point 24 :   0.2500 0.3750 0.0000  plane waves:   27901
 k-point 25 :   0.3750 0.3750 0.0000  plane waves:   27860
 k-point 26 :   0.5000 0.3750 0.0000  plane waves:   27895
 k-point 27 :  -0.3750 0.3750 0.0000  plane waves:   27858
 k-point 28 :  -0.2500 0.3750 0.0000  plane waves:   27894
 k-point 29 :  -0.1250 0.3750 0.0000  plane waves:   27874
 k-point 30 :   0.0000 0.5000 0.0000  plane waves:   27932
 k-point 31 :   0.1250 0.5000 0.0000  plane waves:   27873
 k-point 32 :   0.2500 0.5000 0.0000  plane waves:   27875
 k-point 33 :   0.3750 0.5000 0.0000  plane waves:   27895
 k-point 34 :   0.5000 0.5000 0.0000  plane waves:   27910

 maximum and minimum number of plane-waves per node :     27959    27858

 maximum number of plane-waves:     27959
 maximum index in each direction: 
   IXMAX=   14   IYMAX=   13   IZMAX=   40
   IXMIN=  -14   IYMIN=  -14   IZMIN=  -40

 WARNING: aliasing errors must be expected set NGX to  58 to avoid them
 WARNING: aliasing errors must be expected set NGY to  56 to avoid them
 WARNING: aliasing errors must be expected set NGZ to 162 to avoid them
 aliasing errors are usually negligible using standard VASP settings
 and one can safely disregard these warnings

 serial   3D FFT for wavefunctions

 total amount of memory used by VASP on root node   650782. kBytes
========================================================================

   base      :      30000. kBytes
   nonl-proj :     559647. kBytes
   fftplans  :       2414. kBytes
   grid      :      12150. kBytes
   one-center:        419. kBytes
   wavefun   :      46152. kBytes
 
     INWAV:  cpu time    0.0000: real time    0.0000
 Broyden mixing: mesh for mixing (old mesh)
   NGX = 27   NGY = 27   NGZ = 81
  (NGX  = 84   NGY  = 84   NGZ  =252)
  gives a total of  59049 points

 initial charge density was supplied:
 charge density of overlapping atoms calculated
 number of electron     159.0000000 magnetization 
 keeping initial charge density in first step


--------------------------------------------------------------------------------------------------------


 Maximum index for augmentation-charges          139 (set IRDMAX)


--------------------------------------------------------------------------------------------------------


 First call to EWALD:  gamma=   0.129
 Maximum number of real-space cells 4x 4x 2
 Maximum number of reciprocal cells 2x 2x 5

 FEWALD executed in parallel
    FEWALD:  cpu time    0.0015: real time    0.0016


----------------------------------------- Iteration    1(   1)  ---------------------------------------


    POTLOK:  cpu time    0.0370: real time    0.0372
    SETDIJ:  cpu time    0.0033: real time    0.0034
     EDDAV:  cpu time   21.6654: real time   21.7208
       DOS:  cpu time    0.0012: real time    0.0013
    --------------------------------------------
      LOOP:  cpu time   21.7121: real time   21.7698

 eigenvalue-minimisations  :  8160
 total energy-change (2. order) : 0.1123755E+04  (-0.3587116E+04)
 number of electron     159.0000000 magnetization 
 augmentation part      159.0000000 magnetization 

 Free energy of the ion-electron system (eV)
  ---------------------------------------------------
  alpha Z        PSCENC =        81.65567618
  Ewald energy   TEWEN  =     41891.17178115
  -Hartree energ DENC   =    -47723.81765946
  -exchange      EXHF   =         0.00000000
  -V(xc)+E(xc)   XCENC  =      -242.92465015
  PAW double counting   =      3467.42045192    -2871.19716117
  entropy T*S    EENTRO =        -0.53652877
  eigenvalues    EBANDS =      -239.45967039
  atomic energy  EATOM  =      6761.44252427
  Solvation  Ediel_sol  =         0.00000000
  ---------------------------------------------------
  free energy    TOTEN  =      1123.75476358 eV

  energy without entropy =     1124.29129235  energy(sigma->0) =     1124.02302796


--------------------------------------------------------------------------------------------------------




----------------------------------------- Iteration    1(   2)  ---------------------------------------


     EDDAV:  cpu time   28.1835: real time   28.2510
       DOS:  cpu time    0.0009: real time    0.0009
    --------------------------------------------
      LOOP:  cpu time   28.1852: real time   28.2599

 eigenvalue-minimisations  : 11280
 total energy-change (2. order) :-0.1126197E+04  (-0.1081758E+04)
 number of electron     159.0000000 magnetization 
 augmentation part      159.0000000 magnetization 

 Free energy of the ion-electron system (eV)
  ---------------------------------------------------
  alpha Z        PSCENC =        81.65567618
  Ewald energy   TEWEN  =     41891.17178115
  -Hartree energ DENC   =    -47723.81765946
  -exchange      EXHF   =         0.00000000
  -V(xc)+E(xc)   XCENC  =      -242.92465015
  PAW double counting   =      3467.42045192    -2871.19716117
  entropy T*S    EENTRO =        -0.20437781
  eigenvalues    EBANDS =     -1365.98922467
  atomic energy  EATOM  =      6761.44252427
  Solvation  Ediel_sol  =         0.00000000
  ---------------------------------------------------
  free energy    TOTEN  =        -2.44263973 eV

  energy without entropy =       -2.23826193  energy(sigma->0) =       -2.34045083


--------------------------------------------------------------------------------------------------------




----------------------------------------- Iteration    1(   3)  ---------------------------------------


     EDDAV:  cpu time   27.4399: real time   27.5059
       DOS:  cpu time    0.0002: real time    0.0011
    --------------------------------------------
      LOOP:  cpu time   27.4421: real time   27.5137

 eigenvalue-minimisations  : 10880
 total energy-change (2. order) :-0.1974228E+03  (-0.1897418E+03)
 number of electron     159.0000000 magnetization 
 augmentation part      159.0000000 magnetization 

 Free energy of the ion-electron system (eV)
  ---------------------------------------------------
  alpha Z        PSCENC =        81.65567618
  Ewald energy   TEWEN  =     41891.17178115
  -Hartree energ DENC   =    -47723.81765946
  -exchange      EXHF   =         0.00000000
  -V(xc)+E(xc)   XCENC  =      -242.92465015
  PAW double counting   =      3467.42045192    -2871.19716117
  entropy T*S    EENTRO =        -0.26245297
  eigenvalues    EBANDS =     -1563.35390486
  atomic energy  EATOM  =      6761.44252427
  Solvation  Ediel_sol  =         0.00000000
  ---------------------------------------------------
  free energy    TOTEN  =      -199.86539510 eV

  energy without entropy =     -199.60294213  energy(sigma->0) =     -199.73416861


--------------------------------------------------------------------------------------------------------




----------------------------------------- Iteration    1(   4)  ---------------------------------------


     EDDAV:  cpu time   30.1298: real time   30.2022
       DOS:  cpu time    0.0010: real time    0.0010
    --------------------------------------------
      LOOP:  cpu time   30.1319: real time   30.2098

 eigenvalue-minimisations  : 12200
 total energy-change (2. order) :-0.9124630E+01  (-0.8868559E+01)
 number of electron     159.0000000 magnetization 
 augmentation part      159.0000000 magnetization 

 Free energy of the ion-electron system (eV)
  ---------------------------------------------------
  alpha Z        PSCENC =        81.65567618
  Ewald energy   TEWEN  =     41891.17178115
  -Hartree energ DENC   =    -47723.81765946
  -exchange      EXHF   =         0.00000000
  -V(xc)+E(xc)   XCENC  =      -242.92465015
  PAW double counting   =      3467.42045192    -2871.19716117
  entropy T*S    EENTRO =        -0.28833284
  eigenvalues    EBANDS =     -1572.45265502
  atomic energy  EATOM  =      6761.44252427
  Solvation  Ediel_sol  =         0.00000000
  ---------------------------------------------------
  free energy    TOTEN  =      -208.99002512 eV

  energy without entropy =     -208.70169228  energy(sigma->0) =     -208.84585870


--------------------------------------------------------------------------------------------------------




----------------------------------------- Iteration    1(   5)  ---------------------------------------


     EDDAV:  cpu time   28.2859: real time   28.3537
       DOS:  cpu time    0.0002: real time    0.0010
    CHARGE:  cpu time    0.4642: real time    0.4654
    MIXING:  cpu time    0.0016: real time    0.0018
    --------------------------------------------
      LOOP:  cpu time   28.7539: real time   28.8284

 eigenvalue-minimisations  : 11360
 total energy-change (2. order) :-0.3085469E+00  (-0.3076579E+00)
 number of electron     159.0000110 magnetization 
 augmentation part       -9.8121861 magnetization 

 Broyden mixing:
  rms(total) = 0.27498E+01    rms(broyden)= 0.27493E+01
  rms(prec ) = 0.29349E+01
  weight for this iteration     100.00

 Free energy of the ion-electron system (eV)
  ---------------------------------------------------
  alpha Z        PSCENC =        81.65567618
  Ewald energy   TEWEN  =     41891.17178115
  -Hartree energ DENC   =    -47723.81765946
  -exchange      EXHF   =         0.00000000
  -V(xc)+E(xc)   XCENC  =      -242.92465015
  PAW double counting   =      3467.42045192    -2871.19716117
  entropy T*S    EENTRO =        -0.28468190
  eigenvalues    EBANDS =     -1572.76485282
  atomic energy  EATOM  =      6761.44252427
  Solvation  Ediel_sol  =         0.00000000
  ---------------------------------------------------
  free energy    TOTEN  =      -209.29857198 eV

  energy without entropy =     -209.01389008  energy(sigma->0) =     -209.15623103


--------------------------------------------------------------------------------------------------------




----------------------------------------- Iteration    1(   6)  ---------------------------------------


    POTLOK:  cpu time    0.0350: real time    0.0354
    SETDIJ:  cpu time    0.0025: real time    0.0025
     EDDAV:  cpu time   30.9897: real time   31.0637
       DOS:  cpu time    0.0009: real time    0.0009
    CHARGE:  cpu time    0.4614: real time    0.4625
    MIXING:  cpu time    0.0017: real time    0.0019
    --------------------------------------------
      LOOP:  cpu time   31.4925: real time   31.5762

 eigenvalue-minimisations  : 12720
 total energy-change (2. order) :-0.2829996E+02  (-0.1054302E+02)
 number of electron     159.0000106 magnetization 
 augmentation part        7.0820473 magnetization 

 Broyden mixing:
  rms(total) = 0.59360E+01    rms(broyden)= 0.59353E+01
  rms(prec ) = 0.65449E+01
  weight for this iteration     100.00

 eigenvalues of (default mixing * dielectric matrix)
  average eigenvalue GAMMA=   0.2942
  0.2942

 Free energy of the ion-electron system (eV)
  ---------------------------------------------------
  alpha Z        PSCENC =        81.65567618
  Ewald energy   TEWEN  =     41891.17178115
  -Hartree energ DENC   =    -47702.06999544
  -exchange      EXHF   =         0.00000000
  -V(xc)+E(xc)   XCENC  =      -233.62076426
  PAW double counting   =      3676.18846142    -3082.26920001
  entropy T*S    EENTRO =        -0.25130870
  eigenvalues    EBANDS =     -1629.84570891
  atomic energy  EATOM  =      6761.44252427
  Solvation  Ediel_sol  =         0.00000000
  ---------------------------------------------------
  free energy    TOTEN  =      -237.59853431 eV

  energy without entropy =     -237.34722561  energy(sigma->0) =     -237.47287996


--------------------------------------------------------------------------------------------------------




----------------------------------------- Iteration    1(   7)  ---------------------------------------


    POTLOK:  cpu time    0.0312: real time    0.0312
    SETDIJ:  cpu time    0.0023: real time    0.0023
     EDDAV:  cpu time   32.4874: real time   32.5656
       DOS:  cpu time    0.0009: real time    0.0010
    CHARGE:  cpu time    0.4694: real time    0.4705
    MIXING:  cpu time    0.0012: real time    0.0012
    --------------------------------------------
      LOOP:  cpu time   32.9934: real time   33.0809

 eigenvalue-minimisations  : 13400
 total energy-change (2. order) : 0.4097250E+02  (-0.1758544E+02)
 number of electron     159.0000090 magnetization 
 augmentation part       -6.2594978 magnetization 

 Broyden mixing:
  rms(total) = 0.20016E+01    rms(broyden)= 0.19996E+01
  rms(prec ) = 0.22230E+01
  weight for this iteration     100.00

 eigenvalues of (default mixing * dielectric matrix)
  average eigenvalue GAMMA=   0.5513
  0.8913  0.2114

 Free energy of the ion-electron system (eV)
  ---------------------------------------------------
  alpha Z        PSCENC =        81.65567618
  Ewald energy   TEWEN  =     41891.17178115
  -Hartree energ DENC   =    -47739.13695198
  -exchange      EXHF   =         0.00000000
  -V(xc)+E(xc)   XCENC  =      -234.99359218
  PAW double counting   =      3763.68221124    -3177.71020786
  entropy T*S    EENTRO =        -0.37047241
  eigenvalues    EBANDS =     -1542.36700220
  atomic energy  EATOM  =      6761.44252427
  Solvation  Ediel_sol  =         0.00000000
  ---------------------------------------------------
  free energy    TOTEN  =      -196.62603379 eV

  energy without entropy =     -196.25556138  energy(sigma->0) =     -196.44079759


--------------------------------------------------------------------------------------------------------




----------------------------------------- Iteration    1(   8)  ---------------------------------------


    POTLOK:  cpu time    0.0311: real time    0.0312
    SETDIJ:  cpu time    0.0024: real time    0.0024
     EDDAV:  cpu time   29.5421: real time   29.6127
       DOS:  cpu time    0.0010: real time    0.0010
    CHARGE:  cpu time    0.4912: real time    0.4924
    MIXING:  cpu time    0.0011: real time    0.0011
    --------------------------------------------
      LOOP:  cpu time   30.0699: real time   30.1499

 eigenvalue-minimisations  : 11960
 total energy-change (2. order) : 0.7138448E+01  (-0.1831969E+01)
 number of electron     159.0000095 magnetization 
 augmentation part       -6.3745746 magnetization 

 Broyden mixing:
  rms(total) = 0.12504E+01    rms(broyden)= 0.12501E+01
  rms(prec ) = 0.13508E+01
  weight for this iteration     100.00

 eigenvalues of (default mixing * dielectric matrix)
  average eigenvalue GAMMA=   0.5969
  1.1548  0.2307  0.4051

 Free energy of the ion-electron system (eV)
  ---------------------------------------------------
  alpha Z        PSCENC =        81.65567618
  Ewald energy   TEWEN  =     41891.17178115
  -Hartree energ DENC   =    -47762.18221324
  -exchange      EXHF   =         0.00000000
  -V(xc)+E(xc)   XCENC  =      -235.00648222
  PAW double counting   =      3906.67276741    -3322.33153745
  entropy T*S    EENTRO =        -0.32301329
  eigenvalues    EBANDS =     -1510.58708872
  atomic energy  EATOM  =      6761.44252427
  Solvation  Ediel_sol  =         0.00000000
  ---------------------------------------------------
  free energy    TOTEN  =      -189.48758591 eV

  energy without entropy =     -189.16457262  energy(sigma->0) =     -189.32607927


--------------------------------------------------------------------------------------------------------




----------------------------------------- Iteration    1(   9)  ---------------------------------------


    POTLOK:  cpu time    0.0302: real time    0.0303
    SETDIJ:  cpu time    0.0023: real time    0.0023
     EDDAV:  cpu time   32.8780: real time   32.9570
       DOS:  cpu time    0.0010: real time    0.0010
    CHARGE:  cpu time    0.4845: real time    0.4857
    MIXING:  cpu time    0.0012: real time    0.0012
    --------------------------------------------
      LOOP:  cpu time   33.3982: real time   33.4853

 eigenvalue-minimisations  : 13560
 total energy-change (2. order) : 0.1419144E+01  (-0.3116552E+00)
 number of electron     159.0000090 magnetization 
 augmentation part       -5.5206104 magnetization 

 Broyden mixing:
  rms(total) = 0.89076E+00    rms(broyden)= 0.89058E+00
  rms(prec ) = 0.96535E+00
  weight for this iteration     100.00

 eigenvalues of (default mixing * dielectric matrix)
  average eigenvalue GAMMA=   0.7572
  1.8476  0.6326  0.2211  0.3276

 Free energy of the ion-electron system (eV)
  ---------------------------------------------------
  alpha Z        PSCENC =        81.65567618
  Ewald energy   TEWEN  =     41891.17178115
  -Hartree energ DENC   =    -47767.24493793
  -exchange      EXHF   =         0.00000000
  -V(xc)+E(xc)   XCENC  =      -234.06695789
  PAW double counting   =      3980.96431413    -3397.55526202
  entropy T*S    EENTRO =        -0.31823670
  eigenvalues    EBANDS =     -1504.11734299
  atomic energy  EATOM  =      6761.44252427
  Solvation  Ediel_sol  =         0.00000000
  ---------------------------------------------------
  free energy    TOTEN  =      -188.06844180 eV

  energy without entropy =     -187.75020510  energy(sigma->0) =     -187.90932345


--------------------------------------------------------------------------------------------------------




----------------------------------------- Iteration    1(  10)  ---------------------------------------


    POTLOK:  cpu time    0.0312: real time    0.0312
    SETDIJ:  cpu time    0.0025: real time    0.0025
     EDDAV:  cpu time   32.7006: real time   32.7790
       DOS:  cpu time    0.0011: real time    0.0011
    CHARGE:  cpu time    0.5007: real time    0.5019
    MIXING:  cpu time    0.0013: real time    0.0013
    --------------------------------------------
      LOOP:  cpu time   33.2383: real time   33.3256

 eigenvalue-minimisations  : 13480
 total energy-change (2. order) : 0.1147068E+01  (-0.1593513E+00)
 number of electron     159.0000092 magnetization 
 augmentation part       -4.2140830 magnetization 

 Broyden mixing:
  rms(total) = 0.19581E+00    rms(broyden)= 0.19514E+00
  rms(prec ) = 0.20636E+00
  weight for this iteration     100.00

 eigenvalues of (default mixing * dielectric matrix)
  average eigenvalue GAMMA=   0.9475
  1.7819  1.7819  0.6465  0.2213  0.3057

 Free energy of the ion-electron system (eV)
  ---------------------------------------------------
  alpha Z        PSCENC =        81.65567618
  Ewald energy   TEWEN  =     41891.17178115
  -Hartree energ DENC   =    -47780.68292540
  -exchange      EXHF   =         0.00000000
  -V(xc)+E(xc)   XCENC  =      -232.54085714
  PAW double counting   =      4109.43934005    -3527.61320006
  entropy T*S    EENTRO =        -0.35190482
  eigenvalues    EBANDS =     -1489.44180767
  atomic energy  EATOM  =      6761.44252427
  Solvation  Ediel_sol  =         0.00000000
  ---------------------------------------------------
  free energy    TOTEN  =      -186.92137345 eV

  energy without entropy =     -186.56946863  energy(sigma->0) =     -186.74542104


--------------------------------------------------------------------------------------------------------




----------------------------------------- Iteration    1(  11)  ---------------------------------------


    POTLOK:  cpu time    0.0316: real time    0.0316
    SETDIJ:  cpu time    0.0023: real time    0.0023
     EDDAV:  cpu time   32.9185: real time   32.9972
       DOS:  cpu time    0.0011: real time    0.0011
    CHARGE:  cpu time    0.5031: real time    0.5043
    MIXING:  cpu time    0.0013: real time    0.0013
    --------------------------------------------
      LOOP:  cpu time   33.4588: real time   33.5470

 eigenvalue-minimisations  : 13600
 total energy-change (2. order) :-0.1283413E-01  (-0.4262202E-01)
 number of electron     159.0000087 magnetization 
 augmentation part       -4.6210982 magnetization 

 Broyden mixing:
  rms(total) = 0.30108E+00    rms(broyden)= 0.30100E+00
  rms(prec ) = 0.33493E+00
  weight for this iteration     100.00

 eigenvalues of (default mixing * dielectric matrix)
  average eigenvalue GAMMA=   0.9615
  2.1932  1.7358  0.6553  0.6553  0.2209  0.3084

 Free energy of the ion-electron system (eV)
  ---------------------------------------------------
  alpha Z        PSCENC =        81.65567618
  Ewald energy   TEWEN  =     41891.17178115
  -Hartree energ DENC   =    -47795.14619824
  -exchange      EXHF   =         0.00000000
  -V(xc)+E(xc)   XCENC  =      -232.08748666
  PAW double counting   =      4173.88497014    -3592.16950484
  entropy T*S    EENTRO =        -0.32578005
  eigenvalues    EBANDS =     -1475.36018954
  atomic energy  EATOM  =      6761.44252427
  Solvation  Ediel_sol  =         0.00000000
  ---------------------------------------------------
  free energy    TOTEN  =      -186.93420759 eV

  energy without entropy =     -186.60842754  energy(sigma->0) =     -186.77131756


--------------------------------------------------------------------------------------------------------




----------------------------------------- Iteration    1(  12)  ---------------------------------------


    POTLOK:  cpu time    0.0323: real time    0.0324
    SETDIJ:  cpu time    0.0024: real time    0.0024
     EDDAV:  cpu time   32.9518: real time   33.0310
       DOS:  cpu time    0.0010: real time    0.0010
    CHARGE:  cpu time    0.5018: real time    0.5030
    MIXING:  cpu time    0.0014: real time    0.0014
    --------------------------------------------
      LOOP:  cpu time   33.4916: real time   33.5801

 eigenvalue-minimisations  : 13600
 total energy-change (2. order) : 0.7884493E-01  (-0.2531544E-01)
 number of electron     159.0000088 magnetization 
 augmentation part       -4.1856751 magnetization 

 Broyden mixing:
  rms(total) = 0.12788E+00    rms(broyden)= 0.12757E+00
  rms(prec ) = 0.14635E+00
  weight for this iteration     100.00

 eigenvalues of (default mixing * dielectric matrix)
  average eigenvalue GAMMA=   0.8854
  2.2484  1.7257  0.7779  0.6571  0.2208  0.3080  0.2598

 Free energy of the ion-electron system (eV)
  ---------------------------------------------------
  alpha Z        PSCENC =        81.65567618
  Ewald energy   TEWEN  =     41891.17178115
  -Hartree energ DENC   =    -47801.22827631
  -exchange      EXHF   =         0.00000000
  -V(xc)+E(xc)   XCENC  =      -231.92123630
  PAW double counting   =      4189.59825747    -3607.79802215
  entropy T*S    EENTRO =        -0.33998522
  eigenvalues    EBANDS =     -1469.43608174
  atomic energy  EATOM  =      6761.44252427
  Solvation  Ediel_sol  =         0.00000000
  ---------------------------------------------------
  free energy    TOTEN  =      -186.85536265 eV

  energy without entropy =     -186.51537743  energy(sigma->0) =     -186.68537004


--------------------------------------------------------------------------------------------------------




----------------------------------------- Iteration    1(  13)  ---------------------------------------


    POTLOK:  cpu time    0.0299: real time    0.0302
    SETDIJ:  cpu time    0.0023: real time    0.0023
     EDDAV:  cpu time   30.5119: real time   30.5850
       DOS:  cpu time    0.0002: real time    0.0011
    CHARGE:  cpu time    0.5004: real time    0.5016
    MIXING:  cpu time    0.0014: real time    0.0014
    --------------------------------------------
      LOOP:  cpu time   31.0482: real time   31.1310

 eigenvalue-minimisations  : 12400
 total energy-change (2. order) : 0.2542222E-01  (-0.6565099E-02)
 number of electron     159.0000089 magnetization 
 augmentation part       -4.1017937 magnetization 

 Broyden mixing:
  rms(total) = 0.81619E-01    rms(broyden)= 0.81507E-01
  rms(prec ) = 0.91263E-01
  weight for this iteration     100.00

 eigenvalues of (default mixing * dielectric matrix)
  average eigenvalue GAMMA=   0.8286
  2.2426  1.7690  0.8478  0.6328  0.3807  0.3084  0.2215  0.2262

 Free energy of the ion-electron system (eV)
  ---------------------------------------------------
  alpha Z        PSCENC =        81.65567618
  Ewald energy   TEWEN  =     41891.17178115
  -Hartree energ DENC   =    -47803.60203979
  -exchange      EXHF   =         0.00000000
  -V(xc)+E(xc)   XCENC  =      -231.87642385
  PAW double counting   =      4191.86971279    -3610.02513016
  entropy T*S    EENTRO =        -0.34286129
  eigenvalues    EBANDS =     -1467.12317974
  atomic energy  EATOM  =      6761.44252427
  Solvation  Ediel_sol  =         0.00000000
  ---------------------------------------------------
  free energy    TOTEN  =      -186.82994044 eV

  energy without entropy =     -186.48707915  energy(sigma->0) =     -186.65850979


--------------------------------------------------------------------------------------------------------




----------------------------------------- Iteration    1(  14)  ---------------------------------------


    POTLOK:  cpu time    0.0310: real time    0.0310
    SETDIJ:  cpu time    0.0023: real time    0.0023
     EDDAV:  cpu time   32.7586: real time   32.8370
       DOS:  cpu time    0.0010: real time    0.0010
    CHARGE:  cpu time    0.5054: real time    0.5066
    MIXING:  cpu time    0.0015: real time    0.0015
    --------------------------------------------
      LOOP:  cpu time   33.3007: real time   33.3872

 eigenvalue-minimisations  : 13520
 total energy-change (2. order) : 0.5047175E-03  (-0.2099721E-02)
 number of electron     159.0000089 magnetization 
 augmentation part       -4.1409069 magnetization 

 Broyden mixing:
  rms(total) = 0.82464E-01    rms(broyden)= 0.82433E-01
  rms(prec ) = 0.91767E-01
  weight for this iteration     100.00

 eigenvalues of (default mixing * dielectric matrix)
  average eigenvalue GAMMA=   0.8323
  2.2008  1.9682  1.1199  0.6467  0.6467  0.3080  0.2209  0.2543  0.1253

 Free energy of the ion-electron system (eV)
  ---------------------------------------------------
  alpha Z        PSCENC =        81.65567618
  Ewald energy   TEWEN  =     41891.17178115
  -Hartree energ DENC   =    -47805.52993313
  -exchange      EXHF   =         0.00000000
  -V(xc)+E(xc)   XCENC  =      -231.85151802
  PAW double counting   =      4192.41733790    -3610.54506299
  entropy T*S    EENTRO =        -0.34172766
  eigenvalues    EBANDS =     -1465.24851341
  atomic energy  EATOM  =      6761.44252427
  Solvation  Ediel_sol  =         0.00000000
  ---------------------------------------------------
  free energy    TOTEN  =      -186.82943572 eV

  energy without entropy =     -186.48770806  energy(sigma->0) =     -186.65857189


--------------------------------------------------------------------------------------------------------




----------------------------------------- Iteration    1(  15)  ---------------------------------------


    POTLOK:  cpu time    0.0306: real time    0.0309
    SETDIJ:  cpu time    0.0024: real time    0.0024
     EDDAV:  cpu time   32.0864: real time   32.1635
       DOS:  cpu time    0.0011: real time    0.0011
    CHARGE:  cpu time    0.5031: real time    0.5043
    MIXING:  cpu time    0.0015: real time    0.0015
    --------------------------------------------
      LOOP:  cpu time   32.6263: real time   32.7113

 eigenvalue-minimisations  : 13200
 total energy-change (2. order) : 0.6084173E-02  (-0.1439616E-02)
 number of electron     159.0000089 magnetization 
 augmentation part       -4.2094682 magnetization 

 Broyden mixing:
  rms(total) = 0.18952E-01    rms(broyden)= 0.18855E-01
  rms(prec ) = 0.22661E-01
  weight for this iteration     100.00

 eigenvalues of (default mixing * dielectric matrix)
  average eigenvalue GAMMA=   0.8944
  2.2699  2.2699  1.3586  0.8993  0.6236  0.6236  0.3083  0.2209  0.2499  0.1200

 Free energy of the ion-electron system (eV)
  ---------------------------------------------------
  alpha Z        PSCENC =        81.65567618
  Ewald energy   TEWEN  =     41891.17178115
  -Hartree energ DENC   =    -47809.21890089
  -exchange      EXHF   =         0.00000000
  -V(xc)+E(xc)   XCENC  =      -231.80379407
  PAW double counting   =      4193.35582354    -3611.43564214
  entropy T*S    EENTRO =        -0.33972454
  eigenvalues    EBANDS =     -1461.65109505
  atomic energy  EATOM  =      6761.44252427
  Solvation  Ediel_sol  =         0.00000000
  ---------------------------------------------------
  free energy    TOTEN  =      -186.82335155 eV

  energy without entropy =     -186.48362701  energy(sigma->0) =     -186.65348928


--------------------------------------------------------------------------------------------------------




----------------------------------------- Iteration    1(  16)  ---------------------------------------


    POTLOK:  cpu time    0.0286: real time    0.0299
    SETDIJ:  cpu time    0.0023: real time    0.0023
     EDDAV:  cpu time   29.2550: real time   29.3250
       DOS:  cpu time    0.0011: real time    0.0011
    CHARGE:  cpu time    0.5043: real time    0.5055
    MIXING:  cpu time    0.0016: real time    0.0016
    --------------------------------------------
      LOOP:  cpu time   29.7952: real time   29.8729

 eigenvalue-minimisations  : 11840
 total energy-change (2. order) : 0.3732685E-03  (-0.2722059E-03)
 number of electron     159.0000089 magnetization 
 augmentation part       -4.2066195 magnetization 

 Broyden mixing:
  rms(total) = 0.16605E-01    rms(broyden)= 0.16590E-01
  rms(prec ) = 0.20171E-01
  weight for this iteration     100.00

 eigenvalues of (default mixing * dielectric matrix)
  average eigenvalue GAMMA=   0.8750
  2.3256  2.3256  1.4046  1.0284  0.6386  0.6386  0.3657  0.3080  0.2209  0.2491
  0.1198

 Free energy of the ion-electron system (eV)
  ---------------------------------------------------
  alpha Z        PSCENC =        81.65567618
  Ewald energy   TEWEN  =     41891.17178115
  -Hartree energ DENC   =    -47814.23896118
  -exchange      EXHF   =         0.00000000
  -V(xc)+E(xc)   XCENC  =      -231.74092154
  PAW double counting   =      4194.41264641    -3612.44545325
  entropy T*S    EENTRO =        -0.33971308
  eigenvalues    EBANDS =     -1456.74055723
  atomic energy  EATOM  =      6761.44252427
  Solvation  Ediel_sol  =         0.00000000
  ---------------------------------------------------
  free energy    TOTEN  =      -186.82297828 eV

  energy without entropy =     -186.48326519  energy(sigma->0) =     -186.65312174


--------------------------------------------------------------------------------------------------------




----------------------------------------- Iteration    1(  17)  ---------------------------------------


    POTLOK:  cpu time    0.0309: real time    0.0313
    SETDIJ:  cpu time    0.0024: real time    0.0024
     EDDAV:  cpu time   29.8603: real time   29.9317
       DOS:  cpu time    0.0010: real time    0.0010
    CHARGE:  cpu time    0.5029: real time    0.5041
    MIXING:  cpu time    0.0017: real time    0.0018
    --------------------------------------------
      LOOP:  cpu time   30.4006: real time   30.4798

 eigenvalue-minimisations  : 12120
 total energy-change (2. order) : 0.3424294E-03  (-0.1669068E-03)
 number of electron     159.0000089 magnetization 
 augmentation part       -4.1921289 magnetization 

 Broyden mixing:
  rms(total) = 0.18199E-01    rms(broyden)= 0.18189E-01
  rms(prec ) = 0.21049E-01
  weight for this iteration     100.00

 eigenvalues of (default mixing * dielectric matrix)
  average eigenvalue GAMMA=   0.8272
  2.3426  2.3426  1.4143  1.0653  0.6446  0.6446  0.4196  0.3081  0.2209  0.2494
  0.1199  0.1547

 Free energy of the ion-electron system (eV)
  ---------------------------------------------------
  alpha Z        PSCENC =        81.65567618
  Ewald energy   TEWEN  =     41891.17178115
  -Hartree energ DENC   =    -47816.62909752
  -exchange      EXHF   =         0.00000000
  -V(xc)+E(xc)   XCENC  =      -231.71612413
  PAW double counting   =      4194.45853293    -3612.47686511
  entropy T*S    EENTRO =        -0.34009515
  eigenvalues    EBANDS =     -1454.38896847
  atomic energy  EATOM  =      6761.44252427
  Solvation  Ediel_sol  =         0.00000000
  ---------------------------------------------------
  free energy    TOTEN  =      -186.82263585 eV

  energy without entropy =     -186.48254070  energy(sigma->0) =     -186.65258827


--------------------------------------------------------------------------------------------------------




----------------------------------------- Iteration    1(  18)  ---------------------------------------


    POTLOK:  cpu time    0.0306: real time    0.0306
    SETDIJ:  cpu time    0.0023: real time    0.0023
     EDDAV:  cpu time   26.2699: real time   26.3327
       DOS:  cpu time    0.0010: real time    0.0010
    CHARGE:  cpu time    0.5054: real time    0.5066
    MIXING:  cpu time    0.0018: real time    0.0018
    --------------------------------------------
      LOOP:  cpu time   26.8120: real time   26.8825

 eigenvalue-minimisations  : 10320
 total energy-change (2. order) : 0.1405354E-03  (-0.1084820E-03)
 number of electron     159.0000089 magnetization 
 augmentation part       -4.1904906 magnetization 

 Broyden mixing:
  rms(total) = 0.99932E-02    rms(broyden)= 0.99798E-02
  rms(prec ) = 0.12491E-01
  weight for this iteration     100.00

 eigenvalues of (default mixing * dielectric matrix)
  average eigenvalue GAMMA=   0.8694
  2.4721  2.4721  1.4830  1.2962  0.9292  0.6327  0.6327  0.3611  0.3082  0.2209
  0.2493  0.1198  0.1254

 Free energy of the ion-electron system (eV)
  ---------------------------------------------------
  alpha Z        PSCENC =        81.65567618
  Ewald energy   TEWEN  =     41891.17178115
  -Hartree energ DENC   =    -47817.53626137
  -exchange      EXHF   =         0.00000000
  -V(xc)+E(xc)   XCENC  =      -231.70811448
  PAW double counting   =      4194.35706062    -3612.37146384
  entropy T*S    EENTRO =        -0.34009566
  eigenvalues    EBANDS =     -1453.49360216
  atomic energy  EATOM  =      6761.44252427
  Solvation  Ediel_sol  =         0.00000000
  ---------------------------------------------------
  free energy    TOTEN  =      -186.82249531 eV

  energy without entropy =     -186.48239965  energy(sigma->0) =     -186.65244748


--------------------------------------------------------------------------------------------------------




----------------------------------------- Iteration    1(  19)  ---------------------------------------


    POTLOK:  cpu time    0.0303: real time    0.0305
    SETDIJ:  cpu time    0.0023: real time    0.0023
     EDDAV:  cpu time   26.9336: real time   26.9984
       DOS:  cpu time    0.0011: real time    0.0011
    CHARGE:  cpu time    0.5044: real time    0.5056
    MIXING:  cpu time    0.0019: real time    0.0019
    --------------------------------------------
      LOOP:  cpu time   27.4749: real time   27.5469

 eigenvalue-minimisations  : 10760
 total energy-change (2. order) :-0.4718463E-03  (-0.8209683E-04)
 number of electron     159.0000089 magnetization 
 augmentation part       -4.1945271 magnetization 

 Broyden mixing:
  rms(total) = 0.89494E-02    rms(broyden)= 0.89414E-02
  rms(prec ) = 0.11057E-01
  weight for this iteration     100.00

 eigenvalues of (default mixing * dielectric matrix)
  average eigenvalue GAMMA=   0.8709
  2.6117  2.6117  1.6432  1.4009  0.9739  0.6356  0.6356  0.3794  0.3083  0.2209
  0.2494  0.2786  0.1198  0.1243

 Free energy of the ion-electron system (eV)
  ---------------------------------------------------
  alpha Z        PSCENC =        81.65567618
  Ewald energy   TEWEN  =     41891.17178115
  -Hartree energ DENC   =    -47821.82300806
  -exchange      EXHF   =         0.00000000
  -V(xc)+E(xc)   XCENC  =      -231.67374966
  PAW double counting   =      4193.60668201    -3611.60617164
  entropy T*S    EENTRO =        -0.33983329
  eigenvalues    EBANDS =     -1449.25686812
  atomic energy  EATOM  =      6761.44252427
  Solvation  Ediel_sol  =         0.00000000
  ---------------------------------------------------
  free energy    TOTEN  =      -186.82296716 eV

  energy without entropy =     -186.48313387  energy(sigma->0) =     -186.65305051


--------------------------------------------------------------------------------------------------------




----------------------------------------- Iteration    1(  20)  ---------------------------------------


    POTLOK:  cpu time    0.0307: real time    0.0310
    SETDIJ:  cpu time    0.0024: real time    0.0024
     EDDAV:  cpu time   21.3117: real time   21.3626
       DOS:  cpu time    0.0011: real time    0.0011
    CHARGE:  cpu time    0.5012: real time    0.5024
    MIXING:  cpu time    0.0020: real time    0.0020
    --------------------------------------------
      LOOP:  cpu time   21.8504: real time   21.9094

 eigenvalue-minimisations  :  7960
 total energy-change (2. order) :-0.3141390E-03  (-0.4189564E-04)
 number of electron     159.0000089 magnetization 
 augmentation part       -4.1961250 magnetization 

 Broyden mixing:
  rms(total) = 0.42113E-02    rms(broyden)= 0.42012E-02
  rms(prec ) = 0.57262E-02
  weight for this iteration     100.00

 eigenvalues of (default mixing * dielectric matrix)
  average eigenvalue GAMMA=   0.9643
  3.4189  2.4222  2.0544  1.5855  1.0305  1.0305  0.6370  0.6370  0.3737  0.3082
  0.2209  0.2493  0.2526  0.1198  0.1242

 Free energy of the ion-electron system (eV)
  ---------------------------------------------------
  alpha Z        PSCENC =        81.65567618
  Ewald energy   TEWEN  =     41891.17178115
  -Hartree energ DENC   =    -47824.36506428
  -exchange      EXHF   =         0.00000000
  -V(xc)+E(xc)   XCENC  =      -231.65406978
  PAW double counting   =      4193.16848947    -3611.16146947
  entropy T*S    EENTRO =        -0.33970349
  eigenvalues    EBANDS =     -1446.74144536
  atomic energy  EATOM  =      6761.44252427
  Solvation  Ediel_sol  =         0.00000000
  ---------------------------------------------------
  free energy    TOTEN  =      -186.82328130 eV

  energy without entropy =     -186.48357781  energy(sigma->0) =     -186.65342956


--------------------------------------------------------------------------------------------------------




----------------------------------------- Iteration    1(  21)  ---------------------------------------


    POTLOK:  cpu time    0.0310: real time    0.0311
    SETDIJ:  cpu time    0.0023: real time    0.0023
     EDDAV:  cpu time   23.6041: real time   23.6610
       DOS:  cpu time    0.0011: real time    0.0012
    CHARGE:  cpu time    0.5032: real time    0.5044
    MIXING:  cpu time    0.0019: real time    0.0019
    --------------------------------------------
      LOOP:  cpu time   24.1447: real time   24.2090

 eigenvalue-minimisations  :  9120
 total energy-change (2. order) :-0.1337649E-02  (-0.3175473E-04)
 number of electron     159.0000089 magnetization 
 augmentation part       -4.1889230 magnetization 

 Broyden mixing:
  rms(total) = 0.22881E-02    rms(broyden)= 0.22859E-02
  rms(prec ) = 0.30681E-02
  weight for this iteration     100.00

 eigenvalues of (default mixing * dielectric matrix)
  average eigenvalue GAMMA=   1.0778
  4.4562  2.4281  2.4281  1.7078  1.1917  1.1917  0.9215  0.6355  0.6355  0.3739
  0.3082  0.2209  0.2492  0.2521  0.1198  0.1242

 Free energy of the ion-electron system (eV)
  ---------------------------------------------------
  alpha Z        PSCENC =        81.65567618
  Ewald energy   TEWEN  =     41891.17178115
  -Hartree energ DENC   =    -47828.78580997
  -exchange      EXHF   =         0.00000000
  -V(xc)+E(xc)   XCENC  =      -231.62288596
  PAW double counting   =      4192.52599515    -3610.51779861
  entropy T*S    EENTRO =        -0.33978770
  eigenvalues    EBANDS =     -1442.35431346
  atomic energy  EATOM  =      6761.44252427
  Solvation  Ediel_sol  =         0.00000000
  ---------------------------------------------------
  free energy    TOTEN  =      -186.82461895 eV

  energy without entropy =     -186.48483125  energy(sigma->0) =     -186.65472510


--------------------------------------------------------------------------------------------------------




----------------------------------------- Iteration    1(  22)  ---------------------------------------


    POTLOK:  cpu time    0.0303: real time    0.0304
    SETDIJ:  cpu time    0.0023: real time    0.0023
     EDDAV:  cpu time   20.8420: real time   20.8919
       DOS:  cpu time    0.0002: real time    0.0010
    CHARGE:  cpu time    0.5036: real time    0.5048
    MIXING:  cpu time    0.0020: real time    0.0020
    --------------------------------------------
      LOOP:  cpu time   21.3823: real time   21.4397

 eigenvalue-minimisations  :  7760
 total energy-change (2. order) :-0.1214850E-02  (-0.9948865E-05)
 number of electron     159.0000089 magnetization 
 augmentation part       -4.1916015 magnetization 

 Broyden mixing:
  rms(total) = 0.96686E-03    rms(broyden)= 0.96625E-03
  rms(prec ) = 0.13885E-02
  weight for this iteration     100.00

 eigenvalues of (default mixing * dielectric matrix)
  average eigenvalue GAMMA=   1.1485
  5.2936  2.6062  2.5296  1.8036  1.4402  1.0928  0.9195  0.9195  0.6360  0.6360
  0.3740  0.3082  0.2209  0.2492  0.2520  0.1198  0.1242

 Free energy of the ion-electron system (eV)
  ---------------------------------------------------
  alpha Z        PSCENC =        81.65567618
  Ewald energy   TEWEN  =     41891.17178115
  -Hartree energ DENC   =    -47831.48036042
[...]
    104      -0.4738      0.00000
    105      -0.4018      0.00000
    106      -0.2748      0.00000
    107      -0.2120      0.00000
    108      -0.1577      0.00000
    109       0.0187      0.00000
    110       0.2771      0.00000
    111       0.3550      0.00000
    112       0.5666      0.00000
    113       0.6449      0.00000
    114       0.8624      0.00000
    115       1.1319      0.00000
    116       1.3034      0.00000
    117       1.3622      0.00000
    118       2.1397      0.00000
    119       2.3035      0.00000
    120       2.3966      0.00000

 k-point    34 :       0.5000    0.5000    0.0000
  band No.  band energies     occupation 
      1     -17.4858      2.00000
      2     -17.2805      2.00000
      3     -16.7051      2.00000
      4     -16.6489      2.00000
      5     -16.5000      2.00000
      6     -16.4040      2.00000
      7     -16.1666      2.00000
      8     -16.1657      2.00000
      9     -16.1640      2.00000
     10     -16.0234      2.00000
     11     -15.9315      2.00000
     12     -15.7367      2.00000
     13     -15.7247      2.00000
     14     -15.6740      2.00000
     15     -15.6585      2.00000
     16     -15.5403      2.00000
     17     -15.5240      2.00000
     18     -15.4861      2.00000
     19      -9.7638      2.00000
     20      -9.2755      2.00000
     21      -9.2638      2.00000
     22      -9.0359      2.00000
     23      -8.8965      2.00000
     24      -8.8592      2.00000
     25      -8.5809      2.00000
     26      -8.5081      2.00000
     27      -8.3857      2.00000
     28      -8.2840      2.00000
     29      -8.2381      2.00000
     30      -8.1475      2.00000
     31      -8.0815      2.00000
     32      -7.9611      2.00000
     33      -7.9598      2.00000
     34      -7.8042      2.00000
     35      -7.7367      2.00000
     36      -7.6679      2.00000
     37      -7.5992      2.00000
     38      -7.3317      2.00000
     39      -7.3198      2.00000
     40      -7.2712      2.00000
     41      -7.0381      2.00000
     42      -7.0120      2.00000
     43      -6.9131      2.00000
     44      -6.8982      2.00000
     45      -6.8754      2.00000
     46      -6.7458      2.00000
     47      -6.6808      2.00000
     48      -6.6304      2.00000
     49      -6.6134      2.00000
     50      -6.5716      2.00000
     51      -6.3442      2.00000
     52      -6.3218      2.00000
     53      -6.2273      2.00000
     54      -6.1651      2.00000
     55      -6.1348      2.00000
     56      -6.0881      2.00000
     57      -6.0600      2.00000
     58      -5.9423      2.00000
     59      -5.9260      2.00000
     60      -5.8217      2.00000
     61      -5.7942      2.00000
     62      -5.6472      2.00000
     63      -5.5618      2.00000
     64      -5.5037      2.00000
     65      -5.4923      2.00000
     66      -5.0275      2.00000
     67      -4.9604      2.00000
     68      -4.8104      2.00000
     69      -4.7423      2.00000
     70      -4.7049      2.00000
     71      -4.6165      2.00000
     72      -4.5509      2.00000
     73      -4.3233      2.00000
     74      -4.2289      2.00000
     75      -3.9538      2.00000
     76      -3.8851      2.00000
     77      -3.8105      1.99999
     78      -3.5968      1.99729
     79      -3.5483      1.99208
     80      -3.0643      0.44303
     81      -3.0604      0.42690
     82      -2.9261      0.08120
     83      -2.7365      0.00204
     84      -2.7232      0.00148
     85      -2.5829      0.00003
     86      -2.5625      0.00002
     87      -2.4869      0.00000
     88      -2.4001      0.00000
     89      -2.1405      0.00000
     90      -2.1305      0.00000
     91      -1.8929      0.00000
     92      -1.8898      0.00000
     93      -1.8035      0.00000
     94      -1.3331      0.00000
     95      -1.1484      0.00000
     96      -1.0941      0.00000
     97      -0.9829      0.00000
     98      -0.9560      0.00000
     99      -0.8276      0.00000
    100      -0.7650      0.00000
    101      -0.7622      0.00000
    102      -0.7040      0.00000
    103      -0.5311      0.00000
    104      -0.4782      0.00000
    105      -0.4614      0.00000
    106      -0.2813      0.00000
    107      -0.2567      0.00000
    108      -0.1336      0.00000
    109       0.0257      0.00000
    110       0.3275      0.00000
    111       0.3929      0.00000
    112       0.5533      0.00000
    113       0.6120      0.00000
    114       0.8887      0.00000
    115       1.1076      0.00000
    116       1.3501      0.00000
    117       1.3643      0.00000
    118       2.2290      0.00000
    119       2.2423      0.00000
    120       2.3695      0.00000


--------------------------------------------------------------------------------------------------------


 soft charge-density along one line, spin component           1
         0         1         2         3         4         5         6         7         8         9
 total charge-density along one line
 
 pseudopotential strength for first ion, spin component:           1
 -7.346   0.004   0.025  -0.022  -0.001   0.713  -0.002  -0.008
  0.004  -7.262  -0.015  -0.018   0.022  -0.002   0.687   0.005
  0.025  -0.015  -7.244   0.009   0.015  -0.008   0.005   0.684
 -0.022  -0.018   0.009  -7.284   0.022   0.007   0.005  -0.003
 -0.001   0.022   0.015   0.022  -7.345   0.000  -0.007  -0.004
  0.713  -0.002  -0.008   0.007   0.000   0.321   0.001   0.002
 -0.002   0.687   0.005   0.005  -0.007   0.001   0.329  -0.001
 -0.008   0.005   0.684  -0.003  -0.004   0.002  -0.001   0.329
  0.007   0.005  -0.003   0.694  -0.005  -0.002  -0.002   0.001
  0.000  -0.007  -0.004  -0.005   0.712  -0.000   0.002   0.001
  0.007   0.008  -0.016  -0.005   0.004  -0.002  -0.002   0.003
  0.002   0.002  -0.006  -0.001   0.001  -0.000  -0.001   0.001
  0.001  -0.002   0.001  -0.000   0.002  -0.000   0.000  -0.000
 -0.000  -0.003  -0.001   0.002  -0.000  -0.000   0.000   0.000
 -0.002  -0.000  -0.001  -0.002   0.002   0.000  -0.000   0.000
  0.000  -0.000   0.001  -0.000   0.002  -0.000   0.000  -0.000
 -0.000  -0.002   0.000   0.001  -0.000   0.000   0.000  -0.000
 -0.002  -0.000  -0.000  -0.001   0.002   0.000   0.000   0.000
 total augmentation occupancy for first ion, spin component:           1
  0.786   0.171   0.069  -0.009  -0.025   0.406   0.240   0.005   0.009  -0.005   0.039  -0.002  -0.011  -0.003   0.001  -0.001
  0.171   1.087  -0.059   0.027   0.009   0.238   0.616   0.001   0.002  -0.008   0.018  -0.000  -0.015  -0.006  -0.004  -0.001
  0.069  -0.059   0.700   0.034   0.040   0.002   0.003   0.269  -0.002   0.001   0.174   0.001  -0.011   0.004   0.007  -0.001
 -0.009   0.027   0.034   1.117  -0.161   0.008   0.002  -0.001   0.618  -0.247  -0.011   0.000  -0.005   0.004  -0.020  -0.000
 -0.025   0.009   0.040  -0.161   0.815  -0.005  -0.009   0.003  -0.250   0.412   0.022  -0.001  -0.001  -0.002   0.010  -0.001
  0.406   0.238   0.002   0.008  -0.005   0.357   0.219   0.000   0.005  -0.000  -0.000   0.001  -0.003  -0.010  -0.003  -0.001
  0.240   0.616   0.003   0.002  -0.009   0.219   0.543  -0.004   0.005  -0.005   0.023   0.001  -0.010  -0.016  -0.010  -0.001
  0.005   0.001   0.269  -0.001   0.003   0.000  -0.004   0.236   0.002   0.000   0.020   0.005  -0.004  -0.001   0.003  -0.001
  0.009   0.002  -0.002   0.618  -0.250   0.005   0.005   0.002   0.549  -0.226  -0.014  -0.001  -0.010   0.010  -0.022  -0.001
 -0.005  -0.008   0.001  -0.247   0.412  -0.000  -0.005   0.000  -0.226   0.357  -0.000   0.000   0.003  -0.006   0.007  -0.000
  0.039   0.018   0.174  -0.011   0.022  -0.000   0.023   0.020  -0.014  -0.000   1.387   0.128   0.004  -0.022  -0.002  -0.000
 -0.002  -0.000   0.001   0.000  -0.001   0.001   0.001   0.005  -0.001   0.000   0.128   0.024  -0.002  -0.001   0.001  -0.000
 -0.011  -0.015  -0.011  -0.005  -0.001  -0.003  -0.010  -0.004  -0.010   0.003   0.004  -0.002   0.346   0.010   0.013   0.026
 -0.003  -0.006   0.004   0.004  -0.002  -0.010  -0.016  -0.001   0.010  -0.006  -0.022  -0.001   0.010   0.412  -0.006   0.000
  0.001  -0.004   0.007  -0.020   0.010  -0.003  -0.010   0.003  -0.022   0.007  -0.002   0.001   0.013  -0.006   0.361  -0.000
 -0.001  -0.001  -0.001  -0.000  -0.001  -0.001  -0.001  -0.001  -0.001  -0.000  -0.000  -0.000   0.026   0.000  -0.000   0.003
 -0.000   0.001  -0.000  -0.000  -0.000  -0.001  -0.001  -0.000   0.001  -0.000  -0.001  -0.000   0.000   0.028  -0.000   0.000
  0.001  -0.000   0.000  -0.001  -0.001   0.000  -0.001   0.001  -0.002   0.000   0.000   0.000  -0.000  -0.000   0.026   0.000


------------------------ aborting loop because EDIFF is reached ----------------------------------------


    CHARGE:  cpu time    0.4659: real time    0.4670
    FORLOC:  cpu time    0.0063: real time    0.0063
    FORNL :  cpu time    5.2958: real time    5.3084
    STRESS:  cpu time   32.0639: real time   32.1405
    FORCOR:  cpu time    0.0333: real time    0.0338
    FORHAR:  cpu time    0.0124: real time    0.0124
    MIXING:  cpu time    0.0011: real time    0.0011
    OFIELD:  cpu time    0.0000: real time    0.0000

  FORCE on cell =-STRESS in cart. coord.  units (eV):
  Direction    XX          YY          ZZ          XY          YZ          ZX
  --------------------------------------------------------------------------------------
  Alpha Z    88.76105    88.76105    88.76105
  Ewald   48963.43446 48963.34453-53912.08894     0.11438     0.00439    -0.09305
  Hartree 49681.21817 49681.20016-49339.08621     0.06114    -0.00751    -0.01926
  E(xc)    -609.88899  -609.88487  -616.95917    -0.00063    -0.00016     0.00191
  Local  ************************100694.43856    -0.16521     0.01480     0.11498
  n-local  1214.24022  1214.19858  1251.59907    -0.02100     0.00419    -0.00888
  augment  -212.47532  -212.46938  -215.28149     0.00741     0.00198    -0.00039
  Kinetic  2014.73489  2014.72103  2046.68617     0.00858    -0.01846     0.00419
  Fock        0.00000     0.00000     0.00000     0.00000     0.00000     0.00000
  -------------------------------------------------------------------------------------
  Total       0.21034     0.20994    -1.93095     0.00466    -0.00076    -0.00050
  in kB       0.13973     0.13946    -1.28267     0.00310    -0.00050    -0.00033
  external pressure =       -0.33 kB  Pullay stress =        0.00 kB


 VOLUME and BASIS-vectors are now :
 -----------------------------------------------------------------------------
  energy-cutoff  :      280.00
  volume of cell :     2411.93
      direct lattice vectors                 reciprocal lattice vectors
     8.343827285  4.817602716  0.000000000     0.059925736  0.103783985  0.000000000
    -8.343992614  4.817890756  0.000000000    -0.059922154  0.103781928  0.000000000
     0.000000000  0.000000000 30.000000000     0.000000000  0.000000000  0.033333333

  length of vectors
     9.634767755  9.635054960 30.000000000     0.119842436  0.119838863  0.033333333


 FORCES acting on ions
    electron-ion (+dipol)            ewald-force                    non-local-force                 convergence-correction
 -----------------------------------------------------------------------------------------------
   0.583E+01 -.994E+01 0.118E+00   -.606E+01 0.103E+02 -.220E+00   0.225E+00 -.376E+00 0.104E+00   0.561E-02 -.213E-01 -.733E-03
   0.570E+01 0.992E+01 0.203E+00   -.592E+01 -.104E+02 -.310E+00   0.209E+00 0.373E+00 0.107E+00   0.458E-02 0.802E-01 0.800E-04
   -.114E+02 0.102E+00 0.233E+00   0.119E+02 -.141E+00 -.340E+00   -.429E+00 0.130E-01 0.107E+00   -.832E-01 0.303E-01 0.987E-03
   -.143E+02 0.246E+02 0.181E+01   0.137E+02 -.238E+02 -.206E+01   0.515E+00 -.893E+00 0.242E+00   0.115E-01 0.166E-01 0.470E-02
   0.284E+02 0.103E+00 0.180E+01   -.274E+02 -.175E-01 -.205E+01   -.103E+01 0.362E-02 0.241E+00   0.190E-01 -.818E-01 0.162E-02
   -.143E+02 -.245E+02 0.184E+01   0.137E+02 0.236E+02 -.209E+01   0.515E+00 0.900E+00 0.240E+00   0.780E-01 -.652E-01 0.197E-02
   0.291E+02 -.143E+00 -.348E+00   -.285E+02 0.115E+00 0.345E+00   -.756E+00 -.718E-02 0.959E-02   0.953E-01 0.318E-01 -.387E-02
   -.146E+02 0.253E+02 -.331E+00   0.143E+02 -.246E+02 0.329E+00   0.378E+00 -.662E+00 0.100E-01   -.170E-01 0.154E-01 -.561E-02
   -.145E+02 -.253E+02 -.268E+00   0.142E+02 0.247E+02 0.264E+00   0.378E+00 0.647E+00 0.941E-02   -.745E-01 -.514E-01 -.408E-02
   0.481E+01 0.101E+02 0.548E+03   -.568E+01 -.102E+02 -.552E+03   0.798E+00 0.114E+00 0.419E+01   0.727E-01 0.462E-01 -.304E-01
   0.693E+01 -.120E+02 -.580E+03   -.638E+01 0.111E+02 0.584E+03   -.563E+00 0.966E+00 -.376E+01   0.320E-02 0.101E-01 -.639E-02
   0.630E+01 0.924E+01 0.548E+03   -.597E+01 -.100E+02 -.552E+03   -.302E+00 0.757E+00 0.418E+01   -.274E-01 0.453E-01 -.234E-01
   0.107E+02 0.186E+02 -.590E+03   -.107E+02 -.186E+02 0.593E+03   -.467E-01 -.761E-01 -.383E+01   0.340E-01 0.437E-01 0.195E-01
   -.635E-02 -.768E-01 0.636E+03   0.185E-02 0.842E-01 -.640E+03   0.476E-03 -.424E-02 0.387E+01   0.433E-02 -.417E-02 0.688E-02
   -.138E+02 0.769E-02 -.580E+03   0.127E+02 0.319E-01 0.584E+03   0.112E+01 -.716E-02 -.376E+01   -.259E-01 -.334E-01 0.255E-02
   -.112E+02 0.814E+00 0.547E+03   0.117E+02 -.172E+00 -.552E+03   -.496E+00 -.631E+00 0.420E+01   -.607E-01 -.145E-01 -.814E-02
   -.404E+01 -.741E+01 -.526E+03   0.476E+01 0.837E+01 0.530E+03   -.549E+00 -.952E+00 -.414E+01   -.178E+00 -.185E-01 0.123E+00
   -.399E-01 0.806E-01 0.636E+03   0.134E-01 -.520E-01 -.639E+03   -.238E-03 0.405E-02 0.348E+01   0.267E-01 -.325E-01 0.103E-01
   -.216E+02 0.872E-01 -.589E+03   0.215E+02 -.830E-01 0.593E+03   0.885E-01 0.348E-02 -.383E+01   -.275E-01 -.685E-02 -.300E-02
   0.641E+01 -.921E+01 0.548E+03   -.603E+01 0.101E+02 -.552E+03   -.296E+00 -.747E+00 0.420E+01   -.926E-01 -.159E+00 -.119E+00
   0.107E+02 -.185E+02 -.590E+03   -.108E+02 0.186E+02 0.593E+03   -.437E-01 0.780E-01 -.383E+01   0.887E-01 -.152E+00 0.117E+00
   0.100E+00 -.546E-01 0.523E+03   -.207E-02 -.613E-01 -.526E+03   0.244E-02 -.384E-02 0.407E+01   -.982E-01 0.116E+00 -.146E+00
   0.847E+01 -.212E+00 -.526E+03   -.967E+01 0.880E-01 0.530E+03   0.110E+01 0.283E-02 -.413E+01   0.111E+00 0.118E+00 0.142E+00
   -.112E+02 -.773E+00 0.548E+03   0.117E+02 0.114E+00 -.552E+03   -.506E+00 0.641E+00 0.418E+01   -.188E-01 0.196E-01 -.250E-02
   -.427E+01 0.738E+01 -.527E+03   0.487E+01 -.838E+01 0.531E+03   -.549E+00 0.958E+00 -.413E+01   -.622E-01 0.537E-01 0.398E-01
   0.477E+01 -.101E+02 0.548E+03   -.576E+01 0.102E+02 -.552E+03   0.800E+00 -.118E+00 0.419E+01   0.188E+00 -.798E-02 -.121E+00
   0.687E+01 0.120E+02 -.580E+03   -.637E+01 -.110E+02 0.584E+03   -.559E+00 -.973E+00 -.376E+01   0.457E-01 -.336E-02 0.117E-02
 -----------------------------------------------------------------------------------------------
   -.240E-01 0.139E-01 -.248E+01   -.231E-13 -.135E-12 -.227E-12   0.261E-02 0.109E-01 0.249E+01   0.220E-01 -.253E-01 -.347E-02
 
 
 POSITION                                       TOTAL-FORCE (eV/Angst)
 -----------------------------------------------------------------------------------
      5.59369      3.15865     -0.00837         0.000120      0.007156      0.001710
      5.59250      6.47635     -0.00879        -0.009497     -0.014307     -0.000228
      2.72038      4.81855     -0.00882         0.018006      0.004788      0.001469
     -0.10548      3.39384     -0.00335        -0.008019      0.012400     -0.002135
     -2.57097      4.81740     -0.00333         0.014205      0.007360     -0.002437
     -0.10531      6.24124     -0.00343        -0.014062     -0.008083     -0.002294
      0.22046     -0.00180      0.00609         0.005435     -0.003431      0.002371
     -5.67318      3.40167      0.00607        -0.003079      0.002710      0.001925
      2.67134      1.41352      0.00592        -0.001882     -0.007470      0.001533
     -0.94471      1.60141     28.51880         0.003182     -0.001208      0.016572
      0.90256      1.64750      1.56933        -0.008513      0.013418     -0.003390
     -3.70286      3.19409     28.51819        -0.001941      0.002210      0.015733
     -1.87137      3.18163      1.59577        -0.000417      0.000718      0.002104
     -6.48987      4.81682     28.26547         0.000285     -0.000963     -0.026428
     -4.58675      4.81691      1.56996         0.015589     -0.000955     -0.001718
      1.86635      3.22447     28.51877         0.000081     -0.002878      0.017608
      3.70529      3.20593      1.42106        -0.002798     -0.011152     -0.019733
     -0.92720      4.81725     28.28363        -0.000067      0.000119     -0.030853
      0.96125      4.81715      1.59560        -0.000518      0.000773      0.002090
     -3.70282      6.44047     28.51834        -0.000148      0.002568      0.018366
     -1.87140      6.45273      1.59566        -0.001880      0.003318      0.002688
      4.63559      4.81716     28.59752         0.002151     -0.003251      0.004415
      6.49535      4.81702      1.42177         0.010211     -0.002933     -0.017096
      1.86617      6.40946     28.51757        -0.001327      0.002262      0.014229
      3.70543      6.42788      1.42231        -0.005617      0.010275     -0.011119
     -0.94519      8.03264     28.51777        -0.001738      0.000492      0.015857
      0.90259      7.98637      1.57048        -0.007762     -0.013935     -0.001240
 -----------------------------------------------------------------------------------
    total drift:                                0.000580     -0.000415      0.000748


--------------------------------------------------------------------------------------------------------



  FREE ENERGIE OF THE ION-ELECTRON SYSTEM (eV)
  ---------------------------------------------------
  free  energy   TOTEN  =      -191.74175570 eV

  energy  without entropy=     -191.53876678  energy(sigma->0) =     -191.64026124
 
 d Force = 0.2144350E-03[ 0.570E-04, 0.372E-03]  d Energy = 0.2500664E-03-0.356E-04
 d Force =-0.5563982E+01[-0.557E+01,-0.556E+01]  d Ewald  =-0.4554773E+02 0.400E+02


--------------------------------------------------------------------------------------------------------


    POTLOK:  cpu time    0.0345: real time    0.0346


--------------------------------------------------------------------------------------------------------


 Quasi-Newton relaxation of ions (Broydens 2nd method)
  g(Force)  = 0.334E-03   g(Stress)= 0.158E-03

 retain information from N=  1 steps
 eigenvalues of (default step * inverse Hessian matrix)
  average eigenvalue of G=   0.5731
 eigenvalue spectrum of G is  0.5731


--------------------------------------------------------------------------------------------------------


  
 reached required accuracy - stopping structural energy minimisation
     LOOP+:  cpu time  134.9020: real time  135.2414
    4ORBIT:  cpu time    0.0000: real time    0.0000

 total amount of memory used by VASP on root node   650782. kBytes
========================================================================

   base      :      30000. kBytes
   nonl-proj :     559647. kBytes
   fftplans  :       2414. kBytes
   grid      :      12150. kBytes
   one-center:        419. kBytes
   wavefun   :      46152. kBytes
 
  
  
 General timing and accounting informations for this job:
 ========================================================
  
                  Total CPU time used (sec):     4859.049
                            User time (sec):     4842.093
                          System time (sec):       16.956
                         Elapsed time (sec):     4872.143
  
                   Maximum memory used (kb):      742620.
                   Average memory used (kb):           0.
  
                          Minor page faults:       792956
                          Major page faults:            1
                 Voluntary context switches:         4322
