<?xml version="1.0" encoding="ISO-8859-1"?>
<modeling>
 <generator>
  <i name="program" type="string">vasp </i>
  <i name="version" type="string">5.4.1  </i>
  <i name="subversion" type="string">05Feb16 (build Jul 05 2020 17:13:04) complex                          parallel </i>
  <i name="platform" type="string">IFC91_ompi </i>
  <i name="date" type="string">2024 07 06 </i>
  <i name="time" type="string">16:28:09 </i>
 </generator>
 <incar>
  <i type="int" name="ISTART">     0</i>
  <i type="string" name="PREC">normal</i>
  <i type="string" name="ALGO"> Normal</i>
  <i type="int" name="ISPIN">     1</i>
  <i type="int" name="ICHARG">     2</i>
  <i type="int" name="IBRION">     1</i>
  <i type="int" name="NSW">   100</i>
  <i type="int" name="ISIF">     3</i>
  <i type="int" name="ISYM">     0</i>
  <i name="SYMPREC">      0.00000001</i>
  <i name="POTIM">      0.50000000</i>
  <i type="logical" name="LREAL"> F  </i>
  <i type="logical" name="LPLANE"> F  </i>
  <i type="int" name="ISMEAR">     0</i>
  <i type="logical" name="LWAVE"> F  </i>
  <i type="logical" name="LCHARG"> F  </i>
  <v type="int" name="KPOINT_BSE">    -1     0     0     0</v>
 </incar>
 <kpoints>
  <generation param="Gamma">
   <v type="int" name="divisions">       8        8        1 </v>
   <v name="usershift">      0.00000000       0.00000000       0.00000000 </v>
   <v name="genvec1">      0.12500000       0.00000000       0.00000000 </v>
   <v name="genvec2">     -0.00000000       0.12500000       0.00000000 </v>
   <v name="genvec3">      0.00000000       0.00000000       1.00000000 </v>
   <v name="shift">      0.00000000       0.00000000       0.00000000 </v>
  </generation>
  <varray name="kpointlist" >
   <v>       0.00000000       0.00000000       0.00000000 </v>
   <v>       0.12500000       0.00000000       0.00000000 </v>
   <v>       0.25000000       0.00000000       0.00000000 </v>
   <v>       0.37500000       0.00000000       0.00000000 </v>
   <v>       0.50000000       0.00000000       0.00000000 </v>
   <v>       0.00000000       0.12500000       0.00000000 </v>
   <v>       0.12500000       0.12500000       0.00000000 </v>
   <v>       0.25000000       0.12500000       0.00000000 </v>
   <v>       0.37500000       0.12500000       0.00000000 </v>
   <v>       0.50000000       0.12500000       0.00000000 </v>
   <v>      -0.37500000       0.12500000       0.00000000 </v>
   <v>      -0.25000000       0.12500000       0.00000000 </v>
   <v>      -0.12500000       0.12500000       0.00000000 </v>
   <v>       0.00000000       0.25000000       0.00000000 </v>
   <v>       0.12500000       0.25000000       0.00000000 </v>
   <v>       0.25000000       0.25000000       0.00000000 </v>
   <v>       0.37500000       0.25000000       0.00000000 </v>
   <v>       0.50000000       0.25000000       0.00000000 </v>
   <v>      -0.37500000       0.25000000       0.00000000 </v>
   <v>      -0.25000000       0.25000000       0.00000000 </v>
   <v>      -0.12500000       0.25000000       0.00000000 </v>
   <v>      -0.00000000       0.37500000       0.00000000 </v>
   <v>       0.12500000       0.37500000       0.00000000 </v>
   <v>       0.25000000       0.37500000       0.00000000 </v>
   <v>       0.37500000       0.37500000       0.00000000 </v>
   <v>       0.50000000       0.37500000       0.00000000 </v>
   <v>      -0.37500000       0.37500000       0.00000000 </v>
   <v>      -0.25000000       0.37500000       0.00000000 </v>
   <v>      -0.12500000       0.37500000       0.00000000 </v>
   <v>       0.00000000       0.50000000       0.00000000 </v>
   <v>       0.12500000       0.50000000       0.00000000 </v>
   <v>       0.25000000       0.50000000       0.00000000 </v>
   <v>       0.37500000       0.50000000       0.00000000 </v>
   <v>       0.50000000       0.50000000       0.00000000 </v>
  </varray>
  <varray name="weights" >
   <v>       0.01562500 </v>
   <v>       0.03125000 </v>
   <v>       0.03125000 </v>
   <v>       0.03125000 </v>
   <v>       0.01562500 </v>
   <v>       0.03125000 </v>
   <v>       0.03125000 </v>
   <v>       0.03125000 </v>
   <v>       0.03125000 </v>
   <v>       0.03125000 </v>
   <v>       0.03125000 </v>
   <v>       0.03125000 </v>
   <v>       0.03125000 </v>
   <v>       0.03125000 </v>
   <v>       0.03125000 </v>
   <v>       0.03125000 </v>
   <v>       0.03125000 </v>
   <v>       0.03125000 </v>
   <v>       0.03125000 </v>
   <v>       0.03125000 </v>
   <v>       0.03125000 </v>
   <v>       0.03125000 </v>
   <v>       0.03125000 </v>
   <v>       0.03125000 </v>
   <v>       0.03125000 </v>
   <v>       0.03125000 </v>
   <v>       0.03125000 </v>
   <v>       0.03125000 </v>
   <v>       0.03125000 </v>
   <v>       0.01562500 </v>
   <v>       0.03125000 </v>
   <v>       0.03125000 </v>
   <v>       0.03125000 </v>
   <v>       0.01562500 </v>
  </varray>
 </kpoints>
 <parameters>
  <separator name="general" >
   <i type="string" name="SYSTEM">unknown system</i>
   <i type="logical" name="LCOMPAT"> F  </i>
  </separator>
  <separator name="electronic" >
   <i type="string" name="PREC">normal</i>
   <i name="ENMAX">    280.00000000</i>
   <i name="ENAUG">    373.43800000</i>
   <i name="EDIFF">      0.00010000</i>
   <i type="int" name="IALGO">    38</i>
   <i type="int" name="IWAVPR">    11</i>
   <i type="int" name="NBANDS">   120</i>
   <i name="NELECT">    159.00000000</i>
   <i type="int" name="TURBO">     0</i>
   <i type="int" name="IRESTART">     0</i>
   <i type="int" name="NREBOOT">     0</i>
   <i type="int" name="NMIN">     0</i>
   <i name="EREF">      0.00000000</i>
   <separator name="electronic smearing" >
    <i type="int" name="ISMEAR">     0</i>
    <i name="SIGMA">      0.20000000</i>
    <i name="KSPACING">      0.50000000</i>
    <i type="logical" name="KGAMMA"> T  </i>
   </separator>
   <separator name="electronic projectors" >
    <i type="logical" name="LREAL"> F  </i>
    <v name="ROPT">      0.00000000      0.00000000      0.00000000      0.00000000</v>
    <i type="int" name="LMAXPAW">  -100</i>
    <i type="int" name="LMAXMIX">     2</i>
    <i type="logical" name="NLSPLINE"> F  </i>
   </separator>
   <separator name="electronic startup" >
    <i type="int" name="ISTART">     0</i>
    <i type="int" name="ICHARG">     2</i>
    <i type="int" name="INIWAV">     1</i>
   </separator>
   <separator name="electronic spin" >
    <i type="int" name="ISPIN">     1</i>
    <i type="logical" name="LNONCOLLINEAR"> F  </i>
    <v name="MAGMOM">      1.00000000      1.00000000      1.00000000      1.00000000      1.00000000      1.00000000      1.00000000      1.00000000      1.00000000      1.00000000      1.00000000      1.00000000      1.00000000      1.00000000      1.00000000      1.00000000      1.00000000      1.00000000      1.00000000      1.00000000
      1.00000000      1.00000000      1.00000000      1.00000000      1.00000000      1.00000000      1.00000000</v>
    <i name="NUPDOWN">     -1.00000000</i>
    <i type="logical" name="LSORBIT"> F  </i>
    <v name="SAXIS">      0.00000000      0.00000000      1.00000000</v>
    <i type="logical" name="LSPIRAL"> F  </i>
    <v name="QSPIRAL">      0.00000000      0.00000000      0.00000000</v>
    <i type="logical" name="LZEROZ"> F  </i>
   </separator>
   <separator name="electronic exchange-correlation" >
    <i type="logical" name="LASPH"> F  </i>
    <i type="logical" name="LMETAGGA"> F  </i>
   </separator>
   <separator name="electronic convergence" >
    <i type="int" name="NELM">    60</i>
    <i type="int" name="NELMDL">    -5</i>
    <i type="int" name="NELMIN">     2</i>
    <i name="ENINI">    280.00000000</i>
    <separator name="electronic convergence detail" >
     <i type="logical" name="LDIAG"> T  </i>
     <i type="logical" name="LSUBROT"> F  </i>
     <i name="WEIMIN">      0.00100000</i>
     <i name="EBREAK">      0.00000021</i>
     <i name="DEPER">      0.30000000</i>
     <i type="int" name="NRMM">     4</i>
     <i name="TIME">      0.40000000</i>
    </separator>
   </separator>
   <separator name="electronic mixer" >
    <i name="AMIX">      0.40000000</i>
    <i name="BMIX">      1.00000000</i>
    <i name="AMIN">      0.10000000</i>
    <i name="AMIX_MAG">      1.60000000</i>
    <i name="BMIX_MAG">      1.00000000</i>
    <separator name="electronic mixer details" >
     <i type="int" name="IMIX">     4</i>
     <i type="logical" name="MIXFIRST"> F  </i>
     <i type="int" name="MAXMIX">   -45</i>
     <i name="WC">    100.00000000</i>
     <i type="int" name="INIMIX">     1</i>
     <i type="int" name="MIXPRE">     1</i>
     <i type="int" name="MREMOVE">     5</i>
    </separator>
   </separator>
   <separator name="electronic dipolcorrection" >
    <i type="logical" name="LDIPOL"> F  </i>
    <i type="logical" name="LMONO"> F  </i>
    <i type="int" name="IDIPOL">     0</i>
    <i name="EPSILON">      1.00000000</i>
    <v name="DIPOL">   -100.00000000   -100.00000000   -100.00000000</v>
    <i name="EFIELD">      0.00000000</i>
   </separator>
  </separator>
  <separator name="grids" >
   <i type="int" name="NGX">    42</i>
   <i type="int" name="NGY">    42</i>
   <i type="int" name="NGZ">   126</i>
   <i type="int" name="NGXF">    84</i>
   <i type="int" name="NGYF">    84</i>
   <i type="int" name="NGZF">   252</i>
   <i type="logical" name="ADDGRID"> F  </i>
  </separator>
  <separator name="ionic" >
   <i type="int" name="NSW">   100</i>
   <i type="int" name="IBRION">     1</i>
   <i type="int" name="ISIF">     3</i>
   <i name="PSTRESS">      0.00000000</i>
   <i name="EDIFFG">      0.00100000</i>
   <i type="int" name="NFREE">     0</i>
   <i name="POTIM">      0.50000000</i>
   <i name="SMASS">     -3.00000000</i>
   <i name="SCALEE">      1.00000000</i>
  </separator>
  <separator name="ionic md" >
   <i name="TEBEG">      0.00010000</i>
   <i name="TEEND">      0.00010000</i>
   <i type="int" name="NBLOCK">     1</i>
   <i type="int" name="KBLOCK">   100</i>
   <i type="int" name="NPACO">   256</i>
   <i name="APACO">     16.00000000</i>
  </separator>
  <separator name="symmetry" >
   <i type="int" name="ISYM">     0</i>
   <i name="SYMPREC">      0.00000001</i>
  </separator>
  <separator name="dos" >
   <i type="logical" name="LORBIT"> F  </i>
   <v name="RWIGS">     -1.00000000     -1.00000000     -1.00000000     -1.00000000</v>
   <i type="int" name="NEDOS">   301</i>
   <i name="EMIN">     10.00000000</i>
   <i name="EMAX">    -10.00000000</i>
   <i name="EFERMI">      0.00000000</i>
  </separator>
  <separator name="writing" >
   <i type="int" name="NWRITE">     2</i>
   <i type="logical" name="LWAVE"> F  </i>
   <i type="logical" name="LCHARG"> F  </i>
   <i type="logical" name="LPARD"> F  </i>
   <i type="logical" name="LVTOT"> F  </i>
   <i type="logical" name="LVHAR"> F  </i>
   <i type="logical" name="LELF"> F  </i>
   <i type="logical" name="LOPTICS"> F  </i>
   <v name="STM">      0.00000000      0.00000000      0.00000000      0.00000000      0.00000000      0.00000000      0.00000000</v>
  </separator>
  <separator name="performance" >
   <i type="int" name="NPAR">    40</i>
   <i type="int" name="NSIM">     4</i>
   <i type="int" name="NBLK">    -1</i>
   <i type="logical" name="LPLANE"> F  </i>
   <i type="logical" name="LSCALAPACK"> T  </i>
   <i type="logical" name="LSCAAWARE"> F  </i>
   <i type="logical" name="LSCALU"> F  </i>
   <i type="logical" name="LASYNC"> F  </i>
   <i type="logical" name="LORBITALREAL"> F  </i>
  </separator>
  <separator name="miscellaneous" >
   <i type="int" name="IDIOT">     3</i>
   <i type="logical" name="LMUSIC"> F  </i>
   <v name="POMASS">     50.94100000     95.94000000    183.85000000     32.06600000</v>
   <v name="DARWINR">      0.00000000      0.00000000      0.00000000      0.00000000</v>
   <v name="DARWINV">      1.00000000      1.00000000      1.00000000      1.00000000</v>
   <i type="logical" name="LCORR"> T  </i>
  </separator>
  <i type="logical" name="GGA_COMPAT"> T  </i>
  <i type="logical" name="LBERRY"> F  </i>
  <i type="int" name="ICORELEVEL">     0</i>
  <i type="logical" name="LDAU"> F  </i>
  <i type="int" name="I_CONSTRAINED_M">     0</i>
  <separator name="electronic exchange-correlation" >
   <i type="string" name="GGA">--</i>
   <i type="int" name="VOSKOWN">     0</i>
   <i type="logical" name="LHFCALC"> F  </i>
   <i type="string" name="PRECFOCK"></i>
   <i type="logical" name="LSYMGRAD"> F  </i>
   <i type="logical" name="LHFONE"> F  </i>
   <i type="logical" name="LRHFCALC"> F  </i>
   <i type="logical" name="LTHOMAS"> F  </i>
   <i type="logical" name="LMODELHF"> F  </i>
   <i name="ENCUT4O">     -1.00000000</i>
   <i type="int" name="EXXOEP">     0</i>
   <i type="int" name="FOURORBIT">     0</i>
   <i name="AEXX">      0.00000000</i>
   <i name="HFALPHA">      0.00000000</i>
   <i name="MCALPHA">      0.00000000</i>
   <i name="ALDAX">      1.00000000</i>
   <i name="AGGAX">      1.00000000</i>
   <i name="ALDAC">      1.00000000</i>
   <i name="AGGAC">      1.00000000</i>
   <i type="int" name="NKREDX">     1</i>
   <i type="int" name="NKREDY">     1</i>
   <i type="int" name="NKREDZ">     1</i>
   <i type="logical" name="SHIFTRED"> F  </i>
   <i type="logical" name="ODDONLY"> F  </i>
   <i type="logical" name="EVENONLY"> F  </i>
   <i type="int" name="LMAXFOCK">     0</i>
   <i type="int" name="NMAXFOCKAE">     0</i>
   <i type="logical" name="LFOCKAEDFT"> F  </i>
   <i name="HFSCREEN">      0.00000000</i>
   <i name="HFSCREENC">      0.00000000</i>
   <i type="int" name="NBANDSGWLOW">     0</i>
  </separator>
  <separator name="vdW DFT" >
   <i type="logical" name="LUSE_VDW"> F  </i>
   <i name="Zab_VDW">     -0.84910000</i>
   <i name="PARAM1">      0.12340000</i>
   <i name="PARAM2">      1.00000000</i>
   <i name="PARAM3">      0.00000000</i>
  </separator>
  <separator name="model GW" >
   <i type="int" name="MODEL_GW">     0</i>
   <i name="MODEL_EPS0">     58.26239943</i>
   <i name="MODEL_ALPHA">      1.00000000</i>
  </separator>
  <separator name="linear response parameters" >
   <i type="logical" name="LEPSILON"> F  </i>
   <i type="logical" name="LRPA"> F  </i>
   <i type="logical" name="LNABLA"> F  </i>
   <i type="logical" name="LVEL"> F  </i>
   <i type="int" name="KINTER">     0</i>
   <i name="CSHIFT">      0.10000000</i>
   <i name="OMEGAMAX">     -1.00000000</i>
   <i name="DEG_THRESHOLD">      0.00200000</i>
  </separator>
  <separator name="orbital magnetization" >
   <i type="logical" name="NUCIND"> F  </i>
   <v name="MAGPOS">      0.00000000      0.00000000      0.00000000</v>
   <i type="logical" name="LNICSALL"> T  </i>
   <i type="logical" name="ORBITALMAG"> F  </i>
   <i type="logical" name="LMAGBLOCH"> F  </i>
   <i type="logical" name="LCHIMAG"> F  </i>
   <i type="logical" name="LGAUGE"> T  </i>
   <i type="int" name="MAGATOM">     0</i>
   <v name="MAGDIPOL">      0.00000000      0.00000000      0.00000000</v>
   <v name="AVECCONST">      0.00000000      0.00000000      0.00000000</v>
  </separator>
  <separator name="response functions" >
   <i type="logical" name="LADDER"> F  </i>
   <i type="logical" name="LFXC"> F  </i>
   <i type="logical" name="LHARTREE"> T  </i>
   <i type="int" name="IBSE">     0</i>
   <v type="int" name="KPOINT">    -1     0     0     0</v>
   <i type="logical" name="LTCTE"> F  </i>
   <i type="logical" name="LTETE"> F  </i>
   <i type="logical" name="LTRIPLET"> F  </i>
   <i type="logical" name="LFXCEPS"> F  </i>
   <i type="logical" name="LFXHEG"> F  </i>
   <i type="int" name="NATURALO">     0</i>
   <i type="logical" name="L2ORDER"> F  </i>
   <i type="logical" name="LUSEW"> F  </i>
   <i name="ENCUTGW">     -2.00000000</i>
   <i name="ENCUTGWSOFT">     -2.00000000</i>
   <i name="ENCUTLF">     -1.00000000</i>
   <i type="int" name="LMAXMP2">    -1</i>
   <i name="SCISSOR">      0.00000000</i>
   <i type="int" name="NOMEGA">     0</i>
   <i type="int" name="NOMEGAR">     0</i>
   <i type="int" name="NBANDSGW">    -1</i>
   <i type="int" name="NBANDSO">    -1</i>
   <i type="int" name="NBANDSV">    -1</i>
   <i type="int" name="NELM">     1</i>
   <i type="int" name="NELMHF">     1</i>
   <i type="int" name="DIM">     3</i>
   <i type="int" name="ANTIRES">     0</i>
   <i name="OMEGAMAX">    -30.00000000</i>
   <i name="OMEGAMIN">    -30.00000000</i>
   <i name="OMEGATL">   -200.00000000</i>
   <i type="int" name="OMEGAGRID">     0</i>
   <i name="CSHIFT">     -0.10000000</i>
   <i type="logical" name="SELFENERGY"> F  </i>
   <i type="logical" name="LSPECTRAL"> F  </i>
   <i type="logical" name="LSPECTRALGW"> F  </i>
   <i type="logical" name="LSINGLES"> F  </i>
   <i type="logical" name="LFERMIGW"> F  </i>
   <i type="logical" name="ODDONLYGW"> F  </i>
   <i type="logical" name="EVENONLYGW"> F  </i>
   <i type="int" name="NKREDLFX">     1</i>
   <i type="int" name="NKREDLFY">     1</i>
   <i type="int" name="NKREDLFZ">     1</i>
   <i type="int" name="MAXMEM">  1800</i>
   <i type="int" name="TELESCOPE">     0</i>
   <i type="int" name="TAUPAR">     1</i>
   <i type="int" name="OMEGAPAR">    -1</i>
   <i name="LAMBDA">      1.00000000</i>
  </separator>
  <separator name="External order field" >
   <i name="OFIELD_KAPPA">      0.00000000</i>
   <v name="OFIELD_K">      0.00000000      0.00000000      0.00000000</v>
   <i name="OFIELD_Q6_NEAR">      0.00000000</i>
   <i name="OFIELD_Q6_FAR">      0.00000000</i>
   <i name="OFIELD_A">      0.00000000</i>
  </separator>
 </parameters>
 <atominfo>
  <atoms>      27 </atoms>
  <types>       4 </types>
  <array name="atoms" >
   <dimension dim="1">ion</dimension>
   <field type="string">element</field>
   <field type="int">atomtype</field>
   <set>
    <rc><c>V </c><c>   1</c></rc>
    <rc><c>V </c><c>   1</c></rc>
    <rc><c>V </c><c>   1</c></rc>
    <rc><c>Mo</c><c>   2</c></rc>
    <rc><c>Mo</c><c>   2</c></rc>
    <rc><c>Mo</c><c>   2</c></rc>
    <rc><c>W </c><c>   3</c></rc>
    <rc><c>W </c><c>   3</c></rc>
    <rc><c>W </c><c>   3</c></rc>
    <rc><c>S </c><c>   4</c></rc>
    <rc><c>S </c><c>   4</c></rc>
    <rc><c>S </c><c>   4</c></rc>
    <rc><c>S </c><c>   4</c></rc>
    <rc><c>S </c><c>   4</c></rc>
    <rc><c>S </c><c>   4</c></rc>
    <rc><c>S </c><c>   4</c></rc>
    <rc><c>S </c><c>   4</c></rc>
    <rc><c>S </c><c>   4</c></rc>
    <rc><c>S </c><c>   4</c></rc>
    <rc><c>S </c><c>   4</c></rc>
    <rc><c>S </c><c>   4</c></rc>
    <rc><c>S </c><c>   4</c></rc>
    <rc><c>S </c><c>   4</c></rc>
    <rc><c>S </c><c>   4</c></rc>
    <rc><c>S </c><c>   4</c></rc>
    <rc><c>S </c><c>   4</c></rc>
    <rc><c>S </c><c>   4</c></rc>
   </set>
  </array>
  <array name="atomtypes" >
   <dimension dim="1">type</dimension>
   <field type="int">atomspertype</field>
   <field type="string">element</field>
   <field>mass</field>
   <field>valence</field>
   <field type="string">pseudopotential</field>
   <set>
    <rc><c>   3</c><c>V </c><c>     50.94100000</c><c>      5.00000000</c><c> PAW_PBE V 08Apr2002                    </c></rc>
    <rc><c>   3</c><c>Mo</c><c>     95.94000000</c><c>      6.00000000</c><c> PAW_PBE Mo 08Apr2002                   </c></rc>
    <rc><c>   3</c><c>W </c><c>    183.85000000</c><c>      6.00000000</c><c> PAW_PBE W 08Apr2002                    </c></rc>
    <rc><c>  18</c><c>S </c><c>     32.06600000</c><c>      6.00000000</c><c>  PAW_PBE S 17Jan2003                   </c></rc>
   </set>
  </array>
 </atominfo>
 <structure name="initialpos" >
  <crystal>
   <varray name="basis" >
    <v>       8.66999996       5.03999989       0.00000000 </v>
    <v>      -8.66999982       5.04000013       0.00000000 </v>
    <v>       0.00000000       0.00000000      30.00000000 </v>
   </varray>
   <i name="volume">   2621.80797419 </i>
   <varray name="rec_basis" >
    <v>       0.05767013       0.09920635       0.00000000 </v>
    <v>      -0.05767013       0.09920635       0.00000000 </v>
    <v>       0.00000000       0.00000000       0.03333333 </v>
   </varray>
  </crystal>
  <varray name="positions" >
   <v>       0.66666669       0.00000000       0.00000000 </v>
   <v>       1.00000000       0.33333334       0.00000000 </v>
   <v>       0.66666669       0.33333334       0.00000000 </v>
   <v>       0.33333334       0.33333334       0.00000000 </v>
   <v>       0.33333334       0.66666669       0.00000000 </v>
   <v>       0.66666669       0.66666669       0.00000000 </v>
   <v>       0.00000000       0.00000000       0.00000000 </v>
   <v>       0.00000000       0.66666669       0.00000000 </v>
   <v>       0.33333334       0.00000000       0.00000000 </v>
   <v>       0.11068511       0.22244981       0.95539999 </v>
   <v>       0.22244981       0.11068511       0.04460000 </v>
   <v>       0.11068511       0.55578315       0.95539999 </v>
   <v>       0.22244981       0.44401845       0.04460000 </v>
   <v>       0.11068511       0.88911647       0.95539999 </v>
   <v>       0.22244981       0.77735180       0.04460000 </v>
   <v>       0.44401845       0.22244981       0.95539999 </v>
   <v>       0.55578315       0.11068511       0.04460000 </v>
   <v>       0.44401845       0.55578315       0.95539999 </v>
   <v>       0.55578315       0.44401845       0.04460000 </v>
   <v>       0.44401845       0.88911647       0.95539999 </v>
   <v>       0.55578315       0.77735180       0.04460000 </v>
   <v>       0.77735180       0.22244981       0.95539999 </v>
   <v>       0.88911647       0.11068511       0.04460000 </v>
   <v>       0.77735180       0.55578315       0.95539999 </v>
   <v>       0.88911647       0.44401845       0.04460000 </v>
   <v>       0.77735180       0.88911647       0.95539999 </v>
   <v>       0.88911647       0.77735180       0.04460000 </v>
  </varray>
 </structure>
 <calculation>
  <scstep>
   <time name="dav">   21.67   21.72</time>
   <time name="total">   21.71   21.77</time>
   <energy>
    <i name="alphaZ">     81.65567618 </i>
    <i name="ewald">  41891.17178115 </i>
    <i name="hartreedc"> -47723.81765946 </i>
    <i name="XCdc">   -242.92465015 </i>
    <i name="pawpsdc">   3467.42045192 </i>
    <i name="pawaedc">  -2871.19716117 </i>
    <i name="eentropy">     -0.53652877 </i>
    <i name="bandstr">   -239.45967039 </i>
    <i name="atom">   6761.44252427 </i>
    <i name="e_fr_energy">   1123.75476358 </i>
    <i name="e_wo_entrp">   1124.29129235 </i>
    <i name="e_0_energy">   1124.02302796 </i>
   </energy>
  </scstep>
  <scstep>
   <time name="dav">   28.18   28.25</time>
   <time name="total">   28.19   28.26</time>
   <energy>
    <i name="e_fr_energy">     -2.44263973 </i>
    <i name="e_wo_entrp">     -2.23826193 </i>
    <i name="e_0_energy">     -2.34045083 </i>
   </energy>
  </scstep>
  <scstep>
   <time name="dav">   27.44   27.51</time>
   <time name="total">   27.44   27.51</time>
   <energy>
    <i name="e_fr_energy">   -199.86539510 </i>
    <i name="e_wo_entrp">   -199.60294213 </i>
    <i name="e_0_energy">   -199.73416861 </i>
   </energy>
  </scstep>
  <scstep>
   <time name="dav">   30.13   30.20</time>
   <time name="total">   30.13   30.21</time>
   <energy>
    <i name="e_fr_energy">   -208.99002512 </i>
    <i name="e_wo_entrp">   -208.70169228 </i>
    <i name="e_0_energy">   -208.84585870 </i>
   </energy>
  </scstep>
  <scstep>
   <time name="dav">   28.29   28.35</time>
   <time name="total">   28.75   28.83</time>
   <energy>
    <i name="e_fr_energy">   -209.29857198 </i>
    <i name="e_wo_entrp">   -209.01389008 </i>
    <i name="e_0_energy">   -209.15623103 </i>
   </energy>
  </scstep>
  <scstep>
   <time name="dav">   30.99   31.06</time>
   <time name="total">   31.49   31.58</time>
   <energy>
    <i name="e_fr_energy">   -237.59853431 </i>
    <i name="e_wo_entrp">   -237.34722561 </i>
    <i name="e_0_energy">   -237.47287996 </i>
   </energy>
  </scstep>
  <scstep>
   <time name="dav">   32.49   32.57</time>
   <time name="total">   32.99   33.08</time>
   <energy>
    <i name="e_fr_energy">   -196.62603379 </i>
    <i name="e_wo_entrp">   -196.25556138 </i>
    <i name="e_0_energy">   -196.44079759 </i>
   </energy>
  </scstep>
  <scstep>
   <time name="dav">   29.54   29.61</time>
   <time name="total">   30.07   30.15</time>
   <energy>
    <i name="e_fr_energy">   -189.48758591 </i>
    <i name="e_wo_entrp">   -189.16457262 </i>
    <i name="e_0_energy">   -189.32607927 </i>
   </energy>
  </scstep>
  <scstep>
   <time name="dav">   32.88   32.96</time>
   <time name="total">   33.40   33.49</time>
   <energy>
    <i name="e_fr_energy">   -188.06844180 </i>
    <i name="e_wo_entrp">   -187.75020510 </i>
    <i name="e_0_energy">   -187.90932345 </i>
   </energy>
  </scstep>
  <scstep>
   <time name="dav">   32.70   32.78</time>
   <time name="total">   33.24   33.33</time>
   <energy>
    <i name="e_fr_energy">   -186.92137345 </i>
    <i name="e_wo_entrp">   -186.56946863 </i>
    <i name="e_0_energy">   -186.74542104 </i>
   </energy>
  </scstep>
  <scstep>
   <time name="dav">   32.92   33.00</time>
   <time name="total">   33.46   33.55</time>
   <energy>
    <i name="e_fr_energy">   -186.93420759 </i>
    <i name="e_wo_entrp">   -186.60842754 </i>
    <i name="e_0_energy">   -186.77131756 </i>
   </energy>
  </scstep>
  <scstep>
   <time name="dav">   32.95   33.03</time>
   <time name="total">   33.49   33.58</time>
   <energy>
    <i name="e_fr_energy">   -186.85536265 </i>
    <i name="e_wo_entrp">   -186.51537743 </i>
    <i name="e_0_energy">   -186.68537004 </i>
   </energy>
  </scstep>
  <scstep>
   <time name="dav">   30.51   30.59</time>
   <time name="total">   31.05   31.13</time>
   <energy>
    <i name="e_fr_energy">   -186.82994044 </i>
    <i name="e_wo_entrp">   -186.48707915 </i>
    <i name="e_0_energy">   -186.65850979 </i>
   </energy>
  </scstep>
  <scstep>
   <time name="dav">   32.76   32.84</time>
   <time name="total">   33.30   33.39</time>
   <energy>
    <i name="e_fr_energy">   -186.82943572 </i>
    <i name="e_wo_entrp">   -186.48770806 </i>
    <i name="e_0_energy">   -186.65857189 </i>
   </energy>
  </scstep>
  <scstep>
   <time name="dav">   32.09   32.16</time>
   <time name="total">   32.63   32.71</time>
   <energy>
    <i name="e_fr_energy">   -186.82335155 </i>
    <i name="e_wo_entrp">   -186.48362701 </i>
    <i name="e_0_energy">   -186.65348928 </i>
   </energy>
  </scstep>
  <scstep>
   <time name="dav">   29.26   29.32</time>
   <time name="total">   29.80   29.87</time>
   <energy>
    <i name="e_fr_energy">   -186.82297828 </i>
    <i name="e_wo_entrp">   -186.48326519 </i>
    <i name="e_0_energy">   -186.65312174 </i>
   </energy>
  </scstep>
  <scstep>
   <time name="dav">   29.86   29.93</time>
   <time name="total">   30.40   30.48</time>
   <energy>
    <i name="e_fr_energy">   -186.82263585 </i>
    <i name="e_wo_entrp">   -186.48254070 </i>
    <i name="e_0_energy">   -186.65258827 </i>
   </energy>
  </scstep>
  <scstep>
   <time name="dav">   26.27   26.33</time>
   <time name="total">   26.81   26.88</time>
   <energy>
    <i name="e_fr_energy">   -186.82249531 </i>
    <i name="e_wo_entrp">   -186.48239965 </i>
    <i name="e_0_energy">   -186.65244748 </i>
   </energy>
  </scstep>
  <scstep>
   <time name="dav">   26.93   27.00</time>
   <time name="total">   27.47   27.55</time>
   <energy>
    <i name="e_fr_energy">   -186.82296716 </i>
    <i name="e_wo_entrp">   -186.48313387 </i>
    <i name="e_0_energy">   -186.65305051 </i>
   </energy>
  </scstep>
  <scstep>
   <time name="dav">   21.31   21.36</time>
   <time name="total">   21.85   21.91</time>
   <energy>
    <i name="e_fr_energy">   -186.82328130 </i>
    <i name="e_wo_entrp">   -186.48357781 </i>
    <i name="e_0_energy">   -186.65342956 </i>
   </energy>
  </scstep>
  <scstep>
   <time name="dav">   23.60   23.66</time>
   <time name="total">   24.14   24.21</time>
   <energy>
    <i name="e_fr_energy">   -186.82461895 </i>
    <i name="e_wo_entrp">   -186.48483125 </i>
    <i name="e_0_energy">   -186.65472510 </i>
   </energy>
  </scstep>
  <scstep>
   <time name="dav">   20.84   20.89</time>
   <time name="total">   21.38   21.44</time>
   <energy>
    <i name="e_fr_energy">   -186.82583380 </i>
    <i name="e_wo_entrp">   -186.48609789 </i>
    <i name="e_0_energy">   -186.65596584 </i>
   </energy>
  </scstep>
  <scstep>
   <time name="dav">   18.36   18.41</time>
   <time name="total">   18.90   19.10</time>
   <energy>
    <i name="e_fr_energy">   -186.82647476 </i>
    <i name="e_wo_entrp">   -186.48672973 </i>
    <i name="e_0_energy">   -186.65660224 </i>
   </energy>
  </scstep>
  <scstep>
   <time name="dav">   17.24   17.29</time>
   <time name="total">   17.79   17.84</time>
   <energy>
    <i name="e_fr_energy">   -186.82679228 </i>
    <i name="e_wo_entrp">   -186.48703845 </i>
    <i name="e_0_energy">   -186.65691536 </i>
   </energy>
  </scstep>
  <scstep>
   <time name="dav">   16.56   16.60</time>
   <time name="total">   17.10   17.15</time>
   <energy>
    <i name="e_fr_energy">   -186.82716822 </i>
    <i name="e_wo_entrp">   -186.48741049 </i>
    <i name="e_0_energy">   -186.65728936 </i>
   </energy>
  </scstep>
  <scstep>
   <time name="dav">   19.09   19.13</time>
   <time name="total">   19.63   19.68</time>
   <energy>
    <i name="e_fr_energy">   -186.82739495 </i>
    <i name="e_wo_entrp">   -186.48763307 </i>
    <i name="e_0_energy">   -186.65751401 </i>
   </energy>
  </scstep>
  <scstep>
   <time name="dav">   19.89   19.93</time>
   <time name="total">   19.92   19.98</time>
   <energy>
    <i name="alphaZ">     81.65567618 </i>
    <i name="ewald">  41891.17178115 </i>
    <i name="hartreedc"> -47833.68213759 </i>
    <i name="XCdc">   -231.61020268 </i>
    <i name="pawpsdc">   4192.07735957 </i>
    <i name="pawaedc">  -3610.07154377 </i>
    <i name="eentropy">     -0.33976029 </i>
    <i name="bandstr">  -1437.47118647 </i>
    <i name="atom">   6761.44252427 </i>
    <i name="e_fr_energy">   -186.82748962 </i>
    <i name="e_wo_entrp">   -186.48772933 </i>
    <i name="e_0_energy">   -186.65760948 </i>
   </energy>
  </scstep>
  <structure>
   <crystal>
    <varray name="basis" >
     <v>       8.66999996       5.03999989       0.00000000 </v>
     <v>      -8.66999982       5.04000013       0.00000000 </v>
     <v>       0.00000000       0.00000000      30.00000000 </v>
    </varray>
    <i name="volume">   2621.80797419 </i>
    <varray name="rec_basis" >
     <v>       0.05767013       0.09920635       0.00000000 </v>
     <v>      -0.05767013       0.09920635       0.00000000 </v>
     <v>       0.00000000       0.00000000       0.03333333 </v>
    </varray>
   </crystal>
   <varray name="positions" >
    <v>       0.66666669       0.00000000       0.00000000 </v>
    <v>       1.00000000       0.33333334       0.00000000 </v>
    <v>       0.66666669       0.33333334       0.00000000 </v>
    <v>       0.33333334       0.33333334       0.00000000 </v>
    <v>       0.33333334       0.66666669       0.00000000 </v>
    <v>       0.66666669       0.66666669       0.00000000 </v>
    <v>       0.00000000       0.00000000       0.00000000 </v>
    <v>       0.00000000       0.66666669       0.00000000 </v>
    <v>       0.33333334       0.00000000       0.00000000 </v>
    <v>       0.11068511       0.22244981       0.95539999 </v>
    <v>       0.22244981       0.11068511       0.04460000 </v>
    <v>       0.11068511       0.55578315       0.95539999 </v>
    <v>       0.22244981       0.44401845       0.04460000 </v>
    <v>       0.11068511       0.88911647       0.95539999 </v>
    <v>       0.22244981       0.77735180       0.04460000 </v>
    <v>       0.44401845       0.22244981       0.95539999 </v>
    <v>       0.55578315       0.11068511       0.04460000 </v>
    <v>       0.44401845       0.55578315       0.95539999 </v>
    <v>       0.55578315       0.44401845       0.04460000 </v>
    <v>       0.44401845       0.88911647       0.95539999 </v>
    <v>       0.55578315       0.77735180       0.04460000 </v>
    <v>       0.77735180       0.22244981       0.95539999 </v>
    <v>       0.88911647       0.11068511       0.04460000 </v>
    <v>       0.77735180       0.55578315       0.95539999 </v>
    <v>       0.88911647       0.44401845       0.04460000 </v>
    <v>       0.77735180       0.88911647       0.95539999 </v>
    <v>       0.88911647       0.77735180       0.04460000 </v>
   </varray>
  </structure>
  <varray name="forces" >
   <v>       0.11394879      -0.18671661      -0.06344154 </v>
   <v>       0.11377089       0.18948381      -0.06100239 </v>
   <v>      -0.22022018       0.00160067      -0.06874626 </v>
   <v>      -0.27737320       0.44798007       0.15851006 </v>
   <v>       0.54936845      -0.00231725       0.15230305 </v>
   <v>      -0.27856428      -0.45441232       0.15612377 </v>
   <v>      -0.11458803      -0.00545538      -0.08872069 </v>
   <v>       0.05724356      -0.08552363      -0.10302134 </v>
   <v>       0.05872523       0.07712035      -0.10347775 </v>
   <v>      -0.65291410      -0.16867069      -2.09280571 </v>
   <v>      -0.07309948      -0.10057568       2.86642429 </v>
   <v>       0.34315708      -0.70039321      -2.13206493 </v>
   <v>      -0.51657085      -0.68004839       2.17806898 </v>
   <v>       0.13014576       0.00200853      -3.00099514 </v>
   <v>      -0.24256558       0.00215795       2.86219805 </v>
   <v>       0.62941350       0.53006521      -2.12794454 </v>
   <v>       0.23986710       0.52504016       1.42459479 </v>
   <v>       0.12018513       0.00246812      -2.94415722 </v>
   <v>       0.73068000       0.00205387       2.13728035 </v>
   <v>       0.34040141       0.70096448      -2.13548207 </v>
   <v>      -0.51378651       0.67929542       2.18184901 </v>
   <v>       0.06519569      -0.00128264      -0.73752556 </v>
   <v>      -0.74720452      -0.00109069       1.47085095 </v>
   <v>       0.63215518      -0.52993074      -2.12433547 </v>
   <v>       0.23809551      -0.52407406       1.42155313 </v>
   <v>      -0.65325329       0.17385448      -2.09261705 </v>
   <v>      -0.07221324       0.10639818       2.86658125 </v>
  </varray>
  <varray name="stress" >
   <v>       7.33505064       0.00017133      -1.55975010 </v>
   <v>       0.00017143       4.41132510       0.00008199 </v>
   <v>      -1.55975025       0.00008183      30.30981878 </v>
  </varray>
  <energy>
   <i name="e_fr_energy">   -186.82748962 </i>
   <i name="e_wo_entrp">   -186.65760948 </i>
   <i name="e_0_energy">     -0.33976029 </i>
  </energy>
  <time name="totalsc">  778.41  780.61</time>
 </calculation>
 <calculation>
  <scstep>
   <time name="dav">   21.65   21.71</time>
   <time name="total">   22.20   22.26</time>
   <energy>
    <i name="alphaZ">     78.92323754 </i>
    <i name="ewald">  39380.32207024 </i>
    <i name="hartreedc"> -45337.63878081 </i>
    <i name="XCdc">   -239.07284933 </i>
    <i name="pawpsdc">   4192.06673831 </i>
    <i name="pawaedc">  -3610.06085560 </i>
    <i name="eentropy">     -0.27902339 </i>
    <i name="bandstr">  -1413.18830780 </i>
    <i name="atom">   6761.44252427 </i>
    <i name="e_fr_energy">   -187.48524658 </i>
    <i name="e_wo_entrp">   -187.20622319 </i>
    <i name="e_0_energy">   -187.34573488 </i>
   </energy>
  </scstep>
  <scstep>
   <time name="dav">   30.15   30.22</time>
   <time name="total">   30.70   30.78</time>
   <energy>
    <i name="e_fr_energy">   -189.22703162 </i>
    <i name="e_wo_entrp">   -188.91764939 </i>
    <i name="e_0_energy">   -189.07234051 </i>
   </energy>
  </scstep>
  <scstep>
   <time name="dav">   30.46   30.53</time>
   <time name="total">   31.01   31.09</time>
   <energy>
    <i name="e_fr_energy">   -189.38473938 </i>
    <i name="e_wo_entrp">   -189.12870966 </i>
    <i name="e_0_energy">   -189.25672452 </i>
   </energy>
  </scstep>
  <scstep>
   <time name="dav">   31.01   31.08</time>
   <time name="total">   31.55   31.64</time>
   <energy>
    <i name="e_fr_energy">   -188.73440498 </i>
    <i name="e_wo_entrp">   -188.45371749 </i>
    <i name="e_0_energy">   -188.59406124 </i>
   </energy>
  </scstep>
  <scstep>
   <time name="dav">   25.84   25.90</time>
   <time name="total">   26.39   26.46</time>
   <energy>
    <i name="e_fr_energy">   -188.70938279 </i>
    <i name="e_wo_entrp">   -188.43273259 </i>
    <i name="e_0_energy">   -188.57105769 </i>
   </energy>
  </scstep>
  <scstep>
   <time name="dav">   29.01   29.08</time>
   <time name="total">   29.56   29.67</time>
   <energy>
    <i name="e_fr_energy">   -188.68753339 </i>
    <i name="e_wo_entrp">   -188.40897176 </i>
    <i name="e_0_energy">   -188.54825258 </i>
   </energy>
  </scstep>
  <scstep>
   <time name="dav">   31.57   31.65</time>
   <time name="total">   32.12   32.21</time>
   <energy>
    <i name="e_fr_energy">   -188.68541883 </i>
    <i name="e_wo_entrp">   -188.40362571 </i>
    <i name="e_0_energy">   -188.54452227 </i>
   </energy>
  </scstep>
  <scstep>
   <time name="dav">   31.52   31.59</time>
   <time name="total">   32.07   32.15</time>
   <energy>
    <i name="e_fr_energy">   -188.65014771 </i>
    <i name="e_wo_entrp">   -188.37277979 </i>
    <i name="e_0_energy">   -188.51146375 </i>
   </energy>
  </scstep>
  <scstep>
   <time name="dav">   27.51   27.58</time>
   <time name="total">   28.06   28.13</time>
   <energy>
    <i name="e_fr_energy">   -188.64804885 </i>
    <i name="e_wo_entrp">   -188.37131506 </i>
    <i name="e_0_energy">   -188.50968196 </i>
   </energy>
  </scstep>
  <scstep>
   <time name="dav">   31.22   31.30</time>
   <time name="total">   31.77   31.86</time>
   <energy>
    <i name="e_fr_energy">   -188.64792899 </i>
    <i name="e_wo_entrp">   -188.37182475 </i>
    <i name="e_0_energy">   -188.50987687 </i>
   </energy>
  </scstep>
  <scstep>
   <time name="dav">   31.75   31.83</time>
   <time name="total">   32.30   32.39</time>
   <energy>
    <i name="e_fr_energy">   -188.64760271 </i>
    <i name="e_wo_entrp">   -188.37153693 </i>
    <i name="e_0_energy">   -188.50956982 </i>
   </energy>
  </scstep>
  <scstep>
   <time name="dav">   25.61   25.67</time>
   <time name="total">   26.16   26.23</time>
   <energy>
    <i name="e_fr_energy">   -188.64750113 </i>
    <i name="e_wo_entrp">   -188.37130424 </i>
    <i name="e_0_energy">   -188.50940268 </i>
   </energy>
  </scstep>
  <scstep>
   <time name="dav">   21.95   22.00</time>
   <time name="total">   21.98   22.04</time>
   <energy>
    <i name="alphaZ">     78.92323754 </i>
    <i name="ewald">  39380.32207024 </i>
    <i name="hartreedc"> -45348.54189278 </i>
    <i name="XCdc">   -237.97877590 </i>
    <i name="pawpsdc">   3950.50180396 </i>
    <i name="pawaedc">  -3365.00455532 </i>
    <i name="eentropy">     -0.27624876 </i>
    <i name="bandstr">  -1408.03568704 </i>
    <i name="atom">   6761.44252427 </i>
    <i name="e_fr_energy">   -188.64752380 </i>
    <i name="e_wo_entrp">   -188.37127504 </i>
    <i name="e_0_energy">   -188.50939942 </i>
   </energy>
  </scstep>
  <structure>
   <crystal>
    <varray name="basis" >
     <v>       8.85594553       5.10501082       0.00000000 </v>
     <v>      -8.85594034       5.10500237       0.00000000 </v>
     <v>       0.00000000       0.00000000      30.00000000 </v>
    </varray>
    <i name="volume">   2712.57882492 </i>
    <varray name="rec_basis" >
     <v>       0.05645922       0.09794304       0.00000000 </v>
     <v>      -0.05645931       0.09794310       0.00000000 </v>
     <v>       0.00000000       0.00000000       0.03333333 </v>
    </varray>
   </crystal>
   <varray name="positions" >
    <v>       0.66609009      -0.00121065      -0.00010202 </v>
    <v>       1.00122339       0.33392368      -0.00009810 </v>
    <v>       0.66606166       0.33395369      -0.00011055 </v>
    <v>       0.33470567       0.33624906       0.00025490 </v>
    <v>       0.33485068       0.66512717       0.00024492 </v>
    <v>       0.66371687       0.66526689       0.00025106 </v>
    <v>      -0.00034491       0.00029269      -0.00014267 </v>
    <v>      -0.00025005       0.66609811      -0.00016567 </v>
    <v>       0.33386582       0.00020571      -0.00016640 </v>
    <v>       0.10806134       0.22345907       0.95203457 </v>
    <v>       0.22176508       0.11040713       0.04920946 </v>
    <v>       0.10828776       0.55147637       0.95197144 </v>
    <v>       0.21775793       0.44220094       0.04810253 </v>
    <v>       0.11105681       0.88876399       0.95057412 </v>
    <v>       0.22178528       0.77803698       0.04920267 </v>
    <v>       0.44830646       0.22323556       0.95197807 </v>
    <v>       0.55896333       0.11253059       0.04689087 </v>
    <v>       0.44436464       0.55546059       0.95066552 </v>
    <v>       0.55782585       0.44199541       0.04803693 </v>
    <v>       0.44832030       0.89152422       0.95196595 </v>
    <v>       0.55760481       0.78203233       0.04810860 </v>
    <v>       0.77752704       0.22226229       0.95421398 </v>
    <v>       0.88703240       0.11275873       0.04696526 </v>
    <v>       0.77657432       0.55148816       0.95198387 </v>
    <v>       0.88727068       0.44084783       0.04688598 </v>
    <v>       0.77636641       0.89176598       0.95203488 </v>
    <v>       0.88942478       0.77806192       0.04920971 </v>
   </varray>
  </structure>
  <varray name="forces" >
   <v>       0.10463442      -0.18897193      -0.08662752 </v>
   <v>       0.10503676       0.18983324      -0.08741826 </v>
   <v>      -0.21008987       0.00030045      -0.09155257 </v>
   <v>      -0.29961263       0.51888605       0.04226904 </v>
   <v>       0.59872084       0.00008498       0.03944558 </v>
   <v>      -0.30024736      -0.52006651       0.04382562 </v>
   <v>       0.26585519      -0.00135085       0.02780749 </v>
   <v>      -0.13405628       0.23124356       0.02444489 </v>
   <v>      -0.13300644      -0.23184836       0.02364027 </v>
   <v>       0.02031462      -0.09632288       0.03556612 </v>
   <v>       0.06833198      -0.09385880      -0.10048158 </v>
   <v>      -0.09649890      -0.04652060       0.05596389 </v>
   <v>      -0.02684822      -0.06791552       0.20185902 </v>
   <v>      -0.01814132      -0.00047080      -0.04604520 </v>
   <v>      -0.10053368      -0.00025953      -0.09566710 </v>
   <v>       0.06752556      -0.04872734       0.05499531 </v>
   <v>      -0.04606503      -0.04764287      -0.15012240 </v>
   <v>      -0.00361654       0.00084093      -0.30268770 </v>
   <v>       0.05798659       0.00038108       0.21205116 </v>
   <v>      -0.09623962       0.04606423       0.05729779 </v>
   <v>      -0.02642402       0.06787708       0.20019190 </v>
   <v>       0.01578479       0.00014078       0.26973754 </v>
   <v>       0.07498120       0.00045688      -0.16772513 </v>
   <v>       0.06787467       0.04958675       0.05276841 </v>
   <v>      -0.04570063       0.04738791      -0.14820545 </v>
   <v>       0.02120233       0.09646147       0.03469834 </v>
   <v>       0.06883159       0.09441062      -0.10002948 </v>
  </varray>
  <varray name="stress" >
   <v>     -19.87671846       0.00038983       0.04014200 </v>
   <v>       0.00039007     -19.44510366       0.00005017 </v>
   <v>       0.04014213       0.00005022      -1.76800003 </v>
  </varray>
  <energy>
   <i name="e_fr_energy">   -188.64752380 </i>
   <i name="e_wo_entrp">   -188.50939942 </i>
   <i name="e_0_energy">     -0.27624876 </i>
  </energy>
  <time name="totalsc">  417.85  418.98</time>
 </calculation>
 <calculation>
  <scstep>
   <time name="dav">   23.60   23.66</time>
   <time name="total">   24.14   24.19</time>
   <energy>
    <i name="alphaZ">     82.35284092 </i>
    <i name="ewald">  41306.55422334 </i>
    <i name="hartreedc"> -47305.24525156 </i>
    <i name="XCdc">   -233.85177817 </i>
    <i name="pawpsdc">   3949.38119592 </i>
    <i name="pawaedc">  -3363.87353726 </i>
    <i name="eentropy">     -0.23202661 </i>
    <i name="bandstr">  -1387.09983989 </i>
    <i name="atom">   6761.44252427 </i>
    <i name="e_fr_energy">   -190.57164904 </i>
    <i name="e_wo_entrp">   -190.33962243 </i>
    <i name="e_0_energy">   -190.45563574 </i>
   </energy>
  </scstep>
  <scstep>
   <time name="dav">   29.35   29.42</time>
   <time name="total">   29.88   29.96</time>
   <energy>
    <i name="e_fr_energy">   -190.52773466 </i>
    <i name="e_wo_entrp">   -190.31195294 </i>
    <i name="e_0_energy">   -190.41984380 </i>
   </energy>
  </scstep>
  <scstep>
   <time name="dav">   30.37   30.44</time>
   <time name="total">   30.89   30.97</time>
   <energy>
    <i name="e_fr_energy">   -190.05160240 </i>
    <i name="e_wo_entrp">   -189.80386554 </i>
    <i name="e_0_energy">   -189.92773397 </i>
   </energy>
  </scstep>
  <scstep>
   <time name="dav">   31.27   31.34</time>
   <time name="total">   31.81   31.89</time>
   <energy>
    <i name="e_fr_energy">   -189.84232088 </i>
    <i name="e_wo_entrp">   -189.61882840 </i>
    <i name="e_0_energy">   -189.73057464 </i>
   </energy>
  </scstep>
  <scstep>
   <time name="dav">   28.43   28.49</time>
   <time name="total">   28.96   29.04</time>
   <energy>
    <i name="e_fr_energy">   -189.74819621 </i>
    <i name="e_wo_entrp">   -189.51497584 </i>
    <i name="e_0_energy">   -189.63158603 </i>
   </energy>
  </scstep>
  <scstep>
   <time name="dav">   26.55   26.61</time>
   <time name="total">   27.08   27.16</time>
   <energy>
    <i name="e_fr_energy">   -189.73763010 </i>
    <i name="e_wo_entrp">   -189.50527908 </i>
    <i name="e_0_energy">   -189.62145459 </i>
   </energy>
  </scstep>
  <scstep>
   <time name="dav">   30.11   30.18</time>
   <time name="total">   30.64   30.72</time>
   <energy>
    <i name="e_fr_energy">   -189.73937750 </i>
    <i name="e_wo_entrp">   -189.50699084 </i>
    <i name="e_0_energy">   -189.62318417 </i>
   </energy>
  </scstep>
  <scstep>
   <time name="dav">   29.96   30.03</time>
   <time name="total">   30.50   30.58</time>
   <energy>
    <i name="e_fr_energy">   -189.73761037 </i>
    <i name="e_wo_entrp">   -189.50541343 </i>
    <i name="e_0_energy">   -189.62151190 </i>
   </energy>
  </scstep>
  <scstep>
   <time name="dav">   25.41   25.47</time>
   <time name="total">   25.94   26.01</time>
   <energy>
    <i name="e_fr_energy">   -189.73780631 </i>
    <i name="e_wo_entrp">   -189.50542182 </i>
    <i name="e_0_energy">   -189.62161407 </i>
   </energy>
  </scstep>
  <scstep>
   <time name="dav">   26.35   26.42</time>
   <time name="total">   26.39   26.46</time>
   <energy>
    <i name="alphaZ">     82.35284092 </i>
    <i name="ewald">  41306.55422334 </i>
    <i name="hartreedc"> -47278.46726739 </i>
    <i name="XCdc">   -235.24114850 </i>
    <i name="pawpsdc">   4037.63162061 </i>
    <i name="pawaedc">  -3453.32307321 </i>
    <i name="eentropy">     -0.23239037 </i>
    <i name="bandstr">  -1410.45522722 </i>
    <i name="atom">   6761.44252427 </i>
    <i name="e_fr_energy">   -189.73789755 </i>
    <i name="e_wo_entrp">   -189.50550718 </i>
    <i name="e_0_energy">   -189.62170236 </i>
   </energy>
  </scstep>
  <structure>
   <crystal>
    <varray name="basis" >
     <v>       8.66753738       4.99876379       0.00000000 </v>
     <v>      -8.66752803       4.99874813       0.00000000 </v>
     <v>       0.00000000       0.00000000      30.00000000 </v>
    </varray>
    <i name="volume">   2599.61284336 </i>
    <varray name="rec_basis" >
     <v>       0.05768645       0.10002483       0.00000000 </v>
     <v>      -0.05768663       0.10002494       0.00000000 </v>
     <v>       0.00000000       0.00000000       0.03333333 </v>
    </varray>
   </crystal>
   <varray name="positions" >
    <v>       0.66587500      -0.00162741      -0.00015131 </v>
    <v>       1.00164199       0.33413982      -0.00014784 </v>
    <v>       0.66585969       0.33415666      -0.00016264 </v>
    <v>       0.33528441       0.33740529       0.00027895 </v>
    <v>       0.33542783       0.66455031       0.00026736 </v>
    <v>       0.66255805       0.66468679       0.00027600 </v>
    <v>      -0.00009096       0.00003422      -0.00012685 </v>
    <v>       0.00000735       0.66661390      -0.00015176 </v>
    <v>       0.33335003      -0.00005372      -0.00015295 </v>
    <v>       0.10791989       0.22327845       0.95205481 </v>
    <v>       0.22167402       0.11018436       0.04915229 </v>
    <v>       0.10811699       0.55149159       0.95200328 </v>
    <v>       0.21761851       0.44211327       0.04821738 </v>
    <v>       0.11103854       0.88878069       0.95054793 </v>
    <v>       0.22168796       0.77813343       0.04914823 </v>
    <v>       0.44829008       0.22308902       0.95200936 </v>
    <v>       0.55883929       0.11249534       0.04680546 </v>
    <v>       0.44436256       0.55546548       0.95049330 </v>
    <v>       0.55788237       0.44194017       0.04815759 </v>
    <v>       0.44830457       0.89169397       0.95199855 </v>
    <v>       0.55769282       0.78217127       0.04822251 </v>
    <v>       0.77754249       0.22224731       0.95436746 </v>
    <v>       0.88710543       0.11268724       0.04686983 </v>
    <v>       0.77672263       0.55150565       0.95201389 </v>
    <v>       0.88730586       0.44097109       0.04680166 </v>
    <v>       0.77654810       0.89190682       0.95205462 </v>
    <v>       0.88964895       0.77815343       0.04915280 </v>
   </varray>
  </structure>
  <varray name="forces" >
   <v>       0.12283972      -0.22269897      -0.07277337 </v>
   <v>       0.12068045       0.20642364      -0.07330717 </v>
   <v>      -0.23869987      -0.00654018      -0.07656486 </v>
   <v>      -0.29571650       0.51971725       0.00476849 </v>
   <v>       0.59971607       0.00994721       0.00372218 </v>
   <v>      -0.30708682      -0.51931437       0.00536372 </v>
   <v>       0.40802374      -0.00693926       0.04185678 </v>
   <v>      -0.21107666       0.35606688       0.04207649 </v>
   <v>      -0.20136990      -0.35318592       0.04243850 </v>
   <v>      -0.07480036      -0.01005214      -0.45218227 </v>
   <v>       0.01897436      -0.00864477       0.44140028 </v>
   <v>       0.02644817      -0.08547441      -0.43202169 </v>
   <v>      -0.06854328      -0.13444732       0.71603583 </v>
   <v>      -0.01621963       0.00016843      -0.65517205 </v>
   <v>      -0.00394679       0.00034573       0.44649540 </v>
   <v>       0.04443786       0.07931932      -0.43291412 </v>
   <v>       0.03856570       0.08914161       0.29266005 </v>
   <v>      -0.00195077       0.00094063      -0.85845346 </v>
   <v>       0.13987497       0.00099486       0.72463979 </v>
   <v>       0.03080578       0.09371055      -0.42813550 </v>
   <v>      -0.07295113       0.14408081       0.71372128 </v>
   <v>       0.01687038      -0.00683061      -0.13310314 </v>
   <v>      -0.08770647      -0.00675971       0.27884642 </v>
   <v>       0.04604538      -0.07670835      -0.43311874 </v>
   <v>       0.02980236      -0.08737638       0.29867771 </v>
   <v>      -0.08290099       0.01312156      -0.44857683 </v>
   <v>       0.01988423       0.01099390       0.44362026 </v>
  </varray>
  <varray name="stress" >
   <v>     -10.16316098      -0.00953601       0.02478571 </v>
   <v>      -0.00953595      -9.82520815      -0.00062178 </v>
   <v>       0.02478564      -0.00062176       6.53222815 </v>
  </varray>
  <energy>
   <i name="e_fr_energy">   -189.73789755 </i>
   <i name="e_wo_entrp">   -189.62170236 </i>
   <i name="e_0_energy">     -0.23239037 </i>
  </energy>
  <time name="totalsc">  328.20  329.06</time>
 </calculation>
 <calculation>
  <scstep>
   <time name="dav">   21.63   21.68</time>
   <time name="total">   22.16   22.21</time>
   <energy>
    <i name="alphaZ">     85.84901111 </i>
    <i name="ewald">  42848.15707914 </i>
    <i name="hartreedc"> -48864.74380834 </i>
    <i name="XCdc">   -232.93621261 </i>
    <i name="pawpsdc">   4038.76859649 </i>
    <i name="pawaedc">  -3454.46888558 </i>
    <i name="eentropy">     -0.19480443 </i>
    <i name="bandstr">  -1373.19981612 </i>
    <i name="atom">   6761.44252427 </i>
    <i name="e_fr_energy">   -191.32631606 </i>
    <i name="e_wo_entrp">   -191.13151163 </i>
    <i name="e_0_energy">   -191.22891385 </i>
   </energy>
  </scstep>
  <scstep>
   <time name="dav">   32.86   32.94</time>
   <time name="total">   33.38   33.47</time>
   <energy>
    <i name="e_fr_energy">   -191.11586983 </i>
    <i name="e_wo_entrp">   -190.92666339 </i>
    <i name="e_0_energy">   -191.02126661 </i>
   </energy>
  </scstep>
  <scstep>
   <time name="dav">   29.97   30.04</time>
   <time name="total">   30.48   30.56</time>
   <energy>
    <i name="e_fr_energy">   -191.29849071 </i>
    <i name="e_wo_entrp">   -191.07985508 </i>
    <i name="e_0_energy">   -191.18917290 </i>
   </energy>
  </scstep>
  <scstep>
   <time name="dav">   31.52   31.59</time>
   <time name="total">   32.04   32.13</time>
   <energy>
    <i name="e_fr_energy">   -190.86633417 </i>
    <i name="e_wo_entrp">   -190.67627291 </i>
    <i name="e_0_energy">   -190.77130354 </i>
   </energy>
  </scstep>
  <scstep>
   <time name="dav">   28.49   28.56</time>
   <time name="total">   29.01   29.09</time>
   <energy>
    <i name="e_fr_energy">   -190.74970259 </i>
    <i name="e_wo_entrp">   -190.55235883 </i>
    <i name="e_0_energy">   -190.65103071 </i>
   </energy>
  </scstep>
  <scstep>
   <time name="dav">   29.30   29.37</time>
   <time name="total">   29.82   29.90</time>
   <energy>
    <i name="e_fr_energy">   -190.74336556 </i>
    <i name="e_wo_entrp">   -190.54451441 </i>
    <i name="e_0_energy">   -190.64393999 </i>
   </energy>
  </scstep>
  <scstep>
   <time name="dav">   28.43   28.50</time>
   <time name="total">   28.95   29.03</time>
   <energy>
    <i name="e_fr_energy">   -190.74583153 </i>
    <i name="e_wo_entrp">   -190.54703976 </i>
    <i name="e_0_energy">   -190.64643564 </i>
   </energy>
  </scstep>
  <scstep>
   <time name="dav">   28.90   28.96</time>
   <time name="total">   29.42   29.49</time>
   <energy>
    <i name="e_fr_energy">   -190.73737731 </i>
    <i name="e_wo_entrp">   -190.53901828 </i>
    <i name="e_0_energy">   -190.63819780 </i>
   </energy>
  </scstep>
  <scstep>
   <time name="dav">   25.58   25.64</time>
   <time name="total">   26.10   26.17</time>
   <energy>
    <i name="e_fr_energy">   -190.73781667 </i>
    <i name="e_wo_entrp">   -190.53944493 </i>
    <i name="e_0_energy">   -190.63863080 </i>
   </energy>
  </scstep>
  <scstep>
   <time name="dav">   27.59   27.66</time>
   <time name="total">   28.12   28.19</time>
   <energy>
    <i name="e_fr_energy">   -190.73767187 </i>
    <i name="e_wo_entrp">   -190.53924797 </i>
    <i name="e_0_energy">   -190.63845992 </i>
   </energy>
  </scstep>
  <scstep>
   <time name="dav">   24.06   24.12</time>
   <time name="total">   24.09   24.16</time>
   <energy>
    <i name="alphaZ">     85.84901111 </i>
    <i name="ewald">  42848.15707914 </i>
    <i name="hartreedc"> -48836.01395367 </i>
    <i name="XCdc">   -234.26682724 </i>
    <i name="pawpsdc">   4064.04978224 </i>
    <i name="pawaedc">  -3479.93338918 </i>
    <i name="eentropy">     -0.19845060 </i>
    <i name="bandstr">  -1399.82340515 </i>
    <i name="atom">   6761.44252427 </i>
    <i name="e_fr_energy">   -190.73762908 </i>
    <i name="e_wo_entrp">   -190.53917847 </i>
    <i name="e_0_energy">   -190.63840378 </i>
   </energy>
  </scstep>
  <structure>
   <crystal>
    <varray name="basis" >
     <v>       8.48436074       4.89813088       0.00000000 </v>
     <v>      -8.48486024       4.89899751       0.00000000 </v>
     <v>       0.00000000       0.00000000      30.00000000 </v>
    </varray>
    <i name="volume">   2493.74454253 </i>
    <varray name="rec_basis" >
     <v>       0.05893544       0.10207373       0.00000000 </v>
     <v>      -0.05892501       0.10206772       0.00000000 </v>
     <v>       0.00000000       0.00000000       0.03333333 </v>
    </varray>
   </crystal>
   <varray name="positions" >
    <v>       0.66486454      -0.00357922      -0.00029040 </v>
    <v>       1.00343746       0.33501694      -0.00028781 </v>
    <v>       0.66489673       0.33500345      -0.00030863 </v>
    <v>       0.33748228       0.34173207       0.00025700 </v>
    <v>       0.33768634       0.66246578       0.00024475 </v>
    <v>       0.65818118       0.66255197       0.00025447 </v>
    <v>       0.00153240      -0.00170408      -0.00002816 </v>
    <v>       0.00167779       0.67003338      -0.00004957 </v>
    <v>       0.33000490      -0.00174496      -0.00004903 </v>
    <v>       0.10766458       0.22383796       0.95070351 </v>
    <v>       0.22183001       0.11034496       0.05052719 </v>
    <v>       0.10775611       0.55058579       0.95069357 </v>
    <v>       0.21630121       0.44141191       0.05013804 </v>
    <v>       0.11098526       0.88883927       0.94867283 </v>
    <v>       0.22181622       0.77801253       0.05053393 </v>
    <v>       0.44923461       0.22377834       0.95069786 </v>
    <v>       0.56000084       0.11313445       0.04778793 </v>
    <v>       0.44436405       0.55547630       0.94824213 </v>
    <v>       0.55851401       0.44132407       0.05009474 </v>
    <v>       0.44930537       0.89210654       0.95069905 </v>
    <v>       0.55845584       0.78359602       0.05013783 </v>
    <v>       0.77754486       0.22212447       0.95374963 </v>
    <v>       0.88649377       0.11317809       0.04782688 </v>
    <v>       0.77606168       0.55057423       0.95070369 </v>
    <v>       0.88663803       0.43987048       0.04780008 </v>
    <v>       0.77597293       0.89223093       0.95071459 </v>
    <v>       0.88951146       0.77801277       0.05053380 </v>
   </varray>
  </structure>
  <varray name="forces" >
   <v>       0.10391747      -0.17784240      -0.01049886 </v>
   <v>       0.10379871       0.18668152      -0.01512852 </v>
   <v>      -0.20754124       0.00500884      -0.01445227 </v>
   <v>      -0.30615135       0.51854781      -0.01670128 </v>
   <v>       0.59560956      -0.01420217      -0.01171369 </v>
   <v>      -0.29097214      -0.52179047      -0.01761450 </v>
   <v>       0.58303858       0.00151485       0.02142160 </v>
   <v>      -0.28694126       0.49763339       0.02059617 </v>
   <v>      -0.29626478      -0.51056833       0.02388786 </v>
   <v>       0.00822745       0.03141984      -0.24290081 </v>
   <v>      -0.06118444       0.10477204       0.30617754 </v>
   <v>       0.03129939       0.01590305      -0.23754454 </v>
   <v>      -0.01818182      -0.02391582       0.53056152 </v>
   <v>      -0.00030041       0.00209336      -0.64018270 </v>
   <v>       0.12368558       0.00114793       0.30558219 </v>
   <v>      -0.02765210       0.01336505      -0.24591398 </v>
   <v>      -0.00989106       0.01282512       0.15687234 </v>
   <v>       0.00253049       0.00263233      -0.67367173 </v>
   <v>       0.01202510       0.00408776       0.54173277 </v>
   <v>       0.02586557      -0.02441314      -0.25446579 </v>
   <v>      -0.01039435       0.01696623       0.54477091 </v>
   <v>       0.01193220       0.01149847      -0.16860192 </v>
   <v>      -0.01353240       0.01146760       0.14720340 </v>
   <v>      -0.03240202      -0.01292828      -0.24517091 </v>
   <v>       0.00171221      -0.01036030       0.14681251 </v>
   <v>       0.02142484      -0.03457768      -0.25989624 </v>
   <v>      -0.06365778      -0.10696657       0.30883895 </v>
  </varray>
  <varray name="stress" >
   <v>      -5.67792172       0.01893528      -0.07476551 </v>
   <v>       0.01893542      -5.70681108       0.00604363 </v>
   <v>      -0.07476546       0.00604356       4.57947101 </v>
  </varray>
  <energy>
   <i name="e_fr_energy">   -190.73762908 </i>
   <i name="e_wo_entrp">   -190.63840378 </i>
   <i name="e_0_energy">     -0.19845060 </i>
  </energy>
  <time name="totalsc">  355.47  356.61</time>
 </calculation>
 <calculation>
  <scstep>
   <time name="dav">   21.63   21.68</time>
   <time name="total">   22.14   22.19</time>
   <energy>
    <i name="alphaZ">     90.09174711 </i>
    <i name="ewald">  44638.17884421 </i>
    <i name="hartreedc"> -50679.65152747 </i>
    <i name="XCdc">   -231.86259454 </i>
    <i name="pawpsdc">   4064.52617583 </i>
    <i name="pawaedc">  -3480.40886661 </i>
    <i name="eentropy">     -0.18404327 </i>
    <i name="bandstr">  -1354.24546529 </i>
    <i name="atom">   6761.44252427 </i>
    <i name="e_fr_energy">   -192.11320574 </i>
    <i name="e_wo_entrp">   -191.92916247 </i>
    <i name="e_0_energy">   -192.02118410 </i>
   </energy>
  </scstep>
  <scstep>
   <time name="dav">   25.54   25.60</time>
   <time name="total">   26.04   26.11</time>
   <energy>
    <i name="e_fr_energy">   -191.79613797 </i>
    <i name="e_wo_entrp">   -191.59881066 </i>
    <i name="e_0_energy">   -191.69747432 </i>
   </energy>
  </scstep>
  <scstep>
   <time name="dav">   27.18   27.24</time>
   <time name="total">   27.69   27.77</time>
   <energy>
    <i name="e_fr_energy">   -191.65790225 </i>
    <i name="e_wo_entrp">   -191.47418167 </i>
    <i name="e_0_energy">   -191.56604196 </i>
   </energy>
  </scstep>
  <scstep>
   <time name="dav">   29.98   30.05</time>
   <time name="total">   30.49   30.57</time>
   <energy>
    <i name="e_fr_energy">   -191.71149675 </i>
    <i name="e_wo_entrp">   -191.51022776 </i>
    <i name="e_0_energy">   -191.61086225 </i>
   </energy>
  </scstep>
  <scstep>
   <time name="dav">   29.82   29.89</time>
   <time name="total">   30.33   30.41</time>
   <energy>
    <i name="e_fr_energy">   -191.47880450 </i>
    <i name="e_wo_entrp">   -191.28779003 </i>
    <i name="e_0_energy">   -191.38329726 </i>
   </energy>
  </scstep>
  <scstep>
   <time name="dav">   30.82   30.89</time>
   <time name="total">   31.32   31.41</time>
   <energy>
    <i name="e_fr_energy">   -191.48074793 </i>
    <i name="e_wo_entrp">   -191.29050200 </i>
    <i name="e_0_energy">   -191.38562497 </i>
   </energy>
  </scstep>
  <scstep>
   <time name="dav">   30.48   30.55</time>
   <time name="total">   30.98   31.07</time>
   <energy>
    <i name="e_fr_energy">   -191.45025921 </i>
    <i name="e_wo_entrp">   -191.25695836 </i>
    <i name="e_0_energy">   -191.35360878 </i>
   </energy>
  </scstep>
  <scstep>
   <time name="dav">   27.37   27.44</time>
   <time name="total">   27.88   27.96</time>
   <energy>
    <i name="e_fr_energy">   -191.44688884 </i>
    <i name="e_wo_entrp">   -191.25458736 </i>
    <i name="e_0_energy">   -191.35073810 </i>
   </energy>
  </scstep>
  <scstep>
   <time name="dav">   31.22   31.29</time>
   <time name="total">   31.73   31.81</time>
   <energy>
    <i name="e_fr_energy">   -191.44732609 </i>
    <i name="e_wo_entrp">   -191.25501858 </i>
    <i name="e_0_energy">   -191.35117234 </i>
   </energy>
  </scstep>
  <scstep>
   <time name="dav">   29.76   29.83</time>
   <time name="total">   30.27   30.35</time>
   <energy>
    <i name="e_fr_energy">   -191.44661600 </i>
    <i name="e_wo_entrp">   -191.25421946 </i>
    <i name="e_0_energy">   -191.35041773 </i>
   </energy>
  </scstep>
  <scstep>
   <time name="dav">   18.97   19.01</time>
   <time name="total">   19.01   19.06</time>
   <energy>
    <i name="alphaZ">     90.09174711 </i>
    <i name="ewald">  44638.17884421 </i>
    <i name="hartreedc"> -50647.25484876 </i>
    <i name="XCdc">   -233.31725416 </i>
    <i name="pawpsdc">   4088.46525344 </i>
    <i name="pawaedc">  -3504.46311676 </i>
    <i name="eentropy">     -0.19240198 </i>
    <i name="bandstr">  -1384.39737965 </i>
    <i name="atom">   6761.44252427 </i>
    <i name="e_fr_energy">   -191.44663227 </i>
    <i name="e_wo_entrp">   -191.25423029 </i>
    <i name="e_0_energy">   -191.35043128 </i>
   </energy>
  </scstep>
  <structure>
   <crystal>
    <varray name="basis" >
     <v>       8.28296154       4.78191171       0.00000000 </v>
     <v>      -8.28261562       4.78131431       0.00000000 </v>
     <v>       0.00000000       0.00000000      30.00000000 </v>
    </varray>
    <i name="volume">   2376.30537528 </i>
    <varray name="rec_basis" >
     <v>       0.06036237       0.10456504       0.00000000 </v>
     <v>      -0.06036991       0.10456941       0.00000000 </v>
     <v>       0.00000000       0.00000000       0.03333333 </v>
    </varray>
   </crystal>
   <varray name="positions" >
    <v>       0.66333801      -0.00663226      -0.00035023 </v>
    <v>       1.00650237       0.33656864      -0.00036334 </v>
    <v>       0.66341316       0.33653202      -0.00038271 </v>
    <v>       0.34158718       0.35002986       0.00016787 </v>
    <v>       0.34169756       0.65824708       0.00017361 </v>
    <v>       0.64991743       0.65835525       0.00016165 </v>
    <v>       0.00560895      -0.00580154       0.00007888 </v>
    <v>       0.00571044       0.67812983       0.00005814 </v>
    <v>       0.32175501      -0.00586430       0.00007110 </v>
    <v>       0.10804063       0.22455510       0.94919377 </v>
    <v>       0.22270893       0.11207692       0.05229605 </v>
    <v>       0.10808362       0.55010044       0.94921205 </v>
    <v>       0.21541793       0.44100458       0.05278051 </v>
    <v>       0.11099527       0.88887667       0.94560198 </v>
    <v>       0.22271932       0.77713777       0.05230366 </v>
    <v>       0.44969085       0.22455651       0.94918766 </v>
    <v>       0.56076278       0.11367520       0.04888290 </v>
    <v>       0.44440905       0.55548936       0.94500379 </v>
    <v>       0.55889025       0.44103906       0.05277791 </v>
    <v>       0.44971771       0.89174998       0.94916470 </v>
    <v>       0.55886802       0.78441446       0.05282655 </v>
    <v>       0.77772246       0.22212485       0.95273417 </v>
    <v>       0.88616220       0.11368585       0.04888562 </v>
    <v>       0.77527206       0.55015640       0.94919779 </v>
    <v>       0.88617799       0.43909562       0.04886795 </v>
    <v>       0.77529323       0.89177800       0.94915341 </v>
    <v>       0.88775204       0.77713312       0.05231446 </v>
   </varray>
  </structure>
  <varray name="forces" >
   <v>       0.03793965      -0.06847458       0.00542369 </v>
   <v>       0.03829566       0.06200012       0.01184137 </v>
   <v>      -0.07736004      -0.00374468       0.01421973 </v>
   <v>      -0.09634126       0.17689247      -0.00899844 </v>
   <v>       0.20001177       0.00370433      -0.01196528 </v>
   <v>      -0.10190366      -0.17731138      -0.00223642 </v>
   <v>       0.59129709      -0.00588492      -0.00121638 </v>
   <v>      -0.29645170       0.50658252       0.00680674 </v>
   <v>      -0.28996739      -0.50710848      -0.00716912 </v>
   <v>       0.14210212       0.03704779       0.08489982 </v>
   <v>      -0.12022186       0.20236223       0.07056688 </v>
   <v>      -0.04243032       0.14253583       0.07763422 </v>
   <v>       0.05852000       0.09986448       0.14612352 </v>
   <v>       0.00306780       0.00086595      -0.53736329 </v>
   <v>       0.22859538      -0.00166765       0.06908640 </v>
   <v>      -0.09723639      -0.10216635       0.09102308 </v>
   <v>      -0.08548237      -0.14720482      -0.08253691 </v>
   <v>      -0.00304451      -0.00111745      -0.33886508 </v>
   <v>      -0.11500737      -0.00258903       0.13220748 </v>
   <v>      -0.04005079      -0.13580286       0.09626048 </v>
   <v>       0.05623028      -0.09924862       0.12947313 </v>
   <v>      -0.00185243      -0.00178833      -0.03383742 </v>
   <v>       0.17151075      -0.00131169      -0.07748972 </v>
   <v>      -0.09482594       0.10590414       0.08174532 </v>
   <v>      -0.08671798       0.14733814      -0.07660262 </v>
   <v>       0.13701139      -0.03207510       0.09537033 </v>
   <v>      -0.11568788      -0.19760208       0.06559849 </v>
  </varray>
  <varray name="stress" >
   <v>       0.31137928      -0.01453563      -0.01186400 </v>
   <v>      -0.01453551       0.35781317      -0.01415479 </v>
   <v>      -0.01186401      -0.01415478      -0.25837159 </v>
  </varray>
  <energy>
   <i name="e_fr_energy">   -191.44663227 </i>
   <i name="e_wo_entrp">   -191.35043128 </i>
   <i name="e_0_energy">     -0.19240198 </i>
  </energy>
  <time name="totalsc">  349.77  350.70</time>
 </calculation>
 <calculation>
  <scstep>
   <time name="dav">   21.65   21.70</time>
   <time name="total">   22.16   22.21</time>
   <energy>
    <i name="alphaZ">     89.87502369 </i>
    <i name="ewald">  44515.68651803 </i>
    <i name="hartreedc"> -50523.16713173 </i>
    <i name="XCdc">   -233.56855214 </i>
    <i name="pawpsdc">   4088.42197682 </i>
    <i name="pawaedc">  -3504.41632779 </i>
    <i name="eentropy">     -0.19236352 </i>
    <i name="bandstr">  -1385.61090477 </i>
    <i name="atom">   6761.44252427 </i>
    <i name="e_fr_energy">   -191.52923714 </i>
    <i name="e_wo_entrp">   -191.33687361 </i>
    <i name="e_0_energy">   -191.43305537 </i>
   </energy>
  </scstep>
  <scstep>
   <time name="dav">   32.95   33.03</time>
   <time name="total">   33.45   33.54</time>
   <energy>
    <i name="e_fr_energy">   -191.66163607 </i>
    <i name="e_wo_entrp">   -191.45246422 </i>
    <i name="e_0_energy">   -191.55705015 </i>
   </energy>
  </scstep>
  <scstep>
   <time name="dav">   30.96   31.03</time>
   <time name="total">   31.47   31.55</time>
   <energy>
    <i name="e_fr_energy">   -191.53492723 </i>
    <i name="e_wo_entrp">   -191.34035153 </i>
    <i name="e_0_energy">   -191.43763938 </i>
   </energy>
  </scstep>
  <scstep>
   <time name="dav">   30.49   30.56</time>
   <time name="total">   30.99   31.08</time>
   <energy>
    <i name="e_fr_energy">   -191.53415978 </i>
    <i name="e_wo_entrp">   -191.33851987 </i>
    <i name="e_0_energy">   -191.43633983 </i>
   </energy>
  </scstep>
  <scstep>
   <time name="dav">   31.51   31.58</time>
   <time name="total">   32.01   32.10</time>
   <energy>
    <i name="e_fr_energy">   -191.53478644 </i>
    <i name="e_wo_entrp">   -191.33919423 </i>
    <i name="e_0_energy">   -191.43699033 </i>
   </energy>
  </scstep>
  <scstep>
   <time name="dav">   28.68   28.75</time>
   <time name="total">   29.20   29.27</time>
   <energy>
    <i name="e_fr_energy">   -191.53309404 </i>
    <i name="e_wo_entrp">   -191.33783112 </i>
    <i name="e_0_energy">   -191.43546258 </i>
   </energy>
  </scstep>
  <scstep>
   <time name="dav">   26.41   26.48</time>
   <time name="total">   26.92   26.99</time>
   <energy>
    <i name="e_fr_energy">   -191.53262029 </i>
    <i name="e_wo_entrp">   -191.33739514 </i>
    <i name="e_0_energy">   -191.43500772 </i>
   </energy>
  </scstep>
  <scstep>
   <time name="dav">   20.92   20.98</time>
   <time name="total">   20.96   21.02</time>
   <energy>
    <i name="alphaZ">     89.87502369 </i>
    <i name="ewald">  44515.68651803 </i>
    <i name="hartreedc"> -50525.97653301 </i>
    <i name="XCdc">   -233.46120926 </i>
    <i name="pawpsdc">   4084.11420032 </i>
    <i name="pawaedc">  -3500.04331302 </i>
    <i name="eentropy">     -0.19524127 </i>
    <i name="bandstr">  -1382.97466615 </i>
    <i name="atom">   6761.44252427 </i>
    <i name="e_fr_energy">   -191.53269638 </i>
    <i name="e_wo_entrp">   -191.33745512 </i>
    <i name="e_0_energy">   -191.43507575 </i>
   </energy>
  </scstep>
  <structure>
   <crystal>
    <varray name="basis" >
     <v>       8.29227008       4.78763864       0.00000000 </v>
     <v>      -8.29229023       4.78767527       0.00000000 </v>
     <v>       0.00000000       0.00000000      30.00000000 </v>
    </varray>
    <i name="volume">   2382.03556617 </i>
    <varray name="rec_basis" >
     <v>       0.06029728       0.10443535       0.00000000 </v>
     <v>      -0.06029682       0.10443509       0.00000000 </v>
     <v>       0.00000000       0.00000000       0.03333333 </v>
    </varray>
   </crystal>
   <varray name="positions" >
    <v>       0.66315451      -0.00698639      -0.00034002 </v>
    <v>       1.00682759       0.33672072      -0.00034290 </v>
    <v>       0.66321961       0.33668965      -0.00035863 </v>
    <v>       0.34206686       0.35093948       0.00015674 </v>
    <v>       0.34216853       0.65781474       0.00015749 </v>
    <v>       0.64899005       0.65789047       0.00016102 </v>
    <v>       0.00712244      -0.00737046       0.00007385 </v>
    <v>       0.00722451       0.68118955       0.00006537 </v>
    <v>       0.31871376      -0.00739680       0.00005652 </v>
    <v>       0.10860654       0.22431251       0.94937308 </v>
    <v>       0.22332707       0.11334283       0.05234900 </v>
    <v>       0.10864618       0.55092704       0.94937934 </v>
    <v>       0.21609384       0.44133828       0.05292734 </v>
    <v>       0.11100797       0.88887116       0.94486438 </v>
    <v>       0.22332420       0.77651598       0.05235425 </v>
    <v>       0.44890667       0.22430682       0.94937620 </v>
    <v>       0.55978280       0.11318347       0.04871925 </v>
    <v>       0.44439410       0.55549213       0.94457644 </v>
    <v>       0.55854341       0.44135873       0.05290234 </v>
    <v>       0.44893094       0.89121338       0.94936175 </v>
    <v>       0.55853018       0.78374824       0.05294676 </v>
    <v>       0.77770488       0.22212235       0.95271454 </v>
    <v>       0.88664879       0.11318379       0.04873064 </v>
    <v>       0.77554652       0.55095096       0.94937192 </v>
    <v>       0.88666536       0.44007940       0.04871391 </v>
    <v>       0.77554492       0.89125123       0.94934988 </v>
    <v>       0.88652222       0.77652519       0.05235944 </v>
   </varray>
  </structure>
  <varray name="forces" >
   <v>       0.01836847      -0.03583694       0.01649916 </v>
   <v>       0.02074002       0.04093527       0.01498085 </v>
   <v>      -0.05478395       0.00048784       0.01481814 </v>
   <v>      -0.13935219       0.25766760      -0.05124408 </v>
   <v>       0.28814016      -0.00786088      -0.04940126 </v>
   <v>      -0.13181640      -0.26055987      -0.05532932 </v>
   <v>       0.53619506       0.00166287       0.01873530 </v>
   <v>      -0.26640831       0.45641558       0.01688279 </v>
   <v>      -0.26943690      -0.45830994       0.02351426 </v>
   <v>       0.09988868       0.00208976       0.09881209 </v>
   <v>      -0.06866490       0.11637094       0.05057883 </v>
   <v>      -0.04849946       0.08749171       0.09532151 </v>
   <v>       0.03581685       0.06445097       0.09098656 </v>
   <v>       0.00290188      -0.00174838      -0.45151646 </v>
   <v>       0.13316385       0.00090843       0.05218481 </v>
   <v>      -0.04731865      -0.08115268       0.09926878 </v>
   <v>      -0.08124955      -0.13139047      -0.11523474 </v>
   <v>      -0.00019097       0.00067757      -0.19400971 </v>
   <v>      -0.07065658      -0.00071283       0.09195785 </v>
   <v>      -0.04859773      -0.08794702       0.09517702 </v>
   <v>       0.03497065      -0.06418062       0.09018103 </v>
   <v>      -0.00365038       0.00237139       0.01756946 </v>
   <v>       0.15505283       0.00231934      -0.11161874 </v>
   <v>      -0.04710808       0.08277986       0.09896920 </v>
   <v>      -0.07880277       0.13146337      -0.11328454 </v>
   <v>       0.10145002      -0.00137713       0.09864559 </v>
   <v>      -0.07015166      -0.11701575       0.05655562 </v>
  </varray>
  <varray name="stress" >
   <v>      -0.15120722       0.00337644      -0.02262134 </v>
   <v>       0.00337646      -0.15828131       0.00039295 </v>
   <v>      -0.02262140       0.00039266      -1.10594221 </v>
  </varray>
  <energy>
   <i name="e_fr_energy">   -191.53269638 </i>
   <i name="e_wo_entrp">   -191.43507575 </i>
   <i name="e_0_energy">     -0.19524127 </i>
  </energy>
  <time name="totalsc">  268.83  269.54</time>
 </calculation>
 <calculation>
  <scstep>
   <time name="dav">   21.63   21.68</time>
   <time name="total">   22.14   22.19</time>
   <energy>
    <i name="alphaZ">     89.95638039 </i>
    <i name="ewald">  44563.22910478 </i>
    <i name="hartreedc"> -50573.68789632 </i>
    <i name="XCdc">   -233.37262889 </i>
    <i name="pawpsdc">   4083.97519537 </i>
    <i name="pawaedc">  -3499.90283165 </i>
    <i name="eentropy">     -0.19259807 </i>
    <i name="bandstr">  -1383.07495940 </i>
    <i name="atom">   6761.44252427 </i>
    <i name="e_fr_energy">   -191.62770952 </i>
    <i name="e_wo_entrp">   -191.43511145 </i>
    <i name="e_0_energy">   -191.53141048 </i>
   </energy>
  </scstep>
  <scstep>
   <time name="dav">   32.64   32.72</time>
   <time name="total">   33.15   33.23</time>
   <energy>
    <i name="e_fr_energy">   -191.75748020 </i>
    <i name="e_wo_entrp">   -191.54129281 </i>
    <i name="e_0_energy">   -191.64938650 </i>
   </energy>
  </scstep>
  <scstep>
   <time name="dav">   30.46   30.53</time>
   <time name="total">   30.96   31.04</time>
   <energy>
    <i name="e_fr_energy">   -191.63529665 </i>
    <i name="e_wo_entrp">   -191.43998582 </i>
    <i name="e_0_energy">   -191.53764124 </i>
   </energy>
  </scstep>
  <scstep>
   <time name="dav">   30.84   30.91</time>
   <time name="total">   31.38   31.47</time>
   <energy>
    <i name="e_fr_energy">   -191.63289050 </i>
    <i name="e_wo_entrp">   -191.43604883 </i>
    <i name="e_0_energy">   -191.53446967 </i>
   </energy>
  </scstep>
  <scstep>
   <time name="dav">   28.61   28.68</time>
   <time name="total">   29.11   29.19</time>
   <energy>
    <i name="e_fr_energy">   -191.63605292 </i>
    <i name="e_wo_entrp">   -191.43875396 </i>
    <i name="e_0_energy">   -191.53740344 </i>
   </energy>
  </scstep>
  <scstep>
   <time name="dav">   28.30   28.37</time>
   <time name="total">   28.81   28.88</time>
   <energy>
    <i name="e_fr_energy">   -191.63144203 </i>
    <i name="e_wo_entrp">   -191.43417149 </i>
    <i name="e_0_energy">   -191.53280676 </i>
   </energy>
  </scstep>
  <scstep>
   <time name="dav">   27.27   27.34</time>
   <time name="total">   27.78   27.85</time>
   <energy>
    <i name="e_fr_energy">   -191.63126879 </i>
    <i name="e_wo_entrp">   -191.43382620 </i>
    <i name="e_0_energy">   -191.53254750 </i>
   </energy>
  </scstep>
  <scstep>
   <time name="dav">   24.66   24.72</time>
   <time name="total">   24.70   24.77</time>
   <energy>
    <i name="alphaZ">     89.95638039 </i>
    <i name="ewald">  44563.22910478 </i>
    <i name="hartreedc"> -50574.15192018 </i>
    <i name="XCdc">   -233.34383436 </i>
    <i name="pawpsdc">   4090.53255981 </i>
    <i name="pawaedc">  -3506.55050713 </i>
    <i name="eentropy">     -0.19739319 </i>
    <i name="bandstr">  -1382.54811560 </i>
    <i name="atom">   6761.44252427 </i>
    <i name="e_fr_energy">   -191.63120121 </i>
    <i name="e_wo_entrp">   -191.43380802 </i>
    <i name="e_0_energy">   -191.53250462 </i>
   </energy>
  </scstep>
  <structure>
   <crystal>
    <varray name="basis" >
     <v>       8.28870346       4.78551103       0.00000000 </v>
     <v>      -8.28859882       4.78533151       0.00000000 </v>
     <v>       0.00000000       0.00000000      30.00000000 </v>
    </varray>
    <i name="volume">   2379.88124910 </i>
    <varray name="rec_basis" >
     <v>       0.06032231       0.10448335       0.00000000 </v>
     <v>      -0.06032458       0.10448467       0.00000000 </v>
     <v>       0.00000000       0.00000000       0.03333333 </v>
    </varray>
   </crystal>
   <varray name="positions" >
    <v>       0.66299391      -0.00727885      -0.00030109 </v>
    <v>       1.00716827       0.33690944      -0.00030753 </v>
[...]
      <set comment="kpoint 31">
       <r>  -17.5023    1.0000 </r>
       <r>  -17.2242    1.0000 </r>
       <r>  -16.8820    1.0000 </r>
       <r>  -16.5070    1.0000 </r>
       <r>  -16.4643    1.0000 </r>
       <r>  -16.3963    1.0000 </r>
       <r>  -16.2072    1.0000 </r>
       <r>  -16.1676    1.0000 </r>
       <r>  -16.1260    1.0000 </r>
       <r>  -16.0295    1.0000 </r>
       <r>  -15.9463    1.0000 </r>
       <r>  -15.8227    1.0000 </r>
       <r>  -15.7256    1.0000 </r>
       <r>  -15.6663    1.0000 </r>
       <r>  -15.5997    1.0000 </r>
       <r>  -15.5815    1.0000 </r>
       <r>  -15.5086    1.0000 </r>
       <r>  -15.4623    1.0000 </r>
       <r>   -9.7222    1.0000 </r>
       <r>   -9.4036    1.0000 </r>
       <r>   -9.3417    1.0000 </r>
       <r>   -8.9956    1.0000 </r>
       <r>   -8.7855    1.0000 </r>
       <r>   -8.7376    1.0000 </r>
       <r>   -8.5710    1.0000 </r>
       <r>   -8.4774    1.0000 </r>
       <r>   -8.3831    1.0000 </r>
       <r>   -8.2764    1.0000 </r>
       <r>   -8.2420    1.0000 </r>
       <r>   -8.1721    1.0000 </r>
       <r>   -8.1092    1.0000 </r>
       <r>   -8.0646    1.0000 </r>
       <r>   -7.9246    1.0000 </r>
       <r>   -7.8939    1.0000 </r>
       <r>   -7.8003    1.0000 </r>
       <r>   -7.6475    1.0000 </r>
       <r>   -7.5384    1.0000 </r>
       <r>   -7.3766    1.0000 </r>
       <r>   -7.2991    1.0000 </r>
       <r>   -7.1919    1.0000 </r>
       <r>   -7.0683    1.0000 </r>
       <r>   -6.9969    1.0000 </r>
       <r>   -6.9458    1.0000 </r>
       <r>   -6.9044    1.0000 </r>
       <r>   -6.8709    1.0000 </r>
       <r>   -6.7718    1.0000 </r>
       <r>   -6.7119    1.0000 </r>
       <r>   -6.6211    1.0000 </r>
       <r>   -6.5919    1.0000 </r>
       <r>   -6.5571    1.0000 </r>
       <r>   -6.3884    1.0000 </r>
       <r>   -6.3309    1.0000 </r>
       <r>   -6.2456    1.0000 </r>
       <r>   -6.1799    1.0000 </r>
       <r>   -6.1132    1.0000 </r>
       <r>   -6.0735    1.0000 </r>
       <r>   -6.0096    1.0000 </r>
       <r>   -5.9445    1.0000 </r>
       <r>   -5.8870    1.0000 </r>
       <r>   -5.8398    1.0000 </r>
       <r>   -5.6951    1.0000 </r>
       <r>   -5.6514    1.0000 </r>
       <r>   -5.5695    1.0000 </r>
       <r>   -5.4900    1.0000 </r>
       <r>   -5.3196    1.0000 </r>
       <r>   -5.1253    1.0000 </r>
       <r>   -5.0430    1.0000 </r>
       <r>   -4.9384    1.0000 </r>
       <r>   -4.8104    1.0000 </r>
       <r>   -4.7441    1.0000 </r>
       <r>   -4.5203    1.0000 </r>
       <r>   -4.4652    1.0000 </r>
       <r>   -4.4096    1.0000 </r>
       <r>   -4.1891    1.0000 </r>
       <r>   -3.9503    1.0000 </r>
       <r>   -3.8926    1.0000 </r>
       <r>   -3.7996    1.0000 </r>
       <r>   -3.6542    0.9997 </r>
       <r>   -3.4532    0.9763 </r>
       <r>   -3.0872    0.2726 </r>
       <r>   -3.0097    0.1245 </r>
       <r>   -2.9170    0.0353 </r>
       <r>   -2.7785    0.0027 </r>
       <r>   -2.7035    0.0005 </r>
       <r>   -2.6334    0.0001 </r>
       <r>   -2.5532    0.0000 </r>
       <r>   -2.4921    0.0000 </r>
       <r>   -2.3703    0.0000 </r>
       <r>   -2.2086    0.0000 </r>
       <r>   -2.0781    0.0000 </r>
       <r>   -1.9008    0.0000 </r>
       <r>   -1.8796    0.0000 </r>
       <r>   -1.8160    0.0000 </r>
       <r>   -1.3296    0.0000 </r>
       <r>   -1.1623    0.0000 </r>
       <r>   -1.0778    0.0000 </r>
       <r>   -0.9965    0.0000 </r>
       <r>   -0.9316    0.0000 </r>
       <r>   -0.8605    0.0000 </r>
       <r>   -0.7707    0.0000 </r>
       <r>   -0.7557    0.0000 </r>
       <r>   -0.6988    0.0000 </r>
       <r>   -0.5295    0.0000 </r>
       <r>   -0.4736    0.0000 </r>
       <r>   -0.4023    0.0000 </r>
       <r>   -0.2738    0.0000 </r>
       <r>   -0.2121    0.0000 </r>
       <r>   -0.1581    0.0000 </r>
       <r>    0.0196    0.0000 </r>
       <r>    0.2771    0.0000 </r>
       <r>    0.3544    0.0000 </r>
       <r>    0.5662    0.0000 </r>
       <r>    0.6456    0.0000 </r>
       <r>    0.8630    0.0000 </r>
       <r>    1.1320    0.0000 </r>
       <r>    1.3028    0.0000 </r>
       <r>    1.3618    0.0000 </r>
       <r>    2.1396    0.0000 </r>
       <r>    2.3035    0.0000 </r>
       <r>    2.3964    0.0000 </r>
      </set>
      <set comment="kpoint 32">
       <r>  -17.5151    1.0000 </r>
       <r>  -17.1336    1.0000 </r>
       <r>  -17.0157    1.0000 </r>
       <r>  -16.5062    1.0000 </r>
       <r>  -16.3908    1.0000 </r>
       <r>  -16.3475    1.0000 </r>
       <r>  -16.2129    1.0000 </r>
       <r>  -16.1797    1.0000 </r>
       <r>  -16.1324    1.0000 </r>
       <r>  -16.0277    1.0000 </r>
       <r>  -15.9746    1.0000 </r>
       <r>  -15.8759    1.0000 </r>
       <r>  -15.7250    1.0000 </r>
       <r>  -15.6512    1.0000 </r>
       <r>  -15.6086    1.0000 </r>
       <r>  -15.5641    1.0000 </r>
       <r>  -15.5199    1.0000 </r>
       <r>  -15.4381    1.0000 </r>
       <r>   -9.6364    1.0000 </r>
       <r>   -9.5444    1.0000 </r>
       <r>   -9.3965    1.0000 </r>
       <r>   -8.9848    1.0000 </r>
       <r>   -8.7017    1.0000 </r>
       <r>   -8.5998    1.0000 </r>
       <r>   -8.4939    1.0000 </r>
       <r>   -8.4634    1.0000 </r>
       <r>   -8.3622    1.0000 </r>
       <r>   -8.3202    1.0000 </r>
       <r>   -8.2452    1.0000 </r>
       <r>   -8.1916    1.0000 </r>
       <r>   -8.1468    1.0000 </r>
       <r>   -8.1370    1.0000 </r>
       <r>   -8.0464    1.0000 </r>
       <r>   -7.8757    1.0000 </r>
       <r>   -7.8685    1.0000 </r>
       <r>   -7.6053    1.0000 </r>
       <r>   -7.4548    1.0000 </r>
       <r>   -7.3760    1.0000 </r>
       <r>   -7.2773    1.0000 </r>
       <r>   -7.2373    1.0000 </r>
       <r>   -7.1112    1.0000 </r>
       <r>   -7.0350    1.0000 </r>
       <r>   -6.9496    1.0000 </r>
       <r>   -6.8971    1.0000 </r>
       <r>   -6.8496    1.0000 </r>
       <r>   -6.7512    1.0000 </r>
       <r>   -6.7150    1.0000 </r>
       <r>   -6.6239    1.0000 </r>
       <r>   -6.5330    1.0000 </r>
       <r>   -6.5064    1.0000 </r>
       <r>   -6.4466    1.0000 </r>
       <r>   -6.3830    1.0000 </r>
       <r>   -6.2984    1.0000 </r>
       <r>   -6.2013    1.0000 </r>
       <r>   -6.1245    1.0000 </r>
       <r>   -6.0882    1.0000 </r>
       <r>   -6.0244    1.0000 </r>
       <r>   -5.8921    1.0000 </r>
       <r>   -5.8464    1.0000 </r>
       <r>   -5.7509    1.0000 </r>
       <r>   -5.6836    1.0000 </r>
       <r>   -5.5600    1.0000 </r>
       <r>   -5.4538    1.0000 </r>
       <r>   -5.3944    1.0000 </r>
       <r>   -5.3352    1.0000 </r>
       <r>   -5.2791    1.0000 </r>
       <r>   -5.1215    1.0000 </r>
       <r>   -5.0146    1.0000 </r>
       <r>   -4.9355    1.0000 </r>
       <r>   -4.6850    1.0000 </r>
       <r>   -4.5466    1.0000 </r>
       <r>   -4.4584    1.0000 </r>
       <r>   -4.3558    1.0000 </r>
       <r>   -4.1957    1.0000 </r>
       <r>   -3.9567    1.0000 </r>
       <r>   -3.8744    1.0000 </r>
       <r>   -3.7986    1.0000 </r>
       <r>   -3.6865    0.9999 </r>
       <r>   -3.3902    0.9380 </r>
       <r>   -3.0666    0.2264 </r>
       <r>   -2.9756    0.0817 </r>
       <r>   -2.9370    0.0477 </r>
       <r>   -2.7918    0.0035 </r>
       <r>   -2.7119    0.0006 </r>
       <r>   -2.6660    0.0002 </r>
       <r>   -2.5459    0.0000 </r>
       <r>   -2.5057    0.0000 </r>
       <r>   -2.3373    0.0000 </r>
       <r>   -2.2547    0.0000 </r>
       <r>   -2.0575    0.0000 </r>
       <r>   -1.9057    0.0000 </r>
       <r>   -1.8616    0.0000 </r>
       <r>   -1.8381    0.0000 </r>
       <r>   -1.3201    0.0000 </r>
       <r>   -1.1817    0.0000 </r>
       <r>   -1.0565    0.0000 </r>
       <r>   -1.0100    0.0000 </r>
       <r>   -0.9063    0.0000 </r>
       <r>   -0.8926    0.0000 </r>
       <r>   -0.7803    0.0000 </r>
       <r>   -0.7362    0.0000 </r>
       <r>   -0.7028    0.0000 </r>
       <r>   -0.5146    0.0000 </r>
       <r>   -0.4796    0.0000 </r>
       <r>   -0.3232    0.0000 </r>
       <r>   -0.2825    0.0000 </r>
       <r>   -0.2387    0.0000 </r>
       <r>   -0.1242    0.0000 </r>
       <r>    0.0626    0.0000 </r>
       <r>    0.1675    0.0000 </r>
       <r>    0.3270    0.0000 </r>
       <r>    0.5849    0.0000 </r>
       <r>    0.6766    0.0000 </r>
       <r>    0.8313    0.0000 </r>
       <r>    1.1993    0.0000 </r>
       <r>    1.2149    0.0000 </r>
       <r>    1.3585    0.0000 </r>
       <r>    2.1081    0.0000 </r>
       <r>    2.2742    0.0000 </r>
       <r>    2.5711    0.0000 </r>
      </set>
      <set comment="kpoint 33">
       <r>  -17.5021    1.0000 </r>
       <r>  -17.2244    1.0000 </r>
       <r>  -16.8820    1.0000 </r>
       <r>  -16.5068    1.0000 </r>
       <r>  -16.4643    1.0000 </r>
       <r>  -16.3968    1.0000 </r>
       <r>  -16.2070    1.0000 </r>
       <r>  -16.1675    1.0000 </r>
       <r>  -16.1257    1.0000 </r>
       <r>  -16.0302    1.0000 </r>
       <r>  -15.9467    1.0000 </r>
       <r>  -15.8223    1.0000 </r>
       <r>  -15.7254    1.0000 </r>
       <r>  -15.6659    1.0000 </r>
       <r>  -15.5996    1.0000 </r>
       <r>  -15.5820    1.0000 </r>
       <r>  -15.5083    1.0000 </r>
       <r>  -15.4624    1.0000 </r>
       <r>   -9.7222    1.0000 </r>
       <r>   -9.4036    1.0000 </r>
       <r>   -9.3420    1.0000 </r>
       <r>   -8.9954    1.0000 </r>
       <r>   -8.7853    1.0000 </r>
       <r>   -8.7373    1.0000 </r>
       <r>   -8.5711    1.0000 </r>
       <r>   -8.4780    1.0000 </r>
       <r>   -8.3831    1.0000 </r>
       <r>   -8.2764    1.0000 </r>
       <r>   -8.2423    1.0000 </r>
       <r>   -8.1723    1.0000 </r>
       <r>   -8.1087    1.0000 </r>
       <r>   -8.0647    1.0000 </r>
       <r>   -7.9245    1.0000 </r>
       <r>   -7.8940    1.0000 </r>
       <r>   -7.8003    1.0000 </r>
       <r>   -7.6471    1.0000 </r>
       <r>   -7.5380    1.0000 </r>
       <r>   -7.3777    1.0000 </r>
       <r>   -7.2994    1.0000 </r>
       <r>   -7.1923    1.0000 </r>
       <r>   -7.0681    1.0000 </r>
       <r>   -6.9968    1.0000 </r>
       <r>   -6.9455    1.0000 </r>
       <r>   -6.9035    1.0000 </r>
       <r>   -6.8710    1.0000 </r>
       <r>   -6.7724    1.0000 </r>
       <r>   -6.7123    1.0000 </r>
       <r>   -6.6212    1.0000 </r>
       <r>   -6.5911    1.0000 </r>
       <r>   -6.5573    1.0000 </r>
       <r>   -6.3883    1.0000 </r>
       <r>   -6.3313    1.0000 </r>
       <r>   -6.2453    1.0000 </r>
       <r>   -6.1805    1.0000 </r>
       <r>   -6.1132    1.0000 </r>
       <r>   -6.0733    1.0000 </r>
       <r>   -6.0097    1.0000 </r>
       <r>   -5.9441    1.0000 </r>
       <r>   -5.8860    1.0000 </r>
       <r>   -5.8395    1.0000 </r>
       <r>   -5.6948    1.0000 </r>
       <r>   -5.6510    1.0000 </r>
       <r>   -5.5692    1.0000 </r>
       <r>   -5.4907    1.0000 </r>
       <r>   -5.3196    1.0000 </r>
       <r>   -5.1257    1.0000 </r>
       <r>   -5.0431    1.0000 </r>
       <r>   -4.9380    1.0000 </r>
       <r>   -4.8102    1.0000 </r>
       <r>   -4.7447    1.0000 </r>
       <r>   -4.5203    1.0000 </r>
       <r>   -4.4658    1.0000 </r>
       <r>   -4.4102    1.0000 </r>
       <r>   -4.1895    1.0000 </r>
       <r>   -3.9502    1.0000 </r>
       <r>   -3.8923    1.0000 </r>
       <r>   -3.7996    1.0000 </r>
       <r>   -3.6545    0.9997 </r>
       <r>   -3.4530    0.9762 </r>
       <r>   -3.0877    0.2737 </r>
       <r>   -3.0095    0.1241 </r>
       <r>   -2.9155    0.0344 </r>
       <r>   -2.7775    0.0026 </r>
       <r>   -2.7016    0.0004 </r>
       <r>   -2.6345    0.0001 </r>
       <r>   -2.5549    0.0000 </r>
       <r>   -2.4948    0.0000 </r>
       <r>   -2.3705    0.0000 </r>
       <r>   -2.2086    0.0000 </r>
       <r>   -2.0781    0.0000 </r>
       <r>   -1.9004    0.0000 </r>
       <r>   -1.8783    0.0000 </r>
       <r>   -1.8169    0.0000 </r>
       <r>   -1.3292    0.0000 </r>
       <r>   -1.1617    0.0000 </r>
       <r>   -1.0778    0.0000 </r>
       <r>   -0.9967    0.0000 </r>
       <r>   -0.9329    0.0000 </r>
       <r>   -0.8587    0.0000 </r>
       <r>   -0.7702    0.0000 </r>
       <r>   -0.7566    0.0000 </r>
       <r>   -0.6990    0.0000 </r>
       <r>   -0.5298    0.0000 </r>
       <r>   -0.4738    0.0000 </r>
       <r>   -0.4018    0.0000 </r>
       <r>   -0.2748    0.0000 </r>
       <r>   -0.2120    0.0000 </r>
       <r>   -0.1577    0.0000 </r>
       <r>    0.0187    0.0000 </r>
       <r>    0.2771    0.0000 </r>
       <r>    0.3550    0.0000 </r>
       <r>    0.5666    0.0000 </r>
       <r>    0.6449    0.0000 </r>
       <r>    0.8624    0.0000 </r>
       <r>    1.1319    0.0000 </r>
       <r>    1.3034    0.0000 </r>
       <r>    1.3622    0.0000 </r>
       <r>    2.1397    0.0000 </r>
       <r>    2.3035    0.0000 </r>
       <r>    2.3966    0.0000 </r>
      </set>
      <set comment="kpoint 34">
       <r>  -17.4858    1.0000 </r>
       <r>  -17.2805    1.0000 </r>
       <r>  -16.7051    1.0000 </r>
       <r>  -16.6489    1.0000 </r>
       <r>  -16.5000    1.0000 </r>
       <r>  -16.4040    1.0000 </r>
       <r>  -16.1666    1.0000 </r>
       <r>  -16.1657    1.0000 </r>
       <r>  -16.1640    1.0000 </r>
       <r>  -16.0234    1.0000 </r>
       <r>  -15.9315    1.0000 </r>
       <r>  -15.7367    1.0000 </r>
       <r>  -15.7247    1.0000 </r>
       <r>  -15.6740    1.0000 </r>
       <r>  -15.6585    1.0000 </r>
       <r>  -15.5403    1.0000 </r>
       <r>  -15.5240    1.0000 </r>
       <r>  -15.4861    1.0000 </r>
       <r>   -9.7638    1.0000 </r>
       <r>   -9.2755    1.0000 </r>
       <r>   -9.2638    1.0000 </r>
       <r>   -9.0359    1.0000 </r>
       <r>   -8.8965    1.0000 </r>
       <r>   -8.8592    1.0000 </r>
       <r>   -8.5809    1.0000 </r>
       <r>   -8.5081    1.0000 </r>
       <r>   -8.3857    1.0000 </r>
       <r>   -8.2840    1.0000 </r>
       <r>   -8.2381    1.0000 </r>
       <r>   -8.1475    1.0000 </r>
       <r>   -8.0815    1.0000 </r>
       <r>   -7.9611    1.0000 </r>
       <r>   -7.9598    1.0000 </r>
       <r>   -7.8042    1.0000 </r>
       <r>   -7.7367    1.0000 </r>
       <r>   -7.6679    1.0000 </r>
       <r>   -7.5992    1.0000 </r>
       <r>   -7.3317    1.0000 </r>
       <r>   -7.3198    1.0000 </r>
       <r>   -7.2712    1.0000 </r>
       <r>   -7.0381    1.0000 </r>
       <r>   -7.0120    1.0000 </r>
       <r>   -6.9131    1.0000 </r>
       <r>   -6.8982    1.0000 </r>
       <r>   -6.8754    1.0000 </r>
       <r>   -6.7458    1.0000 </r>
       <r>   -6.6808    1.0000 </r>
       <r>   -6.6304    1.0000 </r>
       <r>   -6.6134    1.0000 </r>
       <r>   -6.5716    1.0000 </r>
       <r>   -6.3442    1.0000 </r>
       <r>   -6.3218    1.0000 </r>
       <r>   -6.2273    1.0000 </r>
       <r>   -6.1651    1.0000 </r>
       <r>   -6.1348    1.0000 </r>
       <r>   -6.0881    1.0000 </r>
       <r>   -6.0600    1.0000 </r>
       <r>   -5.9423    1.0000 </r>
       <r>   -5.9260    1.0000 </r>
       <r>   -5.8217    1.0000 </r>
       <r>   -5.7942    1.0000 </r>
       <r>   -5.6472    1.0000 </r>
       <r>   -5.5618    1.0000 </r>
       <r>   -5.5037    1.0000 </r>
       <r>   -5.4923    1.0000 </r>
       <r>   -5.0275    1.0000 </r>
       <r>   -4.9604    1.0000 </r>
       <r>   -4.8104    1.0000 </r>
       <r>   -4.7423    1.0000 </r>
       <r>   -4.7049    1.0000 </r>
       <r>   -4.6165    1.0000 </r>
       <r>   -4.5509    1.0000 </r>
       <r>   -4.3233    1.0000 </r>
       <r>   -4.2289    1.0000 </r>
       <r>   -3.9538    1.0000 </r>
       <r>   -3.8851    1.0000 </r>
       <r>   -3.8105    1.0000 </r>
       <r>   -3.5968    0.9986 </r>
       <r>   -3.5483    0.9960 </r>
       <r>   -3.0643    0.2215 </r>
       <r>   -3.0604    0.2134 </r>
       <r>   -2.9261    0.0406 </r>
       <r>   -2.7365    0.0010 </r>
       <r>   -2.7232    0.0007 </r>
       <r>   -2.5829    0.0000 </r>
       <r>   -2.5625    0.0000 </r>
       <r>   -2.4869    0.0000 </r>
       <r>   -2.4001    0.0000 </r>
       <r>   -2.1405    0.0000 </r>
       <r>   -2.1305    0.0000 </r>
       <r>   -1.8929    0.0000 </r>
       <r>   -1.8898    0.0000 </r>
       <r>   -1.8035    0.0000 </r>
       <r>   -1.3331    0.0000 </r>
       <r>   -1.1484    0.0000 </r>
       <r>   -1.0941    0.0000 </r>
       <r>   -0.9829    0.0000 </r>
       <r>   -0.9560    0.0000 </r>
       <r>   -0.8276    0.0000 </r>
       <r>   -0.7650    0.0000 </r>
       <r>   -0.7622    0.0000 </r>
       <r>   -0.7040    0.0000 </r>
       <r>   -0.5311    0.0000 </r>
       <r>   -0.4782    0.0000 </r>
       <r>   -0.4614    0.0000 </r>
       <r>   -0.2813    0.0000 </r>
       <r>   -0.2567    0.0000 </r>
       <r>   -0.1336    0.0000 </r>
       <r>    0.0257    0.0000 </r>
       <r>    0.3275    0.0000 </r>
       <r>    0.3929    0.0000 </r>
       <r>    0.5533    0.0000 </r>
       <r>    0.6120    0.0000 </r>
       <r>    0.8887    0.0000 </r>
       <r>    1.1076    0.0000 </r>
       <r>    1.3501    0.0000 </r>
       <r>    1.3643    0.0000 </r>
       <r>    2.2290    0.0000 </r>
       <r>    2.2423    0.0000 </r>
       <r>    2.3695    0.0000 </r>
      </set>
     </set>
    </set>
   </array>
  </eigenvalues>
  <separator name="orbital magnetization" >
   <v name="MAGDIPOLOUT">      0.00000000      0.00000000      0.00000000</v>
  </separator>
 </calculation>
 <structure name="finalpos" >
  <crystal>
   <varray name="basis" >
    <v>       8.34382729       4.81760272       0.00000000 </v>
    <v>      -8.34399261       4.81789076       0.00000000 </v>
    <v>       0.00000000       0.00000000      30.00000000 </v>
   </varray>
   <i name="volume">   2411.93069475 </i>
   <varray name="rec_basis" >
    <v>       0.05992574       0.10378398       0.00000000 </v>
    <v>      -0.05992215       0.10378193       0.00000000 </v>
    <v>       0.00000000       0.00000000       0.03333333 </v>
   </varray>
  </crystal>
  <varray name="positions" >
   <v>       0.66302310      -0.00737541      -0.00027911 </v>
   <v>       1.00727643       0.33701333      -0.00029302 </v>
   <v>       0.66310906       0.33706770      -0.00029400 </v>
   <v>       0.34590558       0.35854026      -0.00011151 </v>
   <v>       0.34590134       0.65401696      -0.00011100 </v>
   <v>       0.64143040       0.65403884      -0.00011425 </v>
   <v>       0.01302480      -0.01339690       0.00020299 </v>
   <v>       0.01306935       0.69298071       0.00020236 </v>
   <v>       0.30678294      -0.01337422       0.00019728 </v>
   <v>       0.10958834       0.22280630       0.95062683 </v>
   <v>       0.22507142       0.11689757       0.05231091 </v>
   <v>       0.10959858       0.55337223       0.95060646 </v>
   <v>       0.21805913       0.44233254       0.05319234 </v>
   <v>       0.11099811       0.88878581       0.94218243 </v>
   <v>       0.22505395       0.77475633       0.05233204 </v>
   <v>       0.44649077       0.22280620       0.95062556 </v>
   <v>       0.55476609       0.11068859       0.04736858 </v>
   <v>       0.44439043       0.55550396       0.94278752 </v>
   <v>       0.55754669       0.44233297       0.05318674 </v>
   <v>       0.44652313       0.89028478       0.95061137 </v>
   <v>       0.55754472       0.78181523       0.05318854 </v>
   <v>       0.77773530       0.22215949       0.95325067 </v>
   <v>       0.88916847       0.11070406       0.04739239 </v>
   <v>       0.77703060       0.55336077       0.95058572 </v>
   <v>       0.88916160       0.44506012       0.04741039 </v>
   <v>       0.77701859       0.89028079       0.95059248 </v>
   <v>       0.88294555       0.77475545       0.05234922 </v>
  </varray>
 </structure>
</modeling>
