   27   27  100    1
  0.9710400E+02  0.1002848E-08  0.1002848E-08  0.3000000E-08  0.5000000E-15
  1.000000000000000E-004
  CAR 
 unknown system                          
    159     34    120
 
  0.0000000E+00  0.0000000E+00  0.0000000E+00  0.1562500E-01
    1      -17.787317   1.000000
    2      -16.694337   1.000000
    3      -16.596996   1.000000
    4      -16.583969   1.000000
    5      -16.491475   1.000000
    6      -16.478346   1.000000
    7      -16.414636   1.000000
    8      -16.348987   1.000000
    9      -16.132420   1.000000
   10      -16.126645   1.000000
   11      -16.097986   1.000000
   12      -16.014077   1.000000
   13      -15.886353   1.000000
   14      -15.662996   1.000000
   15      -15.635730   1.000000
   16      -15.528783   1.000000
   17      -15.318974   1.000000
   18      -15.273311   1.000000
   19       -9.215261   1.000000
   20       -8.962857   1.000000
   21       -8.934521   1.000000
   22       -8.824514   1.000000
   23       -8.743686   1.000000
   24       -8.713660   1.000000
   25       -8.649732   1.000000
   26       -8.602780   1.000000
   27       -8.498398   1.000000
   28       -8.444403   1.000000
   29       -8.383668   1.000000
   30       -8.348769   1.000000
   31       -8.316019   1.000000
   32       -8.171235   1.000000
   33       -7.993384   1.000000
   34       -7.976369   1.000000
   35       -7.860762   1.000000
   36       -7.796336   1.000000
   37       -7.778581   1.000000
   38       -7.538652   1.000000
   39       -7.407125   1.000000
   40       -7.392325   1.000000
   41       -7.344823   1.000000
   42       -7.276354   1.000000
   43       -7.101674   1.000000
   44       -6.960934   1.000000
   45       -6.831396   1.000000
   46       -6.792860   1.000000
   47       -6.737872   1.000000
   48       -6.585500   1.000000
   49       -6.568501   1.000000
   50       -6.502658   1.000000
   51       -6.426103   1.000000
   52       -6.381738   1.000000
   53       -6.293208   1.000000
   54       -6.285698   1.000000
   55       -6.233521   1.000000
   56       -6.200852   1.000000
   57       -6.045731   1.000000
   58       -5.935338   1.000000
   59       -5.707958   1.000000
   60       -5.564772   1.000000
   61       -5.525421   1.000000
   62       -5.431600   1.000000
   63       -5.321948   1.000000
   64       -5.181508   1.000000
   65       -5.113014   1.000000
   66       -5.023210   1.000000
   67       -4.995282   1.000000
   68       -4.839649   1.000000
   69       -4.811024   1.000000
   70       -4.736256   1.000000
   71       -4.651220   1.000000
   72       -4.580800   1.000000
   73       -4.483271   1.000000
   74       -4.191865   1.000000
   75       -4.163136   1.000000
   76       -4.057829   1.000000
   77       -3.720645   0.999531
   78       -3.538813   0.978455
   79       -3.526010   0.973339
   80       -3.423182   0.885937
   81       -3.320102   0.683075
   82       -2.883267   0.004493
   83       -2.629906   0.000005
   84       -2.582072   0.000001
   85       -2.446003   0.000000
   86       -2.425006   0.000000
   87       -2.249506   0.000000
   88       -2.178734   0.000000
   89       -2.143949   0.000000
   90       -2.036307   0.000000
   91       -1.969620   0.000000
   92       -1.878504   0.000000
   93       -1.470751   0.000000
   94       -1.224063   0.000000
   95       -1.115305   0.000000
   96       -1.046871   0.000000
   97       -0.999947   0.000000
   98       -0.853144   0.000000
   99       -0.718087   0.000000
  100       -0.674313   0.000000
  101       -0.653058   0.000000
  102       -0.444900   0.000000
  103       -0.407741   0.000000
  104       -0.389356   0.000000
  105       -0.268093   0.000000
  106       -0.106561   0.000000
  107       -0.077811   0.000000
  108        0.026758   0.000000
  109        0.059564   0.000000
  110        0.192241   0.000000
  111        0.314887   0.000000
  112        0.408937   0.000000
  113        0.727597   0.000000
  114        0.867483   0.000000
  115        0.991559   0.000000
  116        1.094954   0.000000
  117        1.148983   0.000000
  118        1.631573   0.000000
  119        1.825112   0.000000
  120        2.135854   0.000000
 
  0.1250000E+00  0.2775558E-16  0.0000000E+00  0.3125000E-01
    1      -17.762272   1.000000
    2      -16.767217   1.000000
    3      -16.652671   1.000000
    4      -16.620512   1.000000
    5      -16.548080   1.000000
    6      -16.413849   1.000000
    7      -16.360673   1.000000
    8      -16.308571   1.000000
    9      -16.185415   1.000000
   10      -16.115072   1.000000
   11      -16.033512   1.000000
   12      -15.964576   1.000000
   13      -15.882527   1.000000
   14      -15.681966   1.000000
   15      -15.631219   1.000000
   16      -15.527695   1.000000
   17      -15.322146   1.000000
   18      -15.284070   1.000000
   19       -9.232682   1.000000
   20       -9.115042   1.000000
   21       -8.989298   1.000000
   22       -8.951157   1.000000
   23       -8.783430   1.000000
   24       -8.727497   1.000000
   25       -8.646913   1.000000
   26       -8.586805   1.000000
   27       -8.489054   1.000000
   28       -8.399532   1.000000
   29       -8.379015   1.000000
   30       -8.330603   1.000000
   31       -8.164166   1.000000
   32       -8.056821   1.000000
   33       -7.982320   1.000000
   34       -7.928938   1.000000
   35       -7.803563   1.000000
   36       -7.736519   1.000000
   37       -7.672469   1.000000
   38       -7.556046   1.000000
   39       -7.530164   1.000000
   40       -7.388872   1.000000
   41       -7.315218   1.000000
   42       -7.227883   1.000000
   43       -7.111182   1.000000
   44       -6.975475   1.000000
   45       -6.926080   1.000000
   46       -6.844509   1.000000
   47       -6.731791   1.000000
   48       -6.598158   1.000000
   49       -6.491388   1.000000
   50       -6.468488   1.000000
   51       -6.418583   1.000000
   52       -6.392256   1.000000
   53       -6.328388   1.000000
   54       -6.280231   1.000000
   55       -6.228138   1.000000
   56       -6.197552   1.000000
   57       -5.995277   1.000000
   58       -5.945618   1.000000
   59       -5.690510   1.000000
   60       -5.606488   1.000000
   61       -5.542846   1.000000
   62       -5.437209   1.000000
   63       -5.358556   1.000000
   64       -5.246827   1.000000
   65       -5.138766   1.000000
   66       -5.022179   1.000000
   67       -4.994031   1.000000
   68       -4.919716   1.000000
   69       -4.802881   1.000000
   70       -4.732682   1.000000
   71       -4.704168   1.000000
   72       -4.509999   1.000000
   73       -4.435804   1.000000
   74       -4.173133   1.000000
   75       -4.051598   1.000000
   76       -4.038506   1.000000
   77       -3.825902   0.999975
   78       -3.746180   0.999758
   79       -3.536035   0.977422
   80       -3.325735   0.697124
   81       -3.188946   0.325958
   82       -2.853409   0.002374
   83       -2.617194   0.000003
   84       -2.601104   0.000002
   85       -2.448388   0.000000
   86       -2.386876   0.000000
   87       -2.252661   0.000000
   88       -2.162353   0.000000
   89       -2.137298   0.000000
   90       -2.015455   0.000000
   91       -2.003002   0.000000
   92       -1.860945   0.000000
   93       -1.463884   0.000000
   94       -1.218562   0.000000
   95       -1.118470   0.000000
   96       -1.035278   0.000000
   97       -0.997930   0.000000
   98       -0.874945   0.000000
   99       -0.772452   0.000000
  100       -0.725459   0.000000
  101       -0.682143   0.000000
  102       -0.552688   0.000000
  103       -0.468752   0.000000
  104       -0.423582   0.000000
  105       -0.327619   0.000000
  106       -0.125327   0.000000
  107       -0.092288   0.000000
  108        0.014740   0.000000
  109        0.061918   0.000000
  110        0.227637   0.000000
  111        0.405997   0.000000
  112        0.497974   0.000000
  113        0.737599   0.000000
  114        0.838478   0.000000
  115        0.986948   0.000000
  116        1.100530   0.000000
  117        1.123839   0.000000
  118        1.675633   0.000000
  119        1.863295   0.000000
  120        2.170976   0.000000
 
  0.2500000E+00  0.5551115E-16  0.0000000E+00  0.3125000E-01
    1      -17.688356   1.000000
    2      -16.972305   1.000000
    3      -16.684344   1.000000
    4      -16.658461   1.000000
    5      -16.599974   1.000000
    6      -16.374701   1.000000
    7      -16.290356   1.000000
    8      -16.270531   1.000000
    9      -16.186943   1.000000
   10      -16.092027   1.000000
   11      -15.980641   1.000000
   12      -15.895592   1.000000
   13      -15.825010   1.000000
   14      -15.716968   1.000000
   15      -15.626925   1.000000
   16      -15.529745   1.000000
   17      -15.355177   1.000000
   18      -15.286430   1.000000
   19       -9.482169   1.000000
   20       -9.181596   1.000000
   21       -9.076198   1.000000
   22       -9.046693   1.000000
   23       -8.876507   1.000000
   24       -8.796361   1.000000
   25       -8.645978   1.000000
   26       -8.561166   1.000000
   27       -8.438863   1.000000
   28       -8.368407   1.000000
   29       -8.261468   1.000000
   30       -8.193038   1.000000
   31       -8.150908   1.000000
   32       -8.038240   1.000000
   33       -7.867447   1.000000
   34       -7.841071   1.000000
   35       -7.770111   1.000000
   36       -7.659686   1.000000
   37       -7.586396   1.000000
   38       -7.522346   1.000000
   39       -7.430836   1.000000
   40       -7.402156   1.000000
   41       -7.275505   1.000000
   42       -7.156961   1.000000
   43       -7.070196   1.000000
   44       -7.037018   1.000000
   45       -6.956217   1.000000
   46       -6.830865   1.000000
   47       -6.742906   1.000000
   48       -6.665923   1.000000
   49       -6.554038   1.000000
   50       -6.463308   1.000000
   51       -6.404623   1.000000
   52       -6.374721   1.000000
   53       -6.324110   1.000000
   54       -6.214946   1.000000
   55       -6.183492   1.000000
   56       -6.115072   1.000000
   57       -6.017079   1.000000
   58       -5.864280   1.000000
   59       -5.786302   1.000000
   60       -5.687176   1.000000
   61       -5.663667   1.000000
   62       -5.587462   1.000000
   63       -5.397189   1.000000
   64       -5.318966   1.000000
   65       -5.214165   1.000000
   66       -5.056105   1.000000
   67       -5.023729   1.000000
   68       -4.946023   1.000000
   69       -4.851323   1.000000
   70       -4.644248   1.000000
   71       -4.607518   1.000000
   72       -4.427466   1.000000
   73       -4.335884   1.000000
   74       -4.269697   1.000000
   75       -4.119508   1.000000
   76       -4.030275   1.000000
   77       -3.952287   1.000000
   78       -3.779168   0.999901
   79       -3.527757   0.974092
   80       -3.175521   0.292523
   81       -3.049619   0.075460
   82       -2.798199   0.000654
   83       -2.640814   0.000008
   84       -2.551014   0.000000
   85       -2.456056   0.000000
   86       -2.367827   0.000000
   87       -2.280116   0.000000
   88       -2.126311   0.000000
   89       -2.104542   0.000000
   90       -2.056202   0.000000
   91       -1.951655   0.000000
   92       -1.792528   0.000000
   93       -1.459707   0.000000
   94       -1.224862   0.000000
   95       -1.140350   0.000000
   96       -1.028425   0.000000
   97       -0.980959   0.000000
   98       -0.970018   0.000000
   99       -0.908223   0.000000
  100       -0.837846   0.000000
  101       -0.747868   0.000000
  102       -0.686018   0.000000
  103       -0.596511   0.000000
  104       -0.475433   0.000000
  105       -0.411292   0.000000
  106       -0.178266   0.000000
  107       -0.091551   0.000000
  108       -0.080401   0.000000
  109        0.053938   0.000000
  110        0.266670   0.000000
  111        0.520110   0.000000
  112        0.612035   0.000000
  113        0.767979   0.000000
  114        0.833234   0.000000
  115        0.988460   0.000000
  116        1.071726   0.000000
  117        1.162945   0.000000
  118        1.797932   0.000000
  119        1.973611   0.000000
  120        2.275105   0.000000
 
  0.3750000E+00  0.0000000E+00  0.0000000E+00  0.3125000E-01
    1      -17.570702   1.000000
    2      -17.186376   1.000000
    3      -16.727653   1.000000
    4      -16.672765   1.000000
    5      -16.614681   1.000000
    6      -16.376746   1.000000
    7      -16.268257   1.000000
    8      -16.254318   1.000000
    9      -16.121965   1.000000
   10      -16.055815   1.000000
   11      -15.950880   1.000000
   12      -15.885992   1.000000
   13      -15.772273   1.000000
   14      -15.702034   1.000000
   15      -15.628706   1.000000
   16      -15.528891   1.000000
   17      -15.419108   1.000000
   18      -15.269058   1.000000
   19       -9.694433   1.000000
   20       -9.298579   1.000000
   21       -9.133418   1.000000
   22       -9.048159   1.000000
   23       -8.889590   1.000000
   24       -8.846399   1.000000
   25       -8.605134   1.000000
   26       -8.485409   1.000000
   27       -8.424259   1.000000
   28       -8.288094   1.000000
   29       -8.251347   1.000000
   30       -8.228819   1.000000
   31       -8.088168   1.000000
   32       -8.037818   1.000000
   33       -7.898352   1.000000
   34       -7.853590   1.000000
   35       -7.772888   1.000000
   36       -7.690161   1.000000
   37       -7.506489   1.000000
   38       -7.469100   1.000000
   39       -7.344618   1.000000
   40       -7.248356   1.000000
   41       -7.182634   1.000000
   42       -7.149214   1.000000
   43       -7.063824   1.000000
   44       -6.938669   1.000000
   45       -6.867120   1.000000
   46       -6.806595   1.000000
   47       -6.753187   1.000000
   48       -6.600964   1.000000
   49       -6.534686   1.000000
   50       -6.487496   1.000000
   51       -6.409754   1.000000
   52       -6.350061   1.000000
   53       -6.288000   1.000000
   54       -6.201047   1.000000
   55       -6.158354   1.000000
   56       -6.095574   1.000000
   57       -5.940913   1.000000
   58       -5.916705   1.000000
   59       -5.887082   1.000000
   60       -5.856461   1.000000
   61       -5.780115   1.000000
   62       -5.704248   1.000000
   63       -5.635576   1.000000
   64       -5.318814   1.000000
   65       -5.170046   1.000000
   66       -5.061886   1.000000
   67       -5.033229   1.000000
   68       -4.962131   1.000000
   69       -4.827524   1.000000
   70       -4.713964   1.000000
   71       -4.545544   1.000000
   72       -4.455151   1.000000
   73       -4.342408   1.000000
   74       -4.271121   1.000000
   75       -4.233223   1.000000
   76       -4.046279   1.000000
   77       -3.913558   0.999999
   78       -3.670762   0.998441
   79       -3.534773   0.976939
   80       -3.025921   0.054373
   81       -2.941024   0.013756
   82       -2.783765   0.000456
   83       -2.625515   0.000005
   84       -2.528955   0.000000
   85       -2.467108   0.000000
   86       -2.418834   0.000000
   87       -2.256713   0.000000
   88       -2.157564   0.000000
   89       -2.068639   0.000000
   90       -2.015943   0.000000
   91       -1.922927   0.000000
   92       -1.653609   0.000000
   93       -1.469245   0.000000
   94       -1.266827   0.000000
   95       -1.197215   0.000000
   96       -1.117562   0.000000
   97       -1.073580   0.000000
   98       -1.016589   0.000000
   99       -0.945013   0.000000
  100       -0.926002   0.000000
  101       -0.809328   0.000000
  102       -0.740612   0.000000
  103       -0.665307   0.000000
  104       -0.522863   0.000000
  105       -0.441386   0.000000
  106       -0.214923   0.000000
  107       -0.192669   0.000000
  108       -0.121756   0.000000
  109       -0.000076   0.000000
  110        0.267134   0.000000
  111        0.579409   0.000000
  112        0.637936   0.000000
  113        0.795086   0.000000
  114        0.867736   0.000000
  115        1.007706   0.000000
  116        1.063769   0.000000
  117        1.262035   0.000000
  118        1.980726   0.000000
  119        2.146690   0.000000
  120        2.444586   0.000000
 
  0.5000000E+00  0.1110223E-15  0.0000000E+00  0.1562500E-01
    1      -17.457966   1.000000
    2      -17.333155   1.000000
    3      -16.743040   1.000000
    4      -16.681908   1.000000
    5      -16.613749   1.000000
    6      -16.382169   1.000000
    7      -16.268541   1.000000
    8      -16.248551   1.000000
    9      -16.069791   1.000000
   10      -16.029846   1.000000
   11      -15.992055   1.000000
   12      -15.822339   1.000000
   13      -15.813914   1.000000
   14      -15.670831   1.000000
   15      -15.629484   1.000000
   16      -15.505836   1.000000
   17      -15.472462   1.000000
   18      -15.258695   1.000000
   19       -9.771158   1.000000
   20       -9.341786   1.000000
   21       -9.164753   1.000000
   22       -9.064543   1.000000
   23       -8.871055   1.000000
   24       -8.823005   1.000000
   25       -8.588262   1.000000
   26       -8.494419   1.000000
   27       -8.379452   1.000000
   28       -8.340869   1.000000
   29       -8.238714   1.000000
   30       -8.150335   1.000000
   31       -8.128531   1.000000
   32       -8.041874   1.000000
   33       -7.893465   1.000000
   34       -7.816880   1.000000
   35       -7.806091   1.000000
   36       -7.783417   1.000000
   37       -7.515679   1.000000
   38       -7.444164   1.000000
   39       -7.270156   1.000000
   40       -7.258230   1.000000
   41       -7.119952   1.000000
   42       -7.024180   1.000000
   43       -7.006363   1.000000
   44       -6.911431   1.000000
   45       -6.893082   1.000000
   46       -6.796986   1.000000
   47       -6.745435   1.000000
   48       -6.571964   1.000000
   49       -6.538906   1.000000
   50       -6.431264   1.000000
   51       -6.375178   1.000000
   52       -6.346715   1.000000
   53       -6.270608   1.000000
   54       -6.159644   1.000000
   55       -6.145510   1.000000
   56       -6.112733   1.000000
   57       -6.099902   1.000000
   58       -5.981552   1.000000
   59       -5.918026   1.000000
   60       -5.848500   1.000000
   61       -5.829431   1.000000
   62       -5.713287   1.000000
   63       -5.565365   1.000000
   64       -5.358043   1.000000
   65       -5.301723   1.000000
   66       -5.104912   1.000000
   67       -5.078063   1.000000
   68       -4.942578   1.000000
   69       -4.784430   1.000000
   70       -4.747666   1.000000
   71       -4.512307   1.000000
   72       -4.464028   1.000000
   73       -4.382703   1.000000
   74       -4.273774   1.000000
   75       -4.215452   1.000000
   76       -4.041939   1.000000
   77       -3.875111   0.999995
   78       -3.630978   0.996258
   79       -3.550736   0.982447
   80       -2.936847   0.012751
   81       -2.898476   0.006122
   82       -2.805943   0.000791
   83       -2.581803   0.000001
   84       -2.563582   0.000001
   85       -2.471570   0.000000
   86       -2.451346   0.000000
   87       -2.229675   0.000000
   88       -2.172607   0.000000
   89       -2.046913   0.000000
   90       -1.988337   0.000000
   91       -1.928452   0.000000
   92       -1.574818   0.000000
   93       -1.464139   0.000000
   94       -1.306813   0.000000
   95       -1.246512   0.000000
   96       -1.145204   0.000000
   97       -1.125439   0.000000
   98       -1.078230   0.000000
   99       -0.943564   0.000000
  100       -0.925290   0.000000
  101       -0.820327   0.000000
  102       -0.775354   0.000000
  103       -0.669495   0.000000
  104       -0.527473   0.000000
  105       -0.467633   0.000000
  106       -0.240418   0.000000
  107       -0.219535   0.000000
  108       -0.146710   0.000000
  109       -0.029907   0.000000
  110        0.262357   0.000000
  111        0.582401   0.000000
  112        0.654547   0.000000
  113        0.806327   0.000000
  114        0.869720   0.000000
  115        1.033936   0.000000
  116        1.059683   0.000000
  117        1.311358   0.000000
  118        2.186614   0.000000
  119        2.246911   0.000000
  120        2.368638   0.000000
 
  0.0000000E+00  0.1250000E+00  0.0000000E+00  0.3125000E-01
    1      -17.762193   1.000000
    2      -16.771913   1.000000
    3      -16.675026   1.000000
    4      -16.602103   1.000000
    5      -16.516607   1.000000
    6      -16.433878   1.000000
    7      -16.370277   1.000000
    8      -16.292838   1.000000
    9      -16.196520   1.000000
   10      -16.110443   1.000000
   11      -16.031940   1.000000
   12      -15.982447   1.000000
   13      -15.861847   1.000000
   14      -15.679299   1.000000
   15      -15.637119   1.000000
   16      -15.534574   1.000000
   17      -15.325633   1.000000
   18      -15.278060   1.000000
   19       -9.213152   1.000000
   20       -9.132928   1.000000
   21       -8.994003   1.000000
   22       -8.931087   1.000000
   23       -8.776035   1.000000
   24       -8.718763   1.000000
   25       -8.684527   1.000000
   26       -8.549208   1.000000
   27       -8.488103   1.000000
   28       -8.447683   1.000000
   29       -8.394566   1.000000
   30       -8.263761   1.000000
   31       -8.201859   1.000000
   32       -8.063210   1.000000
   33       -7.976130   1.000000
   34       -7.888192   1.000000
   35       -7.821790   1.000000
   36       -7.749225   1.000000
   37       -7.710292   1.000000
   38       -7.571228   1.000000
   39       -7.478977   1.000000
   40       -7.385653   1.000000
   41       -7.294987   1.000000
   42       -7.239125   1.000000
   43       -7.140573   1.000000
   44       -7.008629   1.000000
   45       -6.875065   1.000000
   46       -6.824518   1.000000
   47       -6.752896   1.000000
   48       -6.623969   1.000000
   49       -6.545860   1.000000
   50       -6.449082   1.000000
   51       -6.432074   1.000000
   52       -6.386134   1.000000
   53       -6.333581   1.000000
   54       -6.265482   1.000000
   55       -6.213806   1.000000
   56       -6.172852   1.000000
   57       -5.969695   1.000000
   58       -5.946198   1.000000
   59       -5.712739   1.000000
   60       -5.568497   1.000000
   61       -5.550648   1.000000
   62       -5.438416   1.000000
   63       -5.304743   1.000000
   64       -5.294092   1.000000
   65       -5.202255   1.000000
   66       -5.083581   1.000000
   67       -5.013382   1.000000
   68       -4.855153   1.000000
   69       -4.814252   1.000000
   70       -4.709825   1.000000
   71       -4.599817   1.000000
   72       -4.493563   1.000000
   73       -4.454988   1.000000
   74       -4.171851   1.000000
   75       -4.078095   1.000000
   76       -4.041684   1.000000
   77       -3.891328   0.999997
   78       -3.697176   0.999163
   79       -3.469360   0.937205
   80       -3.418685   0.879683
   81       -3.183387   0.311923
   82       -2.853090   0.002357
   83       -2.624107   0.000004
   84       -2.587246   0.000001
   85       -2.433247   0.000000
   86       -2.413464   0.000000
   87       -2.234760   0.000000
   88       -2.162145   0.000000
   89       -2.136693   0.000000
   90       -2.027598   0.000000
   91       -1.967922   0.000000
   92       -1.880127   0.000000
   93       -1.469990   0.000000
   94       -1.234461   0.000000
   95       -1.107445   0.000000
   96       -1.046569   0.000000
   97       -0.990438   0.000000
   98       -0.865330   0.000000
   99       -0.763246   0.000000
  100       -0.729853   0.000000
  101       -0.664665   0.000000
  102       -0.512299   0.000000
  103       -0.484245   0.000000
  104       -0.436285   0.000000
  105       -0.307845   0.000000
  106       -0.180260   0.000000
  107       -0.135099   0.000000
  108       -0.012246   0.000000
  109        0.096021   0.000000
  110        0.207539   0.000000
  111        0.388879   0.000000
  112        0.490472   0.000000
  113        0.694266   0.000000
  114        0.860675   0.000000
  115        1.021821   0.000000
  116        1.099164   0.000000
  117        1.191709   0.000000
  118        1.675618   0.000000
  119        1.864479   0.000000
  120        2.170845   0.000000
 
  0.1250000E+00  0.1250000E+00  0.0000000E+00  0.3125000E-01
    1      -17.711911   1.000000
    2      -16.904109   1.000000
    3      -16.756082   1.000000
    4      -16.628362   1.000000
    5      -16.499393   1.000000
    6      -16.403510   1.000000
    7      -16.317716   1.000000
    8      -16.283625   1.000000
    9      -16.186986   1.000000
   10      -16.106161   1.000000
   11      -16.003109   1.000000
   12      -15.905979   1.000000
   13      -15.838441   1.000000
   14      -15.702669   1.000000
   15      -15.635827   1.000000
   16      -15.531157   1.000000
   17      -15.338326   1.000000
   18      -15.289828   1.000000
   19       -9.380914   1.000000
   20       -9.210055   1.000000
   21       -9.105152   1.000000
   22       -9.023201   1.000000
   23       -8.796749   1.000000
   24       -8.702125   1.000000
   25       -8.665751   1.000000
   26       -8.564615   1.000000
   27       -8.456377   1.000000
   28       -8.388608   1.000000
   29       -8.316183   1.000000
   30       -8.246683   1.000000
   31       -8.130616   1.000000
   32       -8.063647   1.000000
   33       -7.917002   1.000000
   34       -7.826089   1.000000
   35       -7.764775   1.000000
   36       -7.691470   1.000000
   37       -7.643513   1.000000
   38       -7.493428   1.000000
   39       -7.440271   1.000000
   40       -7.355831   1.000000
   41       -7.311147   1.000000
   42       -7.224022   1.000000
   43       -7.128897   1.000000
   44       -7.017093   1.000000
   45       -6.952153   1.000000
   46       -6.839238   1.000000
   47       -6.757814   1.000000
   48       -6.618194   1.000000
   49       -6.572864   1.000000
   50       -6.461760   1.000000
   51       -6.426398   1.000000
   52       -6.362362   1.000000
   53       -6.312923   1.000000
   54       -6.233371   1.000000
   55       -6.176438   1.000000
   56       -6.154780   1.000000
   57       -6.007127   1.000000
   58       -5.888731   1.000000
   59       -5.749217   1.000000
   60       -5.683958   1.000000
   61       -5.581166   1.000000
   62       -5.473403   1.000000
   63       -5.404692   1.000000
   64       -5.280285   1.000000
   65       -5.236680   1.000000
   66       -5.107719   1.000000
   67       -5.053815   1.000000
   68       -4.938683   1.000000
   69       -4.780070   1.000000
   70       -4.680282   1.000000
   71       -4.595597   1.000000
   72       -4.431130   1.000000
   73       -4.371178   1.000000
   74       -4.163202   1.000000
   75       -4.147025   1.000000
   76       -4.037607   1.000000
   77       -3.909297   0.999998
   78       -3.825156   0.999974
   79       -3.490288   0.953493
   80       -3.308244   0.652643
   81       -3.049430   0.075270
   82       -2.808639   0.000844
   83       -2.635526   0.000006
   84       -2.577826   0.000001
   85       -2.438548   0.000000
   86       -2.379597   0.000000
   87       -2.261301   0.000000
   88       -2.133065   0.000000
   89       -2.094545   0.000000
   90       -2.052955   0.000000
   91       -1.959459   0.000000
   92       -1.839033   0.000000
   93       -1.463357   0.000000
   94       -1.237602   0.000000
   95       -1.119344   0.000000
   96       -1.039352   0.000000
   97       -0.971342   0.000000
   98       -0.925945   0.000000
   99       -0.860156   0.000000
  100       -0.791263   0.000000
  101       -0.700312   0.000000
  102       -0.662380   0.000000
  103       -0.548195   0.000000
  104       -0.501703   0.000000
  105       -0.393717   0.000000
  106       -0.193784   0.000000
  107       -0.159054   0.000000
  108       -0.041954   0.000000
  109        0.079239   0.000000
  110        0.252071   0.000000
  111        0.450329   0.000000
  112        0.586232   0.000000
  113        0.763653   0.000000
  114        0.861115   0.000000
  115        1.018589   0.000000
  116        1.061723   0.000000
  117        1.188548   0.000000
  118        1.759152   0.000000
  119        1.938234   0.000000
  120        2.240547   0.000000
 
  0.2500000E+00  0.1250000E+00  0.0000000E+00  0.3125000E-01
    1      -17.614840   1.000000
    2      -17.085550   1.000000
    3      -16.860708   1.000000
    4      -16.622642   1.000000
    5      -16.498556   1.000000
    6      -16.365847   1.000000
    7      -16.301719   1.000000
    8      -16.261826   1.000000
    9      -16.145699   1.000000
   10      -16.087294   1.000000
   11      -15.954601   1.000000
   12      -15.895638   1.000000
   13      -15.783393   1.000000
   14      -15.718620   1.000000
   15      -15.622816   1.000000
   16      -15.529723   1.000000
   17      -15.386170   1.000000
   18      -15.279351   1.000000
   19       -9.600897   1.000000
   20       -9.362759   1.000000
   21       -9.174586   1.000000
   22       -9.018798   1.000000
   23       -8.819841   1.000000
   24       -8.728575   1.000000
   25       -8.606217   1.000000
   26       -8.506744   1.000000
   27       -8.411731   1.000000
   28       -8.319253   1.000000
   29       -8.285824   1.000000
   30       -8.210181   1.000000
   31       -8.128623   1.000000
   32       -8.055411   1.000000
   33       -7.940634   1.000000
   34       -7.888940   1.000000
   35       -7.782242   1.000000
   36       -7.623002   1.000000
   37       -7.522315   1.000000
   38       -7.457570   1.000000
   39       -7.399344   1.000000
   40       -7.289811   1.000000
   41       -7.222284   1.000000
   42       -7.154562   1.000000
   43       -7.044797   1.000000
   44       -6.977255   1.000000
   45       -6.895451   1.000000
   46       -6.798470   1.000000
   47       -6.742679   1.000000