       N       E                     dE             d eps       ncg     rms          rms(c)
DAV:   1     0.112453851010E+04    0.11245E+04   -0.35864E+04  8160   0.577E+02
DAV:   2    -0.249064741167E+01   -0.11270E+04   -0.10850E+04 11200   0.173E+02
DAV:   3    -0.199963176765E+03   -0.19747E+03   -0.18952E+03 10920   0.820E+01
DAV:   4    -0.209089380539E+03   -0.91262E+01   -0.88582E+01 12280   0.260E+01
DAV:   5    -0.209392328611E+03   -0.30295E+00   -0.30208E+00 11040   0.344E+00    0.275E+01
DAV:   6    -0.237046873807E+03   -0.27655E+02   -0.11221E+02 12520   0.603E+01    0.597E+01
DAV:   7    -0.196390157835E+03    0.40657E+02   -0.17999E+02 13600   0.151E+02    0.198E+01
DAV:   8    -0.189124008988E+03    0.72661E+01   -0.15961E+01 11960   0.124E+01    0.119E+01
DAV:   9    -0.187416859574E+03    0.17071E+01   -0.27353E+00 13520   0.869E+00    0.594E+00
DAV:  10    -0.186970806627E+03    0.44605E+00   -0.11673E+00 13240   0.412E+00    0.240E+00
DAV:  11    -0.186967820930E+03    0.29857E-02   -0.45361E-01 12360   0.194E+00    0.275E+00
DAV:  12    -0.186883450613E+03    0.84370E-01   -0.30518E-01 12120   0.194E+00    0.200E+00
DAV:  13    -0.186862325061E+03    0.21126E-01   -0.14824E-01 12960   0.207E+00    0.167E+00
DAV:  14    -0.186848704305E+03    0.13621E-01   -0.89007E-02 12920   0.169E+00    0.107E+00
DAV:  15    -0.186836682879E+03    0.12021E-01   -0.19748E-02 11720   0.575E-01    0.563E-01
DAV:  16    -0.186834918508E+03    0.17644E-02   -0.12535E-02 12480   0.608E-01    0.458E-01
DAV:  17    -0.186834199158E+03    0.71935E-03   -0.54231E-03 12800   0.440E-01    0.364E-01
DAV:  18    -0.186832869326E+03    0.13298E-02   -0.19384E-03 11000   0.243E-01    0.517E-02
DAV:  19    -0.186833654085E+03   -0.78476E-03   -0.93305E-04  9440   0.666E-02    0.796E-02
DAV:  20    -0.186834747706E+03   -0.10936E-02   -0.42998E-04  8360   0.918E-02    0.465E-02
DAV:  21    -0.186835754710E+03   -0.10070E-02   -0.13606E-04  7120   0.446E-02    0.289E-02
DAV:  22    -0.186836458691E+03   -0.70398E-03   -0.11304E-04  7280   0.316E-02    0.263E-02
DAV:  23    -0.186836776793E+03   -0.31810E-03   -0.34511E-05  6320   0.173E-02    0.203E-02
DAV:  24    -0.186837265295E+03   -0.48850E-03   -0.25981E-05  5920   0.176E-02    0.510E-03
DAV:  25    -0.186837631662E+03   -0.36637E-03   -0.16387E-05  6320   0.954E-03    0.667E-03
DAV:  26    -0.186837860097E+03   -0.22844E-03   -0.84056E-06  6800   0.773E-03    0.191E-03
DAV:  27    -0.186837959917E+03   -0.99819E-04   -0.34059E-06  7240   0.392E-03
   1 F= -.18683796E+03 E0= -.18666485E+03  d E =-.186838E+03
       N       E                     dE             d eps       ncg     rms          rms(c)
DAV:   1    -0.187436024035E+03   -0.59816E+00   -0.26844E+02  8160   0.347E+01    0.453E+00
DAV:   2    -0.189068730990E+03   -0.16327E+01   -0.19599E+01 12240   0.142E+01    0.639E+00
DAV:   3    -0.189382250801E+03   -0.31352E+00   -0.29999E+00 12440   0.110E+01    0.733E+00
DAV:   4    -0.188714350565E+03    0.66790E+00   -0.73615E-01 12560   0.532E+00    0.212E+00
DAV:   5    -0.188696936186E+03    0.17414E-01   -0.28285E-01 10280   0.166E+00    0.226E+00
DAV:   6    -0.188712971607E+03   -0.16035E-01   -0.36962E-01 12680   0.312E+00    0.396E+00
DAV:   7    -0.188627061941E+03    0.85910E-01   -0.37259E-01 12320   0.330E+00    0.134E+00
DAV:   8    -0.188604909354E+03    0.22153E-01   -0.37333E-02 11720   0.837E-01    0.391E-01
DAV:   9    -0.188603049710E+03    0.18596E-02   -0.80996E-03 11680   0.242E-01    0.239E-01
DAV:  10    -0.188602469706E+03    0.58000E-03   -0.29720E-03 12800   0.199E-01    0.112E-01
DAV:  11    -0.188602564148E+03   -0.94442E-04   -0.11428E-03 12200   0.129E-01    0.128E-01
DAV:  12    -0.188602665489E+03   -0.10134E-03   -0.80325E-04 11200   0.173E-01    0.158E-01
DAV:  13    -0.188602493084E+03    0.17241E-03   -0.33495E-04  8560   0.110E-01    0.200E-02
DAV:  14    -0.188602614874E+03   -0.12179E-03   -0.56860E-05  7320   0.236E-02    0.101E-02
DAV:  15    -0.188602699828E+03   -0.84954E-04   -0.22251E-05  7480   0.170E-02
   2 F= -.18860270E+03 E0= -.18845519E+03  d E =-.176474E+01
       N       E                     dE             d eps       ncg     rms          rms(c)
DAV:   1    -0.190506825731E+03   -0.19042E+01   -0.30390E+01  9440   0.141E+01    0.449E+00
DAV:   2    -0.190571351971E+03   -0.64526E-01   -0.29404E+00 11200   0.100E+01    0.792E+00
DAV:   3    -0.189971268675E+03    0.60008E+00   -0.13767E+00 12400   0.871E+00    0.409E+00
DAV:   4    -0.189769654636E+03    0.20161E+00   -0.67224E-01 12880   0.377E+00    0.250E+00
DAV:   5    -0.189707900516E+03    0.61754E-01   -0.32427E-01 12240   0.237E+00    0.191E+00
DAV:   6    -0.189672273333E+03    0.35627E-01   -0.86267E-02 12200   0.188E+00    0.778E-01
DAV:   7    -0.189666175759E+03    0.60976E-02   -0.13561E-02 12120   0.592E-01    0.178E-01
DAV:   8    -0.189666191844E+03   -0.16085E-04   -0.21569E-03 10920   0.161E-01    0.116E-01
DAV:   9    -0.189666646193E+03   -0.45435E-03   -0.10536E-03 11200   0.102E-01    0.140E-01
DAV:  10    -0.189666308617E+03    0.33758E-03   -0.71566E-04  9960   0.870E-02    0.368E-02
DAV:  11    -0.189666347592E+03   -0.38975E-04   -0.11847E-04  7560   0.626E-02
   3 F= -.18966635E+03 E0= -.18954141E+03  d E =-.106365E+01
       N       E                     dE             d eps       ncg     rms          rms(c)
DAV:   1    -0.191181222396E+03   -0.15149E+01   -0.63860E+01  8160   0.184E+01    0.468E+00
DAV:   2    -0.191129009876E+03    0.52213E-01   -0.53880E+00 13440   0.893E+00    0.595E+00
DAV:   3    -0.191032064418E+03    0.96945E-01   -0.16334E+00 12240   0.938E+00    0.592E+00
DAV:   4    -0.190663613965E+03    0.36845E+00   -0.10284E+00 13200   0.619E+00    0.240E+00
DAV:   5    -0.190610432171E+03    0.53182E-01   -0.31005E-01 12240   0.296E+00    0.217E+00
DAV:   6    -0.190566718331E+03    0.43714E-01   -0.12617E-01 12240   0.253E+00    0.943E-01
DAV:   7    -0.190562450271E+03    0.42681E-02   -0.24835E-02 12240   0.907E-01    0.450E-01
DAV:   8    -0.190558847452E+03    0.36028E-02   -0.65411E-03 10560   0.315E-01    0.170E-01
DAV:   9    -0.190559490108E+03   -0.64266E-03   -0.20391E-03 11480   0.302E-01    0.282E-01
DAV:  10    -0.190559043469E+03    0.44664E-03   -0.18522E-03 11720   0.283E-01    0.103E-01
DAV:  11    -0.190558920566E+03    0.12290E-03   -0.46356E-04  9240   0.950E-02    0.457E-02
DAV:  12    -0.190558918710E+03    0.18564E-05   -0.90682E-05  7040   0.465E-02
   4 F= -.19055892E+03 E0= -.19045625E+03  d E =-.892571E+00
       N       E                     dE             d eps       ncg     rms          rms(c)
DAV:   1    -0.191971464711E+03   -0.14125E+01   -0.12719E+02  8160   0.257E+01    0.587E+00
DAV:   2    -0.191662908122E+03    0.30856E+00   -0.93382E+00 12960   0.899E+00    0.480E+00
DAV:   3    -0.191976902155E+03   -0.31399E+00   -0.22090E+00 12160   0.111E+01    0.863E+00
DAV:   4    -0.191341997633E+03    0.63490E+00   -0.22800E+00 12200   0.110E+01    0.359E+00
DAV:   5    -0.191294388374E+03    0.47609E-01   -0.68017E-01 12200   0.569E+00    0.349E+00
DAV:   6    -0.191123256687E+03    0.17113E+00   -0.24856E-01 12080   0.378E+00    0.778E-01
DAV:   7    -0.191121788683E+03    0.14680E-02   -0.31418E-02 12320   0.882E-01    0.442E-01
DAV:   8    -0.191118471031E+03    0.33177E-02   -0.67570E-03 10800   0.339E-01    0.208E-01
DAV:   9    -0.191119742454E+03   -0.12714E-02   -0.37538E-03 12120   0.419E-01    0.369E-01
DAV:  10    -0.191118705241E+03    0.10372E-02   -0.33026E-03 11720   0.390E-01    0.115E-01
DAV:  11    -0.191118599360E+03    0.10588E-03   -0.56138E-04 10200   0.103E-01    0.626E-02
DAV:  12    -0.191118553944E+03    0.45416E-04   -0.11781E-04  7520   0.602E-02
   5 F= -.19111855E+03 E0= -.19103348E+03  d E =-.559635E+00
       N       E                     dE             d eps       ncg     rms          rms(c)
DAV:   1    -0.191168362071E+03   -0.49763E-01   -0.57736E+00  8160   0.511E+00    0.727E-01
DAV:   2    -0.191200744386E+03   -0.32382E-01   -0.22227E-01 13160   0.195E+00    0.158E+00
DAV:   3    -0.191175921206E+03    0.24823E-01   -0.79976E-02 12480   0.214E+00    0.726E-01
DAV:   4    -0.191171334741E+03    0.45865E-02   -0.15567E-02 10800   0.749E-01    0.453E-01
DAV:   5    -0.191170564034E+03    0.77071E-03   -0.97189E-03 11640   0.746E-01    0.450E-01
DAV:   6    -0.191168692880E+03    0.18712E-02   -0.50103E-03 11840   0.471E-01    0.164E-01
DAV:   7    -0.191168363520E+03    0.32936E-03   -0.16476E-03 10760   0.158E-01    0.685E-02
DAV:   8    -0.191168302664E+03    0.60856E-04   -0.26508E-04  8000   0.628E-02
   6 F= -.19116830E+03 E0= -.19108143E+03  d E =-.497487E-01
       N       E                     dE             d eps       ncg     rms          rms(c)
DAV:   1    -0.191203606558E+03   -0.35243E-01   -0.36140E+00  8160   0.397E+00    0.527E-01
DAV:   2    -0.191243452307E+03   -0.39846E-01   -0.14458E-01 13600   0.241E+00    0.178E+00
DAV:   3    -0.191207427937E+03    0.36024E-01   -0.59692E-02 12640   0.191E+00    0.283E-01
DAV:   4    -0.191207212981E+03    0.21496E-03   -0.49847E-03 11720   0.347E-01    0.272E-01
DAV:   5    -0.191206877421E+03    0.33556E-03   -0.33074E-03 11480   0.408E-01    0.263E-01
DAV:   6    -0.191206265562E+03    0.61186E-03   -0.17082E-03 10360   0.275E-01    0.982E-02
DAV:   7    -0.191206239228E+03    0.26334E-04   -0.54851E-04 10200   0.988E-02
   7 F= -.19120624E+03 E0= -.19111606E+03  d E =-.379366E-01
       N       E                     dE             d eps       ncg     rms          rms(c)
DAV:   1    -0.191260007776E+03   -0.53742E-01   -0.95297E+00  8160   0.645E+00    0.796E-01
DAV:   2    -0.191344882161E+03   -0.84874E-01   -0.33008E-01 13600   0.344E+00    0.259E+00
DAV:   3    -0.191270042666E+03    0.74839E-01   -0.14031E-01 12600   0.286E+00    0.477E-01
DAV:   4    -0.191268920978E+03    0.11217E-02   -0.12079E-02 11400   0.532E-01    0.426E-01
DAV:   5    -0.191268250112E+03    0.67087E-03   -0.82829E-03 12480   0.644E-01    0.425E-01
DAV:   6    -0.191266642994E+03    0.16071E-02   -0.43858E-03 11720   0.438E-01    0.158E-01
DAV:   7    -0.191266491916E+03    0.15108E-03   -0.12810E-03 11120   0.148E-01    0.693E-02
DAV:   8    -0.191266402812E+03    0.89104E-04   -0.30483E-04  8600   0.827E-02
   8 F= -.19126640E+03 E0= -.19117061E+03  d E =-.601636E-01
       N       E                     dE             d eps       ncg     rms          rms(c)
DAV:   1    -0.191265386597E+03    0.11053E-02   -0.33913E-03  8840   0.147E-01    0.511E-02
DAV:   2    -0.191266114211E+03   -0.72761E-03   -0.15898E-03 11400   0.278E-01    0.268E-01
DAV:   3    -0.191265340752E+03    0.77346E-03   -0.11206E-03  9040   0.239E-01    0.158E-02
DAV:   4    -0.191265368447E+03   -0.27695E-04   -0.23316E-05  5960   0.257E-02
   9 F= -.19126537E+03 E0= -.19116965E+03  d E =0.103436E-02
       N       E                     dE             d eps       ncg     rms          rms(c)
DAV:   1    -0.191301713841E+03   -0.36373E-01   -0.36870E+00  8160   0.403E+00    0.509E-01
DAV:   2    -0.191337733682E+03   -0.36020E-01   -0.13717E-01 13520   0.232E+00    0.171E+00
DAV:   3    -0.191304992332E+03    0.32741E-01   -0.56132E-02 12520   0.180E+00    0.250E-01
DAV:   4    -0.191304630026E+03    0.36231E-03   -0.35542E-03 10480   0.230E-01    0.188E-01
DAV:   5    -0.191304443718E+03    0.18631E-03   -0.22506E-03 12720   0.289E-01    0.229E-01
DAV:   6    -0.191304249577E+03    0.19414E-03   -0.22651E-03 10400   0.324E-01    0.169E-01
DAV:   7    -0.191303948747E+03    0.30083E-03   -0.62959E-04  8760   0.148E-01    0.269E-02
DAV:   8    -0.191303950149E+03   -0.14022E-05   -0.71094E-05  6760   0.388E-02
  10 F= -.19130395E+03 E0= -.19120472E+03  d E =-.385817E-01
       N       E                     dE             d eps       ncg     rms          rms(c)
DAV:   1    -0.191258329103E+03    0.45620E-01   -0.48068E+00  8160   0.460E+00    0.545E-01
DAV:   2    -0.191295919434E+03   -0.37590E-01   -0.15715E-01 13440   0.242E+00    0.167E+00
DAV:   3    -0.191262077422E+03    0.33842E-01   -0.50637E-02 12520   0.176E+00    0.262E-01
DAV:   4    -0.191261603853E+03    0.47357E-03   -0.40108E-03 10200   0.230E-01    0.193E-01
DAV:   5    -0.191260995078E+03    0.60878E-03   -0.18288E-03 11880   0.197E-01    0.137E-01
DAV:   6    -0.191261735504E+03   -0.74043E-03   -0.25352E-03 10720   0.356E-01    0.298E-01
DAV:   7    -0.191260816337E+03    0.91917E-03   -0.14545E-03  9880   0.267E-01    0.315E-02
DAV:   8    -0.191260829642E+03   -0.13305E-04   -0.56977E-05  5880   0.355E-02
  11 F= -.19126083E+03 E0= -.19116547E+03  d E =0.431205E-01
       N       E                     dE             d eps       ncg     rms          rms(c)
DAV:   1    -0.191199399058E+03    0.61417E-01   -0.11673E+01  8160   0.715E+00    0.783E-01
DAV:   2    -0.191267994650E+03   -0.68596E-01   -0.31995E-01 13440   0.315E+00    0.219E+00
DAV:   3    -0.191209696071E+03    0.58299E-01   -0.91654E-02 12320   0.238E+00    0.464E-01
DAV:   4    -0.191210004090E+03   -0.30802E-03   -0.12820E-02 11640   0.643E-01    0.531E-01
DAV:   5    -0.191208394067E+03    0.16100E-02   -0.11246E-02 10840   0.753E-01    0.423E-01
DAV:   6    -0.191206747919E+03    0.16461E-02   -0.46395E-03 11760   0.423E-01    0.150E-01
DAV:   7    -0.191206514994E+03    0.23293E-03   -0.11864E-03 10680   0.134E-01    0.554E-02
DAV:   8    -0.191206443355E+03    0.71639E-04   -0.15773E-04  7880   0.525E-02
  12 F= -.19120644E+03 E0= -.19111634E+03  d E =0.543863E-01
       N       E                     dE             d eps       ncg     rms          rms(c)
DAV:   1    -0.191191125309E+03    0.15390E-01   -0.55766E+00  8160   0.493E+00    0.473E-01
DAV:   2    -0.191210393455E+03   -0.19268E-01   -0.11162E-01 13400   0.157E+00    0.120E+00
DAV:   3    -0.191196002865E+03    0.14391E-01   -0.36302E-02 12480   0.138E+00    0.438E-01
DAV:   4    -0.191195638453E+03    0.36441E-03   -0.73864E-03 11280   0.532E-01    0.370E-01
DAV:   5    -0.191194549793E+03    0.10887E-02   -0.49000E-03 12200   0.512E-01    0.266E-01
DAV:   6    -0.191193932556E+03    0.61724E-03   -0.21558E-03 11840   0.306E-01    0.111E-01
DAV:   7    -0.191193800137E+03    0.13242E-03   -0.59352E-04 10400   0.114E-01    0.513E-02
DAV:   8    -0.191193783058E+03    0.17079E-04   -0.16042E-04  7520   0.908E-02
  13 F= -.19119378E+03 E0= -.19110469E+03  d E =0.126603E-01
       N       E                     dE             d eps       ncg     rms          rms(c)
DAV:   1    -0.191199488533E+03   -0.56884E-02   -0.43635E+00  8160   0.440E+00    0.436E-01
DAV:   2    -0.191213919748E+03   -0.14431E-01   -0.10074E-01 13560   0.137E+00    0.105E+00
DAV:   3    -0.191204455451E+03    0.94643E-02   -0.33646E-02 11720   0.124E+00    0.448E-01
DAV:   4    -0.191203247741E+03    0.12077E-02   -0.63762E-03 11600   0.483E-01    0.273E-01
DAV:   5    -0.191202624053E+03    0.62369E-03   -0.34643E-03 11240   0.420E-01    0.252E-01
DAV:   6    -0.191202261394E+03    0.36266E-03   -0.22066E-03 11960   0.334E-01    0.153E-01
DAV:   7    -0.191202007885E+03    0.25351E-03   -0.67063E-04  9960   0.150E-01    0.775E-02
DAV:   8    -0.191201961184E+03    0.46701E-04   -0.17859E-04  6760   0.102E-01
  14 F= -.19120196E+03 E0= -.19111134E+03  d E =-.817813E-02
       N       E                     dE             d eps       ncg     rms          rms(c)
DAV:   1    -0.191239106936E+03   -0.37099E-01   -0.14545E+01  8160   0.806E+00    0.100E+00
DAV:   2    -0.191340055037E+03   -0.10095E+00   -0.53864E-01 13440   0.390E+00    0.276E+00
DAV:   3    -0.191259326595E+03    0.80728E-01   -0.19167E-01 12400   0.325E+00    0.723E-01
DAV:   4    -0.191256912684E+03    0.24139E-02   -0.27985E-02 12320   0.877E-01    0.685E-01
DAV:   5    -0.191254831627E+03    0.20811E-02   -0.22448E-02 12400   0.104E+00    0.670E-01
DAV:   6    -0.191250629197E+03    0.42024E-02   -0.11520E-02 12440   0.689E-01    0.234E-01
DAV:   7    -0.191250158815E+03    0.47038E-03   -0.30508E-03 11920   0.233E-01    0.114E-01
DAV:   8    -0.191250045717E+03    0.11310E-03   -0.93086E-04 10600   0.194E-01    0.128E-01
DAV:   9    -0.191249886818E+03    0.15890E-03   -0.37524E-04  8360   0.138E-01    0.399E-02
DAV:  10    -0.191249871840E+03    0.14978E-04   -0.76404E-05  6080   0.406E-02
  15 F= -.19124987E+03 E0= -.19115293E+03  d E =-.479107E-01
       N       E                     dE             d eps       ncg     rms          rms(c)
DAV:   1    -0.191252524405E+03   -0.26376E-02   -0.46843E-01  8160   0.146E+00    0.153E-01
DAV:   2    -0.191253977644E+03   -0.14532E-02   -0.12583E-02 12880   0.417E-01    0.284E-01
DAV:   3    -0.191253292135E+03    0.68551E-03   -0.28815E-03 12040   0.401E-01    0.167E-01
DAV:   4    -0.191253149177E+03    0.14296E-03   -0.89635E-04  9280   0.194E-01    0.125E-01
DAV:   5    -0.191253025284E+03    0.12389E-03   -0.54669E-04  8720   0.168E-01    0.848E-02
DAV:   6    -0.191252980978E+03    0.44306E-04   -0.24337E-04  6720   0.919E-02
  16 F= -.19125298E+03 E0= -.19115641E+03  d E =-.310914E-02
       N       E                     dE             d eps       ncg     rms          rms(c)
DAV:   1    -0.191250776105E+03    0.22492E-02   -0.75355E-01  8160   0.183E+00    0.171E-01
DAV:   2    -0.191252824347E+03   -0.20482E-02   -0.15288E-02 13440   0.508E-01    0.379E-01
DAV:   3    -0.191251602672E+03    0.12217E-02   -0.46534E-03 12400   0.474E-01    0.195E-01
DAV:   4    -0.191251349056E+03    0.25362E-03   -0.10611E-03  9720   0.189E-01    0.947E-02
DAV:   5    -0.191251267553E+03    0.81504E-04   -0.46342E-04  8480   0.128E-01
  17 F= -.19125127E+03 E0= -.19115484E+03  d E =0.171343E-02
       N       E                     dE             d eps       ncg     rms          rms(c)
DAV:   1    -0.191264658702E+03   -0.13310E-01   -0.10416E+00  8160   0.218E+00    0.290E-01
DAV:   2    -0.191273369867E+03   -0.87112E-02   -0.40681E-02 13200   0.113E+00    0.829E-01
DAV:   3    -0.191265548668E+03    0.78212E-02   -0.14896E-02 11840   0.930E-01    0.181E-01
DAV:   4    -0.191265596222E+03   -0.47555E-04   -0.21013E-03 10880   0.241E-01    0.198E-01
DAV:   5    -0.191265402724E+03    0.19350E-03   -0.18419E-03 10480   0.300E-01    0.188E-01
DAV:   6    -0.191265072705E+03    0.33002E-03   -0.89502E-04  9040   0.192E-01    0.629E-02
DAV:   7    -0.191265034127E+03    0.38577E-04   -0.18729E-04  5920   0.615E-02
  18 F= -.19126503E+03 E0= -.19116757E+03  d E =-.137666E-01
       N       E                     dE             d eps       ncg     rms          rms(c)
DAV:   1    -0.191262912012E+03    0.21607E-02   -0.21018E-01  8160   0.959E-01    0.994E-02
DAV:   2    -0.191263844480E+03   -0.93247E-03   -0.48957E-03 13560   0.361E-01    0.260E-01
DAV:   3    -0.191263098274E+03    0.74621E-03   -0.15454E-03 10640   0.306E-01    0.800E-02
DAV:   4    -0.191263103319E+03   -0.50450E-05   -0.30585E-04  7240   0.111E-01
  19 F= -.19126310E+03 E0= -.19116589E+03  d E =0.193081E-02
       N       E                     dE             d eps       ncg     rms          rms(c)
DAV:   1    -0.191256497071E+03    0.66012E-02   -0.68141E-01  8160   0.173E+00    0.227E-01
DAV:   2    -0.191261611481E+03   -0.51144E-02   -0.26233E-02 13520   0.905E-01    0.590E-01
DAV:   3    -0.191257443977E+03    0.41675E-02   -0.89788E-03 12320   0.723E-01    0.181E-01
DAV:   4    -0.191257187167E+03    0.25681E-03   -0.14863E-03  9800   0.197E-01    0.129E-01
DAV:   5    -0.191257153997E+03    0.33170E-04   -0.81903E-04  9360   0.202E-01
  20 F= -.19125715E+03 E0= -.19116081E+03  d E =0.594932E-02
       N       E                     dE             d eps       ncg     rms          rms(c)
DAV:   1    -0.191273007113E+03   -0.15820E-01   -0.15240E+00  8160   0.265E+00    0.293E-01
DAV:   2    -0.191280181736E+03   -0.71746E-02   -0.49643E-02 11880   0.902E-01    0.715E-01
DAV:   3    -0.191275731217E+03    0.44505E-02   -0.15376E-02 11480   0.848E-01    0.297E-01
DAV:   4    -0.191275259199E+03    0.47202E-03   -0.28798E-03 11520   0.349E-01    0.201E-01
DAV:   5    -0.191274930974E+03    0.32822E-03   -0.15173E-03 10760   0.308E-01    0.160E-01
DAV:   6    -0.191274739515E+03    0.19146E-03   -0.89994E-04 10480   0.185E-01    0.883E-02
DAV:   7    -0.191274639798E+03    0.99717E-04   -0.25951E-04  6240   0.792E-02
  21 F= -.19127464E+03 E0= -.19117767E+03  d E =-.174858E-01
       N       E                     dE             d eps       ncg     rms          rms(c)
DAV:   1    -0.191278664227E+03   -0.39247E-02   -0.22778E-01  8160   0.101E+00    0.108E-01
DAV:   2    -0.191279325617E+03   -0.66139E-03   -0.62029E-03 13600   0.296E-01    0.204E-01
DAV:   3    -0.191279048396E+03    0.27722E-03   -0.17130E-03 10160   0.294E-01    0.141E-01
DAV:   4    -0.191278871454E+03    0.17694E-03   -0.42693E-04  8000   0.132E-01    0.495E-02
DAV:   5    -0.191278844295E+03    0.27159E-04   -0.11969E-04  5800   0.551E-02
  22 F= -.19127884E+03 E0= -.19118189E+03  d E =-.420450E-02
       N       E                     dE             d eps       ncg     rms          rms(c)
DAV:   1    -0.191287910028E+03   -0.90386E-02   -0.77962E-01  8160   0.190E+00    0.269E-01
DAV:   2    -0.191297292359E+03   -0.93823E-02   -0.36680E-02 12040   0.110E+00    0.961E-01
DAV:   3    -0.191288467489E+03    0.88249E-02   -0.18076E-02 11560   0.937E-01    0.182E-01
DAV:   4    -0.191288547702E+03   -0.80213E-04   -0.18360E-03 10440   0.296E-01    0.204E-01
DAV:   5    -0.191288196304E+03    0.35140E-03   -0.13246E-03 11040   0.285E-01    0.136E-01
DAV:   6    -0.191288043305E+03    0.15300E-03   -0.69692E-04  9720   0.156E-01    0.779E-02
DAV:   7    -0.191288071628E+03   -0.28323E-04   -0.41972E-04  8400   0.149E-01
  23 F= -.19128807E+03 E0= -.19119094E+03  d E =-.922733E-02
       N       E                     dE             d eps       ncg     rms          rms(c)
DAV:   1    -0.191291360293E+03   -0.33170E-02   -0.57349E-02  8160   0.526E-01    0.622E-02
DAV:   2    -0.191291633914E+03   -0.27362E-03   -0.19056E-03 12480   0.187E-01    0.146E-01
DAV:   3    -0.191291444891E+03    0.18902E-03   -0.58850E-04  8560   0.172E-01    0.612E-02
DAV:   4    -0.191291426228E+03    0.18664E-04   -0.89380E-05  5600   0.648E-02
  24 F= -.19129143E+03 E0= -.19119420E+03  d E =-.335460E-02
       N       E                     dE             d eps       ncg     rms          rms(c)
DAV:   1    -0.191303501941E+03   -0.12057E-01   -0.65201E-01  8160   0.173E+00    0.188E-01
DAV:   2    -0.191304965712E+03   -0.14638E-02   -0.16643E-02 13600   0.453E-01    0.283E-01
DAV:   3    -0.191304659351E+03    0.30636E-03   -0.40950E-03 12600   0.465E-01    0.252E-01
DAV:   4    -0.191304117576E+03    0.54178E-03   -0.15401E-03  9720   0.270E-01    0.112E-01
DAV:   5    -0.191304022220E+03    0.95356E-04   -0.50089E-04  8880   0.165E-01
  25 F= -.19130402E+03 E0= -.19120690E+03  d E =-.125960E-01
       N       E                     dE             d eps       ncg     rms          rms(c)
DAV:   1    -0.191297383206E+03    0.67344E-02   -0.32236E-01  8160   0.121E+00    0.133E-01
DAV:   2    -0.191298969488E+03   -0.15863E-02   -0.93041E-03 13600   0.409E-01    0.332E-01
DAV:   3    -0.191297839896E+03    0.11296E-02   -0.32054E-03 10520   0.406E-01    0.157E-01
DAV:   4    -0.191297621028E+03    0.21887E-03   -0.73863E-04  9480   0.170E-01    0.668E-02
DAV:   5    -0.191297612335E+03    0.86931E-05   -0.23037E-04  7440   0.103E-01
  26 F= -.19129761E+03 E0= -.19120031E+03  d E =0.640989E-02
       N       E                     dE             d eps       ncg     rms          rms(c)
DAV:   1    -0.191288226579E+03    0.93944E-02   -0.33987E+00  8160   0.386E+00    0.385E-01
DAV:   2    -0.191298979364E+03   -0.10753E-01   -0.72507E-02 13240   0.116E+00    0.839E-01
DAV:   3    -0.191292064083E+03    0.69153E-02   -0.20514E-02 11760   0.109E+00    0.402E-01
DAV:   4    -0.191290974085E+03    0.10900E-02   -0.48175E-03 11200   0.444E-01    0.232E-01
DAV:   5    -0.191290658509E+03    0.31558E-03   -0.24851E-03 12240   0.369E-01    0.220E-01
DAV:   6    -0.191290281153E+03    0.37736E-03   -0.15643E-03 10760   0.278E-01    0.107E-01
DAV:   7    -0.191290209446E+03    0.71707E-04   -0.48388E-04  8840   0.130E-01
  27 F= -.19129021E+03 E0= -.19119305E+03  d E =0.740289E-02
       N       E                     dE             d eps       ncg     rms          rms(c)
DAV:   1    -0.191283060637E+03    0.72205E-02   -0.47844E+00  8160   0.458E+00    0.451E-01
DAV:   2    -0.191296558285E+03   -0.13498E-01   -0.99384E-02 13000   0.138E+00    0.907E-01
DAV:   3    -0.191288346897E+03    0.82114E-02   -0.24760E-02 11320   0.121E+00    0.480E-01
DAV:   4    -0.191286922623E+03    0.14243E-02   -0.73962E-03 11640   0.563E-01    0.304E-01
DAV:   5    -0.191286501274E+03    0.42135E-03   -0.41209E-03 10560   0.474E-01    0.285E-01
DAV:   6    -0.191285706213E+03    0.79506E-03   -0.22373E-03 10880   0.325E-01    0.104E-01
DAV:   7    -0.191285813698E+03   -0.10748E-03   -0.74647E-04 10160   0.177E-01    0.141E-01
DAV:   8    -0.191285608568E+03    0.20513E-03   -0.39448E-04  8440   0.150E-01    0.369E-02
DAV:   9    -0.191285605798E+03    0.27697E-05   -0.46328E-05  6040   0.405E-02
  28 F= -.19128561E+03 E0= -.19118838E+03  d E =0.460365E-02
       N       E                     dE             d eps       ncg     rms          rms(c)
DAV:   1    -0.191283639291E+03    0.19693E-02   -0.13181E+00  8160   0.240E+00    0.233E-01
DAV:   2    -0.191286923451E+03   -0.32842E-02   -0.24940E-02 13480   0.647E-01    0.490E-01
DAV:   3    -0.191284988472E+03    0.19350E-02   -0.80156E-03 11920   0.662E-01    0.277E-01
DAV:   4    -0.191284328803E+03    0.65967E-03   -0.18264E-03 10000   0.260E-01    0.114E-01
DAV:   5    -0.191284244064E+03    0.84740E-04   -0.73086E-04 10200   0.174E-01
  29 F= -.19128424E+03 E0= -.19118695E+03  d E =0.136173E-02
       N       E                     dE             d eps       ncg     rms          rms(c)
DAV:   1    -0.191307756413E+03   -0.23428E-01   -0.94590E+00  8160   0.648E+00    0.725E-01
DAV:   2    -0.191353557838E+03   -0.45801E-01   -0.23184E-01 13360   0.240E+00    0.217E+00
DAV:   3    -0.191314050693E+03    0.39507E-01   -0.10714E-01 12280   0.228E+00    0.622E-01
DAV:   4    -0.191309852672E+03    0.41980E-02   -0.12350E-02 10880   0.570E-01    0.287E-01
DAV:   5    -0.191308337773E+03    0.15149E-02   -0.56979E-03 11440   0.278E-01    0.175E-01
DAV:   6    -0.191308693233E+03   -0.35546E-03   -0.32069E-03 11800   0.380E-01    0.261E-01
DAV:   7    -0.191307944999E+03    0.74823E-03   -0.15146E-03 10360   0.317E-01    0.803E-02
DAV:   8    -0.191307878479E+03    0.66520E-04   -0.23583E-04  7000   0.103E-01
  30 F= -.19130788E+03 E0= -.19121058E+03  d E =-.236344E-01
       N       E                     dE             d eps       ncg     rms          rms(c)
DAV:   1    -0.191317433105E+03   -0.94881E-02   -0.63969E-01  8160   0.172E+00    0.188E-01
DAV:   2    -0.191318513618E+03   -0.10805E-02   -0.16838E-02 12240   0.372E-01    0.186E-01
DAV:   3    -0.191318923448E+03   -0.40983E-03   -0.32772E-03 11840   0.392E-01    0.294E-01
DAV:   4    -0.191318160737E+03    0.76271E-03   -0.17265E-03 10000   0.316E-01    0.120E-01
DAV:   5    -0.191318010981E+03    0.14976E-03   -0.45478E-04  8520   0.141E-01    0.798E-02
DAV:   6    -0.191318045848E+03   -0.34867E-04   -0.36107E-04  9440   0.151E-01
  31 F= -.19131805E+03 E0= -.19122102E+03  d E =-.101674E-01
       N       E                     dE             d eps       ncg     rms          rms(c)
DAV:   1    -0.191339076962E+03   -0.21066E-01   -0.18001E+00  8160   0.291E+00    0.344E-01
DAV:   2    -0.191346594996E+03   -0.75180E-02   -0.55423E-02 13160   0.979E-01    0.781E-01
DAV:   3    -0.191341631261E+03    0.49637E-02   -0.15315E-02 12400   0.931E-01    0.327E-01
DAV:   4    -0.191340508288E+03    0.11230E-02   -0.22258E-03 11640   0.294E-01    0.124E-01
DAV:   5    -0.191340558265E+03   -0.49977E-04   -0.14465E-03 11480   0.233E-01    0.152E-01
DAV:   6    -0.191340509503E+03    0.48762E-04   -0.11137E-03 10400   0.257E-01    0.141E-01
DAV:   7    -0.191340255523E+03    0.25398E-03   -0.42512E-04  8680   0.149E-01    0.438E-02
DAV:   8    -0.191340254807E+03    0.71590E-06   -0.84489E-05  6000   0.719E-02
  32 F= -.19134025E+03 E0= -.19124399E+03  d E =-.222090E-01
       N       E                     dE             d eps       ncg     rms          rms(c)
DAV:   1    -0.191338709893E+03    0.15456E-02   -0.76301E-02  8160   0.587E-01    0.599E-02
DAV:   2    -0.191338882493E+03   -0.17260E-03   -0.18047E-03 13440   0.149E-01    0.939E-02
DAV:   3    -0.191338815709E+03    0.66784E-04   -0.39871E-04  9640   0.150E-01
  33 F= -.19133882E+03 E0= -.19124249E+03  d E =0.143910E-02
       N       E                     dE             d eps       ncg     rms          rms(c)
DAV:   1    -0.191359181954E+03   -0.20299E-01   -0.20900E+00  8160   0.313E+00    0.378E-01
DAV:   2    -0.191369102054E+03   -0.99201E-02   -0.69271E-02 13560   0.114E+00    0.869E-01
DAV:   3    -0.191362176871E+03    0.69252E-02   -0.19082E-02 12200   0.106E+00    0.339E-01
DAV:   4    -0.191361267983E+03    0.90889E-03   -0.31597E-03 11520   0.370E-01    0.221E-01
DAV:   5    -0.191361079379E+03    0.18860E-03   -0.22551E-03 11640   0.374E-01    0.217E-01
DAV:   6    -0.191360797842E+03    0.28154E-03   -0.15098E-03  9720   0.273E-01    0.116E-01
DAV:   7    -0.191360637947E+03    0.15990E-03   -0.59187E-04  9360   0.156E-01    0.763E-02
DAV:   8    -0.191360577698E+03    0.60249E-04   -0.13815E-04  7480   0.103E-01
  34 F= -.19136058E+03 E0= -.19126520E+03  d E =-.217620E-01
       N       E                     dE             d eps       ncg     rms          rms(c)
DAV:   1    -0.191388913021E+03   -0.28275E-01   -0.41062E+00  8160   0.439E+00    0.544E-01
DAV:   2    -0.191411875421E+03   -0.22962E-01   -0.13879E-01 13360   0.170E+00    0.139E+00
DAV:   3    -0.191394638872E+03    0.17237E-01   -0.41541E-02 12440   0.158E+00    0.456E-01
DAV:   4    -0.191393015293E+03    0.16236E-02   -0.59930E-03 11000   0.498E-01    0.316E-01
DAV:   5    -0.191392331975E+03    0.68332E-03   -0.44902E-03 11720   0.522E-01    0.260E-01
DAV:   6    -0.191392084147E+03    0.24783E-03   -0.25248E-03 11120   0.360E-01    0.182E-01
DAV:   7    -0.191391763749E+03    0.32040E-03   -0.14042E-03 10560   0.271E-01    0.136E-01
DAV:   8    -0.191391568169E+03    0.19558E-03   -0.42605E-04  8720   0.162E-01    0.396E-02
DAV:   9    -0.191391548362E+03    0.19807E-04   -0.62262E-05  6480   0.394E-02
  35 F= -.19139155E+03 E0= -.19129779E+03  d E =-.309707E-01
       N       E                     dE             d eps       ncg     rms          rms(c)
DAV:   1    -0.191398468140E+03   -0.69000E-02   -0.35790E-01  8160   0.128E+00    0.167E-01
DAV:   2    -0.191400373132E+03   -0.19050E-02   -0.11180E-02 13360   0.530E-01    0.426E-01
DAV:   3    -0.191398667711E+03    0.17054E-02   -0.38990E-03 11440   0.499E-01    0.145E-01
DAV:   4    -0.191398455674E+03    0.21204E-03   -0.58821E-04  9760   0.151E-01    0.781E-02
DAV:   5    -0.191398520625E+03   -0.64951E-04   -0.47898E-04  9800   0.172E-01
  36 F= -.19139852E+03 E0= -.19130506E+03  d E =-.697226E-02
       N       E                     dE             d eps       ncg     rms          rms(c)
DAV:   1    -0.191409682833E+03   -0.11227E-01   -0.61103E-01  8160   0.169E+00    0.224E-01
DAV:   2    -0.191413175278E+03   -0.34924E-02   -0.20227E-02 13200   0.691E-01    0.566E-01
DAV:   3    -0.191410250975E+03    0.29243E-02   -0.65075E-03 12000   0.650E-01    0.188E-01
DAV:   4    -0.191409923974E+03    0.32700E-03   -0.96663E-04 10160   0.180E-01    0.986E-02
DAV:   5    -0.191409911099E+03    0.12875E-04   -0.57857E-04 10480   0.178E-01
  37 F= -.19140991E+03 E0= -.19131707E+03  d E =-.113905E-01
       N       E                     dE             d eps       ncg     rms          rms(c)
DAV:   1    -0.191421533671E+03   -0.11610E-01   -0.82766E-01  8160   0.195E+00    0.255E-01
DAV:   2    -0.191428195578E+03   -0.66619E-02   -0.29655E-02 12400   0.938E-01    0.734E-01
DAV:   3    -0.191422583971E+03    0.56116E-02   -0.94763E-03 12280   0.814E-01    0.192E-01
DAV:   4    -0.191422731073E+03   -0.14710E-03   -0.15299E-03  9720   0.320E-01    0.218E-01
DAV:   5    -0.191422230724E+03    0.50035E-03   -0.10077E-03 10560   0.275E-01    0.919E-02
DAV:   6    -0.191422212202E+03    0.18523E-04   -0.38605E-04  8800   0.981E-02
  38 F= -.19142221E+03 E0= -.19133024E+03  d E =-.123011E-01
       N       E                     dE             d eps       ncg     rms          rms(c)
DAV:   1    -0.191428178699E+03   -0.59480E-02   -0.22223E-01  8160   0.103E+00    0.173E-01
DAV:   2    -0.191430466740E+03   -0.22880E-02   -0.10096E-02 12560   0.612E-01    0.486E-01
DAV:   3    -0.191427961299E+03    0.25054E-02   -0.47249E-03 11480   0.557E-01    0.119E-01
DAV:   4    -0.191427894183E+03    0.67116E-04   -0.61706E-04  9000   0.163E-01
  39 F= -.19142789E+03 E0= -.19133563E+03  d E =-.568198E-02
       N       E                     dE             d eps       ncg     rms          rms(c)
DAV:   1    -0.191438756626E+03   -0.10795E-01   -0.55099E-01  8160   0.164E+00    0.309E-01
DAV:   2    -0.191447442423E+03   -0.86858E-02   -0.30939E-02 12440   0.113E+00    0.967E-01
DAV:   3    -0.191438186814E+03    0.92556E-02   -0.15314E-02 11520   0.102E+00    0.206E-01
DAV:   4    -0.191437917420E+03    0.26939E-03   -0.19057E-03 11480   0.278E-01    0.184E-01
DAV:   5    -0.191437817152E+03    0.10027E-03   -0.17288E-03 11360   0.334E-01    0.178E-01
DAV:   6    -0.191437444894E+03    0.37226E-03   -0.82248E-04  9880   0.193E-01    0.389E-02
DAV:   7    -0.191437433801E+03    0.11094E-04   -0.14417E-04  6080   0.497E-02
  40 F= -.19143743E+03 E0= -.19134588E+03  d E =-.953962E-02
       N       E                     dE             d eps       ncg     rms          rms(c)
DAV:   1    -0.191444726258E+03   -0.72814E-02   -0.37287E-01  8160   0.130E+00    0.177E-01
DAV:   2    -0.191447992216E+03   -0.32660E-02   -0.14735E-02 12120   0.706E-01    0.524E-01
DAV:   3    -0.191445110730E+03    0.28815E-02   -0.46132E-03 11640   0.572E-01    0.131E-01
DAV:   4    -0.191445128667E+03   -0.17936E-04   -0.68871E-04  9080   0.216E-01
  41 F= -.19144513E+03 E0= -.19135389E+03  d E =-.769487E-02
       N       E                     dE             d eps       ncg     rms          rms(c)
DAV:   1    -0.191454628988E+03   -0.95183E-02   -0.60029E-01  8160   0.165E+00    0.231E-01
DAV:   2    -0.191458899363E+03   -0.42704E-02   -0.18573E-02 13360   0.711E-01    0.634E-01
DAV:   3    -0.191454865562E+03    0.40338E-02   -0.69790E-03 11560   0.693E-01    0.180E-01
DAV:   4    -0.191454866180E+03   -0.61739E-06   -0.12772E-03 11120   0.236E-01    0.164E-01
DAV:   5    -0.191454641131E+03    0.22505E-03   -0.86436E-04 11400   0.236E-01    0.119E-01
DAV:   6    -0.191454501846E+03    0.13928E-03   -0.49023E-04  9120   0.165E-01    0.489E-02
DAV:   7    -0.191454489387E+03    0.12459E-04   -0.13305E-04  6000   0.739E-02
  42 F= -.19145449E+03 E0= -.19136410E+03  d E =-.936072E-02
       N       E                     dE             d eps       ncg     rms          rms(c)
DAV:   1    -0.191477627385E+03   -0.23126E-01   -0.46582E+00  8160   0.460E+00    0.562E-01
DAV:   2    -0.191503735259E+03   -0.26108E-01   -0.14202E-01 13360   0.188E+00    0.154E+00
DAV:   3    -0.191482330072E+03    0.21405E-01   -0.44700E-02 12320   0.171E+00    0.426E-01
DAV:   4    -0.191480005972E+03    0.23241E-02   -0.48897E-03 11520   0.391E-01    0.174E-01
DAV:   5    -0.191479911627E+03    0.94345E-04   -0.31873E-03 11720   0.306E-01    0.179E-01
DAV:   6    -0.191479917673E+03   -0.60457E-05   -0.23085E-03 11400   0.367E-01    0.200E-01
DAV:   7    -0.191479458113E+03    0.45956E-03   -0.96141E-04 10360   0.237E-01    0.578E-02
DAV:   8    -0.191479429176E+03    0.28937E-04   -0.12363E-04  6080   0.839E-02
  43 F= -.19147943E+03 E0= -.19139001E+03  d E =-.249398E-01
       N       E                     dE             d eps       ncg     rms          rms(c)
DAV:   1    -0.191492102233E+03   -0.12644E-01   -0.16981E+00  8160   0.275E+00    0.312E-01
DAV:   2    -0.191498614907E+03   -0.65127E-02   -0.45571E-02 13320   0.937E-01    0.687E-01
DAV:   3    -0.191494413081E+03    0.42018E-02   -0.11821E-02 12520   0.891E-01    0.305E-01
DAV:   4    -0.191493728538E+03    0.68454E-03   -0.23559E-03 10560   0.340E-01    0.176E-01
DAV:   5    -0.191493474985E+03    0.25355E-03   -0.13504E-03 11160   0.309E-01    0.142E-01
DAV:   6    -0.191493396630E+03    0.78355E-04   -0.71345E-04 10600   0.196E-01
  44 F= -.19149340E+03 E0= -.19140432E+03  d E =-.139675E-01
       N       E                     dE             d eps       ncg     rms          rms(c)
DAV:   1    -0.191492487370E+03    0.98761E-03   -0.15756E-02  8160   0.277E-01    0.491E-02
DAV:   2    -0.191492843560E+03   -0.35619E-03   -0.10676E-03 10800   0.223E-01    0.175E-01
DAV:   3    -0.191492470836E+03    0.37272E-03   -0.48510E-04  8600   0.186E-01    0.255E-02
DAV:   4    -0.191492479041E+03   -0.82052E-05   -0.39282E-05  5920   0.496E-02
  45 F= -.19149248E+03 E0= -.19140350E+03  d E =0.917590E-03
       N       E                     dE             d eps       ncg     rms          rms(c)
DAV:   1    -0.191500661336E+03   -0.81905E-02   -0.73338E-01  8160   0.180E+00    0.189E-01
DAV:   2    -0.191502441518E+03   -0.17802E-02   -0.17385E-02 13040   0.498E-01    0.337E-01
DAV:   3    -0.191501670890E+03    0.77063E-03   -0.36051E-03 12280   0.493E-01    0.218E-01
DAV:   4    -0.191501210103E+03    0.46079E-03   -0.92217E-04  9760   0.217E-01    0.787E-02
DAV:   5    -0.191501125862E+03    0.84241E-04   -0.39711E-04  8480   0.988E-02
  46 F= -.19150113E+03 E0= -.19141224E+03  d E =-.864682E-02
       N       E                     dE             d eps       ncg     rms          rms(c)
DAV:   1    -0.191501833566E+03   -0.62346E-03   -0.12117E-02  8400   0.310E-01    0.758E-02
DAV:   2    -0.191501996097E+03   -0.16253E-03   -0.10316E-03 11000   0.191E-01    0.149E-01
DAV:   3    -0.191501726112E+03    0.26999E-03   -0.57653E-04  9560   0.202E-01    0.658E-02
DAV:   4    -0.191501699905E+03    0.26207E-04   -0.18892E-04  7200   0.901E-02
  47 F= -.19150170E+03 E0= -.19141251E+03  d E =-.574043E-03
       N       E                     dE             d eps       ncg     rms          rms(c)
DAV:   1    -0.191508056903E+03   -0.63308E-02   -0.41696E-01  8160   0.137E+00    0.171E-01
DAV:   2    -0.191509738683E+03   -0.16818E-02   -0.11812E-02 12920   0.514E-01    0.382E-01
DAV:   3    -0.191508360820E+03    0.13779E-02   -0.31470E-03 11560   0.472E-01    0.150E-01
DAV:   4    -0.191508211405E+03    0.14942E-03   -0.61263E-04  9040   0.180E-01    0.102E-01
DAV:   5    -0.191508165801E+03    0.45604E-04   -0.44017E-04 10360   0.172E-01
  48 F= -.19150817E+03 E0= -.19141914E+03  d E =-.646590E-02
       N       E                     dE             d eps       ncg     rms          rms(c)
DAV:   1    -0.191506685231E+03    0.15262E-02   -0.36768E-02  8160   0.456E-01    0.878E-02
DAV:   2    -0.191507318931E+03   -0.63370E-03   -0.27802E-03 12680   0.320E-01    0.242E-01
DAV:   3    -0.191506615383E+03    0.70355E-03   -0.13631E-03 10080   0.300E-01    0.661E-02
DAV:   4    -0.191506587193E+03    0.28189E-04   -0.17735E-04  5960   0.879E-02
  49 F= -.19150659E+03 E0= -.19141776E+03  d E =0.157861E-02
       N       E                     dE             d eps       ncg     rms          rms(c)
DAV:   1    -0.191514117840E+03   -0.75025E-02   -0.78224E-01  8160   0.186E+00    0.171E-01
DAV:   2    -0.191515504554E+03   -0.13867E-02   -0.17056E-02 11920   0.440E-01    0.211E-01
DAV:   3    -0.191515445667E+03    0.58887E-04   -0.26078E-03 12040   0.404E-01    0.217E-01
DAV:   4    -0.191515030180E+03    0.41549E-03   -0.92808E-04 10120   0.249E-01    0.105E-01
DAV:   5    -0.191514995737E+03    0.34443E-04   -0.42738E-04  8920   0.177E-01
  50 F= -.19151500E+03 E0= -.19142679E+03  d E =-.840854E-02
       N       E                     dE             d eps       ncg     rms          rms(c)
DAV:   1    -0.191516829830E+03   -0.17997E-02   -0.31883E-02  8160   0.423E-01    0.778E-02
DAV:   2    -0.191517137773E+03   -0.30794E-03   -0.14793E-03 12000   0.218E-01    0.170E-01
DAV:   3    -0.191516791489E+03    0.34628E-03   -0.69931E-04  9000   0.225E-01    0.702E-02
DAV:   4    -0.191516777889E+03    0.13599E-04   -0.17992E-04  7200   0.927E-02
  51 F= -.19151678E+03 E0= -.19142822E+03  d E =-.178215E-02
       N       E                     dE             d eps       ncg     rms          rms(c)
DAV:   1    -0.191520973849E+03   -0.41824E-02   -0.26124E-01  8160   0.108E+00    0.117E-01
DAV:   2    -0.191521844655E+03   -0.87081E-03   -0.69123E-03 13520   0.362E-01    0.224E-01
DAV:   3    -0.191521299993E+03    0.54466E-03   -0.13413E-03 10400   0.300E-01    0.899E-02
DAV:   4    -0.191521277628E+03    0.22364E-04   -0.31269E-04  8480   0.132E-01
  52 F= -.19152128E+03 E0= -.19143275E+03  d E =-.449974E-02
       N       E                     dE             d eps       ncg     rms          rms(c)
DAV:   1    -0.191531096390E+03   -0.97964E-02   -0.73330E-01  8160   0.187E+00    0.289E-01
DAV:   2    -0.191531727327E+03   -0.63094E-03   -0.21928E-02 12400   0.571E-01    0.395E-01
DAV:   3    -0.191531454074E+03    0.27325E-03   -0.67324E-03 12240   0.689E-01    0.377E-01
DAV:   4    -0.191529862466E+03    0.15916E-02   -0.26680E-03 11600   0.406E-01    0.130E-01
DAV:   5    -0.191529918845E+03   -0.56379E-04   -0.12710E-03 10600   0.248E-01    0.167E-01
DAV:   6    -0.191529581112E+03    0.33773E-03   -0.67354E-04  9560   0.213E-01    0.496E-02
DAV:   7    -0.191529559548E+03    0.21564E-04   -0.11793E-04  6000   0.704E-02
  53 F= -.19152956E+03 E0= -.19144071E+03  d E =-.828192E-02
       N       E                     dE             d eps       ncg     rms          rms(c)
DAV:   1    -0.191534786712E+03   -0.52056E-02   -0.34066E-01  8160   0.122E+00    0.117E-01
DAV:   2    -0.191535533801E+03   -0.74709E-03   -0.81296E-03 12560   0.349E-01    0.166E-01
DAV:   3    -0.191535380329E+03    0.15347E-03   -0.12078E-03 10760   0.281E-01    0.144E-01
DAV:   4    -0.191535210517E+03    0.16981E-03   -0.38857E-04  8520   0.164E-01    0.680E-02
DAV:   5    -0.191535211083E+03   -0.56596E-06   -0.20506E-04  7800   0.116E-01
  54 F= -.19153521E+03 E0= -.19144672E+03  d E =-.565153E-02
       N       E                     dE             d eps       ncg     rms          rms(c)
DAV:   1    -0.191542065759E+03   -0.68552E-02   -0.53443E-01  8160   0.154E+00    0.153E-01
DAV:   2    -0.191542657068E+03   -0.59131E-03   -0.11194E-02 11800   0.287E-01    0.116E-01
DAV:   3    -0.191543123311E+03   -0.46624E-03   -0.15378E-03 12560   0.314E-01    0.246E-01
DAV:   4    -0.191542490965E+03    0.63235E-03   -0.84143E-04  9920   0.260E-01    0.644E-02
DAV:   5    -0.191542493364E+03   -0.23986E-05   -0.25037E-04  7680   0.879E-02
  55 F= -.19154249E+03 E0= -.19145391E+03  d E =-.728228E-02
       N       E                     dE             d eps       ncg     rms          rms(c)
DAV:   1    -0.191541050637E+03    0.14403E-02   -0.21259E-02  8160   0.312E-01    0.654E-02
DAV:   2    -0.191541588812E+03   -0.53818E-03   -0.14366E-03 12120   0.281E-01    0.211E-01
DAV:   3    -0.191540988315E+03    0.60050E-03   -0.65835E-04  9200   0.232E-01    0.238E-02
DAV:   4    -0.191541004310E+03   -0.15995E-04   -0.53485E-05  5600   0.481E-02
  56 F= -.19154100E+03 E0= -.19145250E+03  d E =0.148905E-02
       N       E                     dE             d eps       ncg     rms          rms(c)
DAV:   1    -0.191532808561E+03    0.81798E-02   -0.74292E-01  8160   0.186E+00    0.263E-01
DAV:   2    -0.191534009039E+03   -0.12005E-02   -0.23473E-02 12640   0.647E-01    0.369E-01
DAV:   3    -0.191532875252E+03    0.11338E-02   -0.47939E-03 12120   0.579E-01    0.230E-01
DAV:   4    -0.191532394775E+03    0.48048E-03   -0.19386E-03 11160   0.328E-01    0.178E-01
DAV:   5    -0.191532280175E+03    0.11460E-03   -0.12988E-03 10400   0.298E-01    0.172E-01
DAV:   6    -0.191531994425E+03    0.28575E-03   -0.61956E-04  8440   0.202E-01    0.530E-02
DAV:   7    -0.191531971136E+03    0.23289E-04   -0.14606E-04  6160   0.658E-02
  57 F= -.19153197E+03 E0= -.19144394E+03  d E =0.903317E-02
       N       E                     dE             d eps       ncg     rms          rms(c)
DAV:   1    -0.191547999156E+03   -0.16005E-01   -0.23024E+00  8160   0.322E+00    0.378E-01
DAV:   2    -0.191551955200E+03   -0.39560E-02   -0.58987E-02 13280   0.970E-01    0.535E-01
DAV:   3    -0.191549760802E+03    0.21944E-02   -0.10259E-02 12240   0.839E-01    0.340E-01
DAV:   4    -0.191548590783E+03    0.11700E-02   -0.38692E-03 11600   0.475E-01    0.252E-01
DAV:   5    -0.191548508239E+03    0.82545E-04   -0.26508E-03 12280   0.433E-01    0.259E-01
DAV:   6    -0.191547838289E+03    0.66995E-03   -0.14493E-03 11040   0.300E-01    0.681E-02
DAV:   7    -0.191547781613E+03    0.56676E-04   -0.25439E-04  7040   0.874E-02
  58 F= -.19154778E+03 E0= -.19145935E+03  d E =-.158105E-01
       N       E                     dE             d eps       ncg     rms          rms(c)
DAV:   1    -0.191555100528E+03   -0.72622E-02   -0.48412E-01  8160   0.148E+00    0.179E-01
DAV:   2    -0.191556426875E+03   -0.13263E-02   -0.13774E-02 13000   0.523E-01    0.304E-01
DAV:   3    -0.191555476993E+03    0.94988E-03   -0.28072E-03 11960   0.428E-01    0.137E-01
DAV:   4    -0.191555326783E+03    0.15021E-03   -0.84891E-04 10080   0.203E-01    0.103E-01
DAV:   5    -0.191555281853E+03    0.44930E-04   -0.58410E-04 10120   0.183E-01
  59 F= -.19155528E+03 E0= -.19146657E+03  d E =-.750024E-02
       N       E                     dE             d eps       ncg     rms          rms(c)
DAV:   1    -0.191552966054E+03    0.23607E-02   -0.86096E-02  8160   0.668E-01    0.107E-01
DAV:   2    -0.191553507528E+03   -0.54147E-03   -0.43450E-03 13360   0.304E-01    0.216E-01
DAV:   3    -0.191552996944E+03    0.51058E-03   -0.14023E-03 10280   0.300E-01    0.104E-01
DAV:   4    -0.191552916839E+03    0.80105E-04   -0.39814E-04  8240   0.140E-01
  60 F= -.19155292E+03 E0= -.19146468E+03  d E =0.236501E-02
       N       E                     dE             d eps       ncg     rms          rms(c)
DAV:   1    -0.191561072576E+03   -0.80756E-02   -0.81679E-01  8160   0.190E+00    0.170E-01
DAV:   2    -0.191562801619E+03   -0.17290E-02   -0.17522E-02 12240   0.449E-01    0.255E-01
DAV:   3    -0.191562258204E+03    0.54341E-03   -0.27365E-03 11480   0.399E-01    0.167E-01
DAV:   4    -0.191562035049E+03    0.22316E-03   -0.83727E-04  9760   0.218E-01    0.993E-02
DAV:   5    -0.191562011036E+03    0.24013E-04   -0.41292E-04  9240   0.159E-01
  61 F= -.19156201E+03 E0= -.19147334E+03  d E =-.909420E-02
       N       E                     dE             d eps       ncg     rms          rms(c)
DAV:   1    -0.191561444182E+03    0.59087E-03   -0.78000E-03  8160   0.231E-01    0.731E-02
DAV:   2    -0.191562339989E+03   -0.89581E-03   -0.19263E-03 11080   0.342E-01    0.282E-01
DAV:   3    -0.191561402357E+03    0.93763E-03   -0.11247E-03 10080   0.299E-01    0.538E-02
DAV:   4    -0.191561376773E+03    0.25583E-04   -0.80491E-05  5840   0.633E-02
  62 F= -.19156138E+03 E0= -.19147298E+03  d E =0.634262E-03
       N       E                     dE             d eps       ncg     rms          rms(c)
DAV:   1    -0.191569149109E+03   -0.77468E-02   -0.65331E-01  8160   0.171E+00    0.181E-01
DAV:   2    -0.191570974155E+03   -0.18250E-02   -0.17232E-02 13280   0.571E-01    0.325E-01
DAV:   3    -0.191569905075E+03    0.10691E-02   -0.27512E-03 12120   0.435E-01    0.146E-01
DAV:   4    -0.191569886468E+03    0.18606E-04   -0.87664E-04 10040   0.231E-01
  63 F= -.19156989E+03 E0= -.19148078E+03  d E =-.850969E-02
       N       E                     dE             d eps       ncg     rms          rms(c)
DAV:   1    -0.191568983903E+03    0.92117E-03   -0.89778E-02  8160   0.714E-01    0.138E-01
DAV:   2    -0.191569965034E+03   -0.98113E-03   -0.53226E-03 11720   0.407E-01    0.302E-01
DAV:   3    -0.191568875724E+03    0.10893E-02   -0.21673E-03 11320   0.399E-01    0.123E-01
DAV:   4    -0.191568831769E+03    0.43955E-04   -0.50033E-04  8160   0.169E-01
  64 F= -.19156883E+03 E0= -.19147961E+03  d E =0.105470E-02
       N       E                     dE             d eps       ncg     rms          rms(c)
DAV:   1    -0.191570017794E+03   -0.11421E-02   -0.88609E-02  8160   0.655E-01    0.916E-02
DAV:   2    -0.191570886310E+03   -0.86852E-03   -0.42971E-03 13600   0.339E-01    0.248E-01
DAV:   3    -0.191570190244E+03    0.69607E-03   -0.12920E-03 10240   0.296E-01    0.840E-02
DAV:   4    -0.191570145280E+03    0.44964E-04   -0.23797E-04  7280   0.966E-02
  65 F= -.19157015E+03 E0= -.19148146E+03  d E =-.131351E-02
       N       E                     dE             d eps       ncg     rms          rms(c)
DAV:   1    -0.191581426742E+03   -0.11236E-01   -0.11506E+00  8160   0.225E+00    0.226E-01
DAV:   2    -0.191584316411E+03   -0.28897E-02   -0.26111E-02 12360   0.671E-01    0.380E-01
DAV:   3    -0.191582726562E+03    0.15898E-02   -0.43415E-03 12400   0.526E-01    0.173E-01
DAV:   4    -0.191582445367E+03    0.28119E-03   -0.11164E-03 11040   0.234E-01    0.986E-02
DAV:   5    -0.191582326092E+03    0.11928E-03   -0.56561E-04 11480   0.111E-01    0.521E-02
DAV:   6    -0.191582363721E+03   -0.37629E-04   -0.24586E-04  6560   0.101E-01
  66 F= -.19158236E+03 E0= -.19149366E+03  d E =-.122184E-01
       N       E                     dE             d eps       ncg     rms          rms(c)
DAV:   1    -0.191573508429E+03    0.88177E-02   -0.52453E-01  8160   0.153E+00    0.160E-01
DAV:   2    -0.191575184766E+03   -0.16763E-02   -0.13409E-02 12040   0.509E-01    0.315E-01
DAV:   3    -0.191574061502E+03    0.11233E-02   -0.24677E-03 11680   0.408E-01    0.118E-01
DAV:   4    -0.191574026820E+03    0.34682E-04   -0.64971E-04  9520   0.190E-01
  67 F= -.19157403E+03 E0= -.19148504E+03  d E =0.833690E-02
       N       E                     dE             d eps       ncg     rms          rms(c)
DAV:   1    -0.191522159201E+03    0.51902E-01   -0.16648E+01  8160   0.859E+00    0.904E-01
DAV:   2    -0.191558829791E+03   -0.36671E-01   -0.40693E-01 12080   0.251E+00    0.131E+00
DAV:   3    -0.191542773272E+03    0.16057E-01   -0.60560E-02 12240   0.194E+00    0.792E-01
DAV:   4    -0.191537174169E+03    0.55991E-02   -0.24506E-02 11760   0.117E+00    0.544E-01
DAV:   5    -0.191535631537E+03    0.15426E-02   -0.13742E-02 12600   0.873E-01    0.512E-01
DAV:   6    -0.191534052665E+03    0.15789E-02   -0.80401E-03 12040   0.759E-01    0.319E-01
DAV:   7    -0.191533030207E+03    0.10225E-02   -0.29955E-03 12440   0.379E-01    0.159E-01
DAV:   8    -0.191532799258E+03    0.23095E-03   -0.98121E-04 10440   0.247E-01    0.953E-02
DAV:   9    -0.191532702632E+03    0.96626E-04   -0.22512E-04  7720   0.107E-01
  68 F= -.19153270E+03 E0= -.19144541E+03  d E =0.413242E-01
       N       E                     dE             d eps       ncg     rms          rms(c)
DAV:   1    -0.191535575668E+03   -0.27764E-02   -0.72015E-02  8160   0.599E-01    0.118E-01
DAV:   2    -0.191536028530E+03   -0.45286E-03   -0.46272E-03 12840   0.342E-01    0.217E-01
DAV:   3    -0.191535483799E+03    0.54473E-03   -0.12188E-03 10280   0.285E-01    0.776E-02
DAV:   4    -0.191535456182E+03    0.27618E-04   -0.32975E-04  8080   0.128E-01
  69 F= -.19153546E+03 E0= -.19144815E+03  d E =-.275355E-02
       N       E                     dE             d eps       ncg     rms          rms(c)
DAV:   1    -0.191563022337E+03   -0.27539E-01   -0.12533E+01  8160   0.746E+00    0.778E-01
DAV:   2    -0.191590248460E+03   -0.27226E-01   -0.30945E-01 12880   0.214E+00    0.115E+00
DAV:   3    -0.191578802657E+03    0.11446E-01   -0.48060E-02 12320   0.173E+00    0.677E-01
DAV:   4    -0.191573856336E+03    0.49463E-02   -0.16759E-02 11600   0.951E-01    0.447E-01
DAV:   5    -0.191573200087E+03    0.65625E-03   -0.10631E-02 12720   0.765E-01    0.476E-01
DAV:   6    -0.191571910395E+03    0.12897E-02   -0.72665E-03 12120   0.704E-01    0.290E-01
DAV:   7    -0.191571004910E+03    0.90548E-03   -0.22945E-03 10800   0.339E-01    0.146E-01
DAV:   8    -0.191570799118E+03    0.20579E-03   -0.75040E-04  9880   0.220E-01    0.789E-02
DAV:   9    -0.191570723201E+03    0.75917E-04   -0.13740E-04  6360   0.858E-02
  70 F= -.19157072E+03 E0= -.19148208E+03  d E =-.352670E-01
       N       E                     dE             d eps       ncg     rms          rms(c)
DAV:   1    -0.191558348747E+03    0.12450E-01   -0.13993E+00  8160   0.248E+00    0.241E-01
DAV:   2    -0.191561795370E+03   -0.34466E-02   -0.31963E-02 11640   0.726E-01    0.407E-01
DAV:   3    -0.191560066501E+03    0.17289E-02   -0.52859E-03 11600   0.576E-01    0.207E-01
DAV:   4    -0.191559766312E+03    0.30019E-03   -0.17012E-03 10680   0.303E-01    0.154E-01
DAV:   5    -0.191559615371E+03    0.15094E-03   -0.94013E-04 10480   0.237E-01    0.133E-01
DAV:   6    -0.191559522707E+03    0.92664E-04   -0.55703E-04  9600   0.195E-01
  71 F= -.19155952E+03 E0= -.19147083E+03  d E =0.112005E-01
       N       E                     dE             d eps       ncg     rms          rms(c)
DAV:   1    -0.191565477421E+03   -0.58621E-02   -0.35548E-01  8160   0.126E+00    0.141E-01
DAV:   2    -0.191566677404E+03   -0.12000E-02   -0.93371E-03 13120   0.443E-01    0.285E-01
DAV:   3    -0.191565816792E+03    0.86061E-03   -0.24057E-03 11440   0.399E-01    0.125E-01
DAV:   4    -0.191565696273E+03    0.12052E-03   -0.51691E-04  9720   0.157E-01    0.828E-02
DAV:   5    -0.191565689375E+03    0.68978E-05   -0.33605E-04  9880   0.151E-01
  72 F= -.19156569E+03 E0= -.19147748E+03  d E =-.616667E-02
       N       E                     dE             d eps       ncg     rms          rms(c)
DAV:   1    -0.191555414802E+03    0.10281E-01   -0.98900E-01  8160   0.213E+00    0.275E-01
DAV:   2    -0.191559344461E+03   -0.39297E-02   -0.31356E-02 13080   0.867E-01    0.560E-01
DAV:   3    -0.191555911207E+03    0.34333E-02   -0.68510E-03 12200   0.707E-01    0.211E-01
DAV:   4    -0.191555869840E+03    0.41366E-04   -0.21911E-03 10960   0.354E-01    0.233E-01
DAV:   5    -0.191555386489E+03    0.48335E-03   -0.14672E-03 10080   0.321E-01    0.137E-01
DAV:   6    -0.191555197723E+03    0.18877E-03   -0.64493E-04  9640   0.179E-01    0.513E-02
DAV:   7    -0.191555191427E+03    0.62958E-05   -0.15671E-04  7400   0.917E-02
  73 F= -.19155519E+03 E0= -.19146682E+03  d E =0.104979E-01
       N       E                     dE             d eps       ncg     rms          rms(c)
DAV:   1    -0.191573332058E+03   -0.18134E-01   -0.29402E+00  8160   0.364E+00    0.432E-01
DAV:   2    -0.191580827137E+03   -0.74951E-02   -0.80019E-02 13240   0.124E+00    0.751E-01
DAV:   3    -0.191575561738E+03    0.52654E-02   -0.15614E-02 12240   0.103E+00    0.360E-01
DAV:   4    -0.191575021866E+03    0.53987E-03   -0.54264E-03 12160   0.570E-01    0.375E-01
DAV:   5    -0.191573905913E+03    0.11160E-02   -0.38738E-03 12160   0.531E-01    0.231E-01
DAV:   6    -0.191573356465E+03    0.54945E-03   -0.16687E-03 10960   0.284E-01    0.694E-02
DAV:   7    -0.191573275048E+03    0.81418E-04   -0.34839E-04  8400   0.825E-02
  74 F= -.19157328E+03 E0= -.19148473E+03  d E =-.180836E-01
       N       E                     dE             d eps       ncg     rms          rms(c)
DAV:   1    -0.191574686213E+03   -0.13297E-02   -0.22769E-02  8160   0.336E-01    0.632E-02
DAV:   2    -0.191574737200E+03   -0.50988E-04   -0.95601E-04 11680   0.138E-01
  75 F= -.19157474E+03 E0= -.19148665E+03  d E =-.146215E-02
       N       E                     dE             d eps       ncg     rms          rms(c)
DAV:   1    -0.191585510340E+03   -0.10824E-01   -0.13627E+00  8160   0.246E+00    0.253E-01
DAV:   2    -0.191587560983E+03   -0.20506E-02   -0.30597E-02 11800   0.535E-01    0.282E-01
DAV:   3    -0.191587684860E+03   -0.12388E-03   -0.47317E-03 12240   0.538E-01    0.342E-01
DAV:   4    -0.191586636927E+03    0.10479E-02   -0.23620E-03 11440   0.406E-01    0.141E-01
DAV:   5    -0.191586434966E+03    0.20196E-03   -0.88308E-04 10080   0.169E-01    0.952E-02
DAV:   6    -0.191586516208E+03   -0.81242E-04   -0.66169E-04 10760   0.211E-01
  76 F= -.19158652E+03 E0= -.19149889E+03  d E =-.117790E-01
       N       E                     dE             d eps       ncg     rms          rms(c)
DAV:   1    -0.191588381780E+03   -0.19468E-02   -0.27140E-02  8160   0.391E-01    0.601E-02
DAV:   2    -0.191588560313E+03   -0.17853E-03   -0.11365E-03 12440   0.172E-01    0.123E-01
DAV:   3    -0.191588373515E+03    0.18680E-03   -0.35887E-04  8880   0.161E-01    0.415E-02
DAV:   4    -0.191588371040E+03    0.24750E-05   -0.80574E-05  5920   0.654E-02
  77 F= -.19158837E+03 E0= -.19150072E+03  d E =-.185483E-02
       N       E                     dE             d eps       ncg     rms          rms(c)
DAV:   1    -0.191591927416E+03   -0.35539E-02   -0.23015E-01  8160   0.102E+00    0.173E-01
DAV:   2    -0.191596203812E+03   -0.42764E-02   -0.14844E-02 12520   0.830E-01    0.596E-01
DAV:   3    -0.191592060697E+03    0.41431E-02   -0.55672E-03 11000   0.651E-01    0.876E-02
DAV:   4    -0.191592113221E+03   -0.52524E-04   -0.53959E-04  8800   0.164E-01
  78 F= -.19159211E+03 E0= -.19150446E+03  d E =-.374218E-02
       N       E                     dE             d eps       ncg     rms          rms(c)
DAV:   1    -0.191596293432E+03   -0.42327E-02   -0.22241E-01  8160   0.100E+00    0.121E-01
DAV:   2    -0.191597215070E+03   -0.92164E-03   -0.65025E-03 12080   0.343E-01    0.244E-01
DAV:   3    -0.191596607098E+03    0.60797E-03   -0.14677E-03 10640   0.324E-01    0.119E-01
DAV:   4    -0.191596516356E+03    0.90741E-04   -0.40968E-04  8200   0.146E-01
  79 F= -.19159652E+03 E0= -.19150883E+03  d E =-.440314E-02
       N       E                     dE             d eps       ncg     rms          rms(c)
DAV:   1    -0.191598134475E+03   -0.15274E-02   -0.37523E-01  8160   0.136E+00    0.288E-01
DAV:   2    -0.191600781934E+03   -0.26475E-02   -0.21674E-02 11360   0.868E-01    0.594E-01
DAV:   3    -0.191596795396E+03    0.39865E-02   -0.93086E-03 11720   0.804E-01    0.199E-01
DAV:   4    -0.191596530846E+03    0.26455E-03   -0.23278E-03 11720   0.315E-01    0.189E-01
DAV:   5    -0.191596259194E+03    0.27165E-03   -0.15484E-03 10440   0.306E-01    0.170E-01
DAV:   6    -0.191595965508E+03    0.29369E-03   -0.77526E-04  9240   0.220E-01    0.763E-02
DAV:   7    -0.191595910614E+03    0.54894E-04   -0.20198E-04  6120   0.103E-01
  80 F= -.19159591E+03 E0= -.19150766E+03  d E =0.605742E-03
       N       E                     dE             d eps       ncg     rms          rms(c)
DAV:   1    -0.191607096404E+03   -0.11131E-01   -0.11742E+00  8160   0.227E+00    0.204E-01
DAV:   2    -0.191609508802E+03   -0.24124E-02   -0.27052E-02 11440   0.559E-01    0.273E-01
DAV:   3    -0.191609280505E+03    0.22830E-03   -0.35949E-03 12400   0.471E-01    0.261E-01
DAV:   4    -0.191608631673E+03    0.64883E-03   -0.13962E-03 10080   0.307E-01    0.110E-01
DAV:   5    -0.191608584368E+03    0.47306E-04   -0.50110E-04  9640   0.141E-01
  81 F= -.19160858E+03 E0= -.19152033E+03  d E =-.126738E-01
       N       E                     dE             d eps       ncg     rms          rms(c)
DAV:   1    -0.191613203126E+03   -0.45715E-02   -0.14926E-01  8160   0.827E-01    0.136E-01
DAV:   2    -0.191615063836E+03   -0.18607E-02   -0.64737E-03 12640   0.533E-01    0.388E-01
DAV:   3    -0.191613141661E+03    0.19222E-02   -0.25621E-03 11440   0.446E-01    0.622E-02
DAV:   4    -0.191613247253E+03   -0.10559E-03   -0.31827E-04  8720   0.141E-01    0.107E-01
DAV:   5    -0.191613135682E+03    0.11157E-03   -0.25128E-04  7360   0.148E-01    0.523E-02
DAV:   6    -0.191613129510E+03    0.61716E-05   -0.95479E-05  5560   0.720E-02
  82 F= -.19161313E+03 E0= -.19152492E+03  d E =-.454514E-02
       N       E                     dE             d eps       ncg     rms          rms(c)
DAV:   1    -0.191630139417E+03   -0.17004E-01   -0.24984E+00  8160   0.333E+00    0.362E-01
DAV:   2    -0.191638549538E+03   -0.84101E-02   -0.70130E-02 13200   0.121E+00    0.688E-01
DAV:   3    -0.191633162098E+03    0.53874E-02   -0.12428E-02 12240   0.908E-01    0.236E-01
DAV:   4    -0.191632510828E+03    0.65127E-03   -0.22791E-03 11920   0.308E-01    0.162E-01
DAV:   5    -0.191632600263E+03   -0.89435E-04   -0.17000E-03 12280   0.295E-01    0.213E-01
DAV:   6    -0.191632354384E+03    0.24588E-03   -0.13659E-03 10160   0.311E-01    0.134E-01
DAV:   7    -0.191632130065E+03    0.22432E-03   -0.37279E-04  8160   0.132E-01    0.319E-02
DAV:   8    -0.191632123834E+03    0.62310E-05   -0.67965E-05  6160   0.558E-02
  83 F= -.19163212E+03 E0= -.19154409E+03  d E =-.189943E-01
       N       E                     dE             d eps       ncg     rms          rms(c)
DAV:   1    -0.191640202277E+03   -0.80722E-02   -0.53767E-01  8160   0.154E+00    0.147E-01
DAV:   2    -0.191641430215E+03   -0.12279E-02   -0.13502E-02 11840   0.380E-01    0.191E-01
DAV:   3    -0.191641243194E+03    0.18702E-03   -0.18121E-03 12200   0.332E-01    0.163E-01
DAV:   4    -0.191640988440E+03    0.25475E-03   -0.58187E-04  9480   0.205E-01    0.833E-02
DAV:   5    -0.191640999822E+03   -0.11382E-04   -0.31322E-04  8160   0.141E-01
  84 F= -.19164100E+03 E0= -.19155283E+03  d E =-.887599E-02
       N       E                     dE             d eps       ncg     rms          rms(c)
DAV:   1    -0.191646192683E+03   -0.52042E-02   -0.20562E-01  8160   0.960E-01    0.114E-01
DAV:   2    -0.191647114849E+03   -0.92217E-03   -0.60318E-03 13000   0.385E-01    0.241E-01
DAV:   3    -0.191646422357E+03    0.69249E-03   -0.13295E-03 10720   0.309E-01    0.716E-02
DAV:   4    -0.191646444578E+03   -0.22222E-04   -0.22175E-04  7400   0.115E-01
  85 F= -.19164644E+03 E0= -.19155837E+03  d E =-.544476E-02
       N       E                     dE             d eps       ncg     rms          rms(c)
DAV:   1    -0.191664598980E+03   -0.18177E-01   -0.36902E+00  8160   0.405E+00    0.424E-01
DAV:   2    -0.191676002955E+03   -0.11404E-01   -0.10422E-01 13000   0.138E+00    0.733E-01
DAV:   3    -0.191670280883E+03    0.57221E-02   -0.16155E-02 12240   0.103E+00    0.307E-01
DAV:   4    -0.191669101967E+03    0.11789E-02   -0.31520E-03 12000   0.380E-01    0.183E-01
DAV:   5    -0.191669237877E+03   -0.13591E-03   -0.25127E-03 12680   0.327E-01    0.233E-01
DAV:   6    -0.191669098686E+03    0.13919E-03   -0.20346E-03 10640   0.380E-01    0.190E-01
DAV:   7    -0.191668650918E+03    0.44777E-03   -0.63399E-04  9320   0.186E-01    0.375E-02
DAV:   8    -0.191668642607E+03    0.83111E-05   -0.89965E-05  5880   0.659E-02
  86 F= -.19166864E+03 E0= -.19158131E+03  d E =-.221980E-01
       N       E                     dE             d eps       ncg     rms          rms(c)
DAV:   1    -0.191676400016E+03   -0.77491E-02   -0.65121E-01  8160   0.170E+00    0.176E-01
DAV:   2    -0.191678205173E+03   -0.18052E-02   -0.21467E-02 11720   0.532E-01    0.215E-01
DAV:   3    -0.191678022535E+03    0.18264E-03   -0.28336E-03 12240   0.427E-01    0.198E-01
DAV:   4    -0.191677589879E+03    0.43266E-03   -0.88411E-04 10880   0.251E-01    0.798E-02
DAV:   5    -0.191677571260E+03    0.18619E-04   -0.34449E-04  7560   0.118E-01
  87 F= -.19167757E+03 E0= -.19159052E+03  d E =-.892865E-02
       N       E                     dE             d eps       ncg     rms          rms(c)
DAV:   1    -0.191681852327E+03   -0.42624E-02   -0.16206E-01  8160   0.870E-01    0.121E-01
DAV:   2    -0.191683249157E+03   -0.13968E-02   -0.65351E-03 13080   0.428E-01    0.334E-01
DAV:   3    -0.191682026892E+03    0.12223E-02   -0.20290E-03 10720   0.378E-01    0.856E-02
DAV:   4    -0.191682029029E+03   -0.21363E-05   -0.30456E-04  8760   0.131E-01
  88 F= -.19168203E+03 E0= -.19159510E+03  d E =-.445777E-02
       N       E                     dE             d eps       ncg     rms          rms(c)
DAV:   1    -0.191694051935E+03   -0.12025E-01   -0.17217E+00  8160   0.280E+00    0.326E-01
DAV:   2    -0.191698979309E+03   -0.49274E-02   -0.55126E-02 13600   0.947E-01    0.493E-01
DAV:   3    -0.191696689252E+03    0.22901E-02   -0.84755E-03 12240   0.751E-01    0.264E-01
DAV:   4    -0.191695936905E+03    0.75235E-03   -0.23050E-03 12320   0.348E-01    0.181E-01
DAV:   5    -0.191695933905E+03    0.30008E-05   -0.19409E-03 11320   0.317E-01    0.208E-01
DAV:   6    -0.191695679911E+03    0.25399E-03   -0.12575E-03 10080   0.289E-01    0.120E-01
DAV:   7    -0.191695465969E+03    0.21394E-03   -0.33647E-04  7160   0.113E-01    0.225E-02
DAV:   8    -0.191695462183E+03    0.37862E-05   -0.50246E-05  6880   0.362E-02
  89 F= -.19169546E+03 E0= -.19160887E+03  d E =-.134332E-01
       N       E                     dE             d eps       ncg     rms          rms(c)
DAV:   1    -0.191701630620E+03   -0.61647E-02   -0.47645E-01  8160   0.146E+00    0.148E-01
DAV:   2    -0.191702833240E+03   -0.12026E-02   -0.14480E-02 11640   0.398E-01    0.180E-01
DAV:   3    -0.191702822849E+03    0.10391E-04   -0.18834E-03 12280   0.357E-01    0.193E-01
DAV:   4    -0.191702429265E+03    0.39358E-03   -0.66010E-04  9320   0.221E-01    0.722E-02
DAV:   5    -0.191702460244E+03   -0.30978E-04   -0.30390E-04  7480   0.138E-01
  90 F= -.19170246E+03 E0= -.19161605E+03  d E =-.699806E-02
       N       E                     dE             d eps       ncg     rms          rms(c)
DAV:   1    -0.191707862635E+03   -0.54334E-02   -0.39820E-01  8160   0.134E+00    0.141E-01
DAV:   2    -0.191708912376E+03   -0.10497E-02   -0.12757E-02 11720   0.332E-01    0.150E-01
DAV:   3    -0.191709006287E+03   -0.93912E-04   -0.14883E-03 11640   0.324E-01    0.180E-01
DAV:   4    -0.191708630894E+03    0.37539E-03   -0.49450E-04  9160   0.200E-01    0.611E-02
DAV:   5    -0.191708713022E+03   -0.82129E-04   -0.28729E-04  7920   0.140E-01
  91 F= -.19170871E+03 E0= -.19162241E+03  d E =-.625278E-02
       N       E                     dE             d eps       ncg     rms          rms(c)
DAV:   1    -0.191711910961E+03   -0.32801E-02   -0.13219E-01  8160   0.780E-01    0.103E-01
DAV:   2    -0.191712452209E+03   -0.54125E-03   -0.49387E-03 12080   0.304E-01    0.175E-01
DAV:   3    -0.191712108988E+03    0.34322E-03   -0.10660E-03 11080   0.269E-01    0.857E-02
DAV:   4    -0.191712057226E+03    0.51762E-04   -0.24309E-04  7560   0.116E-01
  92 F= -.19171206E+03 E0= -.19162609E+03  d E =-.334420E-02
       N       E                     dE             d eps       ncg     rms          rms(c)
DAV:   1    -0.191722255057E+03   -0.10146E-01   -0.29541E+00  8160   0.364E+00    0.374E-01
DAV:   2    -0.191729023203E+03   -0.67681E-02   -0.86135E-02 11840   0.962E-01    0.398E-01
DAV:   3    -0.191728809761E+03    0.21344E-03   -0.10185E-02 12160   0.797E-01    0.403E-01
DAV:   4    -0.191726819930E+03    0.19898E-02   -0.33063E-03 11240   0.493E-01    0.163E-01
DAV:   5    -0.191726851742E+03   -0.31813E-04   -0.18716E-03 11960   0.257E-01    0.179E-01
DAV:   6    -0.191726917617E+03   -0.65875E-04   -0.15853E-03 11280   0.332E-01    0.188E-01
DAV:   7    -0.191726495295E+03    0.42232E-03   -0.60985E-04  9720   0.196E-01    0.454E-02
DAV:   8    -0.191726485886E+03    0.94091E-05   -0.85784E-05  5680   0.762E-02
  93 F= -.19172649E+03 E0= -.19164145E+03  d E =-.144287E-01
       N       E                     dE             d eps       ncg     rms          rms(c)
DAV:   1    -0.191726910507E+03   -0.41521E-03   -0.11332E+01  8160   0.713E+00    0.732E-01
DAV:   2    -0.191760189285E+03   -0.33279E-01   -0.35768E-01 11800   0.200E+00    0.101E+00
DAV:   3    -0.191757180016E+03    0.30093E-02   -0.44185E-02 12360   0.182E+00    0.921E-01
DAV:   4    -0.191748773478E+03    0.84065E-02   -0.16016E-02 12240   0.104E+00    0.392E-01
DAV:   5    -0.191748138460E+03    0.63502E-03   -0.71645E-03 12320   0.678E-01    0.369E-01
DAV:   6    -0.191747365011E+03    0.77345E-03   -0.49791E-03 12600   0.534E-01    0.205E-01
DAV:   7    -0.191746709625E+03    0.65539E-03   -0.18266E-03 11520   0.219E-01    0.854E-02
DAV:   8    -0.191746638902E+03    0.70724E-04   -0.37901E-04  9200   0.136E-01
  94 F= -.19174664E+03 E0= -.19166312E+03  d E =-.201530E-01
       N       E                     dE             d eps       ncg     rms          rms(c)
DAV:   1    -0.191748770828E+03   -0.20612E-02   -0.16626E-01  8160   0.880E-01    0.119E-01
DAV:   2    -0.191749650467E+03   -0.87964E-03   -0.74339E-03 12560   0.346E-01    0.222E-01
DAV:   3    -0.191749207421E+03    0.44305E-03   -0.14977E-03 11960   0.334E-01    0.114E-01
DAV:   4    -0.191749104106E+03    0.10331E-03   -0.29221E-04  8400   0.137E-01    0.657E-02
DAV:   5    -0.191749096096E+03    0.80099E-05   -0.16793E-04  7800   0.123E-01
  95 F= -.19174910E+03 E0= -.19166552E+03  d E =-.245719E-02
       N       E                     dE             d eps       ncg     rms          rms(c)
DAV:   1    -0.191751508809E+03   -0.24047E-02   -0.17787E-01  8160   0.918E-01    0.133E-01
DAV:   2    -0.191752230992E+03   -0.72218E-03   -0.67543E-03 11640   0.374E-01    0.237E-01
DAV:   3    -0.191751680532E+03    0.55046E-03   -0.15898E-03 11760   0.333E-01    0.111E-01
DAV:   4    -0.191751642337E+03    0.38195E-04   -0.41504E-04  8440   0.170E-01
  96 F= -.19175164E+03 E0= -.19166879E+03  d E =-.254624E-02
       N       E                     dE             d eps       ncg     rms          rms(c)
DAV:   1    -0.191752065189E+03   -0.38466E-03   -0.30218E-02  8160   0.406E-01    0.696E-02
DAV:   2    -0.191752362039E+03   -0.29685E-03   -0.14495E-03 12920   0.205E-01    0.154E-01
DAV:   3    -0.191752089656E+03    0.27238E-03   -0.52276E-04  9600   0.208E-01    0.604E-02
DAV:   4    -0.191752090199E+03   -0.54286E-06   -0.11477E-04  6080   0.843E-02
  97 F= -.19175209E+03 E0= -.19166903E+03  d E =-.447862E-03
       N       E                     dE             d eps       ncg     rms          rms(c)
DAV:   1    -0.191754085905E+03   -0.19962E-02   -0.23578E-01  8160   0.104E+00    0.152E-01
DAV:   2    -0.191755243139E+03   -0.11572E-02   -0.97157E-03 11880   0.415E-01    0.280E-01
DAV:   3    -0.191754335814E+03    0.90733E-03   -0.26255E-03 12120   0.398E-01    0.130E-01
DAV:   4    -0.191754279734E+03    0.56080E-04   -0.62975E-04  9000   0.195E-01
  98 F= -.19175428E+03 E0= -.19167168E+03  d E =-.218953E-02
       N       E                     dE             d eps       ncg     rms          rms(c)
DAV:   1    -0.191753451530E+03    0.88428E-03   -0.11616E-01  8160   0.746E-01    0.131E-01
DAV:   2    -0.191756602700E+03   -0.31512E-02   -0.81040E-03 12320   0.637E-01    0.504E-01
DAV:   3    -0.191753601804E+03    0.30009E-02   -0.31733E-03 11280   0.539E-01    0.555E-02
DAV:   4    -0.191753671803E+03   -0.69999E-04   -0.26907E-04  8560   0.126E-01
  99 F= -.19175367E+03 E0= -.19167080E+03  d E =0.607930E-03
       N       E                     dE             d eps       ncg     rms          rms(c)
DAV:   1    -0.191755597726E+03   -0.19959E-02   -0.18334E-01  8160   0.931E-01    0.120E-01
DAV:   2    -0.191756241640E+03   -0.64391E-03   -0.69524E-03 12640   0.315E-01    0.189E-01
DAV:   3    -0.191755989163E+03    0.25248E-03   -0.11986E-03 11160   0.303E-01    0.131E-01
DAV:   4    -0.191755829535E+03    0.15963E-03   -0.39107E-04  8440   0.157E-01    0.664E-02
DAV:   5    -0.191755827038E+03    0.24968E-05   -0.24744E-04  8520   0.129E-01
 100 F= -.19175583E+03 E0= -.19167249E+03  d E =-.215523E-02
