       N       E                     dE             d eps       ncg     rms          rms(c)
DAV:   1     0.112388001980E+04    0.11239E+04   -0.35862E+04  8160   0.577E+02
DAV:   2    -0.350314580762E+01   -0.11274E+04   -0.10853E+04 11160   0.173E+02
DAV:   3    -0.199783999556E+03   -0.19628E+03   -0.18868E+03 10880   0.821E+01
DAV:   4    -0.209028817259E+03   -0.92448E+01   -0.89414E+01 12120   0.262E+01
DAV:   5    -0.209355510657E+03   -0.32669E+00   -0.32574E+00 11640   0.361E+00    0.277E+01
DAV:   6    -0.240941692495E+03   -0.31586E+02   -0.11688E+02 12440   0.599E+01    0.606E+01
DAV:   7    -0.196275213105E+03    0.44666E+02   -0.17783E+02 13400   0.151E+02    0.199E+01
DAV:   8    -0.189532256438E+03    0.67430E+01   -0.18770E+01 12080   0.128E+01    0.126E+01
DAV:   9    -0.188083365599E+03    0.14489E+01   -0.31505E+00 12640   0.622E+00    0.892E+00
DAV:  10    -0.186929170212E+03    0.11542E+01   -0.16063E+00 13440   0.743E+00    0.205E+00
DAV:  11    -0.187077201932E+03   -0.14803E+00   -0.65920E-01 13280   0.397E+00    0.461E+00
DAV:  12    -0.186924135872E+03    0.15307E+00   -0.64506E-01 12760   0.439E+00    0.282E+00
DAV:  13    -0.186854979949E+03    0.69156E-01   -0.18127E-01 13040   0.226E+00    0.146E+00
DAV:  14    -0.186842981547E+03    0.11998E-01   -0.90125E-02 12680   0.168E+00    0.133E+00
DAV:  15    -0.186829669180E+03    0.13312E-01   -0.34989E-02 12960   0.891E-01    0.477E-01
DAV:  16    -0.186827450031E+03    0.22191E-02   -0.74013E-03 12280   0.282E-01    0.277E-01
DAV:  17    -0.186826130500E+03    0.13195E-02   -0.48019E-03 12680   0.290E-01    0.208E-01
DAV:  18    -0.186825630723E+03    0.49978E-03   -0.17066E-03 12680   0.200E-01    0.709E-02
DAV:  19    -0.186826279033E+03   -0.64831E-03   -0.89310E-04 10520   0.985E-02    0.763E-02
DAV:  20    -0.186826745420E+03   -0.46639E-03   -0.28218E-04  7640   0.460E-02    0.683E-02
DAV:  21    -0.186827809220E+03   -0.10638E-02   -0.27431E-04  7520   0.541E-02    0.195E-02
DAV:  22    -0.186828893434E+03   -0.10842E-02   -0.10957E-04  8040   0.245E-02    0.208E-02
DAV:  23    -0.186829366650E+03   -0.47322E-03   -0.32044E-05  6240   0.175E-02    0.107E-02
DAV:  24    -0.186830014162E+03   -0.64751E-03   -0.39250E-05  7160   0.159E-02    0.654E-03
DAV:  25    -0.186830363763E+03   -0.34960E-03   -0.90963E-06  6400   0.101E-02    0.288E-03
DAV:  26    -0.186830607934E+03   -0.24417E-03   -0.75134E-06  6800   0.630E-03    0.185E-03
DAV:  27    -0.186830677312E+03   -0.69379E-04   -0.24915E-06  7600   0.416E-03
   1 F= -.18683068E+03 E0= -.18665776E+03  d E =-.186831E+03
       N       E                     dE             d eps       ncg     rms          rms(c)
DAV:   1    -0.187522417314E+03   -0.69181E+00   -0.27747E+02  8160   0.354E+01    0.466E+00
DAV:   2    -0.189507567162E+03   -0.19851E+01   -0.20315E+01 12240   0.155E+01    0.938E+00
DAV:   3    -0.189349606251E+03    0.15796E+00   -0.40735E+00 12560   0.122E+01    0.651E+00
DAV:   4    -0.188772699765E+03    0.57691E+00   -0.67240E-01 12800   0.449E+00    0.171E+00
DAV:   5    -0.188730602495E+03    0.42097E-01   -0.28297E-01 10400   0.158E+00    0.175E+00
DAV:   6    -0.188779326535E+03   -0.48724E-01   -0.33355E-01 13280   0.300E+00    0.318E+00
DAV:   7    -0.188712164103E+03    0.67162E-01   -0.19535E-01 12800   0.254E+00    0.137E+00
DAV:   8    -0.188688911651E+03    0.23252E-01   -0.43461E-02 11440   0.915E-01    0.460E-01
DAV:   9    -0.188689926413E+03   -0.10148E-02   -0.12170E-02 12560   0.567E-01    0.558E-01
DAV:  10    -0.188687831516E+03    0.20949E-02   -0.62079E-03 13080   0.405E-01    0.177E-01
DAV:  11    -0.188687347745E+03    0.48377E-03   -0.15723E-03 11560   0.123E-01    0.795E-02
DAV:  12    -0.188687432582E+03   -0.84837E-04   -0.52984E-04 10080   0.630E-02
   2 F= -.18868743E+03 E0= -.18854508E+03  d E =-.185676E+01
       N       E                     dE             d eps       ncg     rms          rms(c)
DAV:   1    -0.190627799338E+03   -0.19405E+01   -0.31772E+01  9160   0.143E+01    0.444E+00
DAV:   2    -0.190546535855E+03    0.81263E-01   -0.27599E+00 11640   0.910E+00    0.714E+00
DAV:   3    -0.190123532682E+03    0.42300E+00   -0.15130E+00 12440   0.840E+00    0.432E+00
DAV:   4    -0.189895685403E+03    0.22785E+00   -0.72129E-01 12680   0.437E+00    0.242E+00
DAV:   5    -0.189812310630E+03    0.83375E-01   -0.29913E-01 11880   0.203E+00    0.109E+00
DAV:   6    -0.189800287810E+03    0.12023E-01   -0.62040E-02 11920   0.133E+00    0.918E-01
DAV:   7    -0.189793994087E+03    0.62937E-02   -0.17648E-02 11640   0.732E-01    0.246E-01
DAV:   8    -0.189793666093E+03    0.32799E-03   -0.22349E-03 11560   0.160E-01    0.132E-01
DAV:   9    -0.189794179933E+03   -0.51384E-03   -0.11163E-03 10720   0.126E-01    0.169E-01
DAV:  10    -0.189793999618E+03    0.18031E-03   -0.10890E-03 10720   0.183E-01    0.157E-01
DAV:  11    -0.189793820071E+03    0.17955E-03   -0.42565E-04  8880   0.127E-01    0.331E-02
DAV:  12    -0.189793823488E+03   -0.34170E-05   -0.44073E-05  6000   0.290E-02
   3 F= -.18979382E+03 E0= -.18967216E+03  d E =-.110639E+01
       N       E                     dE             d eps       ncg     rms          rms(c)
DAV:   1    -0.191407857247E+03   -0.16140E+01   -0.83542E+01  8160   0.207E+01    0.459E+00
DAV:   2    -0.191159240592E+03    0.24862E+00   -0.53749E+00 12880   0.677E+00    0.378E+00
DAV:   3    -0.191375261852E+03   -0.21602E+00   -0.14883E+00 12240   0.849E+00    0.670E+00
DAV:   4    -0.190984642122E+03    0.39062E+00   -0.13505E+00 12240   0.812E+00    0.295E+00
DAV:   5    -0.190858670387E+03    0.12597E+00   -0.32007E-01 12200   0.255E+00    0.121E+00
DAV:   6    -0.190859984677E+03   -0.13143E-02   -0.12947E-01 12160   0.214E+00    0.169E+00
DAV:   7    -0.190838541628E+03    0.21443E-01   -0.67545E-02 11720   0.162E+00    0.543E-01
DAV:   8    -0.190834708156E+03    0.38335E-02   -0.79109E-03 11600   0.461E-01    0.268E-01
DAV:   9    -0.190834667376E+03    0.40780E-04   -0.27991E-03 12760   0.330E-01    0.244E-01
DAV:  10    -0.190834462151E+03    0.20522E-03   -0.19720E-03 11080   0.219E-01    0.608E-02
DAV:  11    -0.190834460271E+03    0.18796E-05   -0.20544E-04  7160   0.579E-02
   4 F= -.19083446E+03 E0= -.19072661E+03  d E =-.104064E+01
       N       E                     dE             d eps       ncg     rms          rms(c)
DAV:   1    -0.192264686456E+03   -0.14302E+01   -0.19444E+02  8160   0.309E+01    0.584E+00
DAV:   2    -0.191972822871E+03    0.29186E+00   -0.10052E+01  9960   0.767E+00    0.325E+00
DAV:   3    -0.191847958507E+03    0.12486E+00   -0.15539E+00 10880   0.498E+00    0.361E+00
DAV:   4    -0.191864027279E+03   -0.16069E-01   -0.96238E-01 12160   0.704E+00    0.499E+00
DAV:   5    -0.191612554040E+03    0.25147E+00   -0.73274E-01 12320   0.571E+00    0.183E+00
DAV:   6    -0.191610986966E+03    0.15671E-02   -0.23240E-01 12240   0.296E+00    0.193E+00
DAV:   7    -0.191575508308E+03    0.35479E-01   -0.94000E-02 12280   0.204E+00    0.570E-01
DAV:   8    -0.191571707518E+03    0.38008E-02   -0.17171E-02 11560   0.706E-01    0.473E-01
DAV:   9    -0.191570227142E+03    0.14804E-02   -0.68631E-03 11920   0.504E-01    0.240E-01
DAV:  10    -0.191570066411E+03    0.16073E-03   -0.24615E-03 11600   0.227E-01    0.888E-02
DAV:  11    -0.191570019967E+03    0.46444E-04   -0.40984E-04  9680   0.832E-02
   5 F= -.19157002E+03 E0= -.19146203E+03  d E =-.735560E+00
       N       E                     dE             d eps       ncg     rms          rms(c)
DAV:   1    -0.191645410104E+03   -0.75344E-01   -0.54924E+00  8160   0.500E+00    0.769E-01
DAV:   2    -0.191722876605E+03   -0.77467E-01   -0.36108E-01 12480   0.328E+00    0.261E+00
DAV:   3    -0.191656508253E+03    0.66368E-01   -0.14300E-01 12480   0.253E+00    0.532E-01
DAV:   4    -0.191661200379E+03   -0.46921E-02   -0.29892E-02 10680   0.111E+00    0.910E-01
DAV:   5    -0.191652188680E+03    0.90117E-02   -0.16069E-02 10800   0.862E-01    0.229E-01
DAV:   6    -0.191651766667E+03    0.42201E-03   -0.45750E-03 11280   0.250E-01    0.126E-01
DAV:   7    -0.191651554852E+03    0.21181E-03   -0.13582E-03 10960   0.172E-01    0.131E-01
DAV:   8    -0.191651452218E+03    0.10263E-03   -0.60711E-04  8640   0.145E-01    0.712E-02
DAV:   9    -0.191651418322E+03    0.33896E-04   -0.11791E-04  6000   0.606E-02
   6 F= -.19165142E+03 E0= -.19154196E+03  d E =-.813984E-01
       N       E                     dE             d eps       ncg     rms          rms(c)
DAV:   1    -0.191728926242E+03   -0.77474E-01   -0.65126E+00  8160   0.538E+00    0.641E-01
DAV:   2    -0.191785061114E+03   -0.56135E-01   -0.24340E-01 13160   0.232E+00    0.226E+00
DAV:   3    -0.191737143768E+03    0.47917E-01   -0.11534E-01 12480   0.221E+00    0.533E-01
DAV:   4    -0.191738710820E+03   -0.15671E-02   -0.19265E-02 10480   0.868E-01    0.654E-01
DAV:   5    -0.191733898008E+03    0.48128E-02   -0.85852E-03 11080   0.668E-01    0.173E-01
DAV:   6    -0.191733677261E+03    0.22075E-03   -0.23743E-03 10520   0.190E-01    0.110E-01
DAV:   7    -0.191733564544E+03    0.11272E-03   -0.11681E-03 10960   0.158E-01    0.128E-01
DAV:   8    -0.191733472582E+03    0.91962E-04   -0.66316E-04  8520   0.150E-01
   7 F= -.19173347E+03 E0= -.19162349E+03  d E =-.820543E-01
       N       E                     dE             d eps       ncg     rms          rms(c)
DAV:   1    -0.191813406269E+03   -0.79842E-01   -0.69362E+00  8160   0.562E+00    0.768E-01
DAV:   2    -0.191906071706E+03   -0.92665E-01   -0.36698E-01 12160   0.331E+00    0.306E+00
DAV:   3    -0.191822501731E+03    0.83570E-01   -0.18409E-01 12440   0.276E+00    0.508E-01
DAV:   4    -0.191825004506E+03   -0.25028E-02   -0.22198E-02 10240   0.100E+00    0.730E-01
DAV:   5    -0.191818826542E+03    0.61780E-02   -0.11785E-02 11360   0.797E-01    0.230E-01
DAV:   6    -0.191818934361E+03   -0.10782E-03   -0.52165E-03 11400   0.344E-01    0.300E-01
DAV:   7    -0.191819087900E+03   -0.15354E-03   -0.59624E-03 11400   0.451E-01    0.346E-01
DAV:   8    -0.191817924777E+03    0.11631E-02   -0.22153E-03 10120   0.259E-01    0.300E-02
DAV:   9    -0.191817950851E+03   -0.26074E-04   -0.11784E-04  6280   0.338E-02
   8 F= -.19181795E+03 E0= -.19170894E+03  d E =-.844783E-01
       N       E                     dE             d eps       ncg     rms          rms(c)
DAV:   1    -0.191921556662E+03   -0.10363E+00   -0.26197E+01  8160   0.109E+01    0.130E+00
DAV:   2    -0.192151987136E+03   -0.23043E+00   -0.11070E+00 11200   0.511E+00    0.466E+00
DAV:   3    -0.191966861233E+03    0.18513E+00   -0.47537E-01 12360   0.446E+00    0.883E-01
DAV:   4    -0.191957843945E+03    0.90173E-02   -0.33143E-02 12240   0.944E-01    0.617E-01
DAV:   5    -0.191956930691E+03    0.91325E-03   -0.22439E-02 11480   0.114E+00    0.699E-01
DAV:   6    -0.191954240468E+03    0.26902E-02   -0.21607E-02 12600   0.942E-01    0.544E-01
DAV:   7    -0.191955107480E+03   -0.86701E-03   -0.18609E-02 11800   0.818E-01    0.664E-01
DAV:   8    -0.191950899286E+03    0.42082E-02   -0.76511E-03 11840   0.523E-01    0.591E-02
DAV:   9    -0.191950929480E+03   -0.30195E-04   -0.48604E-04 10160   0.678E-02
   9 F= -.19195093E+03 E0= -.19184715E+03  d E =-.132979E+00
       N       E                     dE             d eps       ncg     rms          rms(c)
DAV:   1    -0.191964337572E+03   -0.13438E-01   -0.53844E-01  8160   0.167E+00    0.330E-01
DAV:   2    -0.191964056946E+03    0.28063E-03   -0.27318E-02 10520   0.654E-01    0.400E-01
DAV:   3    -0.191963755317E+03    0.30163E-03   -0.93392E-03 11520   0.711E-01    0.384E-01
DAV:   4    -0.191962375713E+03    0.13796E-02   -0.55108E-03 11560   0.480E-01    0.283E-01
DAV:   5    -0.191962365232E+03    0.10481E-04   -0.38357E-03 11360   0.433E-01    0.294E-01
DAV:   6    -0.191961413810E+03    0.95142E-03   -0.19738E-03 11160   0.295E-01    0.744E-02
DAV:   7    -0.191961518483E+03   -0.10467E-03   -0.62089E-04  8720   0.147E-01    0.131E-01
DAV:   8    -0.191961363946E+03    0.15454E-03   -0.28575E-04  7400   0.106E-01    0.189E-02
DAV:   9    -0.191961368536E+03   -0.45901E-05   -0.23001E-05  6600   0.198E-02
  10 F= -.19196137E+03 E0= -.19185766E+03  d E =-.104391E-01
       N       E                     dE             d eps       ncg     rms          rms(c)
DAV:   1    -0.191990061496E+03   -0.28698E-01   -0.18441E+00  8160   0.287E+00    0.323E-01
DAV:   2    -0.191998830875E+03   -0.87694E-02   -0.65228E-02 10680   0.997E-01    0.766E-01
DAV:   3    -0.191994000985E+03    0.48299E-02   -0.17432E-02 12600   0.918E-01    0.344E-01
DAV:   4    -0.191992989433E+03    0.10116E-02   -0.30610E-03 11400   0.322E-01    0.169E-01
DAV:   5    -0.191992916222E+03    0.73212E-04   -0.17221E-03 11400   0.307E-01    0.180E-01
DAV:   6    -0.191992694773E+03    0.22145E-03   -0.11631E-03 10720   0.233E-01    0.114E-01
DAV:   7    -0.191992862524E+03   -0.16775E-03   -0.11586E-03 10000   0.207E-01    0.193E-01
DAV:   8    -0.191992526261E+03    0.33626E-03   -0.59146E-04  8400   0.150E-01    0.191E-02
DAV:   9    -0.191992540530E+03   -0.14269E-04   -0.37241E-05  5840   0.222E-02
  11 F= -.19199254E+03 E0= -.19189095E+03  d E =-.311720E-01
       N       E                     dE             d eps       ncg     rms          rms(c)
DAV:   1    -0.192013018371E+03   -0.20492E-01   -0.78181E-01  8160   0.190E+00    0.230E-01
DAV:   2    -0.192015485990E+03   -0.24676E-02   -0.27410E-02 11600   0.573E-01    0.401E-01
DAV:   3    -0.192014679405E+03    0.80658E-03   -0.65333E-03 12680   0.559E-01    0.289E-01
DAV:   4    -0.192013819288E+03    0.86012E-03   -0.18257E-03 11200   0.262E-01    0.105E-01
DAV:   5    -0.192014033962E+03   -0.21467E-03   -0.12039E-03 10440   0.215E-01    0.211E-01
DAV:   6    -0.192013734629E+03    0.29933E-03   -0.12008E-03  9240   0.210E-01    0.947E-02
DAV:   7    -0.192013705210E+03    0.29419E-04   -0.32002E-04  8600   0.126E-01
  12 F= -.19201371E+03 E0= -.19191368E+03  d E =-.211647E-01
       N       E                     dE             d eps       ncg     rms          rms(c)
DAV:   1    -0.192023766915E+03   -0.10032E-01   -0.17953E-01  8160   0.916E-01    0.105E-01
DAV:   2    -0.192024129226E+03   -0.36231E-03   -0.55482E-03 11960   0.210E-01    0.117E-01
DAV:   3    -0.192024291495E+03   -0.16227E-03   -0.11662E-03 11120   0.243E-01    0.182E-01
DAV:   4    -0.192023976338E+03    0.31516E-03   -0.56533E-04  8640   0.166E-01    0.524E-02
DAV:   5    -0.192024010527E+03   -0.34189E-04   -0.21070E-04  6920   0.940E-02
  13 F= -.19202401E+03 E0= -.19192472E+03  d E =-.103053E-01
       N       E                     dE             d eps       ncg     rms          rms(c)
DAV:   1    -0.192013907569E+03    0.10069E-01   -0.29274E-01  8160   0.120E+00    0.200E-01
DAV:   2    -0.192017049940E+03   -0.31424E-02   -0.15537E-02 12680   0.597E-01    0.643E-01
DAV:   3    -0.192013836347E+03    0.32136E-02   -0.93131E-03 11040   0.585E-01    0.199E-01
DAV:   4    -0.192013490104E+03    0.34624E-03   -0.13361E-03  9680   0.171E-01    0.914E-02
DAV:   5    -0.192013556217E+03   -0.66113E-04   -0.83724E-04 10080   0.181E-01
  14 F= -.19201356E+03 E0= -.19191282E+03  d E =0.104543E-01
       N       E                     dE             d eps       ncg     rms          rms(c)
DAV:   1    -0.192060618672E+03   -0.47129E-01   -0.35116E+00  8160   0.409E+00    0.530E-01
DAV:   2    -0.192070433603E+03   -0.98149E-02   -0.11594E-01 11880   0.123E+00    0.976E-01
DAV:   3    -0.192066059214E+03    0.43744E-02   -0.37074E-02 11520   0.126E+00    0.682E-01
DAV:   4    -0.192063083749E+03    0.29755E-02   -0.14855E-02 12240   0.740E-01    0.503E-01
DAV:   5    -0.192061884724E+03    0.11990E-02   -0.10019E-02 10040   0.662E-01    0.424E-01
DAV:   6    -0.192060415753E+03    0.14690E-02   -0.52731E-03 11400   0.439E-01    0.186E-01
DAV:   7    -0.192060438582E+03   -0.22828E-04   -0.20320E-03 10280   0.348E-01    0.182E-01
DAV:   8    -0.192059983966E+03    0.45462E-03   -0.59281E-04  9840   0.195E-01    0.297E-02
DAV:   9    -0.192059973460E+03    0.10505E-04   -0.66926E-05  6240   0.327E-02
  15 F= -.19205997E+03 E0= -.19196329E+03  d E =-.464172E-01
       N       E                     dE             d eps       ncg     rms          rms(c)
DAV:   1    -0.192075507821E+03   -0.15524E-01   -0.36709E-01  8160   0.131E+00    0.146E-01
DAV:   2    -0.192076152997E+03   -0.64518E-03   -0.11095E-02 11400   0.284E-01    0.141E-01
DAV:   3    -0.192076757604E+03   -0.60461E-03   -0.26727E-03 11480   0.321E-01    0.311E-01
DAV:   4    -0.192075913382E+03    0.84422E-03   -0.17278E-03  9760   0.256E-01    0.705E-02
DAV:   5    -0.192075919067E+03   -0.56846E-05   -0.28365E-04  7560   0.949E-02
  16 F= -.19207592E+03 E0= -.19198066E+03  d E =-.159456E-01
       N       E                     dE             d eps       ncg     rms          rms(c)
DAV:   1    -0.191990953521E+03    0.84960E-01   -0.99206E+00  8160   0.680E+00    0.760E-01
DAV:   2    -0.192010270311E+03   -0.19317E-01   -0.29974E-01 12240   0.161E+00    0.885E-01
DAV:   3    -0.192020915256E+03   -0.10645E-01   -0.75433E-02 12320   0.171E+00    0.153E+00
DAV:   4    -0.192004173060E+03    0.16742E-01   -0.48929E-02 12120   0.132E+00    0.602E-01
DAV:   5    -0.192001625764E+03    0.25473E-02   -0.13815E-02 10360   0.869E-01    0.421E-01
DAV:   6    -0.192000190977E+03    0.14348E-02   -0.67957E-03 13400   0.546E-01    0.207E-01
DAV:   7    -0.191999339416E+03    0.85156E-03   -0.18170E-03 10800   0.194E-01    0.508E-02
DAV:   8    -0.191999360569E+03   -0.21153E-04   -0.28286E-04  8800   0.902E-02
  17 F= -.19199936E+03 E0= -.19189830E+03  d E =0.765585E-01
       N       E                     dE             d eps       ncg     rms          rms(c)
DAV:   1    -0.191986285196E+03    0.13054E-01   -0.73839E-01  8160   0.186E+00    0.208E-01
DAV:   2    -0.191987054276E+03   -0.76908E-03   -0.17573E-02 12360   0.356E-01    0.168E-01
DAV:   3    -0.191988049675E+03   -0.99540E-03   -0.42655E-03 12480   0.400E-01    0.400E-01
DAV:   4    -0.191986845675E+03    0.12040E-02   -0.36177E-03 10440   0.364E-01    0.161E-01
DAV:   5    -0.191986761633E+03    0.84042E-04   -0.10763E-03  9880   0.215E-01    0.134E-01
DAV:   6    -0.191986612884E+03    0.14875E-03   -0.61182E-04  9360   0.187E-01    0.629E-02
DAV:   7    -0.191986565316E+03    0.47567E-04   -0.13539E-04  6080   0.757E-02
  18 F= -.19198657E+03 E0= -.19188383E+03  d E =0.127953E-01
       N       E                     dE             d eps       ncg     rms          rms(c)
DAV:   1    -0.191980599345E+03    0.60135E-02   -0.23625E+00  8160   0.329E+00    0.353E-01
DAV:   2    -0.191985925804E+03   -0.53265E-02   -0.69987E-02 12160   0.845E-01    0.418E-01
DAV:   3    -0.191986341688E+03   -0.41588E-03   -0.13888E-02 12400   0.818E-01    0.528E-01
DAV:   4    -0.191984271198E+03    0.20705E-02   -0.68749E-03 11480   0.559E-01    0.285E-01
DAV:   5    -0.191983997416E+03    0.27378E-03   -0.38352E-03 10160   0.396E-01    0.275E-01
DAV:   6    -0.191983627488E+03    0.36993E-03   -0.27048E-03 11160   0.313E-01    0.196E-01
DAV:   7    -0.191983734182E+03   -0.10669E-03   -0.20162E-03  9840   0.285E-01    0.211E-01
DAV:   8    -0.191983249634E+03    0.48455E-03   -0.77726E-04  8760   0.177E-01    0.175E-02
DAV:   9    -0.191983261413E+03   -0.11780E-04   -0.51366E-05  6080   0.241E-02
  19 F= -.19198326E+03 E0= -.19187915E+03  d E =0.330390E-02
       N       E                     dE             d eps       ncg     rms          rms(c)
DAV:   1    -0.192000802397E+03   -0.17553E-01   -0.13096E+00  8160   0.251E+00    0.359E-01
DAV:   2    -0.192006283954E+03   -0.54816E-02   -0.51670E-02 13160   0.966E-01    0.748E-01
DAV:   3    -0.192001943725E+03    0.43402E-02   -0.16028E-02 11840   0.882E-01    0.360E-01
DAV:   4    -0.192001442559E+03    0.50117E-03   -0.53687E-03 11800   0.496E-01    0.336E-01
DAV:   5    -0.192000643612E+03    0.79895E-03   -0.41780E-03 11440   0.471E-01    0.246E-01
DAV:   6    -0.192000683562E+03   -0.39950E-04   -0.32555E-03 10760   0.329E-01    0.283E-01
DAV:   7    -0.192000057266E+03    0.62630E-03   -0.18276E-03  9880   0.277E-01    0.853E-02
DAV:   8    -0.191999966650E+03    0.90616E-04   -0.17438E-04  6080   0.749E-02
  20 F= -.19199997E+03 E0= -.19189690E+03  d E =-.167052E-01
       N       E                     dE             d eps       ncg     rms          rms(c)
DAV:   1    -0.192007989367E+03   -0.79321E-02   -0.30931E-01  8160   0.118E+00    0.138E-01
DAV:   2    -0.192009233813E+03   -0.12444E-02   -0.12303E-02 10800   0.404E-01    0.238E-01
DAV:   3    -0.192008905482E+03    0.32833E-03   -0.25506E-03 12440   0.367E-01    0.182E-01
DAV:   4    -0.192008722203E+03    0.18328E-03   -0.93753E-04  9040   0.198E-01    0.131E-01
DAV:   5    -0.192008611019E+03    0.11118E-03   -0.58779E-04  8400   0.161E-01    0.915E-02
DAV:   6    -0.192008636895E+03   -0.25876E-04   -0.39366E-04  8520   0.120E-01
  21 F= -.19200864E+03 E0= -.19190653E+03  d E =-.867025E-02
       N       E                     dE             d eps       ncg     rms          rms(c)
DAV:   1    -0.192022594283E+03   -0.13983E-01   -0.72021E-01  8160   0.183E+00    0.206E-01
DAV:   2    -0.192024093330E+03   -0.14990E-02   -0.20117E-02 12120   0.426E-01    0.301E-01
DAV:   3    -0.192024314092E+03   -0.22076E-03   -0.58813E-03 12640   0.482E-01    0.357E-01
DAV:   4    -0.192023501656E+03    0.81244E-03   -0.28200E-03  9920   0.315E-01    0.189E-01
DAV:   5    -0.192023272562E+03    0.22909E-03   -0.11969E-03  9760   0.255E-01    0.133E-01
DAV:   6    -0.192023235010E+03    0.37552E-04   -0.73409E-04  9320   0.175E-01
  22 F= -.19202324E+03 E0= -.19192245E+03  d E =-.145981E-01
       N       E                     dE             d eps       ncg     rms          rms(c)
DAV:   1    -0.191999790116E+03    0.23482E-01   -0.19527E+00  8160   0.301E+00    0.353E-01
DAV:   2    -0.192005841456E+03   -0.60513E-02   -0.57248E-02 12920   0.906E-01    0.672E-01
DAV:   3    -0.192002623010E+03    0.32184E-02   -0.16374E-02 11280   0.836E-01    0.442E-01
DAV:   4    -0.192002691772E+03   -0.68762E-04   -0.88005E-03 11720   0.567E-01    0.462E-01
DAV:   5    -0.192001022981E+03    0.16688E-02   -0.54476E-03 10800   0.483E-01    0.223E-01
DAV:   6    -0.192000984138E+03    0.38843E-04   -0.24493E-03 10400   0.323E-01    0.229E-01
DAV:   7    -0.192000611907E+03    0.37223E-03   -0.14579E-03 10440   0.279E-01    0.101E-01
DAV:   8    -0.192000458742E+03    0.15317E-03   -0.26623E-04  7640   0.944E-02    0.172E-02
DAV:   9    -0.192000461762E+03   -0.30199E-05   -0.42288E-05  7560   0.226E-02
  23 F= -.19200046E+03 E0= -.19189757E+03  d E =0.227732E-01
       N       E                     dE             d eps       ncg     rms          rms(c)
DAV:   1    -0.192022410633E+03   -0.21952E-01   -0.17494E+00  8160   0.289E+00    0.401E-01
DAV:   2    -0.192028996461E+03   -0.65858E-02   -0.64429E-02 12320   0.104E+00    0.842E-01
DAV:   3    -0.192024267838E+03    0.47286E-02   -0.21528E-02 12080   0.972E-01    0.448E-01
DAV:   4    -0.192024318951E+03   -0.51114E-04   -0.97440E-03 12160   0.619E-01    0.517E-01
DAV:   5    -0.192022312297E+03    0.20067E-02   -0.74213E-03 10280   0.554E-01    0.281E-01
DAV:   6    -0.192022183524E+03    0.12877E-03   -0.33677E-03 11240   0.382E-01    0.255E-01
DAV:   7    -0.192021575712E+03    0.60781E-03   -0.16556E-03 10440   0.305E-01    0.780E-02
DAV:   8    -0.192021467582E+03    0.10813E-03   -0.16537E-04  6360   0.762E-02    0.186E-02
DAV:   9    -0.192021464253E+03    0.33290E-05   -0.51680E-05  8040   0.254E-02
  24 F= -.19202146E+03 E0= -.19191962E+03  d E =-.210025E-01
       N       E                     dE             d eps       ncg     rms          rms(c)
DAV:   1    -0.192025864724E+03   -0.43971E-02   -0.69654E-02  8160   0.569E-01    0.801E-02
DAV:   2    -0.192026186067E+03   -0.32134E-03   -0.29686E-03 10680   0.246E-01    0.162E-01
DAV:   3    -0.192025977955E+03    0.20811E-03   -0.84194E-04  9600   0.203E-01    0.930E-02
DAV:   4    -0.192026003453E+03   -0.25498E-04   -0.46226E-04  7960   0.134E-01
  25 F= -.19202600E+03 E0= -.19192446E+03  d E =-.453920E-02
       N       E                     dE             d eps       ncg     rms          rms(c)
DAV:   1    -0.192043357820E+03   -0.17380E-01   -0.91178E-01  8160   0.205E+00    0.241E-01
DAV:   2    -0.192044964093E+03   -0.16063E-02   -0.23736E-02 12120   0.472E-01    0.354E-01
DAV:   3    -0.192045344268E+03   -0.38018E-03   -0.80436E-03 12280   0.549E-01    0.423E-01
DAV:   4    -0.192043920636E+03    0.14236E-02   -0.33381E-03 10760   0.336E-01    0.158E-01
DAV:   5    -0.192044030160E+03   -0.10952E-03   -0.14600E-03  9960   0.279E-01    0.205E-01
DAV:   6    -0.192043691005E+03    0.33915E-03   -0.10669E-03  9800   0.215E-01    0.734E-02
DAV:   7    -0.192043669883E+03    0.21121E-04   -0.28806E-04  8600   0.111E-01
  26 F= -.19204367E+03 E0= -.19194348E+03  d E =-.176664E-01
       N       E                     dE             d eps       ncg     rms          rms(c)
DAV:   1    -0.192035414811E+03    0.82762E-02   -0.17672E-01  8160   0.921E-01    0.114E-01
DAV:   2    -0.192036088422E+03   -0.67361E-03   -0.56257E-03 12840   0.293E-01    0.272E-01
DAV:   3    -0.192035573294E+03    0.51513E-03   -0.20692E-03 10000   0.275E-01    0.127E-01
DAV:   4    -0.192035484498E+03    0.88796E-04   -0.49789E-04  8280   0.136E-01
  27 F= -.19203548E+03 E0= -.19193486E+03  d E =0.818539E-02
       N       E                     dE             d eps       ncg     rms          rms(c)
DAV:   1    -0.192012504562E+03    0.23069E-01   -0.20761E+00  8160   0.309E+00    0.364E-01
DAV:   2    -0.192017734978E+03   -0.52304E-02   -0.57733E-02 13280   0.876E-01    0.630E-01
DAV:   3    -0.192016151906E+03    0.15831E-02   -0.17259E-02 11320   0.860E-01    0.499E-01
DAV:   4    -0.192014975426E+03    0.11765E-02   -0.77800E-03 12320   0.539E-01    0.391E-01
DAV:   5    -0.192014080352E+03    0.89507E-03   -0.53340E-03 10240   0.466E-01    0.281E-01
DAV:   6    -0.192013808782E+03    0.27157E-03   -0.28289E-03 10840   0.326E-01    0.218E-01
DAV:   7    -0.192013515327E+03    0.29345E-03   -0.16205E-03 10080   0.306E-01    0.123E-01
DAV:   8    -0.192013282889E+03    0.23244E-03   -0.37843E-04  8960   0.128E-01    0.190E-02
DAV:   9    -0.192013281351E+03    0.15382E-05   -0.43984E-05  7440   0.235E-02
  28 F= -.19201328E+03 E0= -.19191085E+03  d E =0.222031E-01
       N       E                     dE             d eps       ncg     rms          rms(c)
DAV:   1    -0.192018999586E+03   -0.57167E-02   -0.27161E-01  8160   0.111E+00    0.130E-01
DAV:   2    -0.192020026920E+03   -0.10273E-02   -0.11347E-02 10800   0.365E-01    0.202E-01
DAV:   3    -0.192019952635E+03    0.74285E-04   -0.22089E-03 12440   0.339E-01    0.197E-01
DAV:   4    -0.192019606183E+03    0.34645E-03   -0.71443E-04  8160   0.184E-01    0.831E-02
DAV:   5    -0.192019619431E+03   -0.13248E-04   -0.39314E-04  8000   0.135E-01
  29 F= -.19201962E+03 E0= -.19191782E+03  d E =-.633808E-02
       N       E                     dE             d eps       ncg     rms          rms(c)
DAV:   1    -0.192027879874E+03   -0.82737E-02   -0.28753E-01  8160   0.117E+00    0.171E-01
DAV:   2    -0.192030459182E+03   -0.25793E-02   -0.11597E-02 12760   0.577E-01    0.517E-01
DAV:   3    -0.192028086657E+03    0.23725E-02   -0.59770E-03 10320   0.509E-01    0.183E-01
DAV:   4    -0.192028242867E+03   -0.15621E-03   -0.17661E-03  9800   0.278E-01    0.211E-01
DAV:   5    -0.192027851000E+03    0.39187E-03   -0.10565E-03  9440   0.207E-01    0.103E-01
DAV:   6    -0.192027839471E+03    0.11529E-04   -0.48054E-04  8280   0.158E-01
  30 F= -.19202784E+03 E0= -.19192669E+03  d E =-.822004E-02
       N       E                     dE             d eps       ncg     rms          rms(c)
DAV:   1    -0.191992657251E+03    0.35194E-01   -0.90927E+00  8160   0.651E+00    0.746E-01
DAV:   2    -0.192002797593E+03   -0.10140E-01   -0.22427E-01 12520   0.132E+00    0.757E-01
DAV:   3    -0.192017830906E+03   -0.15033E-01   -0.74085E-02 11640   0.161E+00    0.168E+00
DAV:   4    -0.191997484985E+03    0.20346E-01   -0.56492E-02 11480   0.135E+00    0.467E-01
DAV:   5    -0.191997183322E+03    0.30166E-03   -0.12888E-02 10880   0.657E-01    0.548E-01
DAV:   6    -0.191995360907E+03    0.18224E-02   -0.96185E-03 11800   0.680E-01    0.323E-01
DAV:   7    -0.191994232756E+03    0.11282E-02   -0.24879E-03 11680   0.295E-01    0.739E-02
DAV:   8    -0.191994211303E+03    0.21453E-04   -0.41202E-04  9560   0.135E-01
  31 F= -.19199421E+03 E0= -.19189101E+03  d E =0.336282E-01
       N       E                     dE             d eps       ncg     rms          rms(c)
DAV:   1    -0.192000269760E+03   -0.60370E-02   -0.32002E-01  8160   0.125E+00    0.179E-01
DAV:   2    -0.192001824583E+03   -0.15548E-02   -0.12361E-02 12960   0.482E-01    0.421E-01
DAV:   3    -0.192000425191E+03    0.13994E-02   -0.44866E-03 11320   0.455E-01    0.176E-01
DAV:   4    -0.192000512537E+03   -0.87346E-04   -0.18887E-03  9960   0.245E-01    0.236E-01
DAV:   5    -0.192000103224E+03    0.40931E-03   -0.15392E-03  9560   0.237E-01    0.112E-01
DAV:   6    -0.192000006462E+03    0.96763E-04   -0.44058E-04  7880   0.116E-01
  32 F= -.19200001E+03 E0= -.19189680E+03  d E =-.579516E-02
       N       E                     dE             d eps       ncg     rms          rms(c)
DAV:   1    -0.191999247157E+03    0.85607E-03   -0.27724E+00  8160   0.355E+00    0.366E-01
DAV:   2    -0.192005365080E+03   -0.61179E-02   -0.72058E-02 12840   0.947E-01    0.529E-01
DAV:   3    -0.192005270411E+03    0.94669E-04   -0.16660E-02 12080   0.896E-01    0.564E-01
DAV:   4    -0.192003159166E+03    0.21112E-02   -0.80985E-03 11080   0.555E-01    0.347E-01
DAV:   5    -0.192002547410E+03    0.61176E-03   -0.47136E-03 10960   0.453E-01    0.274E-01
DAV:   6    -0.192002265522E+03    0.28189E-03   -0.26386E-03 10320   0.310E-01    0.199E-01
DAV:   7    -0.192002148093E+03    0.11743E-03   -0.15707E-03  9960   0.286E-01    0.152E-01
DAV:   8    -0.192001837170E+03    0.31092E-03   -0.47516E-04  8880   0.145E-01    0.194E-02
DAV:   9    -0.192001841525E+03   -0.43549E-05   -0.51134E-05  6560   0.255E-02
  33 F= -.19200184E+03 E0= -.19189939E+03  d E =-.183506E-02
       N       E                     dE             d eps       ncg     rms          rms(c)
DAV:   1    -0.192007873490E+03   -0.60363E-02   -0.44724E+00  8160   0.460E+00    0.586E-01
DAV:   2    -0.192021394687E+03   -0.13521E-01   -0.14330E-01 13040   0.156E+00    0.111E+00
DAV:   3    -0.192013573491E+03    0.78212E-02   -0.42211E-02 12040   0.140E+00    0.671E-01
DAV:   4    -0.192013262272E+03    0.31122E-03   -0.20894E-02 12160   0.918E-01    0.742E-01
DAV:   5    -0.192009339525E+03    0.39227E-02   -0.16841E-02 12160   0.819E-01    0.437E-01
DAV:   6    -0.192009322765E+03    0.16760E-04   -0.89036E-03 11440   0.585E-01    0.435E-01
DAV:   7    -0.192007722082E+03    0.16007E-02   -0.46804E-03 11600   0.492E-01    0.143E-01
DAV:   8    -0.192007390842E+03    0.33124E-03   -0.67231E-04 10280   0.136E-01    0.372E-02
DAV:   9    -0.192007366086E+03    0.24757E-04   -0.89142E-05  7560   0.330E-02
  34 F= -.19200737E+03 E0= -.19190388E+03  d E =-.552456E-02
       N       E                     dE             d eps       ncg     rms          rms(c)
DAV:   1    -0.192009028004E+03   -0.16372E-02   -0.86084E-01  8160   0.197E+00    0.223E-01
DAV:   2    -0.192011952292E+03   -0.29243E-02   -0.28044E-02 12160   0.728E-01    0.401E-01
DAV:   3    -0.192010574111E+03    0.13782E-02   -0.56938E-03 12200   0.573E-01    0.233E-01
DAV:   4    -0.192010578399E+03   -0.42884E-05   -0.26390E-03 10160   0.325E-01    0.277E-01
DAV:   5    -0.192010054450E+03    0.52395E-03   -0.22119E-03  9680   0.289E-01    0.145E-01
DAV:   6    -0.192010130561E+03   -0.76110E-04   -0.10564E-03 10120   0.196E-01    0.166E-01
DAV:   7    -0.192009915921E+03    0.21464E-03   -0.65710E-04  8320   0.179E-01    0.674E-02
DAV:   8    -0.192009866128E+03    0.49793E-04   -0.11232E-04  5680   0.604E-02
  35 F= -.19200987E+03 E0= -.19190684E+03  d E =-.250004E-02
       N       E                     dE             d eps       ncg     rms          rms(c)
DAV:   1    -0.192015687122E+03   -0.57712E-02   -0.34213E-01  8160   0.126E+00    0.147E-01
DAV:   2    -0.192016322346E+03   -0.63522E-03   -0.88455E-03 12680   0.316E-01    0.221E-01
DAV:   3    -0.192016180529E+03    0.14182E-03   -0.22983E-03 11040   0.332E-01    0.198E-01
DAV:   4    -0.192015901781E+03    0.27875E-03   -0.10297E-03  9080   0.204E-01    0.124E-01
DAV:   5    -0.192015864329E+03    0.37452E-04   -0.73565E-04  8200   0.178E-01
  36 F= -.19201586E+03 E0= -.19191277E+03  d E =-.599820E-02
       N       E                     dE             d eps       ncg     rms          rms(c)
DAV:   1    -0.192003097367E+03    0.12804E-01   -0.26431E+00  8160   0.350E+00    0.417E-01
DAV:   2    -0.192015501752E+03   -0.12404E-01   -0.82392E-02 13480   0.123E+00    0.111E+00
DAV:   3    -0.192006381255E+03    0.91205E-02   -0.36077E-02 12360   0.113E+00    0.486E-01
DAV:   4    -0.192006176711E+03    0.20454E-03   -0.98359E-03 10920   0.636E-01    0.441E-01
DAV:   5    -0.192004106011E+03    0.20707E-02   -0.49575E-03 11240   0.544E-01    0.172E-01
DAV:   6    -0.192003831140E+03    0.27487E-03   -0.15331E-03 10920   0.209E-01    0.103E-01
DAV:   7    -0.192003981904E+03   -0.15076E-03   -0.96883E-04 10800   0.217E-01    0.181E-01
DAV:   8    -0.192003645246E+03    0.33666E-03   -0.47591E-04  8680   0.161E-01    0.212E-02
DAV:   9    -0.192003657156E+03   -0.11910E-04   -0.36990E-05  5920   0.249E-02
  37 F= -.19200366E+03 E0= -.19190066E+03  d E =0.122072E-01
       N       E                     dE             d eps       ncg     rms          rms(c)
DAV:   1    -0.192002914040E+03    0.73121E-03   -0.16213E-01  8160   0.867E-01    0.954E-02
DAV:   2    -0.192003069064E+03   -0.15502E-03   -0.36169E-03 11320   0.159E-01    0.812E-02
DAV:   3    -0.192003294009E+03   -0.22495E-03   -0.98372E-04 11200   0.199E-01    0.185E-01
DAV:   4    -0.192003028197E+03    0.26581E-03   -0.77644E-04  8400   0.168E-01    0.839E-02
DAV:   5    -0.192002998854E+03    0.29343E-04   -0.25486E-04  7400   0.110E-01
  38 F= -.19200300E+03 E0= -.19190031E+03  d E =0.658302E-03
       N       E                     dE             d eps       ncg     rms          rms(c)
DAV:   1    -0.192006884076E+03   -0.38559E-02   -0.44212E-01  8160   0.141E+00    0.147E-01
DAV:   2    -0.192007876036E+03   -0.99196E-03   -0.11494E-02 12840   0.331E-01    0.243E-01
DAV:   3    -0.192007879462E+03   -0.34255E-05   -0.35845E-03 11160   0.356E-01    0.260E-01
DAV:   4    -0.192007368401E+03    0.51106E-03   -0.13365E-03  8840   0.208E-01    0.932E-02
DAV:   5    -0.192007348003E+03    0.20397E-04   -0.44636E-04  8520   0.157E-01
  39 F= -.19200735E+03 E0= -.19190470E+03  d E =-.434915E-02
       N       E                     dE             d eps       ncg     rms          rms(c)
DAV:   1    -0.192001766453E+03    0.56019E-02   -0.96324E-01  8160   0.208E+00    0.208E-01
DAV:   2    -0.192003583815E+03   -0.18174E-02   -0.23119E-02 12640   0.448E-01    0.262E-01
DAV:   3    -0.192003854982E+03   -0.27117E-03   -0.54613E-03 11560   0.478E-01    0.352E-01
DAV:   4    -0.192002892658E+03    0.96232E-03   -0.26760E-03  9840   0.328E-01    0.158E-01
DAV:   5    -0.192002876500E+03    0.16158E-04   -0.13789E-03  9440   0.225E-01    0.185E-01
DAV:   6    -0.192002632748E+03    0.24375E-03   -0.91851E-04  8680   0.180E-01    0.816E-02
DAV:   7    -0.192002696246E+03   -0.63498E-04   -0.42633E-04  8640   0.154E-01
  40 F= -.19200270E+03 E0= -.19189963E+03  d E =0.465176E-02
       N       E                     dE             d eps       ncg     rms          rms(c)
DAV:   1    -0.192005022957E+03   -0.23902E-02   -0.18666E-01  8160   0.939E-01    0.109E-01
DAV:   2    -0.192005451837E+03   -0.42888E-03   -0.55985E-03 12960   0.257E-01    0.165E-01
DAV:   3    -0.192005382063E+03    0.69775E-04   -0.14992E-03 10240   0.250E-01    0.160E-01
DAV:   4    -0.192005309665E+03    0.72398E-04   -0.99807E-04  8320   0.186E-01
  41 F= -.19200531E+03 E0= -.19190231E+03  d E =-.261342E-02
       N       E                     dE             d eps       ncg     rms          rms(c)
DAV:   1    -0.192005210279E+03    0.17178E-03   -0.59427E-04  8200   0.154E-01    0.599E-02
DAV:   2    -0.192005929572E+03   -0.71929E-03   -0.15328E-03 10280   0.275E-01    0.268E-01
DAV:   3    -0.192005193587E+03    0.73599E-03   -0.12349E-03  9840   0.235E-01    0.635E-02
DAV:   4    -0.192005181501E+03    0.12086E-04   -0.13447E-04  5680   0.730E-02
  42 F= -.19200518E+03 E0= -.19190201E+03  d E =0.128163E-03
       N       E                     dE             d eps       ncg     rms          rms(c)
DAV:   1    -0.192005958678E+03   -0.76509E-03   -0.14267E-01  8160   0.800E-01    0.847E-02
DAV:   2    -0.192006367686E+03   -0.40901E-03   -0.33831E-03 13600   0.220E-01    0.175E-01
DAV:   3    -0.192006138947E+03    0.22874E-03   -0.96372E-04  9200   0.224E-01    0.100E-01
DAV:   4    -0.192006071337E+03    0.67610E-04   -0.26616E-04  6640   0.974E-02
  43 F= -.19200607E+03 E0= -.19190308E+03  d E =-.889836E-03
       N       E                     dE             d eps       ncg     rms          rms(c)
DAV:   1    -0.192009906972E+03   -0.37680E-02   -0.26677E-01  8160   0.111E+00    0.151E-01
DAV:   2    -0.192012195884E+03   -0.22889E-02   -0.11078E-02 13240   0.487E-01    0.510E-01
DAV:   3    -0.192010119458E+03    0.20764E-02   -0.58868E-03 10760   0.456E-01    0.155E-01
DAV:   4    -0.192010170883E+03   -0.51426E-04   -0.11010E-03  9320   0.208E-01    0.162E-01
DAV:   5    -0.192009957504E+03    0.21338E-03   -0.73993E-04  8760   0.191E-01    0.953E-02
DAV:   6    -0.192009910404E+03    0.47100E-04   -0.36378E-04  8040   0.128E-01
  44 F= -.19200991E+03 E0= -.19190712E+03  d E =-.383907E-02
       N       E                     dE             d eps       ncg     rms          rms(c)
DAV:   1    -0.192010965451E+03   -0.10079E-02   -0.20038E-02  8160   0.321E-01    0.512E-02
DAV:   2    -0.192011216479E+03   -0.25103E-03   -0.98328E-04 11480   0.185E-01    0.146E-01
DAV:   3    -0.192010966527E+03    0.24995E-03   -0.47879E-04  8800   0.166E-01    0.474E-02
DAV:   4    -0.192010989938E+03   -0.23411E-04   -0.15919E-04  6360   0.767E-02
  45 F= -.19201099E+03 E0= -.19190810E+03  d E =-.107953E-02
       N       E                     dE             d eps       ncg     rms          rms(c)
DAV:   1    -0.192015835838E+03   -0.48693E-02   -0.37501E-01  8160   0.130E+00    0.141E-01
DAV:   2    -0.192016907754E+03   -0.10719E-02   -0.90760E-03 13160   0.363E-01    0.290E-01
DAV:   3    -0.192016357065E+03    0.55069E-03   -0.29232E-03 10960   0.364E-01    0.181E-01
DAV:   4    -0.192016373044E+03   -0.15979E-04   -0.12147E-03  8880   0.215E-01    0.185E-01
DAV:   5    -0.192016083332E+03    0.28971E-03   -0.81264E-04  8200   0.199E-01    0.794E-02
DAV:   6    -0.192016147380E+03   -0.64048E-04   -0.36133E-04  8480   0.130E-01
  46 F= -.19201615E+03 E0= -.19191379E+03  d E =-.515744E-02
       N       E                     dE             d eps       ncg     rms          rms(c)
DAV:   1    -0.192007635569E+03    0.84478E-02   -0.10301E+00  8160   0.214E+00    0.222E-01
DAV:   2    -0.192010887195E+03   -0.32516E-02   -0.24359E-02 12760   0.603E-01    0.488E-01
DAV:   3    -0.192008950555E+03    0.19366E-02   -0.75021E-03 11440   0.585E-01    0.265E-01
DAV:   4    -0.192008740709E+03    0.20985E-03   -0.24590E-03 10320   0.287E-01    0.228E-01
DAV:   5    -0.192008493693E+03    0.24702E-03   -0.19174E-03  9680   0.269E-01    0.173E-01
DAV:   6    -0.192008270725E+03    0.22297E-03   -0.86781E-04  8560   0.175E-01    0.829E-02
DAV:   7    -0.192008310889E+03   -0.40164E-04   -0.43628E-04  8880   0.163E-01
  47 F= -.19200831E+03 E0= -.19190521E+03  d E =0.783649E-02
       N       E                     dE             d eps       ncg     rms          rms(c)
DAV:   1    -0.192006992482E+03    0.12782E-02   -0.75003E-02  8160   0.595E-01    0.887E-02
DAV:   2    -0.192006953348E+03    0.39134E-04   -0.20622E-03 12320   0.145E-01    0.736E-02
DAV:   3    -0.192007029236E+03   -0.75888E-04   -0.55044E-04  9000   0.162E-01
  48 F= -.19200703E+03 E0= -.19190442E+03  d E =0.128165E-02
       N       E                     dE             d eps       ncg     rms          rms(c)
DAV:   1    -0.192010092784E+03   -0.31394E-02   -0.28668E-01  8160   0.114E+00    0.102E-01
DAV:   2    -0.192010635859E+03   -0.54307E-03   -0.75444E-03 13000   0.247E-01    0.102E-01
DAV:   3    -0.192010843873E+03   -0.20801E-03   -0.10415E-03 10960   0.227E-01    0.183E-01
DAV:   4    -0.192010498781E+03    0.34509E-03   -0.51844E-04  8440   0.165E-01    0.489E-02
DAV:   5    -0.192010567234E+03   -0.68453E-04   -0.25081E-04  6840   0.987E-02
  49 F= -.19201057E+03 E0= -.19190741E+03  d E =-.353800E-02
       N       E                     dE             d eps       ncg     rms          rms(c)
DAV:   1    -0.192011356830E+03   -0.85805E-03   -0.12508E-02  8240   0.258E-01    0.611E-02
DAV:   2    -0.192012156681E+03   -0.79985E-03   -0.20218E-03 10600   0.271E-01    0.301E-01
DAV:   3    -0.192011344312E+03    0.81237E-03   -0.16283E-03  9560   0.250E-01    0.590E-02
DAV:   4    -0.192011350016E+03   -0.57039E-05   -0.11847E-04  5880   0.719E-02
  50 F= -.19201135E+03 E0= -.19190840E+03  d E =-.782782E-03
       N       E                     dE             d eps       ncg     rms          rms(c)
DAV:   1    -0.192015787868E+03   -0.44436E-02   -0.34504E-01  8160   0.125E+00    0.133E-01
DAV:   2    -0.192016283199E+03   -0.49533E-03   -0.75636E-03 12560   0.270E-01    0.164E-01
DAV:   3    -0.192016547744E+03   -0.26454E-03   -0.24666E-03 11720   0.303E-01    0.257E-01
DAV:   4    -0.192016071327E+03    0.47642E-03   -0.13317E-03  9120   0.215E-01    0.103E-01
DAV:   5    -0.192016049678E+03    0.21648E-04   -0.48541E-04  8200   0.157E-01
  51 F= -.19201605E+03 E0= -.19191277E+03  d E =-.469966E-02
       N       E                     dE             d eps       ncg     rms          rms(c)
DAV:   1    -0.192008079912E+03    0.79914E-02   -0.94343E-01  8160   0.206E+00    0.208E-01
DAV:   2    -0.192010656900E+03   -0.25770E-02   -0.22764E-02 12800   0.533E-01    0.425E-01
DAV:   3    -0.192009709446E+03    0.94745E-03   -0.78376E-03 11800   0.549E-01    0.318E-01
DAV:   4    -0.192009146225E+03    0.56322E-03   -0.27789E-03  9600   0.300E-01    0.193E-01
DAV:   5    -0.192009008649E+03    0.13758E-03   -0.15290E-03  9520   0.274E-01    0.172E-01
DAV:   6    -0.192008735353E+03    0.27330E-03   -0.67880E-04  8560   0.166E-01    0.675E-02
DAV:   7    -0.192008815246E+03   -0.79893E-04   -0.37633E-04  8680   0.148E-01
  52 F= -.19200882E+03 E0= -.19190547E+03  d E =0.723443E-02
       N       E                     dE             d eps       ncg     rms          rms(c)
DAV:   1    -0.192006843364E+03    0.18920E-02   -0.14048E-01  8160   0.797E-01    0.983E-02
DAV:   2    -0.192007184329E+03   -0.34097E-03   -0.33917E-03 13160   0.228E-01    0.198E-01
DAV:   3    -0.192006978291E+03    0.20604E-03   -0.16263E-03 10120   0.249E-01    0.147E-01
DAV:   4    -0.192006858864E+03    0.11943E-03   -0.55600E-04  8160   0.136E-01    0.925E-02
DAV:   5    -0.192006825937E+03    0.32927E-04   -0.32192E-04  8000   0.132E-01
  53 F= -.19200683E+03 E0= -.19190396E+03  d E =0.198931E-02
       N       E                     dE             d eps       ncg     rms          rms(c)
DAV:   1    -0.192010042328E+03   -0.31835E-02   -0.28444E-01  8160   0.114E+00    0.123E-01
DAV:   2    -0.192010942564E+03   -0.90024E-03   -0.87103E-03 13160   0.336E-01    0.237E-01
DAV:   3    -0.192010682691E+03    0.25987E-03   -0.26475E-03 10360   0.312E-01    0.198E-01
DAV:   4    -0.192010454516E+03    0.22817E-03   -0.10582E-03  8280   0.192E-01    0.112E-01
DAV:   5    -0.192010376519E+03    0.77997E-04   -0.44369E-04  7960   0.150E-01
  54 F= -.19201038E+03 E0= -.19190767E+03  d E =-.355058E-02
       N       E                     dE             d eps       ncg     rms          rms(c)
DAV:   1    -0.192008420665E+03    0.20339E-02   -0.81370E-02  8160   0.618E-01    0.811E-02
DAV:   2    -0.192009455435E+03   -0.10348E-02   -0.37364E-03 13560   0.325E-01    0.308E-01
DAV:   3    -0.192008520633E+03    0.93480E-03   -0.19085E-03 10000   0.300E-01    0.774E-02
DAV:   4    -0.192008523802E+03   -0.31693E-05   -0.27351E-04  7560   0.916E-02
  55 F= -.19200852E+03 E0= -.19190533E+03  d E =0.185272E-02
       N       E                     dE             d eps       ncg     rms          rms(c)
DAV:   1    -0.192007730198E+03    0.79043E-03   -0.46732E-02  8160   0.480E-01    0.929E-02
DAV:   2    -0.192007966854E+03   -0.23666E-03   -0.20753E-03 12240   0.214E-01    0.206E-01
DAV:   3    -0.192007680431E+03    0.28642E-03   -0.14989E-03  9920   0.236E-01    0.130E-01
DAV:   4    -0.192007594001E+03    0.86430E-04   -0.53865E-04  8040   0.138E-01
  56 F= -.19200759E+03 E0= -.19190458E+03  d E =0.929801E-03
       N       E                     dE             d eps       ncg     rms          rms(c)
DAV:   1    -0.192010730070E+03   -0.30496E-02   -0.28075E-01  8160   0.113E+00    0.124E-01
DAV:   2    -0.192012026504E+03   -0.12964E-02   -0.83491E-03 13200   0.422E-01    0.315E-01
DAV:   3    -0.192011025287E+03    0.10012E-02   -0.22387E-03 10840   0.337E-01    0.932E-02
DAV:   4    -0.192011111072E+03   -0.85785E-04   -0.53637E-04  8440   0.170E-01
  57 F= -.19201111E+03 E0= -.19190834E+03  d E =-.351707E-02
       N       E                     dE             d eps       ncg     rms          rms(c)
DAV:   1    -0.192008765575E+03    0.22597E-02   -0.11722E-01  8160   0.745E-01    0.836E-02
DAV:   2    -0.192009942419E+03   -0.11768E-02   -0.45436E-03 12480   0.350E-01    0.326E-01
DAV:   3    -0.192008945124E+03    0.99729E-03   -0.22596E-03 10280   0.311E-01    0.953E-02
DAV:   4    -0.192008940960E+03    0.41639E-05   -0.35897E-04  8080   0.123E-01
  58 F= -.19200894E+03 E0= -.19190579E+03  d E =0.217011E-02
       N       E                     dE             d eps       ncg     rms          rms(c)
DAV:   1    -0.192006825245E+03    0.21199E-02   -0.23584E-01  8160   0.104E+00    0.137E-01
DAV:   2    -0.192008097171E+03   -0.12719E-02   -0.70711E-03 13600   0.458E-01    0.334E-01
DAV:   3    -0.192006940807E+03    0.11564E-02   -0.26879E-03 11440   0.393E-01    0.124E-01
DAV:   4    -0.192007109465E+03   -0.16866E-03   -0.11214E-03  8720   0.206E-01    0.189E-01
DAV:   5    -0.192006833638E+03    0.27583E-03   -0.92478E-04  8240   0.190E-01    0.864E-02
DAV:   6    -0.192006831606E+03    0.20320E-05   -0.35364E-04  7600   0.121E-01
  59 F= -.19200683E+03 E0= -.19190299E+03  d E =0.210935E-02
       N       E                     dE             d eps       ncg     rms          rms(c)
DAV:   1    -0.192005999829E+03    0.83381E-03   -0.16325E-01  8160   0.857E-01    0.952E-02
DAV:   2    -0.192006289176E+03   -0.28935E-03   -0.37818E-03 13560   0.211E-01    0.148E-01
DAV:   3    -0.192006265896E+03    0.23280E-04   -0.11985E-03  9840   0.220E-01    0.152E-01
DAV:   4    -0.192006156967E+03    0.10893E-03   -0.67664E-04  8120   0.157E-01    0.104E-01
DAV:   5    -0.192006075131E+03    0.81836E-04   -0.33288E-04  7640   0.130E-01
  60 F= -.19200608E+03 E0= -.19190237E+03  d E =0.756475E-03
       N       E                     dE             d eps       ncg     rms          rms(c)
DAV:   1    -0.192005773613E+03    0.38335E-03   -0.15112E-01  8160   0.824E-01    0.994E-02
DAV:   2    -0.192006571334E+03   -0.79772E-03   -0.37844E-03 13480   0.301E-01    0.274E-01
DAV:   3    -0.192005869608E+03    0.70173E-03   -0.16775E-03 10040   0.297E-01    0.958E-02
DAV:   4    -0.192005903004E+03   -0.33396E-04   -0.41045E-04  8040   0.118E-01
  61 F= -.19200590E+03 E0= -.19190245E+03  d E =0.172126E-03
       N       E                     dE             d eps       ncg     rms          rms(c)
DAV:   1    -0.192008364862E+03   -0.24953E-02   -0.49851E-01  8160   0.151E+00    0.175E-01
DAV:   2    -0.192011845604E+03   -0.34807E-02   -0.16233E-02 13560   0.693E-01    0.571E-01
DAV:   3    -0.192008852879E+03    0.29927E-02   -0.71942E-03 11520   0.560E-01    0.184E-01
DAV:   4    -0.192008933452E+03   -0.80573E-04   -0.17520E-03  9840   0.272E-01    0.189E-01
DAV:   5    -0.192008581147E+03    0.35231E-03   -0.82180E-04  8640   0.203E-01    0.808E-02
DAV:   6    -0.192008664837E+03   -0.83690E-04   -0.44154E-04  8720   0.152E-01
  62 F= -.19200866E+03 E0= -.19190597E+03  d E =-.276183E-02
       N       E                     dE             d eps       ncg     rms          rms(c)
DAV:   1    -0.192008782855E+03   -0.20171E-03   -0.29728E-03  8560   0.155E-01    0.225E-02
DAV:   2    -0.192008828848E+03   -0.45993E-04   -0.14374E-04  6960   0.698E-02
  63 F= -.19200883E+03 E0= -.19190586E+03  d E =-.164011E-03
       N       E                     dE             d eps       ncg     rms          rms(c)
DAV:   1    -0.192009555129E+03   -0.77227E-03   -0.78953E-02  8160   0.614E-01    0.694E-02
DAV:   2    -0.192009715680E+03   -0.16055E-03   -0.22569E-03 12640   0.157E-01    0.912E-02
DAV:   3    -0.192009698823E+03    0.16857E-04   -0.48170E-04  9000   0.161E-01
  64 F= -.19200970E+03 E0= -.19190607E+03  d E =-.869975E-03
       N       E                     dE             d eps       ncg     rms          rms(c)
DAV:   1    -0.192011640295E+03   -0.19246E-02   -0.11285E-01  8160   0.737E-01    0.107E-01
DAV:   2    -0.192012582403E+03   -0.94211E-03   -0.44814E-03 13520   0.330E-01    0.299E-01
DAV:   3    -0.192011730114E+03    0.85229E-03   -0.19902E-03 10560   0.326E-01    0.103E-01
DAV:   4    -0.192011698302E+03    0.31811E-04   -0.40919E-04  8400   0.111E-01
  65 F= -.19201170E+03 E0= -.19190854E+03  d E =-.199948E-02
       N       E                     dE             d eps       ncg     rms          rms(c)
DAV:   1    -0.192010112548E+03    0.16176E-02   -0.15274E-01  8160   0.859E-01    0.173E-01
DAV:   2    -0.192016491556E+03   -0.63790E-02   -0.17328E-02 12240   0.816E-01    0.846E-01
DAV:   3    -0.192010001259E+03    0.64903E-02   -0.11753E-02 11120   0.696E-01    0.129E-01
DAV:   4    -0.192010106904E+03   -0.10564E-03   -0.10032E-03  9520   0.216E-01    0.147E-01
DAV:   5    -0.192009895902E+03    0.21100E-03   -0.51601E-04  8640   0.167E-01    0.687E-02
DAV:   6    -0.192009899809E+03   -0.39063E-05   -0.23577E-04  7720   0.114E-01
  66 F= -.19200990E+03 E0= -.19190623E+03  d E =0.179849E-02
       N       E                     dE             d eps       ncg     rms          rms(c)
DAV:   1    -0.192010465256E+03   -0.56935E-03   -0.14869E-01  8160   0.825E-01    0.112E-01
DAV:   2    -0.192010874407E+03   -0.40915E-03   -0.47697E-03 13520   0.263E-01    0.199E-01
DAV:   3    -0.192010702005E+03    0.17240E-03   -0.19425E-03 10400   0.289E-01    0.171E-01
DAV:   4    -0.192010600141E+03    0.10186E-03   -0.94848E-04  8160   0.184E-01    0.136E-01
DAV:   5    -0.192010428555E+03    0.17159E-03   -0.46387E-04  8160   0.162E-01    0.538E-02
DAV:   6    -0.192010442725E+03   -0.14170E-04   -0.16337E-04  6800   0.855E-02
  67 F= -.19201044E+03 E0= -.19190745E+03  d E =-.542917E-03
       N       E                     dE             d eps       ncg     rms          rms(c)
DAV:   1    -0.192010425839E+03    0.27164E-05   -0.12234E-03  8880   0.109E-01    0.262E-02
DAV:   2    -0.192010567268E+03   -0.14143E-03   -0.29225E-04  8240   0.123E-01    0.116E-01
DAV:   3    -0.192010414020E+03    0.15325E-03   -0.19810E-04  7360   0.109E-01    0.179E-02
DAV:   4    -0.192010420463E+03   -0.64428E-05   -0.15568E-05  5720   0.233E-02
  68 F= -.19201042E+03 E0= -.19190712E+03  d E =0.222628E-04
       N       E                     dE             d eps       ncg     rms          rms(c)
DAV:   1    -0.192013311608E+03   -0.28976E-02   -0.26355E-01  8160   0.112E+00    0.174E-01
DAV:   2    -0.192015099642E+03   -0.17880E-02   -0.10336E-02 11760   0.581E-01    0.425E-01
DAV:   3    -0.192013136826E+03    0.19628E-02   -0.38746E-03 11600   0.461E-01    0.107E-01
DAV:   4    -0.192013483274E+03   -0.34645E-03   -0.12271E-03  9680   0.256E-01    0.228E-01
DAV:   5    -0.192012954778E+03    0.52850E-03   -0.95829E-04  9480   0.240E-01    0.625E-02
DAV:   6    -0.192013014837E+03   -0.60058E-04   -0.35305E-04  7680   0.110E-01
  69 F= -.19201301E+03 E0= -.19190993E+03  d E =-.259437E-02
       N       E                     dE             d eps       ncg     rms          rms(c)
DAV:   1    -0.192014833662E+03   -0.18789E-02   -0.82020E-02  8160   0.625E-01    0.797E-02
DAV:   2    -0.192015148819E+03   -0.31516E-03   -0.25144E-03 13600   0.196E-01    0.164E-01
DAV:   3    -0.192014946831E+03    0.20199E-03   -0.81813E-04  9200   0.205E-01    0.932E-02
DAV:   4    -0.192014924254E+03    0.22577E-04   -0.29896E-04  7160   0.101E-01
  70 F= -.19201492E+03 E0= -.19191202E+03  d E =-.190942E-02
       N       E                     dE             d eps       ncg     rms          rms(c)
DAV:   1    -0.192011373867E+03    0.35730E-02   -0.60126E-01  8160   0.168E+00    0.192E-01
DAV:   2    -0.192013597460E+03   -0.22236E-02   -0.15558E-02 13240   0.500E-01    0.462E-01
DAV:   3    -0.192012041756E+03    0.15557E-02   -0.70875E-03 11480   0.521E-01    0.245E-01
DAV:   4    -0.192012019885E+03    0.21872E-04   -0.22310E-03  9760   0.292E-01    0.214E-01
DAV:   5    -0.192011514571E+03    0.50531E-03   -0.11074E-03  9560   0.255E-01    0.756E-02
DAV:   6    -0.192011494985E+03    0.19586E-04   -0.29489E-04  8440   0.957E-02
  71 F= -.19201149E+03 E0= -.19190841E+03  d E =0.342927E-02
       N       E                     dE             d eps       ncg     rms          rms(c)
DAV:   1    -0.192009665242E+03    0.18493E-02   -0.49033E-01  8160   0.151E+00    0.190E-01
DAV:   2    -0.192012276391E+03   -0.26111E-02   -0.13582E-02 13120   0.572E-01    0.512E-01
DAV:   3    -0.192009928273E+03    0.23481E-02   -0.58966E-03 11280   0.519E-01    0.169E-01
DAV:   4    -0.192010364065E+03   -0.43579E-03   -0.21414E-03 10080   0.302E-01    0.272E-01
DAV:   5    -0.192009723632E+03    0.64043E-03   -0.17560E-03  9760   0.267E-01    0.113E-01
DAV:   6    -0.192009752919E+03   -0.29288E-04   -0.62481E-04  8440   0.178E-01
  72 F= -.19200975E+03 E0= -.19190698E+03  d E =0.174207E-02
       N       E                     dE             d eps       ncg     rms          rms(c)
DAV:   1    -0.192012553037E+03   -0.28294E-02   -0.27884E-01  8160   0.114E+00    0.137E-01
DAV:   2    -0.192013652161E+03   -0.10991E-02   -0.82446E-03 13200   0.415E-01    0.296E-01
DAV:   3    -0.192012876117E+03    0.77604E-03   -0.24179E-03 12240   0.372E-01    0.144E-01
DAV:   4    -0.192012737968E+03    0.13815E-03   -0.64600E-04  8360   0.165E-01    0.916E-02
DAV:   5    -0.192012701194E+03    0.36774E-04   -0.41658E-04  8800   0.149E-01
  73 F= -.19201270E+03 E0= -.19191010E+03  d E =-.294827E-02
       N       E                     dE             d eps       ncg     rms          rms(c)
DAV:   1    -0.192012987669E+03   -0.24970E-03   -0.29374E-03 10240   0.155E-01    0.602E-02
DAV:   2    -0.192013946021E+03   -0.95835E-03   -0.22796E-03 11000   0.296E-01    0.332E-01
DAV:   3    -0.192012942311E+03    0.10037E-02   -0.18049E-03  9760   0.261E-01    0.425E-02
DAV:   4    -0.192012954292E+03   -0.11981E-04   -0.59374E-05  5880   0.535E-02
  74 F= -.19201295E+03 E0= -.19191017E+03  d E =-.253098E-03
       N       E                     dE             d eps       ncg     rms          rms(c)
DAV:   1    -0.192016427272E+03   -0.34850E-02   -0.23493E-01  8160   0.105E+00    0.129E-01
DAV:   2    -0.192017097017E+03   -0.66975E-03   -0.64506E-03 12640   0.353E-01    0.230E-01
DAV:   3    -0.192016709611E+03    0.38741E-03   -0.20030E-03 11280   0.328E-01    0.154E-01
DAV:   4    -0.192016746118E+03   -0.36507E-04   -0.10976E-03  9040   0.205E-01    0.173E-01
DAV:   5    -0.192016493800E+03    0.25232E-03   -0.74425E-04  8240   0.185E-01    0.734E-02
DAV:   6    -0.192016501268E+03   -0.74686E-05   -0.27123E-04  7760   0.107E-01
  75 F= -.19201650E+03 E0= -.19191456E+03  d E =-.354698E-02
       N       E                     dE             d eps       ncg     rms          rms(c)
DAV:   1    -0.192009711735E+03    0.67821E-02   -0.96192E-01  8160   0.212E+00    0.240E-01
DAV:   2    -0.192012116162E+03   -0.24044E-02   -0.24503E-02 13240   0.591E-01    0.403E-01
DAV:   3    -0.192011194666E+03    0.92150E-03   -0.64505E-03 12360   0.608E-01    0.310E-01
DAV:   4    -0.192010520266E+03    0.67440E-03   -0.24947E-03 11040   0.330E-01    0.178E-01
DAV:   5    -0.192010425380E+03    0.94886E-04   -0.16491E-03  9840   0.273E-01    0.189E-01
DAV:   6    -0.192010228636E+03    0.19674E-03   -0.12451E-03  8760   0.214E-01    0.130E-01
DAV:   7    -0.192010215127E+03    0.13509E-04   -0.76171E-04  8600   0.182E-01
  76 F= -.19201022E+03 E0= -.19190757E+03  d E =0.628614E-02
       N       E                     dE             d eps       ncg     rms          rms(c)
DAV:   1    -0.192008492200E+03    0.17364E-02   -0.33161E-01  8160   0.124E+00    0.137E-01
DAV:   2    -0.192008834707E+03   -0.34251E-03   -0.70098E-03 12560   0.244E-01    0.132E-01
DAV:   3    -0.192009364278E+03   -0.52957E-03   -0.24864E-03 11120   0.307E-01    0.291E-01
DAV:   4    -0.192008712950E+03    0.65133E-03   -0.16336E-03  9680   0.241E-01    0.998E-02
DAV:   5    -0.192008663541E+03    0.49410E-04   -0.40507E-04  8040   0.145E-01
  77 F= -.19200866E+03 E0= -.19190543E+03  d E =0.155159E-02
       N       E                     dE             d eps       ncg     rms          rms(c)
DAV:   1    -0.192010076799E+03   -0.13638E-02   -0.11143E-01  8160   0.724E-01    0.910E-02
DAV:   2    -0.192010955993E+03   -0.87919E-03   -0.49045E-03 12880   0.307E-01    0.257E-01
DAV:   3    -0.192010321856E+03    0.63414E-03   -0.15291E-03 10240   0.287E-01    0.882E-02
DAV:   4    -0.192010257642E+03    0.64214E-04   -0.20877E-04  6560   0.840E-02
  78 F= -.19201026E+03 E0= -.19190728E+03  d E =-.159410E-02
       N       E                     dE             d eps       ncg     rms          rms(c)
DAV:   1    -0.192010374960E+03   -0.53104E-04   -0.79218E-03  8160   0.202E-01    0.691E-02
DAV:   2    -0.192011916806E+03   -0.15418E-02   -0.34529E-03 11000   0.364E-01    0.427E-01
DAV:   3    -0.192010304979E+03    0.16118E-02   -0.26857E-03 10040   0.316E-01    0.268E-02
DAV:   4    -0.192010347041E+03   -0.42062E-04   -0.57235E-05  5960   0.533E-02
  79 F= -.19201035E+03 E0= -.19190728E+03  d E =-.893987E-04
       N       E                     dE             d eps       ncg     rms          rms(c)
DAV:   1    -0.192011787030E+03   -0.14821E-02   -0.12199E-01  8160   0.747E-01    0.922E-02
DAV:   2    -0.192012361425E+03   -0.57440E-03   -0.39746E-03 12760   0.267E-01    0.209E-01
DAV:   3    -0.192011963344E+03    0.39808E-03   -0.11773E-03 11000   0.264E-01    0.958E-02
DAV:   4    -0.192011914171E+03    0.49173E-04   -0.27796E-04  7280   0.107E-01
  80 F= -.19201191E+03 E0= -.19190880E+03  d E =-.156713E-02
       N       E                     dE             d eps       ncg     rms          rms(c)
DAV:   1    -0.192010769070E+03    0.11943E-02   -0.57051E-02  8160   0.524E-01    0.771E-02
DAV:   2    -0.192012124599E+03   -0.13555E-02   -0.40933E-03 12680   0.375E-01    0.365E-01
DAV:   3    -0.192010855665E+03    0.12689E-02   -0.24934E-03 10080   0.323E-01    0.789E-02
DAV:   4    -0.192010845874E+03    0.97913E-05   -0.22684E-04  7280   0.100E-01
  81 F= -.19201085E+03 E0= -.19190791E+03  d E =0.106830E-02
       N       E                     dE             d eps       ncg     rms          rms(c)
DAV:   1    -0.192010953327E+03   -0.97662E-04   -0.15514E-02  8160   0.275E-01    0.528E-02
DAV:   2    -0.192010920096E+03    0.33231E-04   -0.48751E-04 10360   0.852E-02
  82 F= -.19201092E+03 E0= -.19190816E+03  d E =-.742219E-04
       N       E                     dE             d eps       ncg     rms          rms(c)
DAV:   1    -0.192012478182E+03   -0.15249E-02   -0.11084E-01  8160   0.723E-01    0.149E-01
DAV:   2    -0.192016035877E+03   -0.35577E-02   -0.11121E-02 12240   0.653E-01    0.613E-01
DAV:   3    -0.192012398011E+03    0.36379E-02   -0.68926E-03 11120   0.535E-01    0.133E-01
DAV:   4    -0.192012424304E+03   -0.26293E-04   -0.92747E-04  8880   0.206E-01
  83 F= -.19201242E+03 E0= -.19190952E+03  d E =-.150421E-02
       N       E                     dE             d eps       ncg     rms          rms(c)
DAV:   1    -0.192013420821E+03   -0.10228E-02   -0.78481E-02  8160   0.611E-01    0.118E-01
DAV:   2    -0.192014921348E+03   -0.15005E-02   -0.49239E-03 12080   0.439E-01    0.404E-01
DAV:   3    -0.192013302923E+03    0.16184E-02   -0.27264E-03 10440   0.385E-01    0.785E-02
DAV:   4    -0.192013347904E+03   -0.44981E-04   -0.47989E-04  8240   0.129E-01
  84 F= -.19201335E+03 E0= -.19191053E+03  d E =-.923600E-03
       N       E                     dE             d eps       ncg     rms          rms(c)
DAV:   1    -0.192015055701E+03   -0.17528E-02   -0.15444E-01  8160   0.861E-01    0.135E-01
DAV:   2    -0.192016673931E+03   -0.16182E-02   -0.75738E-03 13480   0.407E-01    0.433E-01
DAV:   3    -0.192015135495E+03    0.15384E-02   -0.46718E-03 10960   0.413E-01    0.149E-01
DAV:   4    -0.192014955882E+03    0.17961E-03   -0.75759E-04  8960   0.134E-01    0.614E-02
DAV:   5    -0.192014929303E+03    0.26578E-04   -0.27328E-04  7560   0.105E-01
  85 F= -.19201493E+03 E0= -.19191216E+03  d E =-.158140E-02
       N       E                     dE             d eps       ncg     rms          rms(c)
DAV:   1    -0.192015594273E+03   -0.63839E-03   -0.18251E-02  8160   0.315E-01    0.514E-02
DAV:   2    -0.192015909966E+03   -0.31569E-03   -0.10297E-03 11520   0.197E-01    0.180E-01
DAV:   3    -0.192015573460E+03    0.33651E-03   -0.51358E-04  8720   0.168E-01    0.294E-02
DAV:   4    -0.192015609261E+03   -0.35801E-04   -0.90038E-05  5840   0.564E-02
  86 F= -.19201561E+03 E0= -.19191276E+03  d E =-.679958E-03
       N       E                     dE             d eps       ncg     rms          rms(c)
DAV:   1    -0.192016745417E+03   -0.11720E-02   -0.51420E-02  8160   0.496E-01    0.842E-02
DAV:   2    -0.192017698471E+03   -0.95305E-03   -0.34095E-03 12280   0.361E-01    0.310E-01
DAV:   3    -0.192016776730E+03    0.92174E-03   -0.18845E-03 10040   0.295E-01    0.807E-02
DAV:   4    -0.192016792248E+03   -0.15518E-04   -0.30165E-04  7720   0.120E-01
  87 F= -.19201679E+03 E0= -.19191412E+03  d E =-.118299E-02
       N       E                     dE             d eps       ncg     rms          rms(c)
DAV:   1    -0.192018607224E+03   -0.18305E-02   -0.12589E-01  8160   0.769E-01    0.105E-01
DAV:   2    -0.192019145649E+03   -0.53843E-03   -0.39588E-03 12760   0.298E-01    0.227E-01
DAV:   3    -0.192018643193E+03    0.50246E-03   -0.13407E-03 10240   0.261E-01    0.837E-02
DAV:   4    -0.192018687611E+03   -0.44418E-04   -0.39821E-04  8320   0.141E-01
  88 F= -.19201869E+03 E0= -.19191647E+03  d E =-.189536E-02
       N       E                     dE             d eps       ncg     rms          rms(c)
DAV:   1    -0.192017177840E+03    0.14654E-02   -0.67714E-02  8160   0.573E-01    0.828E-02
DAV:   2    -0.192018538591E+03   -0.13608E-02   -0.40249E-03 12440   0.395E-01    0.350E-01
DAV:   3    -0.192017261227E+03    0.12774E-02   -0.22111E-03 10320   0.339E-01    0.799E-02
DAV:   4    -0.192017253277E+03    0.79499E-05   -0.25002E-04  7400   0.102E-01
  89 F= -.19201725E+03 E0= -.19191465E+03  d E =0.143433E-02
       N       E                     dE             d eps       ncg     rms          rms(c)
DAV:   1    -0.192017187340E+03    0.73886E-04   -0.38421E-02  8160   0.438E-01    0.109E-01
DAV:   2    -0.192018432971E+03   -0.12456E-02   -0.40122E-03 11400   0.457E-01    0.350E-01
DAV:   3    -0.192016986198E+03    0.14468E-02   -0.21390E-03 10320   0.360E-01    0.578E-02
DAV:   4    -0.192017166838E+03   -0.18064E-03   -0.55039E-04  8280   0.156E-01    0.157E-01
DAV:   5    -0.192016938605E+03    0.22823E-03   -0.49958E-04  8080   0.145E-01    0.482E-02
DAV:   6    -0.192016958050E+03   -0.19445E-04   -0.15194E-04  5840   0.824E-02
  90 F= -.19201696E+03 E0= -.19191421E+03  d E =0.295227E-03
       N       E                     dE             d eps       ncg     rms          rms(c)
DAV:   1    -0.192013713282E+03    0.32253E-02   -0.50634E-01  8160   0.152E+00    0.191E-01
DAV:   2    -0.192016696235E+03   -0.29830E-02   -0.15345E-02 13600   0.695E-01    0.492E-01
DAV:   3    -0.192013895819E+03    0.28004E-02   -0.52066E-03 11560   0.574E-01    0.117E-01
DAV:   4    -0.192014092245E+03   -0.19643E-03   -0.10515E-03 10200   0.226E-01    0.193E-01
DAV:   5    -0.192013765208E+03    0.32704E-03   -0.95214E-04  9680   0.221E-01    0.932E-02
DAV:   6    -0.192013716776E+03    0.48431E-04   -0.39882E-04  8520   0.111E-01
  91 F= -.19201372E+03 E0= -.19191023E+03  d E =0.324127E-02
       N       E                     dE             d eps       ncg     rms          rms(c)
DAV:   1    -0.192014799325E+03   -0.10341E-02   -0.57874E-02  8160   0.543E-01    0.143E-01
DAV:   2    -0.192018588351E+03   -0.37890E-02   -0.10041E-02 12280   0.681E-01    0.648E-01
DAV:   3    -0.192014703154E+03    0.38852E-02   -0.75221E-03 11240   0.570E-01    0.142E-01
DAV:   4    -0.192014610611E+03    0.92543E-04   -0.71247E-04  8640   0.177E-01
  92 F= -.19201461E+03 E0= -.19191140E+03  d E =-.893834E-03
       N       E                     dE             d eps       ncg     rms          rms(c)
DAV:   1    -0.192018662274E+03   -0.39591E-02   -0.69507E-01  8160   0.180E+00    0.243E-01
DAV:   2    -0.192021664886E+03   -0.30026E-02   -0.22201E-02 12760   0.745E-01    0.519E-01
DAV:   3    -0.192018810853E+03    0.28540E-02   -0.79536E-03 12360   0.635E-01    0.198E-01
DAV:   4    -0.192019348595E+03   -0.53774E-03   -0.35985E-03 10680   0.364E-01    0.334E-01
DAV:   5    -0.192018465275E+03    0.88332E-03   -0.27365E-03 10240   0.347E-01    0.147E-01
DAV:   6    -0.192018316226E+03    0.14905E-03   -0.84198E-04  9880   0.171E-01    0.111E-01
DAV:   7    -0.192018287757E+03    0.28469E-04   -0.50536E-04  9040   0.171E-01
  93 F= -.19201829E+03 E0= -.19191601E+03  d E =-.367715E-02
       N       E                     dE             d eps       ncg     rms          rms(c)
DAV:   1    -0.192018137257E+03    0.17897E-03   -0.21494E-02  8160   0.348E-01    0.827E-02
DAV:   2    -0.192018417065E+03   -0.27981E-03   -0.16555E-03 11560   0.275E-01    0.194E-01
DAV:   3    -0.192017987876E+03    0.42919E-03   -0.81591E-04  9160   0.227E-01    0.507E-02
DAV:   4    -0.192018045721E+03   -0.57844E-04   -0.33575E-04  7680   0.110E-01
  94 F= -.19201805E+03 E0= -.19191493E+03  d E =0.242036E-03
       N       E                     dE             d eps       ncg     rms          rms(c)
DAV:   1    -0.192017862965E+03    0.12491E-03   -0.18765E-02  8240   0.318E-01    0.600E-02
DAV:   2    -0.192017913627E+03   -0.50662E-04   -0.94868E-04 10040   0.111E-01
  95 F= -.19201791E+03 E0= -.19191509E+03  d E =0.132094E-03
       N       E                     dE             d eps       ncg     rms          rms(c)
DAV:   1    -0.192019136762E+03   -0.12738E-02   -0.80791E-02  8160   0.637E-01    0.117E-01
DAV:   2    -0.192021565923E+03   -0.24292E-02   -0.71553E-03 12440   0.489E-01    0.525E-01
DAV:   3    -0.192019067730E+03    0.24982E-02   -0.48690E-03 11040   0.439E-01    0.741E-02
DAV:   4    -0.192019191346E+03   -0.12362E-03   -0.43678E-04  8480   0.140E-01    0.122E-01
DAV:   5    -0.192019043824E+03    0.14752E-03   -0.32057E-04  8160   0.139E-01    0.416E-02
DAV:   6    -0.192019028238E+03    0.15586E-04   -0.71497E-05  5760   0.449E-02
  96 F= -.19201903E+03 E0= -.19191581E+03  d E =-.111461E-02
       N       E                     dE             d eps       ncg     rms          rms(c)
DAV:   1    -0.192019519882E+03   -0.47606E-03   -0.17591E-02  8160   0.301E-01    0.528E-02
DAV:   2    -0.192019660055E+03   -0.14017E-03   -0.99252E-04 11760   0.150E-01    0.140E-01
DAV:   3    -0.192019492549E+03    0.16751E-03   -0.48294E-04  8360   0.142E-01    0.506E-02
DAV:   4    -0.192019507118E+03   -0.14569E-04   -0.13824E-04  5760   0.809E-02
  97 F= -.19201951E+03 E0= -.19191661E+03  d E =-.478880E-03
       N       E                     dE             d eps       ncg     rms          rms(c)
DAV:   1    -0.192020307739E+03   -0.81519E-03   -0.91595E-02  8160   0.660E-01    0.988E-02
DAV:   2    -0.192021244259E+03   -0.93652E-03   -0.49005E-03 11080   0.360E-01    0.282E-01
DAV:   3    -0.192020435823E+03    0.80844E-03   -0.15720E-03 10120   0.307E-01    0.759E-02
DAV:   4    -0.192020541613E+03   -0.10579E-03   -0.50061E-04  8560   0.148E-01    0.128E-01
DAV:   5    -0.192020383288E+03    0.15833E-03   -0.37329E-04  7520   0.132E-01    0.481E-02
DAV:   6    -0.192020400112E+03   -0.16824E-04   -0.13429E-04  5800   0.784E-02
  98 F= -.19202040E+03 E0= -.19191690E+03  d E =-.892994E-03
       N       E                     dE             d eps       ncg     rms          rms(c)
DAV:   1    -0.192022589300E+03   -0.22060E-02   -0.14588E-01  8160   0.828E-01    0.105E-01
DAV:   2    -0.192023153613E+03   -0.56431E-03   -0.43364E-03 12480   0.335E-01    0.213E-01
DAV:   3    -0.192022667976E+03    0.48564E-03   -0.12273E-03 11080   0.275E-01    0.811E-02
DAV:   4    -0.192022713291E+03   -0.45315E-04   -0.40637E-04  8280   0.138E-01
  99 F= -.19202271E+03 E0= -.19191923E+03  d E =-.231318E-02
       N       E                     dE             d eps       ncg     rms          rms(c)
DAV:   1    -0.192019630759E+03    0.30372E-02   -0.25284E-01  8160   0.109E+00    0.154E-01
DAV:   2    -0.192022644891E+03   -0.30141E-02   -0.11623E-02 12600   0.633E-01    0.541E-01
DAV:   3    -0.192019773451E+03    0.28714E-02   -0.58119E-03 11160   0.515E-01    0.142E-01
DAV:   4    -0.192019890223E+03   -0.11677E-03   -0.13076E-03  9280   0.239E-01    0.168E-01
DAV:   5    -0.192019582656E+03    0.30757E-03   -0.61355E-04  8040   0.157E-01    0.510E-02
DAV:   6    -0.192019640446E+03   -0.57790E-04   -0.23291E-04  7960   0.112E-01
 100 F= -.19201964E+03 E0= -.19191652E+03  d E =0.307284E-02
