unknown system                          
           1
     8.852332    5.102974    0.000000
    -8.856288    5.109779    0.000000
     0.000000    0.000000   30.000000
   V    Mo   W    S 
   3   3   3  18
Direct configuration=     1
   0.00000000  0.66666669  0.00000000
   0.33333334  0.66666669  0.00000000
   0.66666669  0.66666669  0.00000000
   0.33333334  0.33333334  0.00000000
   0.33333334  0.00000000  0.00000000
   0.00000000  0.00000000  0.00000000
   1.00000000  0.33333334  0.00000000
   0.66666669  0.00000000  0.00000000
   0.66666669  0.33333334  0.00000000
   0.11068511  0.22244981  0.95539999
   0.22244981  0.11068511  0.04460000
   0.11068511  0.55578315  0.95539999
   0.22244981  0.44401845  0.04460000
   0.11068511  0.88911647  0.95539999
   0.22244981  0.77735180  0.04460000
   0.44401845  0.22244981  0.95539999
   0.55578315  0.11068511  0.04460000
   0.44401845  0.55578315  0.95539999
   0.55578315  0.44401845  0.04460000
   0.44401845  0.88911647  0.95539999
   0.55578315  0.77735180  0.04460000
   0.77735180  0.22244981  0.95539999
   0.88911647  0.11068511  0.04460000
   0.77735180  0.55578315  0.95539999
   0.88911647  0.44401845  0.04460000
   0.77735180  0.88911647  0.95539999
   0.88911647  0.77735180  0.04460000
unknown system                          
           1
     8.664429    4.997033    0.000000
    -8.667801    5.002829    0.000000
     0.000000    0.000000   30.000000
   V    Mo   W    S 
   3   3   3  18
Direct configuration=     2
   0.00117737  0.66911504  0.00009107
   0.33330120  0.66658153 -0.00004475
   0.66662837  0.66657541 -0.00004253
   0.33210241  0.33078822 -0.00027952
   0.33180551  0.00124745  0.00022026
   0.00266104  0.00111231  0.00021286
   1.00179827  0.33226442 -0.00019317
   0.66644623 -0.00050301  0.00014757
   0.66380349  0.33238289 -0.00018369
   0.11066526  0.22281881  0.95068942
   0.22203151  0.11080154  0.04933095
   0.11252249  0.55894746  0.95312937
   0.22339602  0.44844003  0.04805461
   0.10879786  0.88425232  0.95191499
   0.22013224  0.77327554  0.04686060
   0.44545241  0.22283709  0.95069237
   0.55621170  0.11127321  0.04929369
   0.44631350  0.55988901  0.95317880
   0.55814836  0.44846207  0.04806785
   0.44310766  0.88478829  0.95201462
   0.55396546  0.77423655  0.04690377
   0.77786341  0.22235441  0.95069394
   0.88823528  0.11125403  0.04928856
   0.77918485  0.55894206  0.95312417
   0.89053295  0.44802408  0.04796668
   0.77506751  0.88477073  0.95200146
   0.88686210  0.77328298  0.04686595
unknown system                          
           1
     8.482830    4.897545    0.000000
    -8.486032    4.903054    0.000000
     0.000000    0.000000   30.000000
   V    Mo   W    S 
   3   3   3  18
Direct configuration=     3
   0.00153549  0.66982215  0.00015382
   0.33330626  0.66657393 -0.00009552
   0.66661822  0.66657023 -0.00009300
   0.33148199  0.32954908 -0.00029201
   0.33161878  0.00212774  0.00024131
   0.00372622  0.00200008  0.00023167
   1.00212970  0.33157646 -0.00015217
   0.66660532 -0.00020637  0.00009723
   0.66277121  0.33169345 -0.00013934
   0.11054787  0.22291853  0.95052772
   0.22204608  0.11081757  0.04955777
   0.11246769  0.55877594  0.95320947
   0.22325090  0.44841852  0.04801364
   0.10870817  0.88410548  0.95184844
   0.22005827  0.77320627  0.04682705
   0.44564473  0.22293619  0.95052626
   0.55642793  0.11137279  0.04931257
   0.44636993  0.55995715  0.95325675
   0.55830979  0.44843853  0.04802712
   0.44325580  0.88481342  0.95211126
   0.55401876  0.77438821  0.04687647
   0.77785998  0.22238879  0.95075864
   0.88815243  0.11135458  0.04931168
   0.77911313  0.55877521  0.95320093
   0.89045972  0.44782929  0.04774856
   0.77491050  0.88479951  0.95209846
   0.88681957  0.77321173  0.04683514
unknown system                          
           1
     8.263429    4.770462    0.000000
    -8.277538    4.794865    0.000000
     0.000000    0.000000   30.000000
   V    Mo   W    S 
   3   3   3  18
Direct configuration=     4
   0.00280149  0.67231063  0.00034312
   0.33334886  0.66657652 -0.00026859
   0.66655655  0.66656587 -0.00026598
   0.32881975  0.32421428 -0.00023473
   0.33162324  0.00624818  0.00021046
   0.00785185  0.00613652  0.00020324
   1.00277863  0.32826262  0.00007377
   0.66761192  0.00176493 -0.00014102
   0.65870766  0.32833760  0.00008696
   0.11056906  0.22273481  0.94823652
   0.22215716  0.11099196  0.05205926
   0.11290468  0.55960234  0.95218601
   0.22406725  0.44942006  0.04930078
   0.10809827  0.88294195  0.95019739
   0.21958962  0.77242554  0.04799452
   0.44537491  0.22273717  0.94822440
   0.55631983  0.11123689  0.05102912
   0.44682658  0.56067952  0.95228765
   0.55861905  0.44944236  0.04931347
   0.44249805  0.88393525  0.95107748
   0.55344926  0.77339790  0.04812886
   0.77792302  0.22265570  0.94937437
   0.88822965  0.11122960  0.05104322
   0.77966539  0.55961624  0.95217338
   0.89084557  0.44843251  0.04829449
   0.77466203  0.88391132  0.95106224
   0.88631511  0.77240618  0.04800951
unknown system                          
           1
     8.263722    4.771170    0.000000
    -8.291840    4.819842    0.000000
     0.000000    0.000000   30.000000
   V    Mo   W    S 
   3   3   3  18
Direct configuration=     5
   0.00550421  0.67767680  0.00058531
   0.33331796  0.66654085 -0.00049676
   0.66652404  0.66654168 -0.00049531
   0.32376743  0.31407174 -0.00005233
   0.33236881  0.01451233  0.00007032
   0.01532482  0.01442110  0.00008326
   1.00447122  0.32121199  0.00037171
   0.66987852  0.00617593 -0.00047756
   0.64985836  0.32126046  0.00035882
   0.11123940  0.22237066  0.94484353
   0.22214431  0.11100889  0.05582415
   0.11307003  0.55984553  0.95090033
   0.22532857  0.44973804  0.05090551
   0.10801027  0.88273963  0.94797710
   0.21974457  0.77288754  0.04967175
   0.44437910  0.22236897  0.94482383
   0.55498860  0.11013788  0.05352324
   0.44657426  0.55990256  0.95096319
   0.55770165  0.44977625  0.05093242
   0.44126143  0.88369142  0.94987828
   0.55299470  0.77271538  0.04974693
   0.77842520  0.22369914  0.94756397
   0.88848164  0.11013400  0.05354085
   0.77998632  0.55985524  0.95089457
   0.89085663  0.44842107  0.04852939
   0.77564751  0.88365112  0.94985296
   0.88636491  0.77285826  0.04968043
unknown system                          
           1
     8.258859    4.768335    0.000000
    -8.287237    4.817457    0.000000
     0.000000    0.000000   30.000000
   V    Mo   W    S 
   3   3   3  18
Direct configuration=     6
   0.00681096  0.68029577  0.00068922
   0.33309240  0.66640698 -0.00057934
   0.66660187  0.66641125 -0.00057302
   0.32397767  0.31448953 -0.00015035
   0.33281382  0.01463264  0.00024694
   0.01495396  0.01456142  0.00024571
   1.00519349  0.31961587  0.00021988
   0.67056515  0.00751133 -0.00040200
   0.64759239  0.31968864  0.00022623
   0.11182334  0.22257722  0.94458498
   0.22190514  0.11052522  0.05603634
   0.11253274  0.55898936  0.95114165
   0.22538015  0.44859957  0.05083956
   0.10856575  0.88386199  0.94792492
   0.22039101  0.77406791  0.04961419
   0.44399145  0.22256941  0.94455596
   0.55417061  0.10938811  0.05369333
   0.44591229  0.55859375  0.95110949
   0.55650920  0.44862894  0.05086052
   0.44130201  0.88467457  0.95009191
   0.55328092  0.77327671  0.04959953
   0.77884389  0.22450627  0.94761178
   0.88853168  0.10937972  0.05372571
   0.77966523  0.55899786  0.95113619
   0.89027501  0.44730000  0.04786731
   0.77661578  0.88463261  0.95006299
   0.88691656  0.77403178  0.04962027
unknown system                          
           1
     8.264968    4.771865    0.000000
    -8.297718    4.828558    0.000000
     0.000000    0.000000   30.000000
   V    Mo   W    S 
   3   3   3  18
Direct configuration=     7
   0.00843158  0.68354655  0.00074971
   0.33275040  0.66606436 -0.00069068
   0.66659386  0.66607687 -0.00068191
   0.32348032  0.31349123 -0.00007866
   0.33319172  0.01571921  0.00023947
   0.01560984  0.01564872  0.00024494
   1.00614258  0.31752206  0.00023707
   0.67146070  0.00921972 -0.00040706
   0.64456578  0.31761039  0.00023641
   0.11211204  0.22233912  0.94419981
   0.22185512  0.11044736  0.05629324
   0.11210529  0.55840391  0.95133465
   0.22538912  0.44791180  0.05086408
   0.10886971  0.88447073  0.94779935
   0.22085336  0.77477955  0.04970737
   0.44347542  0.22232312  0.94417882
   0.55377042  0.10903353  0.05396519
   0.44559290  0.55794167  0.95114740
   0.55580237  0.44794043  0.05088526
   0.44137856  0.88516915  0.95025775
   0.55345386  0.77363162  0.04950467
   0.77909303  0.22498852  0.94759321
   0.88857501  0.10904091  0.05400284
   0.77952230  0.55841352  0.95133089
   0.88992912  0.44662021  0.04715433
   0.77704806  0.88511999  0.95022041
   0.88716200  0.77474022  0.04971135
unknown system                          
           1
     8.265828    4.773043    0.000000
    -8.306074    4.842730    0.000000
     0.000000    0.000000   30.000000
   V    Mo   W    S 
   3   3   3  18
Direct configuration=     8
   0.01040709  0.68741052  0.00088149
   0.33218236  0.66544102 -0.00083727
   0.66648758  0.66548307 -0.00082222
   0.32319598  0.31295847 -0.00010446
   0.33346960  0.01640345  0.00028658
   0.01597241  0.01635293  0.00029367
   1.00734081  0.31567715  0.00021695
   0.67237645  0.01098092 -0.00038837
   0.64154929  0.31573019  0.00021511
   0.11248920  0.22210337  0.94386229
   0.22173633  0.11023782  0.05646448
   0.11159019  0.55779832  0.95164741
   0.22534071  0.44715340  0.05088713
   0.10920130  0.88514172  0.94765831
   0.22133617  0.77546256  0.04974618
   0.44287202  0.22208072  0.94384445
   0.55334135  0.10858987  0.05420503
   0.44531011  0.55741660  0.95124530
   0.55506749  0.44714912  0.05091164
   0.44158374  0.88564874  0.95051820
   0.55360494  0.77397134  0.04930235
   0.77941097  0.22560778  0.94766772
   0.88855863  0.10861398  0.05425417
   0.77945178  0.55779011  0.95163952
   0.88958766  0.44594909  0.04618812
   0.77735577  0.88562265  0.95046064
   0.88739451  0.77543954  0.04975549
unknown system                          
           1
     8.279272    4.780456    0.000000
    -8.318909    4.849082    0.000000
     0.000000    0.000000   30.000000
   V    Mo   W    S 
   3   3   3  18
Direct configuration=     9
   0.01422337  0.69514487  0.00123558
   0.33064498  0.66339030 -0.00114268
   0.66600772  0.66353026 -0.00111852
   0.32275766  0.31206013 -0.00018941
   0.33368084  0.01764217  0.00036037
   0.01681498  0.01755903  0.00036581
   1.00983198  0.31265558  0.00021579
   0.67434551  0.01456360 -0.00032651
   0.63605709  0.31275285  0.00021871
   0.11312977  0.22142618  0.94325807
   0.22154400  0.10988987  0.05669467
   0.11047603  0.55680655  0.95234340
   0.22514629  0.44572641  0.05098360
   0.10981711  0.88639523  0.94734067
   0.22226181  0.77663646  0.04982690
   0.44155059  0.22139003  0.94324775
   0.55267119  0.10786129  0.05456711
   0.44501433  0.55681126  0.95140479
   0.55383199  0.44570665  0.05098611
   0.44218427  0.88633762  0.95113987
   0.55383934  0.77443746  0.04876391
   0.78003378  0.22678856  0.94794941
   0.88850577  0.10793645  0.05464276
   0.77958288  0.55682153  0.95235255
   0.88916109  0.44508644  0.04399600
   0.77744753  0.88626929  0.95105962
   0.88765258  0.77658837  0.04982355
unknown system                          
           1
     8.277980    4.779846    0.000000
    -8.318399    4.849829    0.000000
     0.000000    0.000000   30.000000
   V    Mo   W    S 
   3   3   3  18
Direct configuration=    10
   0.01413181  0.69494145  0.00127526
   0.33016401  0.66257172 -0.00114208
   0.66567641  0.66276414 -0.00111142
   0.32286329  0.31227167 -0.00023862
   0.33341311  0.01756829  0.00033068
   0.01694992  0.01746575  0.00033572
   1.00989153  0.31316825  0.00019116
   0.67454580  0.01484748 -0.00028334
   0.63650192  0.31323680  0.00019335
   0.11315030  0.22129058  0.94322437
   0.22155204  0.10992754  0.05672311
   0.11035897  0.55691863  0.95236329
   0.22518727  0.44570331  0.05108320
   0.10989806  0.88655585  0.94728091
   0.22244267  0.77675656  0.04986209
   0.44140449  0.22125518  0.94321276
   0.55264367  0.10785465  0.05458656
   0.44506450  0.55687642  0.95131997
   0.55376207  0.44569683  0.05108510
   0.44223650  0.88620798  0.95122654
   0.55379552  0.77433063  0.04868337
   0.78009813  0.22691761  0.94794403
   0.88853084  0.10793775  0.05467843
   0.77980985  0.55693555  0.95237017
   0.88931211  0.44538858  0.04380728
   0.77726478  0.88612218  0.95112964
   0.88756491  0.77670307  0.04986838
unknown system                          
           1
     8.281731    4.782154    0.000000
    -8.322412    4.852590    0.000000
     0.000000    0.000000   30.000000
   V    Mo   W    S 
   3   3   3  18
Direct configuration=    11
   0.01495600  0.69661038  0.00140574
   0.32931034  0.66119185 -0.00118826
   0.66517948  0.66147546 -0.00114828
   0.32287242  0.31227510 -0.00026904
   0.33319964  0.01790340  0.00033121
   0.01737608  0.01777026  0.00033780
   1.01059093  0.31276299  0.00017800
   0.67524035  0.01601041 -0.00024457
   0.63540236  0.31283739  0.00018076
   0.11324926  0.22108751  0.94314068
   0.22154092  0.10993602  0.05671470
   0.11006136  0.55681961  0.95252509
   0.22512573  0.44533583  0.05114101
   0.11007109  0.88690953  0.94722627
   0.22275739  0.77710563  0.04984397
   0.44110606  0.22104953  0.94312941
   0.55251619  0.10778943  0.05460060
   0.44503159  0.55679147  0.95129522
   0.55345159  0.44532518  0.05113489
   0.44241892  0.88625866  0.95150095
   0.55381176  0.77435495  0.04845561
   0.78024947  0.22720699  0.94802920
   0.88860761  0.10789864  0.05471203
   0.78000677  0.55684038  0.95253621
   0.88935251  0.44546964  0.04319708
   0.77713824  0.88615584  0.95137888
   0.88759040  0.77704238  0.04985475
unknown system                          
           1
     8.282217    4.782501    0.000000
    -8.323128    4.853338    0.000000
     0.000000    0.000000   30.000000
   V    Mo   W    S 
   3   3   3  18
Direct configuration=    12
   0.01536002  0.69742731  0.00149527
   0.32857692  0.65990081 -0.00119989
   0.66465544  0.66028369 -0.00115067
   0.32299340  0.31250351 -0.00029917
   0.33296877  0.01808228  0.00032123
   0.01766833  0.01791891  0.00032933
   1.01095458  0.31269708  0.00015991
   0.67576474  0.01683985 -0.00021830
   0.63497323  0.31277330  0.00016318
   0.11331238  0.22097751  0.94308843
   0.22155298  0.10999046  0.05672229
   0.10988816  0.55682636  0.95258400
   0.22510304  0.44515138  0.05121979
   0.11017634  0.88712578  0.94718853
   0.22299662  0.77734010  0.04982570
   0.44093696  0.22093787  0.94307668
   0.55244398  0.10779142  0.05460483
   0.44502452  0.55677261  0.95122687
   0.55328078  0.44512907  0.05120839
   0.44250128  0.88621546  0.95171284
   0.55379648  0.77432918  0.04829754
   0.78035793  0.22741438  0.94804977
   0.88869825  0.10792658  0.05473639
   0.78018744  0.55684760  0.95259805
   0.88943405  0.44563295  0.04285288
   0.77702241  0.88610650  0.95156162
   0.88758542  0.77727252  0.04984441
unknown system                          
           1
     8.276219    4.778852    0.000000
    -8.317769    4.850793    0.000000
     0.000000    0.000000   30.000000
   V    Mo   W    S 
   3   3   3  18
Direct configuration=    13
   0.01552132  0.69775075  0.00153516
   0.32821016  0.65921227 -0.00120209
   0.66435331  0.65965605 -0.00114767
   0.32306826  0.31264537 -0.00031293
   0.33287121  0.01819952  0.00031572
   0.01781588  0.01801796  0.00032464
   1.01108173  0.31266937  0.00014969
   0.67603710  0.01725962 -0.00020701
   0.63481692  0.31274425  0.00015305
   0.11334710  0.22093771  0.94306637
   0.22156586  0.11003265  0.05672510
   0.10981722  0.55682515  0.95260148
   0.22508299  0.44507195  0.05126188
   0.11022737  0.88723111  0.94717200
   0.22311989  0.77745762  0.04981309
   0.44086529  0.22089745  0.94305455
   0.55241426  0.10779876  0.05460448
   0.44502478  0.55676782  0.95118269
   0.55321652  0.44504385  0.05124696
   0.44253563  0.88619102  0.95182324
   0.55379496  0.77432751  0.04822009
   0.78041273  0.22751850  0.94805169
   0.88874371  0.10794797  0.05474767
   0.78025700  0.55684742  0.95261789
   0.88946482  0.44569661  0.04271112
   0.77696967  0.88607850  0.95165524
   0.88757877  0.77738770  0.04983579
unknown system                          
           1
     8.288183    4.786188    0.000000
    -8.329571    4.857855    0.000000
     0.000000    0.000000   30.000000
   V    Mo   W    S 
   3   3   3  18
Direct configuration=    14
   0.01537600  0.69763720  0.00150154
   0.32874771  0.66024211 -0.00121429
   0.66484389  0.66046167 -0.00117803
   0.32287662  0.31220016 -0.00030899
   0.33307773  0.01816936  0.00032479
   0.01765825  0.01801047  0.00033073
   1.01097593  0.31245068  0.00016382
   0.67578680  0.01690180 -0.00022508
   0.63470420  0.31265228  0.00017353
   0.11331043  0.22086919  0.94306478
   0.22152219  0.10991910  0.05672125
   0.10978560  0.55677585  0.95262481
   0.22512991  0.44502984  0.05122051
   0.11023827  0.88724452  0.94715285
   0.22306056  0.77743489  0.04987363
   0.44082734  0.22083237  0.94305444
   0.55240916  0.10772811  0.05460510
   0.44505262  0.55670368  0.95126314
   0.55317815  0.44508485  0.05119817
   0.44262070  0.88635968  0.95169630
   0.55386358  0.77434800  0.04829015
   0.78035197  0.22738828  0.94810650
   0.88866776  0.10785718  0.05473580
   0.78020115  0.55685044  0.95264948
   0.88941231  0.44557772  0.04271250
   0.77698806  0.88614993  0.95158453
   0.88754759  0.77733512  0.04987795
unknown system                          
           1
     8.289711    4.787059    0.000000
    -8.331026    4.858600    0.000000
     0.000000    0.000000   30.000000
   V    Mo   W    S 
   3   3   3  18
Direct configuration=    15
   0.01609921  0.69885622  0.00166772
   0.32695011  0.65687208 -0.00121088
   0.66332888  0.65755607 -0.00113575
   0.32334251  0.31319144 -0.00035864
   0.33251110  0.01853451  0.00029618
   0.01829252  0.01829450  0.00030826
   1.01153836  0.31264026  0.00011480
   0.67692758  0.01863438 -0.00016537
   0.63432782  0.31267241  0.00011662
   0.11347202  0.22082266  0.94298426
   0.22160978  0.11017702  0.05674752
   0.10959457  0.55682899  0.95265793
   0.22501927  0.44483359  0.05140396
   0.11038365  0.88755578  0.94711917
   0.22351523  0.77782549  0.04976533
   0.44063557  0.22077916  0.94297174
   0.55231267  0.10782382  0.05461736
   0.44501133  0.55676450  0.95103225
   0.55301115  0.44476289  0.05138203
   0.44261469  0.88607098  0.95218737
   0.55376649  0.77431170  0.04796742
   0.78060458  0.22788872  0.94804181
   0.88889782  0.10802018  0.05479855
   0.78049601  0.55683760  0.95267767
   0.88957377  0.44592341  0.04225321
   0.77680798  0.88597791  0.95195344
   0.88756980  0.77775820  0.04980594
unknown system                          
           1
     8.281067    4.782954    0.000000
    -8.321274    4.852588    0.000000
     0.000000    0.000000   30.000000
   V    Mo   W    S 
   3   3   3  18
Direct configuration=    16
   0.01626321  0.69930928  0.00172139
   0.32651226  0.65593875 -0.00120337
   0.66287472  0.65658638 -0.00112812
   0.32350312  0.31345874 -0.00037914
   0.33236059  0.01867367  0.00028774
   0.01847868  0.01841991  0.00030074
   1.01169145  0.31259646  0.00009557
   0.67732555  0.01921283 -0.00013235
   0.63412839  0.31271890  0.00010347
   0.11351627  0.22076650  0.94294597
   0.22162717  0.11023690  0.05675942
   0.10948317  0.55681954  0.95267556
   0.22498384  0.44470406  0.05146622
   0.11045300  0.88770134  0.94709468
   0.22369145  0.77798811  0.04974815
   0.44053674  0.22072280  0.94293300
   0.55227547  0.10782821  0.05461970
   0.44505776  0.55677124  0.95097429
   0.55293657  0.44467536  0.05143554
   0.44265798  0.88603738  0.95233460
   0.55379065  0.77429925  0.04785054
   0.78069074  0.22804393  0.94802462
   0.88895552  0.10804368  0.05482418
   0.78057684  0.55686444  0.95270273
   0.88962615  0.44602328  0.04206275
   0.77670603  0.88587845  0.95209362
   0.88751113  0.77789505  0.04978839
unknown system                          
           1
     8.283199    4.784066    0.000000
    -8.322513    4.852153    0.000000
     0.000000    0.000000   30.000000
   V    Mo   W    S 
   3   3   3  18
Direct configuration=    17
   0.01555608  0.69745224  0.00147347
   0.32879840  0.66087130 -0.00126973
   0.66550506  0.66197824 -0.00121124
   0.32272696  0.31217251 -0.00025655
   0.33313850  0.01781684  0.00032241
   0.01738894  0.01755747  0.00033145
   1.01148537  0.31293746  0.00023790
   0.67507706  0.01593033 -0.00027588
   0.63468023  0.31271933  0.00022061
   0.11322610  0.22089983  0.94309202
   0.22148597  0.10981254  0.05675792
   0.10994825  0.55686495  0.95262734
   0.22528566  0.44530391  0.05112061
   0.11011984  0.88696555  0.94717751
   0.22285294  0.77715481  0.04989297
   0.44093704  0.22087635  0.94307946
   0.55244556  0.10767664  0.05463476
   0.44484892  0.55676110  0.95141887
   0.55317907  0.44503091  0.05107843
   0.44244152  0.88624255  0.95151267
   0.55360173  0.77423064  0.04844337
   0.78027080  0.22724563  0.94815719
   0.88856224  0.10782226  0.05468035
   0.78020933  0.55679126  0.95268504
   0.88935460  0.44549999  0.04284462
   0.77725358  0.88643568  0.95132956
   0.88783469  0.77716411  0.04989478
unknown system                          
           1
     8.284697    4.784722    0.000000
    -8.322078    4.849459    0.000000
     0.000000    0.000000   30.000000
   V    Mo   W    S 
   3   3   3  18
Direct configuration=    18
   0.01556299  0.69735028  0.00141435
   0.32925500  0.66217908 -0.00129470
   0.66648713  0.66371437 -0.00124311
   0.32233946  0.31148859 -0.00025875
   0.33332916  0.01762434  0.00034432
   0.01717356  0.01731120  0.00034410
   1.01154700  0.31290915  0.00025738
   0.67447419  0.01511434 -0.00030960
   0.63453467  0.31253388  0.00023615
   0.11316874  0.22083607  0.94311692
   0.22142458  0.10964768  0.05674450
   0.10993497  0.55684301  0.95264269
   0.22548647  0.44543462  0.05108217
   0.11007167  0.88681961  0.94717850
   0.22273237  0.77702097  0.04996374
   0.44093033  0.22083983  0.94310425
   0.55243656  0.10760460  0.05463160
   0.44479380  0.55668415  0.95155511
   0.55311509  0.44512967  0.05100783
   0.44241975  0.88629057  0.95131760
   0.55355176  0.77420731  0.04855688
   0.78021734  0.22710869  0.94826431
   0.88847236  0.10773272  0.05463012
   0.78020357  0.55678509  0.95274165
   0.88928540  0.44537104  0.04287435
   0.77735697  0.88659624  0.95113726
   0.88790955  0.77703736  0.04996026
unknown system                          
           1
     8.294131    4.790097    0.000000
    -8.331732    4.855213    0.000000
     0.000000    0.000000   30.000000
   V    Mo   W    S 
   3   3   3  18
Direct configuration=    19
   0.01590531  0.69806936  0.00139976
   0.32944661  0.66360584 -0.00136460
   0.66836583  0.66648731 -0.00131600
   0.32149718  0.31003815 -0.00027424
   0.33356754  0.01738905  0.00037790
   0.01690756  0.01685816  0.00036768
   1.01228825  0.31289731  0.00034635
   0.67366275  0.01409487 -0.00025311
   0.63368191  0.31228915  0.00032343
   0.11307704  0.22045814  0.94306325
   0.22126043  0.10924937  0.05673087
   0.10969350  0.55678395  0.95276799
   0.22580298  0.44523946  0.05100131
   0.11021891  0.88696799  0.94711738
   0.22285070  0.77706346  0.05012088
   0.44063461  0.22053037  0.94304637
   0.55230971  0.10746385  0.05460610
   0.44479463  0.55643055  0.95189935
   0.55270295  0.44506726  0.05081767
   0.44247733  0.88632358  0.95116619
   0.55356151  0.77421814  0.04853014
   0.78029245  0.22720141  0.94848918
   0.88844314  0.10755872  0.05452083
   0.78035513  0.55688417  0.95299112
   0.88918899  0.44520635  0.04243218
   0.77732777  0.88680417  0.95095930
   0.88789973  0.77703432  0.05013263
unknown system                          
           1
     8.293198    4.789710    0.000000
    -8.330601    4.854487    0.000000
     0.000000    0.000000   30.000000
   V    Mo   W    S 
   3   3   3  18
Direct configuration=    20
   0.01619273  0.69875374  0.00148822
   0.32852022  0.66179188 -0.00135460
   0.66763812  0.66479289 -0.00128209
   0.32172489  0.31046664 -0.00035592
   0.33328705  0.01762888  0.00035176
   0.01717684  0.01702339  0.00034262
   1.01238533  0.31279839  0.00023879
   0.67447467  0.01531134 -0.00023812
   0.63348645  0.31225560  0.00022415
   0.11314061  0.22040384  0.94301567
   0.22128631  0.10934977  0.05676315
   0.10956616  0.55683048  0.95277484
   0.22576455  0.44505885  0.05115337
   0.11033245  0.88721603  0.94708446
   0.22313217  0.77732030  0.05007054
   0.44053616  0.22048341  0.94299797
   0.55224981  0.10752558  0.05464242
   0.44484427  0.55638624  0.95175817
   0.55256153  0.44496187  0.05096682
   0.44253443  0.88620524  0.95146540
   0.55360411  0.77423202  0.04834563
   0.78039310  0.22742959  0.94845089
   0.88859672  0.10763758  0.05461200
   0.78053752  0.55696039  0.95297833
   0.88931768  0.44546097  0.04217680
   0.77713895  0.88664492  0.95120829
   0.88779162  0.77728462  0.05012036
unknown system                          
           1
     8.293364    4.790057    0.000000
    -8.331198    4.855582    0.000000
     0.000000    0.000000   30.000000
   V    Mo   W    S 
   3   3   3  18
Direct configuration=    21
   0.01641776  0.69927470  0.00154902
   0.32796079  0.66093237 -0.00136800
   0.66770983  0.66452952 -0.00127532
   0.32164902  0.31037564 -0.00036482
   0.33319861  0.01776709  0.00035789
   0.01724987  0.01700814  0.00034979
   1.01265533  0.31277393  0.00024212
   0.67478741  0.01580394 -0.00020852
   0.63317351  0.31222363  0.00023116
   0.11312527  0.22026022  0.94297964
   0.22125880  0.10930937  0.05674304
   0.10946507  0.55686796  0.95280986
   0.22575405  0.44485134  0.05117676
   0.11043361  0.88738696  0.94706952
   0.22328118  0.77746526  0.05005454
   0.44041806  0.22036833  0.94296124
   0.55220944  0.10757179  0.05462229
   0.44487055  0.55630613  0.95178221
   0.55237743  0.44480590  0.05095242
   0.44258694  0.88614990  0.95161752
   0.55362341  0.77425870  0.04822926
   0.78044590  0.22754963  0.94848333
   0.88869412  0.10768867  0.05459893
   0.78068269  0.55705583  0.95303589
   0.88935851  0.44555468  0.04192507
   0.77703860  0.88665273  0.95130700
   0.88778868  0.77742209  0.05013804
unknown system                          
           1
     8.290510    4.788110    0.000000
    -8.327217    4.851679    0.000000
     0.000000    0.000000   30.000000
   V    Mo   W    S 
   3   3   3  18
Direct configuration=    22
   0.01662196  0.69981906  0.00162373
   0.32711628  0.65929665 -0.00136713
   0.66736698  0.66349399 -0.00124711
   0.32175666  0.31060343 -0.00039016
   0.33300494  0.01803727  0.00034897
   0.01741713  0.01709424  0.00034348
   1.01277788  0.31271493  0.00020951
   0.67546418  0.01675577 -0.00017503
   0.63297390  0.31224581  0.00020770
   0.11313703  0.22015811  0.94293950
   0.22126048  0.10936026  0.05673990
   0.10931379  0.55688686  0.95281293
   0.22567396  0.44461849  0.05125968
   0.11053680  0.88758053  0.94705486
   0.22348828  0.77768189  0.05001555
   0.44031747  0.22029664  0.94292030
   0.55217662  0.10766128  0.05461342
   0.44492634  0.55624903  0.95171146
   0.55222754  0.44463228  0.05099729
   0.44264766  0.88607185  0.95186096
   0.55365901  0.77430116  0.04807764
   0.78054814  0.22776596  0.94846194
   0.88883114  0.10779953  0.05462392
   0.78085919  0.55715389  0.95305395
   0.88943391  0.44571538  0.04168398
   0.77689988  0.88660084  0.95147780
   0.88777731  0.77761935  0.05014086
unknown system                          
           1
     8.299623    4.793452    0.000000
    -8.337256    4.858625    0.000000
     0.000000    0.000000   30.000000
   V    Mo   W    S 
   3   3   3  18
Direct configuration=    23
   0.01630931  0.69918013  0.00151580
   0.32846560  0.66212571 -0.00138117
   0.66820542  0.66536748 -0.00131941
   0.32149376  0.31005435 -0.00035520
   0.33344595  0.01758185  0.00037469
   0.01706009  0.01692583  0.00036263
   1.01267593  0.31269398  0.00027913
   0.67433592  0.01526865 -0.00022079
   0.63308180  0.31216438  0.00026497
   0.11309425  0.22024019  0.94298741
   0.22123376  0.10919518  0.05673588
   0.10948312  0.55686683  0.95284457
   0.22583281  0.44485238  0.05110217
   0.11039829  0.88732427  0.94706690
   0.22317308  0.77738019  0.05011402
   0.44041077  0.22032957  0.94296986
   0.55221936  0.10752118  0.05462087
   0.44486426  0.55624880  0.95189643
   0.55235824  0.44484110  0.05088217
   0.44263309  0.88626093  0.95145116
   0.55366906  0.77425829  0.04829696
   0.78038742  0.22741959  0.94855728
   0.88864068  0.10762200  0.05455311
   0.78061822  0.55705319  0.95308172
   0.88930726  0.44543543  0.04193594
   0.77705209  0.88668452  0.95122888
   0.88776490  0.77731844  0.05015392
unknown system                          
           1
     8.297941    4.792607    0.000000
    -8.335289    4.857290    0.000000
     0.000000    0.000000   30.000000
   V    Mo   W    S 
   3   3   3  18
Direct configuration=    24
   0.01669123  0.69995717  0.00161707
   0.32712449  0.65956421 -0.00137596
   0.66764868  0.66381231 -0.00125607
   0.32162093  0.31038195 -0.00041085
   0.33304970  0.01793383  0.00034544
   0.01735952  0.01699162  0.00033743
   1.01292804  0.31275442  0.00019596
   0.67530641  0.01664637 -0.00016031
   0.63285950  0.31223870  0.00019505
   0.11311129  0.22009381  0.94291930
   0.22122904  0.10927510  0.05675464
   0.10928852  0.55692046  0.95283374
   0.22574903  0.44458539  0.05125749
   0.11055503  0.88760831  0.94704158
   0.22350382  0.77766968  0.05005239
   0.44028067  0.22023794  0.94289965
   0.55216767  0.10765103  0.05464319
   0.44491152  0.55619130  0.95176760
   0.55212924  0.44462035  0.05099422
   0.44266308  0.88605417  0.95182796