   27   27  100    1
  0.9710400E+02  0.1002848E-08  0.1002848E-08  0.3000000E-08  0.5000000E-15
  1.000000000000000E-004
  CAR 
 unknown system                          
    159     34    120
 
  0.0000000E+00  0.0000000E+00  0.0000000E+00  0.1562500E-01
    1      -17.809514   1.000000
    2      -16.615935   1.000000
    3      -16.592569   1.000000
    4      -16.478058   1.000000
    5      -16.458483   1.000000
    6      -16.442919   1.000000
    7      -16.399044   1.000000
    8      -16.308601   1.000000
    9      -16.119399   1.000000
   10      -16.062389   1.000000
   11      -16.016979   1.000000
   12      -15.988280   1.000000
   13      -15.921242   1.000000
   14      -15.865825   1.000000
   15      -15.621166   1.000000
   16      -15.532056   1.000000
   17      -15.477906   1.000000
   18      -15.429823   1.000000
   19       -9.284784   1.000000
   20       -8.891736   1.000000
   21       -8.825144   1.000000
   22       -8.755334   1.000000
   23       -8.671066   1.000000
   24       -8.632343   1.000000
   25       -8.619215   1.000000
   26       -8.524836   1.000000
   27       -8.495596   1.000000
   28       -8.415753   1.000000
   29       -8.377203   1.000000
   30       -8.294191   1.000000
   31       -8.267747   1.000000
   32       -8.183449   1.000000
   33       -8.142556   1.000000
   34       -8.025117   1.000000
   35       -7.934157   1.000000
   36       -7.879973   1.000000
   37       -7.723329   1.000000
   38       -7.605426   1.000000
   39       -7.518040   1.000000
   40       -7.393038   1.000000
   41       -7.351727   1.000000
   42       -7.237999   1.000000
   43       -7.207266   1.000000
   44       -6.856557   1.000000
   45       -6.805665   1.000000
   46       -6.759886   1.000000
   47       -6.708335   1.000000
   48       -6.687657   1.000000
   49       -6.559164   1.000000
   50       -6.513180   1.000000
   51       -6.459157   1.000000
   52       -6.384572   1.000000
   53       -6.325254   1.000000
   54       -6.287112   1.000000
   55       -6.251594   1.000000
   56       -6.150140   1.000000
   57       -6.064270   1.000000
   58       -5.866297   1.000000
   59       -5.616619   1.000000
   60       -5.576607   1.000000
   61       -5.504186   1.000000
   62       -5.413215   1.000000
   63       -5.318040   1.000000
   64       -5.269307   1.000000
   65       -4.976939   1.000000
   66       -4.956080   1.000000
   67       -4.797497   1.000000
   68       -4.728179   1.000000
   69       -4.687784   1.000000
   70       -4.599460   1.000000
   71       -4.546615   1.000000
   72       -4.487324   1.000000
   73       -4.482926   1.000000
   74       -4.289372   1.000000
   75       -4.140500   1.000000
   76       -4.078677   1.000000
   77       -3.536443   0.999759
   78       -3.493440   0.999280
   79       -3.431577   0.997011
   80       -3.125884   0.721536
   81       -3.063007   0.556776
   82       -2.698078   0.007392
   83       -2.594580   0.000764
   84       -2.558448   0.000307
   85       -2.504169   0.000070
   86       -2.481673   0.000036
   87       -2.296328   0.000000
   88       -2.220786   0.000000
   89       -2.084034   0.000000
   90       -2.069902   0.000000
   91       -1.867054   0.000000
   92       -1.797359   0.000000
   93       -1.710513   0.000000
   94       -1.556983   0.000000
   95       -1.362183   0.000000
   96       -1.314617   0.000000
   97       -1.095730   0.000000
   98       -1.056402   0.000000
   99       -0.898577   0.000000
  100       -0.464168   0.000000
  101       -0.384597   0.000000
  102       -0.335536   0.000000
  103       -0.309997   0.000000
  104       -0.243822   0.000000
  105       -0.141412   0.000000
  106        0.093504   0.000000
  107        0.217878   0.000000
  108        0.300503   0.000000
  109        0.344858   0.000000
  110        0.351390   0.000000
  111        0.409066   0.000000
  112        0.665993   0.000000
  113        0.812644   0.000000
  114        0.877501   0.000000
  115        0.921060   0.000000
  116        0.967612   0.000000
  117        1.007602   0.000000
  118        1.671389   0.000000
  119        1.830649   0.000000
  120        2.181262   0.000000
 
  0.1250000E+00  0.2775558E-16  0.0000000E+00  0.3125000E-01
    1      -17.783441   1.000000
    2      -16.741835   1.000000
    3      -16.613945   1.000000
    4      -16.550953   1.000000
    5      -16.495883   1.000000
    6      -16.342073   1.000000
    7      -16.308113   1.000000
    8      -16.274383   1.000000
    9      -16.164595   1.000000
   10      -16.102396   1.000000
   11      -16.013221   1.000000
   12      -15.929824   1.000000
   13      -15.864305   1.000000
   14      -15.833302   1.000000
   15      -15.641505   1.000000
   16      -15.545627   1.000000
   17      -15.482662   1.000000
   18      -15.438808   1.000000
   19       -9.277240   1.000000
   20       -9.110130   1.000000
   21       -8.909723   1.000000
   22       -8.849546   1.000000
   23       -8.772522   1.000000
   24       -8.641624   1.000000
   25       -8.624465   1.000000
   26       -8.546491   1.000000
   27       -8.483808   1.000000
   28       -8.392208   1.000000
   29       -8.318235   1.000000
   30       -8.239932   1.000000
   31       -8.159113   1.000000
   32       -8.135280   1.000000
   33       -8.016662   1.000000
   34       -7.963513   1.000000
   35       -7.850921   1.000000
   36       -7.756167   1.000000
   37       -7.712277   1.000000
   38       -7.572708   1.000000
   39       -7.496936   1.000000
   40       -7.467013   1.000000
   41       -7.319073   1.000000
   42       -7.210830   1.000000
   43       -7.152982   1.000000
   44       -6.965216   1.000000
   45       -6.861199   1.000000
   46       -6.808136   1.000000
   47       -6.734425   1.000000
   48       -6.624757   1.000000
   49       -6.547344   1.000000
   50       -6.502212   1.000000
   51       -6.438297   1.000000
   52       -6.390086   1.000000
   53       -6.354360   1.000000
   54       -6.315835   1.000000
   55       -6.232618   1.000000
   56       -6.171884   1.000000
   57       -6.088459   1.000000
   58       -5.835080   1.000000
   59       -5.625135   1.000000
   60       -5.574507   1.000000
   61       -5.503194   1.000000
   62       -5.319691   1.000000
   63       -5.253137   1.000000
   64       -5.185164   1.000000
   65       -5.137431   1.000000
   66       -5.098061   1.000000
   67       -4.992346   1.000000
   68       -4.902546   1.000000
   69       -4.682877   1.000000
   70       -4.656380   1.000000
   71       -4.589075   1.000000
   72       -4.409440   1.000000
   73       -4.289547   1.000000
   74       -4.112921   1.000000
   75       -4.031869   1.000000
   76       -3.943289   1.000000
   77       -3.693993   0.999998
   78       -3.647674   0.999991
   79       -3.519954   0.999629
   80       -2.986016   0.343987
   81       -2.940386   0.234453
   82       -2.740866   0.016377
   83       -2.668593   0.004071
   84       -2.557524   0.000300
   85       -2.508500   0.000079
   86       -2.441970   0.000011
   87       -2.292427   0.000000
   88       -2.238207   0.000000
   89       -2.115602   0.000000
   90       -2.062608   0.000000
   91       -1.871462   0.000000
   92       -1.780536   0.000000
   93       -1.702526   0.000000
   94       -1.516002   0.000000
   95       -1.342597   0.000000
   96       -1.300740   0.000000
   97       -1.092978   0.000000
   98       -1.032891   0.000000
   99       -0.860718   0.000000
  100       -0.535315   0.000000
  101       -0.488440   0.000000
  102       -0.414580   0.000000
  103       -0.359000   0.000000
  104       -0.283923   0.000000
  105       -0.146852   0.000000
  106       -0.036126   0.000000
  107        0.120054   0.000000
  108        0.236464   0.000000
  109        0.296337   0.000000
  110        0.418263   0.000000
  111        0.470927   0.000000
  112        0.683066   0.000000
  113        0.798359   0.000000
  114        0.906040   0.000000
  115        0.971900   0.000000
  116        1.038068   0.000000
  117        1.077797   0.000000
  118        1.714552   0.000000
  119        1.870166   0.000000
  120        2.216443   0.000000
 
  0.2500000E+00  0.5551115E-16  0.0000000E+00  0.3125000E-01
    1      -17.706058   1.000000
    2      -16.972880   1.000000
    3      -16.661898   1.000000
    4      -16.567871   1.000000
    5      -16.531386   1.000000
    6      -16.273518   1.000000
    7      -16.239756   1.000000
    8      -16.231059   1.000000
    9      -16.181092   1.000000
   10      -16.107750   1.000000
   11      -16.012826   1.000000
   12      -15.870393   1.000000
   13      -15.803969   1.000000
   14      -15.708506   1.000000
   15      -15.673369   1.000000
   16      -15.586057   1.000000
   17      -15.504356   1.000000
   18      -15.461578   1.000000
   19       -9.478899   1.000000
   20       -9.214912   1.000000
   21       -9.042378   1.000000
   22       -8.965960   1.000000
   23       -8.930702   1.000000
   24       -8.747120   1.000000
   25       -8.568800   1.000000
   26       -8.504080   1.000000
   27       -8.433489   1.000000
   28       -8.380056   1.000000
   29       -8.250207   1.000000
   30       -8.211401   1.000000
   31       -8.173281   1.000000
   32       -8.050288   1.000000
   33       -7.886028   1.000000
   34       -7.787124   1.000000
   35       -7.733141   1.000000
   36       -7.653867   1.000000
   37       -7.608145   1.000000
   38       -7.533357   1.000000
   39       -7.415564   1.000000
   40       -7.360054   1.000000
   41       -7.206535   1.000000
   42       -7.158092   1.000000
   43       -7.083073   1.000000
   44       -7.020777   1.000000
   45       -6.924681   1.000000
   46       -6.862244   1.000000
   47       -6.739702   1.000000
   48       -6.675618   1.000000
   49       -6.591102   1.000000
   50       -6.538528   1.000000
   51       -6.482378   1.000000
   52       -6.399118   1.000000
   53       -6.329191   1.000000
   54       -6.245339   1.000000
   55       -6.181505   1.000000
   56       -6.140550   1.000000
   57       -6.083527   1.000000
   58       -5.837574   1.000000
   59       -5.621195   1.000000
   60       -5.598370   1.000000
   61       -5.535652   1.000000
   62       -5.448861   1.000000
   63       -5.418341   1.000000
   64       -5.352059   1.000000
   65       -5.282714   1.000000
   66       -5.130930   1.000000
   67       -5.036370   1.000000
   68       -4.940311   1.000000
   69       -4.689626   1.000000
   70       -4.651626   1.000000
   71       -4.555706   1.000000
   72       -4.282972   1.000000
   73       -4.212879   1.000000
   74       -4.098209   1.000000
   75       -3.930259   1.000000
   76       -3.899060   1.000000
   77       -3.750276   1.000000
   78       -3.656319   0.999993
   79       -3.514284   0.999572
   80       -2.886388   0.134344
   81       -2.856510   0.093860
   82       -2.774637   0.028961
   83       -2.707169   0.008814
   84       -2.584956   0.000603
   85       -2.524120   0.000122
   86       -2.423356   0.000006
   87       -2.282156   0.000000
   88       -2.248429   0.000000
   89       -2.172335   0.000000
   90       -2.055966   0.000000
   91       -1.865648   0.000000
   92       -1.752543   0.000000
   93       -1.685600   0.000000
   94       -1.440871   0.000000
   95       -1.302006   0.000000
   96       -1.259926   0.000000
   97       -1.085607   0.000000
   98       -0.987652   0.000000
   99       -0.782392   0.000000
  100       -0.689905   0.000000
  101       -0.648715   0.000000
  102       -0.552799   0.000000
  103       -0.507883   0.000000
  104       -0.371077   0.000000
  105       -0.297617   0.000000
  106       -0.187138   0.000000
  107       -0.019126   0.000000
  108        0.142057   0.000000
  109        0.173966   0.000000
  110        0.442267   0.000000
  111        0.545119   0.000000
  112        0.595369   0.000000
  113        0.838687   0.000000
  114        1.018280   0.000000
  115        1.074143   0.000000
  116        1.174427   0.000000
  117        1.253000   0.000000
  118        1.835495   0.000000
  119        1.983585   0.000000
  120        2.320851   0.000000
 
  0.3750000E+00  0.0000000E+00  0.0000000E+00  0.3125000E-01
    1      -17.580013   1.000000
    2      -17.203532   1.000000
    3      -16.702068   1.000000
    4      -16.600731   1.000000
    5      -16.507488   1.000000
    6      -16.330958   1.000000
    7      -16.223843   1.000000
    8      -16.175221   1.000000
    9      -16.136949   1.000000
   10      -16.068815   1.000000
   11      -15.971229   1.000000
   12      -15.871296   1.000000
   13      -15.737126   1.000000
   14      -15.687911   1.000000
   15      -15.654214   1.000000
   16      -15.575655   1.000000
   17      -15.546812   1.000000
   18      -15.487054   1.000000
   19       -9.709235   1.000000
   20       -9.253580   1.000000
   21       -9.149674   1.000000
   22       -9.048744   1.000000
   23       -8.907729   1.000000
   24       -8.830024   1.000000
   25       -8.515425   1.000000
   26       -8.496502   1.000000
   27       -8.388344   1.000000
   28       -8.360614   1.000000
   29       -8.242876   1.000000
   30       -8.225710   1.000000
   31       -8.141863   1.000000
   32       -8.026690   1.000000
   33       -7.883906   1.000000
   34       -7.782410   1.000000
   35       -7.691708   1.000000
   36       -7.635146   1.000000
   37       -7.532650   1.000000
   38       -7.404254   1.000000
   39       -7.326577   1.000000
   40       -7.228036   1.000000
   41       -7.174321   1.000000
   42       -7.090297   1.000000
   43       -7.021016   1.000000
   44       -6.971405   1.000000
   45       -6.866411   1.000000
   46       -6.810484   1.000000
   47       -6.716483   1.000000
   48       -6.668125   1.000000
   49       -6.571599   1.000000
   50       -6.551884   1.000000
   51       -6.398014   1.000000
   52       -6.379133   1.000000
   53       -6.296385   1.000000
   54       -6.211924   1.000000
   55       -6.125608   1.000000
   56       -6.029693   1.000000
   57       -5.988585   1.000000
   58       -5.916676   1.000000
   59       -5.871288   1.000000
   60       -5.777091   1.000000
   61       -5.747576   1.000000
   62       -5.690064   1.000000
   63       -5.613124   1.000000
   64       -5.532618   1.000000
   65       -5.229577   1.000000
   66       -5.019063   1.000000
   67       -4.946343   1.000000
   68       -4.830747   1.000000
   69       -4.770159   1.000000
   70       -4.630925   1.000000
   71       -4.590002   1.000000
   72       -4.531056   1.000000
   73       -4.157779   1.000000
   74       -4.118955   1.000000
   75       -3.973500   1.000000
   76       -3.795171   1.000000
   77       -3.595715   0.999954
   78       -3.472811   0.998819
   79       -3.404165   0.994693
   80       -2.951398   0.259012
   81       -2.921856   0.196196
   82       -2.769259   0.026537
   83       -2.653152   0.002932
   84       -2.624861   0.001562
   85       -2.486819   0.000042
   86       -2.431804   0.000008
   87       -2.269131   0.000000
   88       -2.244307   0.000000
   89       -2.196741   0.000000
   90       -2.057020   0.000000
   91       -1.844481   0.000000
   92       -1.735224   0.000000
   93       -1.672380   0.000000
   94       -1.397749   0.000000
   95       -1.276700   0.000000
   96       -1.216154   0.000000
   97       -1.094751   0.000000
   98       -0.952544   0.000000
   99       -0.811536   0.000000
  100       -0.782152   0.000000
  101       -0.704949   0.000000
  102       -0.627950   0.000000
  103       -0.619586   0.000000
  104       -0.508924   0.000000
  105       -0.479851   0.000000
  106       -0.316931   0.000000
  107       -0.097456   0.000000
  108        0.058038   0.000000
  109        0.082351   0.000000
  110        0.348233   0.000000
  111        0.549623   0.000000
  112        0.643445   0.000000
  113        0.838420   0.000000
  114        1.138582   0.000000
  115        1.158323   0.000000
  116        1.296775   0.000000
  117        1.398306   0.000000
  118        2.018267   0.000000
  119        2.157867   0.000000
  120        2.491015   0.000000
 
  0.5000000E+00  0.1110223E-15  0.0000000E+00  0.1562500E-01
    1      -17.412814   1.000000
    2      -17.407144   1.000000
    3      -16.716436   1.000000
    4      -16.613900   1.000000
    5      -16.487368   1.000000
    6      -16.362425   1.000000
    7      -16.227117   1.000000
    8      -16.171881   1.000000
    9      -16.096452   1.000000
   10      -16.022019   1.000000
   11      -15.989336   1.000000
   12      -15.857502   1.000000
   13      -15.718323   1.000000
   14      -15.692306   1.000000
   15      -15.651466   1.000000
   16      -15.586939   1.000000
   17      -15.539427   1.000000
   18      -15.493971   1.000000
   19       -9.792399   1.000000
   20       -9.280926   1.000000
   21       -9.188237   1.000000
   22       -9.087079   1.000000
   23       -8.869776   1.000000
   24       -8.791378   1.000000
   25       -8.632106   1.000000
   26       -8.469754   1.000000
   27       -8.378601   1.000000
   28       -8.329150   1.000000
   29       -8.225738   1.000000
   30       -8.173871   1.000000
   31       -8.119386   1.000000
   32       -8.048566   1.000000
   33       -7.874446   1.000000
   34       -7.830636   1.000000
   35       -7.724883   1.000000
   36       -7.645687   1.000000
   37       -7.510711   1.000000
   38       -7.373378   1.000000
   39       -7.296866   1.000000
   40       -7.231434   1.000000
   41       -7.129312   1.000000
   42       -7.033908   1.000000
   43       -6.968038   1.000000
   44       -6.897167   1.000000
   45       -6.847920   1.000000
   46       -6.754295   1.000000
   47       -6.690488   1.000000
   48       -6.634129   1.000000
   49       -6.596809   1.000000
   50       -6.446594   1.000000
   51       -6.411613   1.000000
   52       -6.358880   1.000000
   53       -6.242843   1.000000
   54       -6.185955   1.000000
   55       -6.111458   1.000000
   56       -6.071928   1.000000
   57       -6.020466   1.000000
   58       -5.960755   1.000000
   59       -5.872957   1.000000
   60       -5.844761   1.000000
   61       -5.833494   1.000000
   62       -5.746301   1.000000
   63       -5.653783   1.000000
   64       -5.607026   1.000000
   65       -5.272924   1.000000
   66       -5.118183   1.000000
   67       -4.967429   1.000000
   68       -4.842103   1.000000
   69       -4.755069   1.000000
   70       -4.608621   1.000000
   71       -4.559816   1.000000
   72       -4.533299   1.000000
   73       -4.257379   1.000000
   74       -4.098731   1.000000
   75       -3.930999   1.000000
   76       -3.705802   0.999999
   77       -3.617488   0.999976
   78       -3.376700   0.990886
   79       -3.299375   0.965174
   80       -3.003677   0.390995
   81       -2.972081   0.308488
   82       -2.772205   0.027843
   83       -2.665296   0.003799
   84       -2.626143   0.001608
   85       -2.453357   0.000015
   86       -2.430950   0.000008
   87       -2.267368   0.000000
   88       -2.242143   0.000000
   89       -2.195051   0.000000
   90       -2.055891   0.000000
   91       -1.834510   0.000000
   92       -1.730423   0.000000
   93       -1.668045   0.000000
   94       -1.388123   0.000000
   95       -1.274138   0.000000
   96       -1.201728   0.000000
   97       -1.107821   0.000000
   98       -0.940452   0.000000
   99       -0.857863   0.000000
  100       -0.793778   0.000000
  101       -0.703773   0.000000
  102       -0.658237   0.000000
  103       -0.625200   0.000000
  104       -0.591307   0.000000
  105       -0.554518   0.000000
  106       -0.375426   0.000000
  107       -0.115896   0.000000
  108        0.009247   0.000000
  109        0.065287   0.000000
  110        0.297114   0.000000
  111        0.560138   0.000000
  112        0.662097   0.000000
  113        0.837193   0.000000
  114        1.178375   0.000000
  115        1.193497   0.000000
  116        1.340692   0.000000
  117        1.453130   0.000000
  118        2.245918   0.000000
  119        2.257775   0.000000
  120        2.352995   0.000000
 
  0.0000000E+00  0.1250000E+00  0.0000000E+00  0.3125000E-01
    1      -17.783762   1.000000
    2      -16.714993   1.000000
    3      -16.618086   1.000000
    4      -16.560988   1.000000
    5      -16.515509   1.000000
    6      -16.374251   1.000000
    7      -16.299925   1.000000
    8      -16.249227   1.000000
    9      -16.190000   1.000000
   10      -16.054691   1.000000
   11      -16.003473   1.000000
   12      -15.938943   1.000000
   13      -15.909874   1.000000
   14      -15.804924   1.000000
   15      -15.630325   1.000000
   16      -15.554743   1.000000
   17      -15.491031   1.000000
   18      -15.431527   1.000000
   19       -9.270046   1.000000
   20       -9.102041   1.000000
   21       -8.944773   1.000000
   22       -8.850316   1.000000
   23       -8.754317   1.000000
   24       -8.686777   1.000000
   25       -8.578022   1.000000
   26       -8.515756   1.000000
   27       -8.476560   1.000000
   28       -8.387551   1.000000
   29       -8.353450   1.000000
   30       -8.253534   1.000000
   31       -8.199393   1.000000
   32       -8.113696   1.000000
   33       -8.041534   1.000000
   34       -7.959471   1.000000
   35       -7.824780   1.000000
   36       -7.737107   1.000000
   37       -7.676418   1.000000
   38       -7.597763   1.000000
   39       -7.533016   1.000000
   40       -7.445076   1.000000
   41       -7.278433   1.000000
   42       -7.234774   1.000000
   43       -7.189646   1.000000
   44       -6.915623   1.000000
   45       -6.851582   1.000000
   46       -6.801092   1.000000
   47       -6.765420   1.000000
   48       -6.675732   1.000000
   49       -6.593223   1.000000
   50       -6.472159   1.000000
   51       -6.421142   1.000000
   52       -6.377880   1.000000
   53       -6.348313   1.000000
   54       -6.280224   1.000000
   55       -6.227513   1.000000
   56       -6.188644   1.000000
   57       -6.086482   1.000000
   58       -5.805657   1.000000
   59       -5.678757   1.000000
   60       -5.559157   1.000000
   61       -5.452234   1.000000
   62       -5.356014   1.000000
   63       -5.297881   1.000000
   64       -5.160261   1.000000
   65       -5.113062   1.000000
   66       -5.058547   1.000000
   67       -5.010253   1.000000
   68       -4.891290   1.000000
   69       -4.762058   1.000000
   70       -4.659509   1.000000
   71       -4.558541   1.000000
   72       -4.372496   1.000000
   73       -4.281665   1.000000
   74       -4.211222   1.000000
   75       -4.014140   1.000000
   76       -3.894312   1.000000
   77       -3.723560   0.999999
   78       -3.646642   0.999990
   79       -3.480888   0.999025
   80       -2.995155   0.368063
   81       -2.942927   0.240003
   82       -2.760545   0.022971
   83       -2.617412   0.001315
   84       -2.590650   0.000694
   85       -2.522754   0.000118
   86       -2.422593   0.000006
   87       -2.329981   0.000000
   88       -2.252821   0.000000
   89       -2.109926   0.000000
   90       -2.090309   0.000000
   91       -1.882974   0.000000
   92       -1.762177   0.000000
   93       -1.628055   0.000000
   94       -1.538156   0.000000
   95       -1.350787   0.000000
   96       -1.289548   0.000000
   97       -1.099046   0.000000
   98       -1.021034   0.000000
   99       -0.862038   0.000000
  100       -0.535342   0.000000
  101       -0.472158   0.000000
  102       -0.440300   0.000000
  103       -0.355000   0.000000
  104       -0.234607   0.000000
  105       -0.128877   0.000000
  106       -0.054543   0.000000
  107        0.117904   0.000000
  108        0.211714   0.000000
  109        0.268737   0.000000
  110        0.359510   0.000000
  111        0.449168   0.000000
  112        0.717441   0.000000
  113        0.856947   0.000000
  114        0.934824   0.000000
  115        0.966756   0.000000
  116        1.020190   0.000000
  117        1.072792   0.000000
  118        1.714730   0.000000
  119        1.869652   0.000000
  120        2.216722   0.000000
 
  0.1250000E+00  0.1250000E+00  0.0000000E+00  0.3125000E-01
    1      -17.732229   1.000000
    2      -16.866625   1.000000
    3      -16.746196   1.000000
    4      -16.551194   1.000000
    5      -16.453225   1.000000
    6      -16.332281   1.000000
    7      -16.247863   1.000000
    8      -16.227762   1.000000
    9      -16.202074   1.000000
   10      -16.093306   1.000000
   11      -15.991482   1.000000
   12      -15.929273   1.000000
   13      -15.780457   1.000000
   14      -15.765216   1.000000
   15      -15.656166   1.000000
   16      -15.565218   1.000000
   17      -15.522758   1.000000
   18      -15.439851   1.000000
   19       -9.353123   1.000000
   20       -9.278679   1.000000
   21       -9.089228   1.000000
   22       -8.957419   1.000000
   23       -8.746520   1.000000
   24       -8.716643   1.000000
   25       -8.584419   1.000000
   26       -8.517797   1.000000
   27       -8.426523   1.000000
   28       -8.358735   1.000000
   29       -8.281831   1.000000
   30       -8.248779   1.000000
   31       -8.154958   1.000000
   32       -8.076098   1.000000
   33       -7.995931   1.000000
   34       -7.838280   1.000000
   35       -7.750780   1.000000
   36       -7.710296   1.000000
   37       -7.656400   1.000000
   38       -7.457423   1.000000
   39       -7.396026   1.000000
   40       -7.337889   1.000000
   41       -7.251569   1.000000
   42       -7.204978   1.000000
   43       -7.154572   1.000000
   44       -6.980492   1.000000
   45       -6.955400   1.000000
   46       -6.831328   1.000000
   47       -6.773171   1.000000
   48       -6.705438   1.000000
   49       -6.593002   1.000000
   50       -6.521453   1.000000
   51       -6.444894   1.000000
   52       -6.382563   1.000000
   53       -6.286240   1.000000
   54       -6.258025   1.000000
   55       -6.212911   1.000000
   56       -6.166598   1.000000
   57       -6.110591   1.000000
   58       -5.810391   1.000000
   59       -5.684239   1.000000
   60       -5.538493   1.000000
   61       -5.480521   1.000000
   62       -5.391691   1.000000
   63       -5.353574   1.000000
   64       -5.305416   1.000000
   65       -5.154689   1.000000
   66       -5.064200   1.000000
   67       -5.021047   1.000000
   68       -4.960507   1.000000
   69       -4.886293   1.000000
   70       -4.826778   1.000000
   71       -4.360582   1.000000
   72       -4.297196   1.000000
   73       -4.198655   1.000000
   74       -4.055462   1.000000
   75       -3.992210   1.000000
   76       -3.925475   1.000000
   77       -3.791172   1.000000
   78       -3.668142   0.999995
   79       -3.515529   0.999585
   80       -2.918242   0.189200
   81       -2.832637   0.068618
   82       -2.782308   0.032735
   83       -2.681958   0.005361
   84       -2.597799   0.000826
   85       -2.529694   0.000143
   86       -2.411935   0.000004
   87       -2.334833   0.000000
   88       -2.275430   0.000000
   89       -2.120739   0.000000
   90       -2.074344   0.000000
   91       -1.901316   0.000000
   92       -1.729746   0.000000
   93       -1.610924   0.000000
   94       -1.501126   0.000000
   95       -1.325913   0.000000
   96       -1.259546   0.000000
   97       -1.092816   0.000000
   98       -0.986922   0.000000
   99       -0.790047   0.000000
  100       -0.647380   0.000000
  101       -0.599500   0.000000
  102       -0.533093   0.000000
  103       -0.409799   0.000000
  104       -0.357533   0.000000
  105       -0.253685   0.000000
  106       -0.152546   0.000000
  107        0.003093   0.000000
  108        0.139273   0.000000
  109        0.278166   0.000000
  110        0.365935   0.000000
  111        0.494258   0.000000
  112        0.647381   0.000000
  113        0.869501   0.000000
  114        0.979037   0.000000
  115        1.076653   0.000000
  116        1.108319   0.000000
  117        1.187743   0.000000
  118        1.796850   0.000000
  119        1.946348   0.000000
  120        2.286588   0.000000
 
  0.2500000E+00  0.1250000E+00  0.0000000E+00  0.3125000E-01
    1      -17.630963   1.000000
    2      -17.080635   1.000000
    3      -16.839165   1.000000
    4      -16.527604   1.000000
    5      -16.427725   1.000000
    6      -16.300974   1.000000
    7      -16.253175   1.000000
    8      -16.214505   1.000000
    9      -16.166476   1.000000
   10      -16.057251   1.000000
   11      -15.982843   1.000000
   12      -15.899739   1.000000
   13      -15.780603   1.000000
   14      -15.664816   1.000000
   15      -15.636480   1.000000
   16      -15.600426   1.000000
   17      -15.551493   1.000000
   18      -15.454918   1.000000
   19       -9.604973   1.000000
   20       -9.373913   1.000000
   21       -9.187790   1.000000
   22       -8.984876   1.000000
   23       -8.817405   1.000000
   24       -8.704876   1.000000
   25       -8.537869   1.000000
   26       -8.469703   1.000000
   27       -8.385068   1.000000
   28       -8.347060   1.000000
   29       -8.275400   1.000000
   30       -8.217735   1.000000
   31       -8.144358   1.000000
   32       -8.072324   1.000000
   33       -7.996725   1.000000
   34       -7.860724   1.000000
   35       -7.801753   1.000000
   36       -7.545037   1.000000
   37       -7.446049   1.000000
   38       -7.402470   1.000000
   39       -7.352099   1.000000
   40       -7.244021   1.000000
   41       -7.177782   1.000000
   42       -7.104835   1.000000
   43       -7.078013   1.000000
   44       -6.975520   1.000000
   45       -6.869194   1.000000
   46       -6.824815   1.000000
   47       -6.761350   1.000000