       N       E                     dE             d eps       ncg     rms          rms(c)
DAV:   1     0.112423380786E+04    0.11242E+04   -0.35865E+04  8160   0.577E+02
DAV:   2    -0.497211638006E+01   -0.11292E+04   -0.10897E+04 11200   0.173E+02
DAV:   3    -0.199887431573E+03   -0.19492E+03   -0.18732E+03 10880   0.818E+01
DAV:   4    -0.209013233531E+03   -0.91258E+01   -0.88480E+01 12400   0.260E+01
DAV:   5    -0.209307947071E+03   -0.29471E+00   -0.29383E+00 11400   0.328E+00    0.275E+01
DAV:   6    -0.236743787984E+03   -0.27436E+02   -0.11030E+02 12360   0.603E+01    0.595E+01
DAV:   7    -0.196532196854E+03    0.40212E+02   -0.17819E+02 13440   0.152E+02    0.200E+01
DAV:   8    -0.189488704884E+03    0.70435E+01   -0.17471E+01 12080   0.128E+01    0.127E+01
DAV:   9    -0.188171684358E+03    0.13170E+01   -0.31156E+00 12480   0.632E+00    0.916E+00
DAV:  10    -0.187033113471E+03    0.11386E+01   -0.21413E+00 13480   0.740E+00    0.303E+00
DAV:  11    -0.186942847155E+03    0.90266E-01   -0.58971E-01 12440   0.233E+00    0.232E+00
DAV:  12    -0.187057468073E+03   -0.11462E+00   -0.66665E-01 13080   0.418E+00    0.468E+00
DAV:  13    -0.186883155091E+03    0.17431E+00   -0.49565E-01 12760   0.402E+00    0.211E+00
DAV:  14    -0.186845312037E+03    0.37843E-01   -0.10741E-01 13360   0.177E+00    0.123E+00
DAV:  15    -0.186840291298E+03    0.50207E-02   -0.62492E-02 12120   0.148E+00    0.110E+00
DAV:  16    -0.186829662795E+03    0.10629E-01   -0.19733E-02 12600   0.706E-01    0.471E-01
DAV:  17    -0.186827487590E+03    0.21752E-02   -0.90999E-03 12600   0.467E-01    0.241E-01
DAV:  18    -0.186827157480E+03    0.33011E-03   -0.21077E-03 11760   0.138E-01    0.179E-01
DAV:  19    -0.186826786673E+03    0.37081E-03   -0.95000E-04 10120   0.127E-01    0.516E-02
DAV:  20    -0.186827368248E+03   -0.58158E-03   -0.61379E-04  9080   0.584E-02    0.567E-02
DAV:  21    -0.186828026423E+03   -0.65817E-03   -0.42220E-04  9280   0.596E-02    0.435E-02
DAV:  22    -0.186829215234E+03   -0.11888E-02   -0.23045E-04  7560   0.586E-02    0.401E-02
DAV:  23    -0.186830483944E+03   -0.12687E-02   -0.15139E-04  7600   0.456E-02    0.111E-02
DAV:  24    -0.186831086679E+03   -0.60274E-03   -0.31866E-05  6640   0.140E-02    0.927E-03
DAV:  25    -0.186831471645E+03   -0.38497E-03   -0.17673E-05  5600   0.138E-02    0.562E-03
DAV:  26    -0.186831687662E+03   -0.21602E-03   -0.85519E-06  6840   0.742E-03    0.216E-03
DAV:  27    -0.186831794303E+03   -0.10664E-03   -0.39824E-06  6920   0.443E-03    0.126E-03
DAV:  28    -0.186831839203E+03   -0.44900E-04   -0.20999E-06  7320   0.346E-03
   1 F= -.18683184E+03 E0= -.18665931E+03  d E =-.186832E+03
       N       E                     dE             d eps       ncg     rms          rms(c)
DAV:   1    -0.187465821923E+03   -0.63403E+00   -0.27337E+02  8160   0.351E+01    0.461E+00
DAV:   2    -0.189254965150E+03   -0.17891E+01   -0.20083E+01 12200   0.148E+01    0.774E+00
DAV:   3    -0.189391549763E+03   -0.13658E+00   -0.37035E+00 12480   0.117E+01    0.699E+00
DAV:   4    -0.188734274011E+03    0.65728E+00   -0.66766E-01 12640   0.498E+00    0.176E+00
DAV:   5    -0.188727224381E+03    0.70496E-02   -0.29340E-01 10880   0.152E+00    0.211E+00
DAV:   6    -0.188691059441E+03    0.36165E-01   -0.29580E-01 12040   0.215E+00    0.200E+00
DAV:   7    -0.188688335077E+03    0.27244E-02   -0.17326E-01 12920   0.244E+00    0.229E+00
DAV:   8    -0.188648801002E+03    0.39534E-01   -0.92308E-02 12720   0.163E+00    0.528E-01
DAV:   9    -0.188645187751E+03    0.36133E-02   -0.77816E-03 10680   0.321E-01    0.185E-01
DAV:  10    -0.188645759737E+03   -0.57199E-03   -0.38238E-03 13440   0.303E-01    0.365E-01
DAV:  11    -0.188644867647E+03    0.89209E-03   -0.26348E-03 12240   0.303E-01    0.138E-01
DAV:  12    -0.188644934218E+03   -0.66571E-04   -0.64157E-04 11040   0.105E-01
   2 F= -.18864493E+03 E0= -.18850249E+03  d E =-.181310E+01
       N       E                     dE             d eps       ncg     rms          rms(c)
DAV:   1    -0.190565577445E+03   -0.19207E+01   -0.31203E+01  9240   0.142E+01    0.445E+00
DAV:   2    -0.190550224278E+03    0.15353E-01   -0.28435E+00 11360   0.967E+00    0.743E+00
DAV:   3    -0.190040306252E+03    0.50992E+00   -0.13566E+00 12360   0.865E+00    0.414E+00
DAV:   4    -0.189834166340E+03    0.20614E+00   -0.71118E-01 12760   0.408E+00    0.247E+00
DAV:   5    -0.189746378296E+03    0.87788E-01   -0.29145E-01 11720   0.188E+00    0.826E-01
DAV:   6    -0.189731501357E+03    0.14877E-01   -0.39389E-02 10600   0.706E-01    0.291E-01
DAV:   7    -0.189732922658E+03   -0.14213E-02   -0.87962E-03 12400   0.506E-01    0.427E-01
DAV:   8    -0.189731601386E+03    0.13213E-02   -0.30302E-03 11960   0.353E-01    0.150E-01
DAV:   9    -0.189731723428E+03   -0.12204E-03   -0.98150E-04 10440   0.119E-01    0.126E-01
DAV:  10    -0.189731721906E+03    0.15223E-05   -0.63104E-04 10160   0.119E-01
   3 F= -.18973172E+03 E0= -.18961116E+03  d E =-.108679E+01
       N       E                     dE             d eps       ncg     rms          rms(c)
DAV:   1    -0.191289308241E+03   -0.15576E+01   -0.74846E+01  8160   0.197E+01    0.462E+00
DAV:   2    -0.191184170061E+03    0.10514E+00   -0.54980E+00 13120   0.839E+00    0.526E+00
DAV:   3    -0.191199072195E+03   -0.14902E-01   -0.16394E+00 12160   0.923E+00    0.628E+00
DAV:   4    -0.190857780248E+03    0.34129E+00   -0.13178E+00 12880   0.720E+00    0.309E+00
DAV:   5    -0.190839593202E+03    0.18187E-01   -0.51480E-01 12000   0.460E+00    0.325E+00
DAV:   6    -0.190714221529E+03    0.12537E+00   -0.21701E-01 12240   0.330E+00    0.101E+00
DAV:   7    -0.190704427532E+03    0.97940E-02   -0.42438E-02 12520   0.102E+00    0.461E-01
DAV:   8    -0.190703360320E+03    0.10672E-02   -0.10552E-02 11440   0.613E-01    0.500E-01
DAV:   9    -0.190701197319E+03    0.21630E-02   -0.40282E-03 11360   0.461E-01    0.156E-01
DAV:  10    -0.190701437306E+03   -0.23999E-03   -0.11507E-03 10360   0.144E-01    0.118E-01
DAV:  11    -0.190701302282E+03    0.13502E-03   -0.84662E-04 10520   0.104E-01    0.528E-02
DAV:  12    -0.190701282395E+03    0.19887E-04   -0.15281E-04  7880   0.462E-02
   4 F= -.19070128E+03 E0= -.19059676E+03  d E =-.969560E+00
       N       E                     dE             d eps       ncg     rms          rms(c)
DAV:   1    -0.192029262072E+03   -0.13280E+01   -0.15600E+02  8160   0.279E+01    0.566E+00
DAV:   2    -0.191887053165E+03    0.14221E+00   -0.94959E+00 12240   0.933E+00    0.502E+00
DAV:   3    -0.192208962423E+03   -0.32191E+00   -0.24429E+00 11240   0.109E+01    0.935E+00
DAV:   4    -0.191585081677E+03    0.62388E+00   -0.28552E+00 12080   0.114E+01    0.406E+00
DAV:   5    -0.191522366243E+03    0.62715E-01   -0.83195E-01 12280   0.596E+00    0.374E+00
DAV:   6    -0.191334811654E+03    0.18755E+00   -0.29635E-01 12240   0.397E+00    0.935E-01
DAV:   7    -0.191328497095E+03    0.63146E-02   -0.55632E-02 12240   0.114E+00    0.570E-01
DAV:   8    -0.191326324814E+03    0.21723E-02   -0.18164E-02 11880   0.800E-01    0.595E-01
DAV:   9    -0.191323127059E+03    0.31978E-02   -0.61719E-03 11960   0.561E-01    0.183E-01
DAV:  10    -0.191323536048E+03   -0.40899E-03   -0.20533E-03 10920   0.177E-01    0.126E-01
DAV:  11    -0.191323292880E+03    0.24317E-03   -0.81329E-04 11240   0.108E-01    0.478E-02
DAV:  12    -0.191323295531E+03   -0.26508E-05   -0.11915E-04  6560   0.403E-02
   5 F= -.19132330E+03 E0= -.19122263E+03  d E =-.622013E+00
       N       E                     dE             d eps       ncg     rms          rms(c)
DAV:   1    -0.191363975451E+03   -0.40683E-01   -0.36231E+00  8160   0.401E+00    0.512E-01
DAV:   2    -0.191405585285E+03   -0.41610E-01   -0.20394E-01 12720   0.234E+00    0.183E+00
DAV:   3    -0.191375418012E+03    0.30167E-01   -0.70574E-02 12040   0.181E+00    0.445E-01
DAV:   4    -0.191375364541E+03    0.53471E-04   -0.93761E-03 11160   0.669E-01    0.455E-01
DAV:   5    -0.191373276977E+03    0.20876E-02   -0.50950E-03 10320   0.514E-01    0.194E-01
DAV:   6    -0.191373171479E+03    0.10550E-03   -0.16661E-03 10800   0.223E-01    0.165E-01
DAV:   7    -0.191373488774E+03   -0.31730E-03   -0.21407E-03 10440   0.330E-01    0.244E-01
DAV:   8    -0.191372862707E+03    0.62607E-03   -0.10216E-03  8920   0.219E-01    0.334E-02
DAV:   9    -0.191372875453E+03   -0.12745E-04   -0.91591E-05  5880   0.373E-02
   6 F= -.19137288E+03 E0= -.19127048E+03  d E =-.495799E-01
       N       E                     dE             d eps       ncg     rms          rms(c)
DAV:   1    -0.191417754261E+03   -0.44892E-01   -0.48546E+00  8160   0.463E+00    0.527E-01
DAV:   2    -0.191448597996E+03   -0.30844E-01   -0.16238E-01 12960   0.179E+00    0.163E+00
DAV:   3    -0.191426084594E+03    0.22513E-01   -0.66020E-02 12240   0.173E+00    0.548E-01
DAV:   4    -0.191424330397E+03    0.17542E-02   -0.97285E-03 11080   0.597E-01    0.400E-01
DAV:   5    -0.191423126867E+03    0.12035E-02   -0.56467E-03 10760   0.539E-01    0.274E-01
DAV:   6    -0.191422661871E+03    0.46500E-03   -0.27855E-03 10360   0.328E-01    0.196E-01
DAV:   7    -0.191422893738E+03   -0.23187E-03   -0.25415E-03 11320   0.355E-01    0.243E-01
DAV:   8    -0.191422283044E+03    0.61069E-03   -0.11631E-03  9360   0.234E-01    0.454E-02
DAV:   9    -0.191422273148E+03    0.98967E-05   -0.10085E-04  5640   0.442E-02
   7 F= -.19142227E+03 E0= -.19131863E+03  d E =-.493977E-01
       N       E                     dE             d eps       ncg     rms          rms(c)
DAV:   1    -0.191438158677E+03   -0.15876E-01   -0.44456E-01  8160   0.142E+00    0.198E-01
DAV:   2    -0.191441307240E+03   -0.31486E-02   -0.18475E-02 12160   0.672E-01    0.547E-01
DAV:   3    -0.191438575377E+03    0.27319E-02   -0.68258E-03 11520   0.581E-01    0.174E-01
DAV:   4    -0.191438670451E+03   -0.95074E-04   -0.15698E-03  9840   0.278E-01    0.205E-01
DAV:   5    -0.191438278615E+03    0.39184E-03   -0.11709E-03  9880   0.248E-01    0.997E-02
DAV:   6    -0.191438217947E+03    0.60669E-04   -0.42272E-04  7680   0.117E-01
   8 F= -.19143822E+03 E0= -.19133430E+03  d E =-.159448E-01
       N       E                     dE             d eps       ncg     rms          rms(c)
DAV:   1    -0.191453416395E+03   -0.15138E-01   -0.56702E-01  8160   0.160E+00    0.233E-01
DAV:   2    -0.191462952175E+03   -0.95358E-02   -0.35589E-02 12840   0.109E+00    0.943E-01
DAV:   3    -0.191454506785E+03    0.84454E-02   -0.17342E-02 11160   0.874E-01    0.185E-01
DAV:   4    -0.191454635495E+03   -0.12871E-03   -0.18655E-03  9800   0.299E-01    0.201E-01
DAV:   5    -0.191454203668E+03    0.43183E-03   -0.87408E-04 10080   0.208E-01    0.662E-02
DAV:   6    -0.191454242351E+03   -0.38683E-04   -0.25482E-04  6960   0.981E-02
   9 F= -.19145424E+03 E0= -.19134991E+03  d E =-.160244E-01
       N       E                     dE             d eps       ncg     rms          rms(c)
DAV:   1    -0.191496278672E+03   -0.42075E-01   -0.31591E+00  8160   0.374E+00    0.428E-01
DAV:   2    -0.191521431950E+03   -0.25153E-01   -0.10697E-01 13360   0.160E+00    0.150E+00
DAV:   3    -0.191500409594E+03    0.21022E-01   -0.42101E-02 12440   0.147E+00    0.317E-01
DAV:   4    -0.191500365993E+03    0.43602E-04   -0.42742E-03 11520   0.392E-01    0.331E-01
DAV:   5    -0.191499564484E+03    0.80151E-03   -0.37161E-03 12240   0.420E-01    0.214E-01
DAV:   6    -0.191499526570E+03    0.37913E-04   -0.20269E-03  9920   0.272E-01    0.178E-01
DAV:   7    -0.191499402787E+03    0.12378E-03   -0.14874E-03 10120   0.271E-01    0.145E-01
DAV:   8    -0.191499133639E+03    0.26915E-03   -0.41797E-04  8000   0.138E-01    0.206E-02
DAV:   9    -0.191499142725E+03   -0.90861E-05   -0.53528E-05  6280   0.268E-02
  10 F= -.19149914E+03 E0= -.19139524E+03  d E =-.449004E-01
       N       E                     dE             d eps       ncg     rms          rms(c)
DAV:   1    -0.191466769874E+03    0.32364E-01   -0.16098E+00  8160   0.269E+00    0.338E-01
DAV:   2    -0.191478173119E+03   -0.11403E-01   -0.56594E-02 13480   0.122E+00    0.102E+00
DAV:   3    -0.191468309502E+03    0.98636E-02   -0.20797E-02 12000   0.105E+00    0.277E-01
DAV:   4    -0.191468367210E+03   -0.57709E-04   -0.35771E-03 10200   0.418E-01    0.299E-01
DAV:   5    -0.191467518348E+03    0.84886E-03   -0.27885E-03 10400   0.387E-01    0.157E-01
DAV:   6    -0.191467398137E+03    0.12021E-03   -0.11288E-03 10280   0.193E-01    0.120E-01
DAV:   7    -0.191467408088E+03   -0.99510E-05   -0.89607E-04  8680   0.201E-01
  11 F= -.19146741E+03 E0= -.19136315E+03  d E =0.317346E-01
       N       E                     dE             d eps       ncg     rms          rms(c)
DAV:   1    -0.191532711375E+03   -0.65313E-01   -0.72089E+00  8160   0.569E+00    0.682E-01
DAV:   2    -0.191582605946E+03   -0.49895E-01   -0.25332E-01 13080   0.249E+00    0.217E+00
DAV:   3    -0.191541919733E+03    0.40686E-01   -0.97150E-02 12240   0.219E+00    0.570E-01
DAV:   4    -0.191542017349E+03   -0.97616E-04   -0.16085E-02 12240   0.849E-01    0.651E-01
DAV:   5    -0.191538275843E+03    0.37415E-02   -0.12377E-02 11600   0.793E-01    0.358E-01
DAV:   6    -0.191538122881E+03    0.15296E-03   -0.65432E-03 11120   0.490E-01    0.342E-01
DAV:   7    -0.191537462553E+03    0.66033E-03   -0.48228E-03 11640   0.478E-01    0.222E-01
DAV:   8    -0.191536828313E+03    0.63424E-03   -0.11298E-03  9560   0.203E-01    0.436E-02
DAV:   9    -0.191536806724E+03    0.21589E-04   -0.13308E-04  6680   0.426E-02
  12 F= -.19153681E+03 E0= -.19143343E+03  d E =-.693986E-01
       N       E                     dE             d eps       ncg     rms          rms(c)
DAV:   1    -0.191546907891E+03   -0.10080E-01   -0.14303E-01  8160   0.799E-01    0.853E-02
DAV:   2    -0.191547571846E+03   -0.66395E-03   -0.43957E-03 12200   0.272E-01    0.219E-01
DAV:   3    -0.191547163011E+03    0.40884E-03   -0.12802E-03  9920   0.248E-01    0.905E-02
DAV:   4    -0.191547130982E+03    0.32029E-04   -0.20446E-04  5800   0.956E-02
  13 F= -.19154713E+03 E0= -.19144412E+03  d E =-.103243E-01
       N       E                     dE             d eps       ncg     rms          rms(c)
DAV:   1    -0.191546632917E+03    0.53009E-03   -0.15969E-01  8160   0.903E-01    0.240E-01
DAV:   2    -0.191551032108E+03   -0.43992E-02   -0.18727E-02 11560   0.892E-01    0.696E-01
DAV:   3    -0.191545834722E+03    0.51974E-02   -0.87722E-03 11080   0.714E-01    0.172E-01
DAV:   4    -0.191546229603E+03   -0.39488E-03   -0.25117E-03  9560   0.338E-01    0.286E-01
DAV:   5    -0.191545539089E+03    0.69051E-03   -0.20922E-03  9560   0.302E-01    0.124E-01
DAV:   6    -0.191545365669E+03    0.17342E-03   -0.61028E-04  9320   0.116E-01    0.413E-02
DAV:   7    -0.191545344986E+03    0.20683E-04   -0.12434E-04  6880   0.492E-02
  14 F= -.19154534E+03 E0= -.19144267E+03  d E =0.178600E-02
       N       E                     dE             d eps       ncg     rms          rms(c)
DAV:   1    -0.191603751372E+03   -0.58386E-01   -0.47363E+00  8160   0.464E+00    0.544E-01
DAV:   2    -0.191627613517E+03   -0.23862E-01   -0.16607E-01 12960   0.181E+00    0.138E+00
DAV:   3    -0.191611894818E+03    0.15719E-01   -0.50933E-02 12200   0.156E+00    0.544E-01
DAV:   4    -0.191611372640E+03    0.52218E-03   -0.12691E-02 11480   0.757E-01    0.535E-01
DAV:   5    -0.191608744302E+03    0.26283E-02   -0.83272E-03 11200   0.667E-01    0.294E-01
DAV:   6    -0.191608313295E+03    0.43101E-03   -0.38661E-03 10280   0.353E-01    0.216E-01
DAV:   7    -0.191608446208E+03   -0.13291E-03   -0.32920E-03 11480   0.390E-01    0.258E-01
DAV:   8    -0.191607706344E+03    0.73986E-03   -0.13503E-03  9280   0.243E-01    0.390E-02
DAV:   9    -0.191607698743E+03    0.76010E-05   -0.98104E-05  5920   0.397E-02
  15 F= -.19160770E+03 E0= -.19150655E+03  d E =-.623538E-01
       N       E                     dE             d eps       ncg     rms          rms(c)
DAV:   1    -0.191667817894E+03   -0.60112E-01   -0.49175E+00  8160   0.472E+00    0.520E-01
DAV:   2    -0.191694101204E+03   -0.26283E-01   -0.16119E-01 12320   0.177E+00    0.150E+00
DAV:   3    -0.191675632688E+03    0.18469E-01   -0.56627E-02 12240   0.158E+00    0.474E-01
DAV:   4    -0.191674693430E+03    0.93926E-03   -0.82315E-03 11480   0.572E-01    0.423E-01
DAV:   5    -0.191673345113E+03    0.13483E-02   -0.61840E-03 11320   0.567E-01    0.290E-01
DAV:   6    -0.191672991838E+03    0.35327E-03   -0.37697E-03 11160   0.361E-01    0.196E-01
DAV:   7    -0.191672879869E+03    0.11197E-03   -0.23454E-03 11360   0.327E-01    0.187E-01
DAV:   8    -0.191672452201E+03    0.42767E-03   -0.73505E-04  9160   0.191E-01    0.340E-02
DAV:   9    -0.191672443906E+03    0.82950E-05   -0.78805E-05  6080   0.372E-02
  16 F= -.19167244E+03 E0= -.19157378E+03  d E =-.647452E-01
       N       E                     dE             d eps       ncg     rms          rms(c)
DAV:   1    -0.191669500540E+03    0.29517E-02   -0.94919E-03  8160   0.208E-01    0.224E-02
DAV:   2    -0.191669536391E+03   -0.35851E-04   -0.25737E-04  9600   0.722E-02
  17 F= -.19166954E+03 E0= -.19157081E+03  d E =0.290752E-02
       N       E                     dE             d eps       ncg     rms          rms(c)
DAV:   1    -0.191764958487E+03   -0.95458E-01   -0.12658E+01  8160   0.762E+00    0.750E-01
DAV:   2    -0.191793418056E+03   -0.28460E-01   -0.32326E-01 11760   0.187E+00    0.119E+00
DAV:   3    -0.191789455289E+03    0.39628E-02   -0.73627E-02 12360   0.187E+00    0.103E+00
DAV:   4    -0.191778983486E+03    0.10472E-01   -0.19776E-02 12240   0.943E-01    0.346E-01
DAV:   5    -0.191778744948E+03    0.23854E-03   -0.92459E-03 12360   0.596E-01    0.417E-01
DAV:   6    -0.191778129244E+03    0.61570E-03   -0.76057E-03 12240   0.638E-01    0.320E-01
DAV:   7    -0.191777007006E+03    0.11222E-02   -0.31886E-03 11160   0.370E-01    0.158E-01
DAV:   8    -0.191776770980E+03    0.23603E-03   -0.95791E-04 10000   0.210E-01    0.781E-02
DAV:   9    -0.191776711262E+03    0.59718E-04   -0.22295E-04  7360   0.887E-02
  18 F= -.19177671E+03 E0= -.19168371E+03  d E =-.107175E+00
       N       E                     dE             d eps       ncg     rms          rms(c)
DAV:   1    -0.191732424427E+03    0.44347E-01   -0.23829E+00  8160   0.333E+00    0.390E-01
DAV:   2    -0.191745507218E+03   -0.13083E-01   -0.76722E-02 12720   0.133E+00    0.107E+00
DAV:   3    -0.191734612356E+03    0.10895E-01   -0.29085E-02 12240   0.116E+00    0.284E-01
DAV:   4    -0.191734395689E+03    0.21667E-03   -0.44790E-03 11840   0.420E-01    0.288E-01
DAV:   5    -0.191733712345E+03    0.68334E-03   -0.32657E-03 11000   0.423E-01    0.201E-01
DAV:   6    -0.191733390352E+03    0.32199E-03   -0.16776E-03 10440   0.255E-01    0.105E-01
DAV:   7    -0.191733425967E+03   -0.35615E-04   -0.85698E-04  9880   0.191E-01
  19 F= -.19173343E+03 E0= -.19163752E+03  d E =0.432853E-01
       N       E                     dE             d eps       ncg     rms          rms(c)
DAV:   1    -0.191783825042E+03   -0.50435E-01   -0.30374E+00  8160   0.372E+00    0.395E-01
DAV:   2    -0.191798016905E+03   -0.14192E-01   -0.97723E-02 12080   0.125E+00    0.106E+00
DAV:   3    -0.191788861093E+03    0.91558E-02   -0.31363E-02 12240   0.116E+00    0.362E-01
DAV:   4    -0.191787530969E+03    0.13301E-02   -0.33855E-03 11480   0.326E-01    0.189E-01
DAV:   5    -0.191787752166E+03   -0.22120E-03   -0.29942E-03 12720   0.388E-01    0.264E-01
DAV:   6    -0.191787242588E+03    0.50958E-03   -0.24290E-03 10800   0.329E-01    0.121E-01
DAV:   7    -0.191787068794E+03    0.17379E-03   -0.65835E-04  9440   0.142E-01    0.737E-02
DAV:   8    -0.191787008270E+03    0.60525E-04   -0.14098E-04  7280   0.952E-02
  20 F= -.19178701E+03 E0= -.19169411E+03  d E =-.535823E-01
       N       E                     dE             d eps       ncg     rms          rms(c)
DAV:   1    -0.191785485062E+03    0.15837E-02   -0.24042E-03  8280   0.110E-01    0.166E-02
DAV:   2    -0.191785502151E+03   -0.17088E-04   -0.91400E-05  7200   0.487E-02
  21 F= -.19178550E+03 E0= -.19169258E+03  d E =0.150612E-02
       N       E                     dE             d eps       ncg     rms          rms(c)
DAV:   1    -0.191828643028E+03   -0.43158E-01   -0.23767E+00  8160   0.332E+00    0.392E-01
DAV:   2    -0.191839485032E+03   -0.10842E-01   -0.81714E-02 12000   0.122E+00    0.849E-01
DAV:   3    -0.191832113357E+03    0.73717E-02   -0.21382E-02 12440   0.105E+00    0.312E-01
DAV:   4    -0.191831838233E+03    0.27512E-03   -0.50248E-03 11480   0.462E-01    0.316E-01
DAV:   5    -0.191831006820E+03    0.83141E-03   -0.30237E-03 10920   0.416E-01    0.183E-01
DAV:   6    -0.191831002588E+03    0.42320E-05   -0.14932E-03 11480   0.259E-01    0.168E-01
DAV:   7    -0.191830865267E+03    0.13732E-03   -0.11883E-03 10360   0.258E-01    0.135E-01
DAV:   8    -0.191830645344E+03    0.21992E-03   -0.34748E-04  7960   0.132E-01    0.169E-02
DAV:   9    -0.191830654228E+03   -0.88843E-05   -0.45735E-05  6760   0.229E-02
  22 F= -.19183065E+03 E0= -.19174051E+03  d E =-.451521E-01
       N       E                     dE             d eps       ncg     rms          rms(c)
DAV:   1    -0.191845345880E+03   -0.14701E-01   -0.82152E-01  8160   0.194E+00    0.380E-01
DAV:   2    -0.191876319170E+03   -0.30973E-01   -0.87857E-02 12240   0.190E+00    0.186E+00
DAV:   3    -0.191845434076E+03    0.30885E-01   -0.62084E-02 11200   0.161E+00    0.199E-01
DAV:   4    -0.191845754642E+03   -0.32057E-03   -0.33155E-03 11360   0.397E-01    0.294E-01
DAV:   5    -0.191844913461E+03    0.84118E-03   -0.20337E-03 10480   0.335E-01    0.121E-01
DAV:   6    -0.191844750883E+03    0.16258E-03   -0.80396E-04  9960   0.138E-01    0.704E-02
DAV:   7    -0.191844747132E+03    0.37511E-05   -0.40912E-04 10160   0.133E-01
  23 F= -.19184475E+03 E0= -.19175512E+03  d E =-.140929E-01
       N       E                     dE             d eps       ncg     rms          rms(c)
DAV:   1    -0.191907308950E+03   -0.62558E-01   -0.47258E+00  8160   0.466E+00    0.518E-01
DAV:   2    -0.191930855601E+03   -0.23547E-01   -0.15460E-01 12200   0.168E+00    0.133E+00
DAV:   3    -0.191915174139E+03    0.15681E-01   -0.43299E-02 12440   0.152E+00    0.447E-01
DAV:   4    -0.191914421788E+03    0.75235E-03   -0.76090E-03 11160   0.579E-01    0.402E-01
DAV:   5    -0.191912796001E+03    0.16258E-02   -0.50177E-03 12520   0.547E-01    0.209E-01
DAV:   6    -0.191912770383E+03    0.25618E-04   -0.23392E-03 11920   0.301E-01    0.173E-01
DAV:   7    -0.191912572957E+03    0.19743E-03   -0.15951E-03 10600   0.290E-01    0.152E-01
DAV:   8    -0.191912292354E+03    0.28060E-03   -0.56615E-04  8480   0.171E-01    0.312E-02
DAV:   9    -0.191912289514E+03    0.28400E-05   -0.71631E-05  5800   0.375E-02
  24 F= -.19191229E+03 E0= -.19182644E+03  d E =-.675424E-01
       N       E                     dE             d eps       ncg     rms          rms(c)
DAV:   1    -0.191989371556E+03   -0.77079E-01   -0.86819E+00  8160   0.635E+00    0.723E-01
DAV:   2    -0.192025193408E+03   -0.35822E-01   -0.28304E-01 12400   0.213E+00    0.157E+00
DAV:   3    -0.192004425639E+03    0.20768E-01   -0.69153E-02 12320   0.199E+00    0.681E-01
DAV:   4    -0.192000660558E+03    0.37651E-02   -0.13553E-02 10520   0.789E-01    0.486E-01
DAV:   5    -0.191998736739E+03    0.19238E-02   -0.89449E-03 12480   0.756E-01    0.329E-01
DAV:   6    -0.191998045827E+03    0.69091E-03   -0.44739E-03 11800   0.433E-01    0.203E-01
DAV:   7    -0.191997828279E+03    0.21755E-03   -0.26616E-03 11160   0.375E-01    0.193E-01
DAV:   8    -0.191997368866E+03    0.45941E-03   -0.87180E-04 10360   0.220E-01    0.385E-02
DAV:   9    -0.191997358441E+03    0.10425E-04   -0.89230E-05  6160   0.419E-02
  25 F= -.19199736E+03 E0= -.19191596E+03  d E =-.850689E-01
       N       E                     dE             d eps       ncg     rms          rms(c)
DAV:   1    -0.192074240659E+03   -0.76872E-01   -0.36674E+01  8160   0.130E+01    0.139E+00
DAV:   2    -0.192197908173E+03   -0.12367E+00   -0.11540E+00 11080   0.389E+00    0.238E+00
DAV:   3    -0.192147824075E+03    0.50084E-01   -0.19145E-01 12320   0.356E+00    0.134E+00
DAV:   4    -0.192133171002E+03    0.14653E-01   -0.46032E-02 12160   0.173E+00    0.965E-01
DAV:   5    -0.192125663656E+03    0.75073E-02   -0.29740E-02 11760   0.147E+00    0.597E-01
DAV:   6    -0.192123160124E+03    0.25035E-02   -0.14182E-02 12680   0.739E-01    0.334E-01
DAV:   7    -0.192121987972E+03    0.11722E-02   -0.71039E-03 11680   0.581E-01    0.302E-01
DAV:   8    -0.192120916745E+03    0.10712E-02   -0.23565E-03 11600   0.375E-01    0.718E-02
DAV:   9    -0.192120862595E+03    0.54150E-04   -0.38750E-04  9400   0.811E-02
  26 F= -.19212086E+03 E0= -.19204581E+03  d E =-.123504E+00
       N       E                     dE             d eps       ncg     rms          rms(c)
DAV:   1    -0.192126016202E+03   -0.50995E-02   -0.90342E-01  8160   0.204E+00    0.251E-01
DAV:   2    -0.192130935520E+03   -0.49193E-02   -0.32669E-02 12520   0.932E-01    0.591E-01
DAV:   3    -0.192127108592E+03    0.38269E-02   -0.72296E-03 12240   0.723E-01    0.180E-01
DAV:   4    -0.192126900060E+03    0.20853E-03   -0.11991E-03 10640   0.273E-01    0.173E-01
DAV:   5    -0.192126767305E+03    0.13275E-03   -0.11515E-03 11440   0.293E-01    0.152E-01
DAV:   6    -0.192126525465E+03    0.24184E-03   -0.79407E-04 10320   0.182E-01    0.680E-02
DAV:   7    -0.192126524043E+03    0.14228E-05   -0.30575E-04  9520   0.138E-01
  27 F= -.19212652E+03 E0= -.19205108E+03  d E =-.566145E-02
       N       E                     dE             d eps       ncg     rms          rms(c)
DAV:   1    -0.192142780372E+03   -0.16255E-01   -0.12309E+00  8160   0.235E+00    0.270E-01
DAV:   2    -0.192147586720E+03   -0.48063E-02   -0.44214E-02 11080   0.854E-01    0.467E-01
DAV:   3    -0.192145400127E+03    0.21866E-02   -0.70605E-03 12480   0.700E-01    0.221E-01
DAV:   4    -0.192144912248E+03    0.48788E-03   -0.13214E-03 10680   0.279E-01    0.146E-01
DAV:   5    -0.192144861377E+03    0.50871E-04   -0.87812E-04 11120   0.264E-01
  28 F= -.19214486E+03 E0= -.19207066E+03  d E =-.183373E-01
       N       E                     dE             d eps       ncg     rms          rms(c)
DAV:   1    -0.192162333698E+03   -0.17421E-01   -0.18764E+00  8160   0.294E+00    0.337E-01
DAV:   2    -0.192167608734E+03   -0.52750E-02   -0.65399E-02 11840   0.760E-01    0.395E-01
DAV:   3    -0.192167356001E+03    0.25273E-03   -0.91080E-03 12440   0.779E-01    0.392E-01
DAV:   4    -0.192165465791E+03    0.18902E-02   -0.26653E-03 11800   0.435E-01    0.135E-01
DAV:   5    -0.192165791265E+03   -0.32547E-03   -0.13579E-03 10560   0.328E-01    0.209E-01
DAV:   6    -0.192165354680E+03    0.43659E-03   -0.11353E-03 10160   0.264E-01    0.688E-02
DAV:   7    -0.192165291554E+03    0.63126E-04   -0.24276E-04  7880   0.922E-02
  29 F= -.19216529E+03 E0= -.19209191E+03  d E =-.204302E-01
       N       E                     dE             d eps       ncg     rms          rms(c)
DAV:   1    -0.192186636401E+03   -0.21282E-01   -0.69416E+00  8160   0.565E+00    0.627E-01
DAV:   2    -0.192205290307E+03   -0.18654E-01   -0.24696E-01 11840   0.140E+00    0.619E-01
DAV:   3    -0.192207062124E+03   -0.17718E-02   -0.30596E-02 12200   0.143E+00    0.771E-01
DAV:   4    -0.192199533484E+03    0.75286E-02   -0.10269E-02 12000   0.877E-01    0.230E-01
DAV:   5    -0.192200803283E+03   -0.12698E-02   -0.48057E-03 12600   0.577E-01    0.413E-01
DAV:   6    -0.192199296813E+03    0.15065E-02   -0.40959E-03 11920   0.541E-01    0.163E-01
DAV:   7    -0.192198842878E+03    0.45393E-03   -0.91802E-04  9880   0.166E-01    0.380E-02
DAV:   8    -0.192198834236E+03    0.86422E-05   -0.12716E-04  7520   0.476E-02
  30 F= -.19219883E+03 E0= -.19212662E+03  d E =-.335427E-01
       N       E                     dE             d eps       ncg     rms          rms(c)
DAV:   1    -0.192210459115E+03   -0.11616E-01   -0.15139E+00  8160   0.263E+00    0.298E-01
DAV:   2    -0.192215466776E+03   -0.50077E-02   -0.51999E-02 11320   0.835E-01    0.441E-01
DAV:   3    -0.192213839309E+03    0.16275E-02   -0.79892E-03 12360   0.739E-01    0.274E-01
DAV:   4    -0.192213058713E+03    0.78060E-03   -0.19827E-03 11280   0.330E-01    0.149E-01
DAV:   5    -0.192213033067E+03    0.25646E-04   -0.13399E-03 11320   0.284E-01    0.151E-01
DAV:   6    -0.192212898632E+03    0.13444E-03   -0.77810E-04 10360   0.207E-01    0.779E-02
DAV:   7    -0.192212790291E+03    0.10834E-03   -0.19822E-04  6880   0.849E-02    0.318E-02
DAV:   8    -0.192212790009E+03    0.28213E-06   -0.64956E-05  6800   0.615E-02
  31 F= -.19221279E+03 E0= -.19214122E+03  d E =-.139558E-01
       N       E                     dE             d eps       ncg     rms          rms(c)
DAV:   1    -0.192216211751E+03   -0.34215E-02   -0.10072E-01  8160   0.684E-01    0.845E-02
DAV:   2    -0.192216502162E+03   -0.29041E-03   -0.39023E-03 10120   0.217E-01    0.102E-01
DAV:   3    -0.192216489798E+03    0.12364E-04   -0.52572E-04 11240   0.199E-01
  32 F= -.19221649E+03 E0= -.19214475E+03  d E =-.369979E-02
       N       E                     dE             d eps       ncg     rms          rms(c)
DAV:   1    -0.192222307936E+03   -0.58058E-02   -0.27496E-01  8160   0.113E+00    0.139E-01
DAV:   2    -0.192222723463E+03   -0.41553E-03   -0.87000E-03 11360   0.245E-01    0.872E-02
DAV:   3    -0.192222860464E+03   -0.13700E-03   -0.80987E-04 11360   0.210E-01    0.150E-01
DAV:   4    -0.192222611844E+03    0.24862E-03   -0.50035E-04  8920   0.212E-01    0.672E-02
DAV:   5    -0.192222603735E+03    0.81092E-05   -0.16545E-04  6360   0.104E-01
  33 F= -.19222260E+03 E0= -.19215108E+03  d E =-.611394E-02
       N       E                     dE             d eps       ncg     rms          rms(c)
DAV:   1    -0.192228780308E+03   -0.61685E-02   -0.27750E-01  8160   0.113E+00    0.147E-01
DAV:   2    -0.192229955046E+03   -0.11747E-02   -0.99437E-03 11080   0.441E-01    0.262E-01
DAV:   3    -0.192229165147E+03    0.78990E-03   -0.21193E-03 12240   0.390E-01    0.106E-01
DAV:   4    -0.192229083685E+03    0.81462E-04   -0.30924E-04  8440   0.144E-01
  34 F= -.19222908E+03 E0= -.19215799E+03  d E =-.647995E-02
       N       E                     dE             d eps       ncg     rms          rms(c)
DAV:   1    -0.192231103472E+03   -0.19383E-02   -0.27994E-02  8160   0.388E-01    0.895E-02
DAV:   2    -0.192232157403E+03   -0.10539E-02   -0.23271E-03 12360   0.388E-01    0.304E-01
DAV:   3    -0.192231039557E+03    0.11178E-02   -0.11996E-03 10040   0.332E-01    0.372E-02
DAV:   4    -0.192231082549E+03   -0.42993E-04   -0.77346E-05  5840   0.679E-02
  35 F= -.19223108E+03 E0= -.19215996E+03  d E =-.199886E-02
       N       E                     dE             d eps       ncg     rms          rms(c)
DAV:   1    -0.192241702863E+03   -0.10663E-01   -0.90455E-01  8160   0.204E+00    0.239E-01
DAV:   2    -0.192244346582E+03   -0.26437E-02   -0.28824E-02 11800   0.624E-01    0.351E-01
DAV:   3    -0.192243455158E+03    0.89142E-03   -0.52583E-03 12600   0.611E-01    0.248E-01
DAV:   4    -0.192242872895E+03    0.58226E-03   -0.12504E-03  9960   0.297E-01    0.121E-01
DAV:   5    -0.192242822859E+03    0.50036E-04   -0.77135E-04 10360   0.231E-01
  36 F= -.19224282E+03 E0= -.19217199E+03  d E =-.117403E-01
       N       E                     dE             d eps       ncg     rms          rms(c)
DAV:   1    -0.192227631581E+03    0.15241E-01   -0.12663E+00  8160   0.243E+00    0.294E-01
DAV:   2    -0.192234095316E+03   -0.64637E-02   -0.42551E-02 11160   0.943E-01    0.661E-01
DAV:   3    -0.192229590004E+03    0.45053E-02   -0.10346E-02 12120   0.874E-01    0.235E-01
DAV:   4    -0.192229113632E+03    0.47637E-03   -0.18769E-03 11480   0.274E-01    0.125E-01
DAV:   5    -0.192228827727E+03    0.28590E-03   -0.10100E-03 10680   0.130E-01    0.686E-02
DAV:   6    -0.192228948055E+03   -0.12033E-03   -0.61064E-04  9600   0.174E-01    0.117E-01
DAV:   7    -0.192228776481E+03    0.17157E-03   -0.32478E-04  8720   0.154E-01    0.317E-02
DAV:   8    -0.192228768949E+03    0.75316E-05   -0.32238E-05  6560   0.402E-02
  37 F= -.19222877E+03 E0= -.19215755E+03  d E =0.140539E-01
       N       E                     dE             d eps       ncg     rms          rms(c)
DAV:   1    -0.192207418430E+03    0.21358E-01   -0.26899E+00  8160   0.354E+00    0.422E-01
DAV:   2    -0.192215831830E+03   -0.84134E-02   -0.86508E-02 11480   0.114E+00    0.668E-01
DAV:   3    -0.192212328732E+03    0.35031E-02   -0.15446E-02 12560   0.109E+00    0.414E-01
DAV:   4    -0.192210429802E+03    0.18989E-02   -0.33510E-03 11600   0.474E-01    0.180E-01
DAV:   5    -0.192210568429E+03   -0.13863E-03   -0.25170E-03 11080   0.389E-01    0.227E-01
DAV:   6    -0.192210183143E+03    0.38529E-03   -0.17908E-03 10760   0.339E-01    0.128E-01
DAV:   7    -0.192209953779E+03    0.22936E-03   -0.46660E-04  9440   0.166E-01    0.591E-02
DAV:   8    -0.192209922537E+03    0.31242E-04   -0.11755E-04  6560   0.895E-02
  38 F= -.19220992E+03 E0= -.19213764E+03  d E =0.188464E-01
       N       E                     dE             d eps       ncg     rms          rms(c)
DAV:   1    -0.192196239896E+03    0.13714E-01   -0.14754E+00  8160   0.262E+00    0.297E-01
DAV:   2    -0.192199485817E+03   -0.32459E-02   -0.42891E-02 10840   0.719E-01    0.351E-01
DAV:   3    -0.192199491345E+03   -0.55275E-05   -0.67000E-03 12400   0.702E-01    0.367E-01
DAV:   4    -0.192197860406E+03    0.16309E-02   -0.21842E-03 11360   0.403E-01    0.911E-02
DAV:   5    -0.192197933494E+03   -0.73087E-04   -0.76939E-04 10280   0.139E-01
  39 F= -.19219793E+03 E0= -.19212510E+03  d E =0.119890E-01
       N       E                     dE             d eps       ncg     rms          rms(c)
DAV:   1    -0.192200087742E+03   -0.22273E-02   -0.16919E-01  8160   0.882E-01    0.119E-01
DAV:   2    -0.192201517103E+03   -0.14294E-02   -0.85135E-03 12760   0.424E-01    0.297E-01
DAV:   3    -0.192200508777E+03    0.10083E-02   -0.21394E-03 11280   0.386E-01    0.913E-02
DAV:   4    -0.192200419332E+03    0.89445E-04   -0.26825E-04  7320   0.103E-01
  40 F= -.19220042E+03 E0= -.19212781E+03  d E =-.248584E-02
       N       E                     dE             d eps       ncg     rms          rms(c)
DAV:   1    -0.192196079473E+03    0.44293E-02   -0.52171E-01  8160   0.156E+00    0.178E-01
DAV:   2    -0.192197103164E+03   -0.10237E-02   -0.17162E-02 10280   0.354E-01    0.117E-01
DAV:   3    -0.192197372394E+03   -0.26923E-03   -0.15077E-03 12400   0.258E-01    0.191E-01
DAV:   4    -0.192196919022E+03    0.45337E-03   -0.81177E-04 10120   0.254E-01    0.810E-02
DAV:   5    -0.192196952216E+03   -0.33194E-04   -0.38102E-04  8720   0.143E-01
  41 F= -.19219695E+03 E0= -.19212408E+03  d E =0.346712E-02
       N       E                     dE             d eps       ncg     rms          rms(c)
DAV:   1    -0.192185787064E+03    0.11132E-01   -0.27823E+00  8160   0.363E+00    0.411E-01
DAV:   2    -0.192192213067E+03   -0.64260E-02   -0.95955E-02 10880   0.865E-01    0.350E-01
DAV:   3    -0.192194084822E+03   -0.18718E-02   -0.11055E-02 12240   0.864E-01    0.542E-01
DAV:   4    -0.192190328706E+03    0.37561E-02   -0.57392E-03 11200   0.636E-01    0.151E-01
DAV:   5    -0.192191145401E+03   -0.81669E-03   -0.33385E-03 10240   0.412E-01    0.286E-01
DAV:   6    -0.192190123134E+03    0.10223E-02   -0.18965E-03 10240   0.352E-01    0.745E-02
DAV:   7    -0.192190033089E+03    0.90045E-04   -0.21302E-04  7120   0.761E-02
  42 F= -.19219003E+03 E0= -.19211611E+03  d E =0.691913E-02
       N       E                     dE             d eps       ncg     rms          rms(c)
DAV:   1    -0.192179395569E+03    0.10728E-01   -0.28634E+00  8160   0.365E+00    0.410E-01
DAV:   2    -0.192187123669E+03   -0.77281E-02   -0.10617E-01 11000   0.952E-01    0.378E-01
DAV:   3    -0.192188585126E+03   -0.14615E-02   -0.11696E-02 12120   0.879E-01    0.517E-01
DAV:   4    -0.192185070483E+03    0.35146E-02   -0.53551E-03 11120   0.616E-01    0.150E-01
DAV:   5    -0.192186050030E+03   -0.97955E-03   -0.33527E-03 10200   0.446E-01    0.309E-01
DAV:   6    -0.192184813886E+03    0.12361E-02   -0.18367E-03 10680   0.347E-01    0.375E-02
DAV:   7    -0.192184811867E+03    0.20188E-05   -0.93674E-05  6200   0.451E-02
  43 F= -.19218481E+03 E0= -.19211005E+03  d E =0.522122E-02
       N       E                     dE             d eps       ncg     rms          rms(c)
DAV:   1    -0.192189127778E+03   -0.43139E-02   -0.44847E-01  8160   0.145E+00    0.172E-01
DAV:   2    -0.192190414598E+03   -0.12868E-02   -0.11848E-02 11240   0.454E-01    0.287E-01
DAV:   3    -0.192189610871E+03    0.80373E-03   -0.28111E-03 12200   0.441E-01    0.151E-01
DAV:   4    -0.192189360794E+03    0.25008E-03   -0.67035E-04  9120   0.172E-01    0.746E-02
DAV:   5    -0.192189376176E+03   -0.15383E-04   -0.44536E-04  9200   0.162E-01
  44 F= -.19218938E+03 E0= -.19211517E+03  d E =-.456431E-02
       N       E                     dE             d eps       ncg     rms          rms(c)
DAV:   1    -0.192191878296E+03   -0.25175E-02   -0.16581E-01  8160   0.879E-01    0.113E-01
DAV:   2    -0.192192540522E+03   -0.66223E-03   -0.63223E-03 10920   0.309E-01    0.181E-01
DAV:   3    -0.192192215451E+03    0.32507E-03   -0.13955E-03 11120   0.283E-01    0.104E-01
DAV:   4    -0.192192128615E+03    0.86836E-04   -0.30161E-04  8480   0.141E-01
  45 F= -.19219213E+03 E0= -.19211806E+03  d E =-.275244E-02
       N       E                     dE             d eps       ncg     rms          rms(c)
DAV:   1    -0.192193647098E+03   -0.14316E-02   -0.57334E-02  8160   0.523E-01    0.850E-02
DAV:   2    -0.192194164399E+03   -0.51730E-03   -0.28352E-03 12320   0.276E-01    0.187E-01
DAV:   3    -0.192193712970E+03    0.45143E-03   -0.84146E-04 10480   0.245E-01    0.536E-02
DAV:   4    -0.192193721816E+03   -0.88459E-05   -0.13013E-04  6040   0.852E-02
  46 F= -.19219372E+03 E0= -.19211996E+03  d E =-.159320E-02
       N       E                     dE             d eps       ncg     rms          rms(c)
DAV:   1    -0.192196537143E+03   -0.28242E-02   -0.21306E-01  8160   0.997E-01    0.124E-01
DAV:   2    -0.192197065481E+03   -0.52834E-03   -0.76716E-03 11080   0.253E-01    0.116E-01
DAV:   3    -0.192197184891E+03   -0.11941E-03   -0.10864E-03 11320   0.271E-01    0.164E-01
DAV:   4    -0.192196883780E+03    0.30111E-03   -0.54984E-04  8520   0.192E-01    0.521E-02
DAV:   5    -0.192196869982E+03    0.13798E-04   -0.17380E-04  5840   0.745E-02
  47 F= -.19219687E+03 E0= -.19212348E+03  d E =-.314817E-02
       N       E                     dE             d eps       ncg     rms          rms(c)
DAV:   1    -0.192200042382E+03   -0.31586E-02   -0.27127E-01  8160   0.112E+00    0.135E-01
DAV:   2    -0.192200866833E+03   -0.82445E-03   -0.94840E-03 10440   0.330E-01    0.172E-01
DAV:   3    -0.192200709546E+03    0.15729E-03   -0.14908E-03 11680   0.322E-01    0.139E-01
DAV:   4    -0.192200477020E+03    0.23253E-03   -0.36270E-04  8960   0.158E-01    0.531E-02
DAV:   5    -0.192200542130E+03   -0.65110E-04   -0.28240E-04  9080   0.138E-01
  48 F= -.19220054E+03 E0= -.19212775E+03  d E =-.367215E-02
       N       E                     dE             d eps       ncg     rms          rms(c)
DAV:   1    -0.192199858333E+03    0.61869E-03   -0.11482E-02  8280   0.246E-01    0.303E-02
DAV:   2    -0.192199947912E+03   -0.89579E-04   -0.55163E-04 10680   0.120E-01
  49 F= -.19219995E+03 E0= -.19212701E+03  d E =0.594218E-03
       N       E                     dE             d eps       ncg     rms          rms(c)
DAV:   1    -0.192199628406E+03    0.22993E-03   -0.10427E-02  8200   0.229E-01    0.436E-02
DAV:   2    -0.192199692162E+03   -0.63756E-04   -0.49329E-04 10400   0.130E-01
  50 F= -.19219969E+03 E0= -.19212663E+03  d E =0.255750E-03
       N       E                     dE             d eps       ncg     rms          rms(c)
DAV:   1    -0.192202135811E+03   -0.25074E-02   -0.17300E-01  8160   0.901E-01    0.973E-02
DAV:   2    -0.192202550124E+03   -0.41431E-03   -0.56273E-03 10880   0.243E-01    0.106E-01
DAV:   3    -0.192202586786E+03   -0.36663E-04   -0.77540E-04 11120   0.225E-01
  51 F= -.19220259E+03 E0= -.19212963E+03  d E =-.289462E-02
       N       E                     dE             d eps       ncg     rms          rms(c)
DAV:   1    -0.192202654298E+03   -0.10417E-03   -0.14514E-03  9800   0.155E-01    0.364E-02
DAV:   2    -0.192202743371E+03   -0.89073E-04   -0.21528E-04  7880   0.122E-01
  52 F= -.19220274E+03 E0= -.19212992E+03  d E =-.156584E-03
       N       E                     dE             d eps       ncg     rms          rms(c)
DAV:   1    -0.192205559811E+03   -0.29055E-02   -0.20432E-01  8160   0.979E-01    0.127E-01
DAV:   2    -0.192206171591E+03   -0.61178E-03   -0.69876E-03 11800   0.318E-01    0.172E-01
DAV:   3    -0.192205937879E+03    0.23371E-03   -0.11655E-03 11160   0.291E-01    0.113E-01
DAV:   4    -0.192205788699E+03    0.14918E-03   -0.28504E-04  8280   0.135E-01    0.567E-02
DAV:   5    -0.192205834553E+03   -0.45854E-04   -0.24713E-04  8880   0.135E-01
  53 F= -.19220583E+03 E0= -.19213324E+03  d E =-.309118E-02
       N       E                     dE             d eps       ncg     rms          rms(c)
DAV:   1    -0.192204235676E+03    0.15530E-02   -0.63199E-02  8160   0.550E-01    0.780E-02
DAV:   2    -0.192204746865E+03   -0.51119E-03   -0.30596E-03 12480   0.278E-01    0.186E-01
DAV:   3    -0.192204317030E+03    0.42983E-03   -0.10413E-03 10000   0.253E-01    0.595E-02
DAV:   4    -0.192204283132E+03    0.33898E-04   -0.10005E-04  5560   0.724E-02
  54 F= -.19220428E+03 E0= -.19213182E+03  d E =0.155142E-02
       N       E                     dE             d eps       ncg     rms          rms(c)
DAV:   1    -0.192203220685E+03    0.10963E-02   -0.36766E-02  8160   0.423E-01    0.735E-02
DAV:   2    -0.192203638175E+03   -0.41749E-03   -0.20433E-03 12280   0.262E-01    0.188E-01
DAV:   3    -0.192203221902E+03    0.41627E-03   -0.77982E-04  9600   0.231E-01    0.419E-02
DAV:   4    -0.192203210253E+03    0.11649E-04   -0.59706E-05  5800   0.449E-02
  55 F= -.19220321E+03 E0= -.19213067E+03  d E =0.107288E-02
       N       E                     dE             d eps       ncg     rms          rms(c)
DAV:   1    -0.192203350867E+03   -0.12897E-03   -0.27211E-03  8640   0.123E-01    0.364E-02
DAV:   2    -0.192203567080E+03   -0.21621E-03   -0.41887E-04  9920   0.182E-01    0.133E-01
DAV:   3    -0.192203333118E+03    0.23396E-03   -0.23634E-04  7400   0.154E-01    0.134E-02
DAV:   4    -0.192203344303E+03   -0.11184E-04   -0.18936E-05  5600   0.315E-02
  56 F= -.19220334E+03 E0= -.19213082E+03  d E =-.134050E-03
       N       E                     dE             d eps       ncg     rms          rms(c)
DAV:   1    -0.192205337004E+03   -0.20039E-02   -0.85244E-02  8160   0.631E-01    0.809E-02
DAV:   2    -0.192205765748E+03   -0.42874E-03   -0.35296E-03 11040   0.256E-01    0.157E-01
DAV:   3    -0.192205500796E+03    0.26495E-03   -0.83485E-04 10360   0.227E-01    0.640E-02
DAV:   4    -0.192205457863E+03    0.42932E-04   -0.89736E-05  6000   0.728E-02
  57 F= -.19220546E+03 E0= -.19213305E+03  d E =-.211356E-02
       N       E                     dE             d eps       ncg     rms          rms(c)
DAV:   1    -0.192201986967E+03    0.35138E-02   -0.19340E-01  8160   0.949E-01    0.112E-01
DAV:   2    -0.192202602421E+03   -0.61545E-03   -0.71347E-03 11160   0.280E-01    0.147E-01
DAV:   3    -0.192202479777E+03    0.12264E-03   -0.13698E-03 10960   0.278E-01    0.126E-01
DAV:   4    -0.192202310230E+03    0.16955E-03   -0.34745E-04  8520   0.151E-01    0.519E-02
DAV:   5    -0.192202288535E+03    0.21695E-04   -0.10658E-04  6200   0.814E-02
  58 F= -.19220229E+03 E0= -.19212979E+03  d E =0.316933E-02
       N       E                     dE             d eps       ncg     rms          rms(c)
DAV:   1    -0.192185368561E+03    0.16942E-01   -0.32548E+00  8160   0.390E+00    0.486E-01
DAV:   2    -0.192194200490E+03   -0.88319E-02   -0.11783E-01 11040   0.115E+00    0.560E-01
DAV:   3    -0.192194550652E+03   -0.35016E-03   -0.21857E-02 12240   0.117E+00    0.591E-01
DAV:   4    -0.192190064634E+03    0.44860E-02   -0.64337E-03 11440   0.659E-01    0.151E-01
DAV:   5    -0.192190311818E+03   -0.24718E-03   -0.22455E-03 11040   0.233E-01    0.178E-01
DAV:   6    -0.192189969388E+03    0.34243E-03   -0.14426E-03 11160   0.296E-01    0.134E-01
DAV:   7    -0.192189755293E+03    0.21410E-03   -0.42928E-04  8800   0.176E-01    0.394E-02
DAV:   8    -0.192189746789E+03    0.85045E-05   -0.65168E-05  6680   0.589E-02
  59 F= -.19218975E+03 E0= -.19211659E+03  d E =0.125417E-01
       N       E                     dE             d eps       ncg     rms          rms(c)
DAV:   1    -0.192198602933E+03   -0.88476E-02   -0.42268E+00  8160   0.445E+00    0.529E-01
DAV:   2    -0.192208420939E+03   -0.98180E-02   -0.14553E-01 10800   0.118E+00    0.510E-01
DAV:   3    -0.192210634972E+03   -0.22140E-02   -0.25221E-02 11560   0.120E+00    0.676E-01
DAV:   4    -0.192204987127E+03    0.56478E-02   -0.99147E-03 10800   0.834E-01    0.229E-01
DAV:   5    -0.192205061811E+03   -0.74685E-04   -0.30063E-03 11520   0.413E-01    0.250E-01
DAV:   6    -0.192204753208E+03    0.30860E-03   -0.25596E-03 11920   0.428E-01    0.185E-01
DAV:   7    -0.192204204279E+03    0.54893E-03   -0.79467E-04 10000   0.194E-01    0.375E-02
DAV:   8    -0.192204218966E+03   -0.14686E-04   -0.10636E-04  6720   0.813E-02
  60 F= -.19220422E+03 E0= -.19213188E+03  d E =-.144722E-01
       N       E                     dE             d eps       ncg     rms          rms(c)
DAV:   1    -0.192205727624E+03   -0.15233E-02   -0.53744E-02  8160   0.503E-01    0.656E-02
DAV:   2    -0.192205905850E+03   -0.17823E-03   -0.22300E-03 11240   0.177E-01    0.846E-02
DAV:   3    -0.192205875584E+03    0.30265E-04   -0.37555E-04  9680   0.159E-01
  61 F= -.19220588E+03 E0= -.19213364E+03  d E =-.165662E-02
       N       E                     dE             d eps       ncg     rms          rms(c)
DAV:   1    -0.192205811286E+03    0.94563E-04   -0.11014E-04  6120   0.926E-02    0.304E-02
DAV:   2    -0.192205916358E+03   -0.10507E-03   -0.17620E-04  7680   0.125E-01    0.935E-02
DAV:   3    -0.192205804943E+03    0.11141E-03   -0.13973E-04  7200   0.112E-01    0.173E-02
DAV:   4    -0.192205807509E+03   -0.25661E-05   -0.16668E-05  6000   0.264E-02
  62 F= -.19220581E+03 E0= -.19213366E+03  d E =0.680748E-04
       N       E                     dE             d eps       ncg     rms          rms(c)
DAV:   1    -0.192206715172E+03   -0.91023E-03   -0.33830E-02  8160   0.394E-01    0.620E-02
DAV:   2    -0.192207225759E+03   -0.51059E-03   -0.21806E-03 12240   0.273E-01    0.193E-01
DAV:   3    -0.192206762033E+03    0.46373E-03   -0.74440E-04  9480   0.227E-01    0.290E-02
DAV:   4    -0.192206766833E+03   -0.47999E-05   -0.42598E-05  5600   0.488E-02
  63 F= -.19220677E+03 E0= -.19213463E+03  d E =-.959324E-03
       N       E                     dE             d eps       ncg     rms          rms(c)
DAV:   1    -0.192209132489E+03   -0.23705E-02   -0.11419E-01  8160   0.731E-01    0.861E-02
DAV:   2    -0.192209333212E+03   -0.20072E-03   -0.34179E-03  9840   0.164E-01    0.703E-02
DAV:   3    -0.192209396461E+03   -0.63249E-04   -0.39594E-04  9960   0.167E-01
  64 F= -.19220940E+03 E0= -.19213743E+03  d E =-.262963E-02
       N       E                     dE             d eps       ncg     rms          rms(c)
DAV:   1    -0.192209797168E+03   -0.46396E-03   -0.87301E-03  8680   0.248E-01    0.523E-02
DAV:   2    -0.192210031703E+03   -0.23453E-03   -0.73325E-04 10760   0.194E-01    0.142E-01
DAV:   3    -0.192209775472E+03    0.25623E-03   -0.37403E-04  8720   0.170E-01    0.288E-02
DAV:   4    -0.192209787530E+03   -0.12058E-04   -0.47434E-05  5760   0.492E-02
  65 F= -.19220979E+03 E0= -.19213794E+03  d E =-.391069E-03
       N       E                     dE             d eps       ncg     rms          rms(c)
DAV:   1    -0.192213019920E+03   -0.32444E-02   -0.18765E-01  8160   0.937E-01    0.114E-01
DAV:   2    -0.192213456634E+03   -0.43671E-03   -0.59310E-03 10240   0.238E-01    0.129E-01
DAV:   3    -0.192213457040E+03   -0.40658E-06   -0.91277E-04 11240   0.261E-01
  66 F= -.19221346E+03 E0= -.19214157E+03  d E =-.366951E-02
       N       E                     dE             d eps       ncg     rms          rms(c)
DAV:   1    -0.192210675625E+03    0.27810E-02   -0.89153E-02  8160   0.670E-01    0.879E-02
DAV:   2    -0.192211832901E+03   -0.11573E-02   -0.40760E-03 11720   0.393E-01    0.293E-01
DAV:   3    -0.192210806296E+03    0.10266E-02   -0.13063E-03 10160   0.335E-01    0.387E-02
DAV:   4    -0.192210815105E+03   -0.88087E-05   -0.74942E-05  5680   0.617E-02
  67 F= -.19221082E+03 E0= -.19213890E+03  d E =0.264194E-02
       N       E                     dE             d eps       ncg     rms          rms(c)
DAV:   1    -0.192205206461E+03    0.55998E-02   -0.49577E-01  8160   0.154E+00    0.215E-01
DAV:   2    -0.192207793037E+03   -0.25866E-02   -0.16307E-02 12200   0.640E-01    0.463E-01
DAV:   3    -0.192205557387E+03    0.22357E-02   -0.42372E-03 12200   0.590E-01    0.145E-01
DAV:   4    -0.192205252110E+03    0.30528E-03   -0.49923E-04 10160   0.139E-01    0.519E-02
DAV:   5    -0.192205298249E+03   -0.46139E-04   -0.27587E-04  8920   0.956E-02
  68 F= -.19220530E+03 E0= -.19213285E+03  d E =0.551686E-02
       N       E                     dE             d eps       ncg     rms          rms(c)
DAV:   1    -0.192213428563E+03   -0.81765E-02   -0.10174E+00  8160   0.219E+00    0.289E-01
DAV:   2    -0.192216995034E+03   -0.35665E-02   -0.31623E-02 11280   0.783E-01    0.513E-01
DAV:   3    -0.192214360029E+03    0.26350E-02   -0.63686E-03 11600   0.719E-01    0.225E-01
DAV:   4    -0.192213779327E+03    0.58070E-03   -0.14375E-03 10880   0.285E-01    0.131E-01
DAV:   5    -0.192213863582E+03   -0.84255E-04   -0.10935E-03 11000   0.285E-01    0.157E-01
DAV:   6    -0.192213597521E+03    0.26606E-03   -0.62670E-04  9320   0.209E-01    0.564E-02
DAV:   7    -0.192213552225E+03    0.45296E-04   -0.10426E-04  6480   0.672E-02
  69 F= -.19221355E+03 E0= -.19214215E+03  d E =-.825398E-02
       N       E                     dE             d eps       ncg     rms          rms(c)
DAV:   1    -0.192214664631E+03   -0.10671E-02   -0.19488E-02  8160   0.310E-01    0.477E-02
DAV:   2    -0.192214728914E+03   -0.64283E-04   -0.85844E-04 10640   0.115E-01
  70 F= -.19221473E+03 E0= -.19214339E+03  d E =-.117669E-02
       N       E                     dE             d eps       ncg     rms          rms(c)
DAV:   1    -0.192214896149E+03   -0.23152E-03   -0.60769E-03  8240   0.197E-01    0.471E-02
DAV:   2    -0.192215087979E+03   -0.19183E-03   -0.59914E-04 11200   0.178E-01    0.130E-01
DAV:   3    -0.192214860460E+03    0.22752E-03   -0.30603E-04  8600   0.150E-01    0.218E-02
DAV:   4    -0.192214887215E+03   -0.26755E-04   -0.57236E-05  5720   0.623E-02
  71 F= -.19221489E+03 E0= -.19214348E+03  d E =-.158301E-03
       N       E                     dE             d eps       ncg     rms          rms(c)
DAV:   1    -0.192217519277E+03   -0.26588E-02   -0.10941E-01  8160   0.714E-01    0.866E-02
DAV:   2    -0.192217852805E+03   -0.33353E-03   -0.38933E-03 10600   0.221E-01    0.121E-01
DAV:   3    -0.192217777406E+03    0.75399E-04   -0.54805E-04 10400   0.210E-01
  72 F= -.19221778E+03 E0= -.19214647E+03  d E =-.289019E-02
       N       E                     dE             d eps       ncg     rms          rms(c)
DAV:   1    -0.192215230771E+03    0.26220E-02   -0.81012E-02  8160   0.635E-01    0.934E-02
DAV:   2    -0.192216327616E+03   -0.10968E-02   -0.43215E-03 11640   0.396E-01    0.295E-01
DAV:   3    -0.192215310364E+03    0.10173E-02   -0.14567E-03 10120   0.333E-01    0.397E-02
DAV:   4    -0.192215308504E+03    0.18607E-05   -0.68035E-05  6040   0.603E-02
  73 F= -.19221531E+03 E0= -.19214389E+03  d E =0.246890E-02
       N       E                     dE             d eps       ncg     rms          rms(c)
DAV:   1    -0.192217391307E+03   -0.20809E-02   -0.11661E-01  8160   0.739E-01    0.852E-02
DAV:   2    -0.192218059716E+03   -0.66841E-03   -0.47336E-03 13280   0.306E-01    0.185E-01
DAV:   3    -0.192217652321E+03    0.40740E-03   -0.88392E-04 10200   0.248E-01    0.579E-02
DAV:   4    -0.192217634299E+03    0.18022E-04   -0.10554E-04  5720   0.834E-02
  74 F= -.19221763E+03 E0= -.19214647E+03  d E =-.232580E-02
       N       E                     dE             d eps       ncg     rms          rms(c)
DAV:   1    -0.192211657257E+03    0.59951E-02   -0.96533E-01  8160   0.218E+00    0.410E-01
DAV:   2    -0.192227662148E+03   -0.16005E-01   -0.56317E-02 11920   0.161E+00    0.126E+00
DAV:   3    -0.192210300563E+03    0.17362E-01   -0.28457E-02 11760   0.141E+00    0.194E-01
DAV:   4    -0.192210471704E+03   -0.17114E-03   -0.29779E-03 11560   0.409E-01    0.277E-01
DAV:   5    -0.192209650898E+03    0.82081E-03   -0.21477E-03 11080   0.411E-01    0.146E-01
DAV:   6    -0.192209474709E+03    0.17619E-03   -0.83688E-04  9840   0.204E-01    0.883E-02
DAV:   7    -0.192209423562E+03    0.51147E-04   -0.33308E-04  9440   0.159E-01
  75 F= -.19220942E+03 E0= -.19213719E+03  d E =0.821074E-02
       N       E                     dE             d eps       ncg     rms          rms(c)
DAV:   1    -0.192223092886E+03   -0.13618E-01   -0.15610E+00  8160   0.275E+00    0.475E-01
DAV:   2    -0.192240204782E+03   -0.17112E-01   -0.74872E-02 11840   0.174E+00    0.123E+00
DAV:   3    -0.192221615931E+03    0.18589E-01   -0.26645E-02 11720   0.144E+00    0.229E-01
DAV:   4    -0.192221330589E+03    0.28534E-03   -0.37396E-03 10200   0.400E-01    0.256E-01
DAV:   5    -0.192220810675E+03    0.51991E-03   -0.26840E-03 11080   0.447E-01    0.181E-01
DAV:   6    -0.192220445049E+03    0.36563E-03   -0.11660E-03 11000   0.243E-01    0.668E-02
DAV:   7    -0.192220415127E+03    0.29922E-04   -0.28507E-04  8160   0.114E-01
  76 F= -.19222042E+03 E0= -.19214946E+03  d E =-.109916E-01
       N       E                     dE             d eps       ncg     rms          rms(c)
DAV:   1    -0.192223575182E+03   -0.31301E-02   -0.15457E-01  8160   0.851E-01    0.103E-01
DAV:   2    -0.192223936474E+03   -0.36129E-03   -0.48351E-03 10960   0.218E-01    0.117E-01
DAV:   3    -0.192223949174E+03   -0.12701E-04   -0.72503E-04 11080   0.240E-01
  77 F= -.19222395E+03 E0= -.19215289E+03  d E =-.353405E-02
       N       E                     dE             d eps       ncg     rms          rms(c)
DAV:   1    -0.192223676377E+03    0.26010E-03   -0.65719E-03  9360   0.231E-01    0.516E-02
DAV:   2    -0.192223830352E+03   -0.15397E-03   -0.69424E-04 10080   0.158E-01    0.112E-01
DAV:   3    -0.192223666497E+03    0.16385E-03   -0.30896E-04  8120   0.158E-01    0.475E-02
DAV:   4    -0.192223645429E+03    0.21068E-04   -0.54559E-05  5640   0.615E-02
  78 F= -.19222365E+03 E0= -.19215269E+03  d E =0.303745E-03
       N       E                     dE             d eps       ncg     rms          rms(c)
DAV:   1    -0.192228360547E+03   -0.46940E-02   -0.27449E-01  8160   0.114E+00    0.150E-01
DAV:   2    -0.192229460529E+03   -0.11000E-02   -0.97418E-03 11200   0.443E-01    0.267E-01
DAV:   3    -0.192228722568E+03    0.73796E-03   -0.20145E-03 12400   0.395E-01    0.120E-01
DAV:   4    -0.192228620513E+03    0.10206E-03   -0.38842E-04  8320   0.168E-01    0.889E-02
DAV:   5    -0.192228578758E+03    0.41755E-04   -0.32548E-04  8920   0.165E-01
  79 F= -.19222858E+03 E0= -.19215794E+03  d E =-.493333E-02
       N       E                     dE             d eps       ncg     rms          rms(c)
DAV:   1    -0.192227850405E+03    0.77011E-03   -0.55139E-03  8320   0.191E-01    0.383E-02
DAV:   2    -0.192227998968E+03   -0.14856E-03   -0.51958E-04 10640   0.130E-01    0.998E-02
DAV:   3    -0.192227845522E+03    0.15345E-03   -0.21450E-04  7520   0.128E-01    0.340E-02
DAV:   4    -0.192227836818E+03    0.87042E-05   -0.36430E-05  5600   0.446E-02
  80 F= -.19222784E+03 E0= -.19215724E+03  d E =0.741940E-03
       N       E                     dE             d eps       ncg     rms          rms(c)
DAV:   1    -0.192226875571E+03    0.96995E-03   -0.34725E-02  8160   0.444E-01    0.111E-01
DAV:   2    -0.192226938151E+03   -0.62580E-04   -0.21549E-03 11160   0.275E-01    0.185E-01
DAV:   3    -0.192226596810E+03    0.34134E-03   -0.92734E-04 10160   0.276E-01    0.888E-02
DAV:   4    -0.192226516735E+03    0.80075E-04   -0.32123E-04  8600   0.143E-01
  81 F= -.19222652E+03 E0= -.19215542E+03  d E =0.132008E-02
       N       E                     dE             d eps       ncg     rms          rms(c)
DAV:   1    -0.192232058936E+03   -0.54621E-02   -0.35891E-01  8160   0.130E+00    0.163E-01
DAV:   2    -0.192233377532E+03   -0.13186E-02   -0.12334E-02 11360   0.488E-01    0.275E-01
DAV:   3    -0.192232490695E+03    0.88684E-03   -0.23193E-03 12200   0.411E-01    0.115E-01
DAV:   4    -0.192232316444E+03    0.17425E-03   -0.32803E-04  8160   0.126E-01    0.585E-02
DAV:   5    -0.192232403666E+03   -0.87223E-04   -0.33140E-04  8600   0.161E-01
  82 F= -.19223240E+03 E0= -.19216178E+03  d E =-.588693E-02
       N       E                     dE             d eps       ncg     rms          rms(c)
DAV:   1    -0.192225392451E+03    0.69240E-02   -0.46917E-01  8160   0.150E+00    0.205E-01
DAV:   2    -0.192227348887E+03   -0.19564E-02   -0.17445E-02 11960   0.576E-01    0.377E-01
DAV:   3    -0.192225894274E+03    0.14546E-02   -0.39057E-03 12400   0.552E-01    0.179E-01
DAV:   4    -0.192225595621E+03    0.29865E-03   -0.94556E-04 10160   0.228E-01    0.959E-02
DAV:   5    -0.192225485116E+03    0.11050E-03   -0.61125E-04 10640   0.156E-01    0.781E-02
DAV:   6    -0.192225481173E+03    0.39429E-05   -0.36150E-04  8880   0.154E-01
  83 F= -.19222548E+03 E0= -.19215422E+03  d E =0.692249E-02
       N       E                     dE             d eps       ncg     rms          rms(c)
DAV:   1    -0.192238834901E+03   -0.13350E-01   -0.18384E+00  8160   0.295E+00    0.394E-01
DAV:   2    -0.192243623766E+03   -0.47889E-02   -0.63530E-02 11560   0.969E-01    0.564E-01
DAV:   3    -0.192241403336E+03    0.22204E-02   -0.12833E-02 12520   0.975E-01    0.396E-01
DAV:   4    -0.192239531085E+03    0.18723E-02   -0.35197E-03 11480   0.487E-01    0.179E-01
DAV:   5    -0.192239654073E+03   -0.12299E-03   -0.22105E-03 10360   0.402E-01    0.219E-01
DAV:   6    -0.192239139352E+03    0.51472E-03   -0.13647E-03 10880   0.296E-01    0.840E-02
DAV:   7    -0.192239059546E+03    0.79807E-04   -0.25387E-04  8080   0.112E-01
  84 F= -.19223906E+03 E0= -.19216915E+03  d E =-.135784E-01
       N       E                     dE             d eps       ncg     rms          rms(c)
DAV:   1    -0.192238224818E+03    0.91453E-03   -0.30545E-02  8160   0.402E-01    0.101E-01
DAV:   2    -0.192238598930E+03   -0.37411E-03   -0.21727E-03 11280   0.318E-01    0.228E-01
DAV:   3    -0.192238010147E+03    0.58878E-03   -0.95743E-04 10160   0.287E-01    0.643E-02
DAV:   4    -0.192237984884E+03    0.25264E-04   -0.23339E-04  8080   0.121E-01
  85 F= -.19223798E+03 E0= -.19216766E+03  d E =0.107466E-02
       N       E                     dE             d eps       ncg     rms          rms(c)
DAV:   1    -0.192243019600E+03   -0.50095E-02   -0.27009E-01  8160   0.113E+00    0.134E-01
DAV:   2    -0.192243817305E+03   -0.79771E-03   -0.83754E-03 11640   0.347E-01    0.202E-01
DAV:   3    -0.192243459547E+03    0.35776E-03   -0.17157E-03 12120   0.349E-01    0.131E-01
DAV:   4    -0.192243285693E+03    0.17385E-03   -0.35551E-04  8320   0.159E-01    0.708E-02
DAV:   5    -0.192243276095E+03    0.95987E-05   -0.21938E-04  8160   0.136E-01
  86 F= -.19224328E+03 E0= -.19217309E+03  d E =-.529121E-02
       N       E                     dE             d eps       ncg     rms          rms(c)
DAV:   1    -0.192243835457E+03   -0.54976E-03   -0.44919E-03  8240   0.175E-01    0.329E-02
DAV:   2    -0.192243897232E+03   -0.61774E-04   -0.30684E-04  9280   0.979E-02
  87 F= -.19224390E+03 E0= -.19217373E+03  d E =-.621137E-03
       N       E                     dE             d eps       ncg     rms          rms(c)
DAV:   1    -0.192250411791E+03   -0.65763E-02   -0.36684E-01  8160   0.132E+00    0.192E-01
DAV:   2    -0.192251409555E+03   -0.99776E-03   -0.13662E-02 10680   0.514E-01    0.277E-01
DAV:   3    -0.192250684970E+03    0.72458E-03   -0.29236E-03 12160   0.458E-01    0.164E-01
DAV:   4    -0.192250458467E+03    0.22650E-03   -0.86946E-04  9600   0.240E-01    0.117E-01
DAV:   5    -0.192250413510E+03    0.44957E-04   -0.61665E-04  9960   0.220E-01
  88 F= -.19225041E+03 E0= -.19218067E+03  d E =-.651628E-02
       N       E                     dE             d eps       ncg     rms          rms(c)
DAV:   1    -0.192253844809E+03   -0.33863E-02   -0.10741E-01  8160   0.719E-01    0.974E-02
DAV:   2    -0.192254183254E+03   -0.33845E-03   -0.36316E-03 11440   0.224E-01    0.137E-01
DAV:   3    -0.192254010279E+03    0.17297E-03   -0.79853E-04 11040   0.233E-01    0.920E-02
DAV:   4    -0.192253947479E+03    0.62800E-04   -0.27432E-04  7880   0.120E-01
  89 F= -.19225395E+03 E0= -.19218463E+03  d E =-.353397E-02
       N       E                     dE             d eps       ncg     rms          rms(c)
DAV:   1    -0.192259335339E+03   -0.53251E-02   -0.23796E-01  8160   0.105E+00    0.148E-01
DAV:   2    -0.192260614188E+03   -0.12788E-02   -0.83511E-03 10640   0.443E-01    0.310E-01
DAV:   3    -0.192259541008E+03    0.10732E-02   -0.22333E-03 10880   0.408E-01    0.106E-01
DAV:   4    -0.192259453587E+03    0.87422E-04   -0.30745E-04  8600   0.136E-01
  90 F= -.19225945E+03 E0= -.19219025E+03  d E =-.550611E-02
       N       E                     dE             d eps       ncg     rms          rms(c)
DAV:   1    -0.192263532478E+03   -0.39915E-02   -0.13015E-01  8160   0.793E-01    0.135E-01
DAV:   2    -0.192265059169E+03   -0.15267E-02   -0.58174E-03 12280   0.496E-01    0.349E-01
DAV:   3    -0.192263508507E+03    0.15507E-02   -0.22442E-03 11960   0.435E-01    0.774E-02
DAV:   4    -0.192263621811E+03   -0.11330E-03   -0.34805E-04  8440   0.163E-01    0.116E-01
DAV:   5    -0.192263461203E+03    0.16061E-03   -0.26787E-04  9080   0.153E-01    0.352E-02
DAV:   6    -0.192263463797E+03   -0.25942E-05   -0.57249E-05  6200   0.450E-02
  91 F= -.19226346E+03 E0= -.19219442E+03  d E =-.401021E-02
       N       E                     dE             d eps       ncg     rms          rms(c)
DAV:   1    -0.192271909682E+03   -0.84485E-02   -0.61406E-01  8160   0.168E+00    0.206E-01
DAV:   2    -0.192273875978E+03   -0.19663E-02   -0.19944E-02 10760   0.570E-01    0.336E-01
DAV:   3    -0.192272861948E+03    0.10140E-02   -0.37899E-03 12320   0.530E-01    0.189E-01
DAV:   4    -0.192272572443E+03    0.28950E-03   -0.87699E-04  9640   0.248E-01    0.115E-01
DAV:   5    -0.192272499087E+03    0.73356E-04   -0.62320E-04  9920   0.214E-01
  92 F= -.19227250E+03 E0= -.19220380E+03  d E =-.903529E-02
       N       E                     dE             d eps       ncg     rms          rms(c)
DAV:   1    -0.192255188033E+03    0.17384E-01   -0.19402E+00  8160   0.301E+00    0.372E-01
DAV:   2    -0.192263709636E+03   -0.85216E-02   -0.64047E-02 11280   0.111E+00    0.754E-01
DAV:   3    -0.192258001529E+03    0.57081E-02   -0.14452E-02 12280   0.105E+00    0.314E-01
DAV:   4    -0.192257111529E+03    0.89000E-03   -0.28771E-03 11640   0.371E-01    0.166E-01
DAV:   5    -0.192256717334E+03    0.39419E-03   -0.19131E-03 10920   0.237E-01    0.126E-01
DAV:   6    -0.192256866354E+03   -0.14902E-03   -0.13066E-03 10600   0.293E-01    0.164E-01
DAV:   7    -0.192256515950E+03    0.35040E-03   -0.51530E-04  8440   0.195E-01    0.380E-02
DAV:   8    -0.192256511596E+03    0.43542E-05   -0.64658E-05  6760   0.634E-02
  93 F= -.19225651E+03 E0= -.19218708E+03  d E =0.159875E-01
       N       E                     dE             d eps       ncg     rms          rms(c)
DAV:   1    -0.192204926219E+03    0.51590E-01   -0.14711E+01  8160   0.840E+00    0.101E+00
DAV:   2    -0.192258900792E+03   -0.53975E-01   -0.48483E-01 11680   0.290E+00    0.180E+00
DAV:   3    -0.192230030572E+03    0.28870E-01   -0.93638E-02 12280   0.271E+00    0.897E-01
DAV:   4    -0.192220540599E+03    0.94900E-02   -0.17129E-02 12440   0.101E+00    0.424E-01
DAV:   5    -0.192220711136E+03   -0.17054E-03   -0.15065E-02 11880   0.900E-01    0.520E-01
DAV:   6    -0.192218931600E+03    0.17795E-02   -0.10382E-02 11680   0.823E-01    0.327E-01
DAV:   7    -0.192217232799E+03    0.16988E-02   -0.28137E-03 12080   0.381E-01    0.110E-01
DAV:   8    -0.192217168738E+03    0.64060E-04   -0.61080E-04  9520   0.178E-01
  94 F= -.19221717E+03 E0= -.19214524E+03  d E =0.393429E-01
       N       E                     dE             d eps       ncg     rms          rms(c)
DAV:   1    -0.192195874860E+03    0.21358E-01   -0.39506E+00  8160   0.431E+00    0.487E-01
DAV:   2    -0.192204367207E+03   -0.84923E-02   -0.11903E-01 10920   0.110E+00    0.523E-01
DAV:   3    -0.192205536891E+03   -0.11697E-02   -0.19559E-02 12240   0.113E+00    0.636E-01
DAV:   4    -0.192200627310E+03    0.49096E-02   -0.71704E-03 11160   0.713E-01    0.156E-01
DAV:   5    -0.192200705786E+03   -0.78476E-04   -0.21525E-03 11760   0.251E-01    0.155E-01
DAV:   6    -0.192200547164E+03    0.15862E-03   -0.14173E-03 11440   0.301E-01    0.145E-01
DAV:   7    -0.192200266934E+03    0.28023E-03   -0.43647E-04  9480   0.171E-01    0.307E-02
DAV:   8    -0.192200273316E+03   -0.63819E-05   -0.62290E-05  6360   0.588E-02
  95 F= -.19220027E+03 E0= -.19212702E+03  d E =0.168954E-01
       N       E                     dE             d eps       ncg     rms          rms(c)
DAV:   1    -0.192153183690E+03    0.47083E-01   -0.12804E+01  8160   0.785E+00    0.868E-01
DAV:   2    -0.192178277465E+03   -0.25094E-01   -0.39570E-01 11080   0.181E+00    0.733E-01
DAV:   3    -0.192188126847E+03   -0.98494E-02   -0.52211E-02 12360   0.190E+00    0.121E+00
DAV:   4    -0.192170090380E+03    0.18036E-01   -0.26794E-02 12000   0.143E+00    0.328E-01
DAV:   5    -0.192172107725E+03   -0.20173E-02   -0.10035E-02 11400   0.807E-01    0.523E-01
DAV:   6    -0.192169098896E+03    0.30088E-02   -0.76654E-03 11720   0.737E-01    0.194E-01
DAV:   7    -0.192168394560E+03    0.70434E-03   -0.12103E-03 10800   0.183E-01    0.411E-02
DAV:   8    -0.192168392265E+03    0.22941E-05   -0.16852E-04  7040   0.576E-02
  96 F= -.19216839E+03 E0= -.19209174E+03  d E =0.318811E-01
       N       E                     dE             d eps       ncg     rms          rms(c)
DAV:   1    -0.192170183714E+03   -0.17892E-02   -0.51333E+01  8200   0.157E+01    0.186E+00
DAV:   2    -0.192355291501E+03   -0.18511E+00   -0.17503E+00 11640   0.511E+00    0.314E+00
DAV:   3    -0.192289225507E+03    0.66066E-01   -0.44070E-01 11760   0.527E+00    0.192E+00
DAV:   4    -0.192242034781E+03    0.47191E-01   -0.57307E-02 12280   0.184E+00    0.771E-01
DAV:   5    -0.192247968158E+03   -0.59334E-02   -0.41519E-02 11320   0.172E+00    0.111E+00
DAV:   6    -0.192234985262E+03    0.12983E-01   -0.27694E-02 12560   0.142E+00    0.367E-01
DAV:   7    -0.192233301515E+03    0.16837E-02   -0.63008E-03 12040   0.585E-01    0.270E-01
DAV:   8    -0.192232575275E+03    0.72624E-03   -0.21610E-03 12120   0.364E-01    0.104E-01
DAV:   9    -0.192232424669E+03    0.15061E-03   -0.51922E-04 10360   0.129E-01    0.481E-02
DAV:  10    -0.192232395105E+03    0.29564E-04   -0.21635E-04  7560   0.474E-02
  97 F= -.19223240E+03 E0= -.19216144E+03  d E =-.640028E-01
       N       E                     dE             d eps       ncg     rms          rms(c)
DAV:   1    -0.192252037058E+03   -0.19612E-01   -0.45074E+00  8160   0.459E+00    0.521E-01
DAV:   2    -0.192260308046E+03   -0.82710E-02   -0.12115E-01 10880   0.112E+00    0.588E-01
DAV:   3    -0.192260675155E+03   -0.36711E-03   -0.23654E-02 11640   0.121E+00    0.634E-01
DAV:   4    -0.192255581431E+03    0.50937E-02   -0.70742E-03 11000   0.708E-01    0.174E-01
DAV:   5    -0.192255534420E+03    0.47011E-04   -0.28501E-03 10600   0.249E-01    0.161E-01
DAV:   6    -0.192255380398E+03    0.15402E-03   -0.15331E-03 12080   0.286E-01    0.170E-01
DAV:   7    -0.192255044905E+03    0.33549E-03   -0.50874E-04  9520   0.205E-01    0.375E-02
DAV:   8    -0.192255040487E+03    0.44175E-05   -0.62857E-05  6600   0.467E-02
  98 F= -.19225504E+03 E0= -.19218528E+03  d E =-.226454E-01
       N       E                     dE             d eps       ncg     rms          rms(c)
DAV:   1    -0.192266809344E+03   -0.11764E-01   -0.13880E+00  8160   0.253E+00    0.301E-01
DAV:   2    -0.192271336991E+03   -0.45276E-02   -0.44148E-02 11400   0.828E-01    0.494E-01
DAV:   3    -0.192269156159E+03    0.21808E-02   -0.84279E-03 12560   0.787E-01    0.278E-01
DAV:   4    -0.192268432766E+03    0.72339E-03   -0.16894E-03 11360   0.338E-01    0.151E-01
DAV:   5    -0.192268360049E+03    0.72717E-04   -0.12098E-03 10320   0.298E-01    0.147E-01
DAV:   6    -0.192268230357E+03    0.12969E-03   -0.73700E-04 10640   0.212E-01    0.849E-02
DAV:   7    -0.192268116289E+03    0.11407E-03   -0.21423E-04  7560   0.104E-01    0.373E-02
DAV:   8    -0.192268107658E+03    0.86307E-05   -0.53709E-05  6760   0.608E-02
  99 F= -.19226811E+03 E0= -.19219891E+03  d E =-.130672E-01
       N       E                     dE             d eps       ncg     rms          rms(c)
DAV:   1    -0.192266995563E+03    0.11207E-02   -0.67983E-02  8240   0.559E-01    0.820E-02
DAV:   2    -0.192267435102E+03   -0.43954E-03   -0.33151E-03 11280   0.267E-01    0.169E-01
DAV:   3    -0.192267142710E+03    0.29239E-03   -0.71726E-04 10960   0.235E-01    0.697E-02
DAV:   4    -0.192267077718E+03    0.64992E-04   -0.70055E-05  5720   0.638E-02
 100 F= -.19226708E+03 E0= -.19219802E+03  d E =0.102994E-02
