unknown system                          
           1
     8.855112    5.107737    0.000000
    -8.853596    5.105129    0.000000
     0.000000    0.000000   30.000000
   V    Mo   W    S 
   3   3   3  18
Direct configuration=     1
   0.66666669  0.66666669  0.00000000
   0.66666669  0.33333334  0.00000000
   1.00000000  0.33333334  0.00000000
   0.33333334  0.00000000  0.00000000
   0.33333334  0.33333334  0.00000000
   0.00000000  0.00000000  0.00000000
   0.00000000  0.66666669  0.00000000
   0.33333334  0.66666669  0.00000000
   0.66666669  0.00000000  0.00000000
   0.11068511  0.22244981  0.95539999
   0.22244981  0.11068511  0.04460000
   0.11068511  0.55578315  0.95539999
   0.22244981  0.44401845  0.04460000
   0.11068511  0.88911647  0.95539999
   0.22244981  0.77735180  0.04460000
   0.44401845  0.22244981  0.95539999
   0.55578315  0.11068511  0.04460000
   0.44401845  0.55578315  0.95539999
   0.55578315  0.44401845  0.04460000
   0.44401845  0.88911647  0.95539999
   0.55578315  0.77735180  0.04460000
   0.77735180  0.22244981  0.95539999
   0.88911647  0.11068511  0.04460000
   0.77735180  0.55578315  0.95539999
   0.88911647  0.44401845  0.04460000
   0.77735180  0.88911647  0.95539999
   0.88911647  0.77735180  0.04460000
unknown system                          
           1
     8.667675    5.001747    0.000000
    -8.666214    4.999233    0.000000
     0.000000    0.000000   30.000000
   V    Mo   W    S 
   3   3   3  18
Direct configuration=     2
   0.66662400  0.66630561  0.00013904
   0.66475303  0.33265854  0.00007402
   1.00082848  0.33220336 -0.00010882
   0.33173060  0.00136648 -0.00002907
   0.33222402  0.33059491 -0.00000384
   0.00288778  0.00139374 -0.00022405
   0.00061602  0.66885702  0.00009588
   0.33335096  0.66639989  0.00014493
   0.66708204  0.00050134 -0.00008484
   0.10846000  0.22450559  0.95194385
   0.22222384  0.11105475  0.04933050
   0.10913238  0.55155394  0.95189706
   0.21816509  0.44320969  0.04802674
   0.11054431  0.88790289  0.95067508
   0.22182832  0.77691382  0.04927653
   0.44879111  0.22428871  0.95190372
   0.55803884  0.11495532  0.04805212
   0.44837494  0.55807635  0.95199058
   0.55997523  0.44640820  0.04689219
   0.44474774  0.88846385  0.95081583
   0.55743342  0.77552630  0.04809737
   0.77927228  0.22559502  0.95308608
   0.88997150  0.11498821  0.04802543
   0.77417789  0.55391601  0.95312868
   0.88730411  0.44088288  0.04678361
   0.77508912  0.88482979  0.95200317
   0.88458738  0.77486224  0.04806811
unknown system                          
           1
     8.485729    4.901284    0.000000
    -8.484773    4.899643    0.000000
     0.000000    0.000000   30.000000
   V    Mo   W    S 
   3   3   3  18
Direct configuration=     3
   0.66650994  0.66629276  0.00011686
   0.66416944  0.33235876  0.00012948
   1.00108422  0.33188143 -0.00007830
   0.33087413  0.00154785 -0.00002838
   0.33160489  0.32945609 -0.00001029
   0.00412953  0.00182924 -0.00024435
   0.00128294  0.66988145  0.00015572
   0.33344640  0.66657219  0.00011181
   0.66694688  0.00035160 -0.00013117
   0.10841393  0.22454973  0.95182142
   0.22221868  0.11105743  0.04953031
   0.10914993  0.55168267  0.95198046
   0.21817279  0.44336103  0.04800133
   0.11042041  0.88769513  0.95051676
   0.22175434  0.77671931  0.04929260
   0.44893805  0.22439747  0.95181785
   0.55822025  0.11493347  0.04801616
   0.44835190  0.55824140  0.95208183
   0.56003849  0.44643668  0.04686509
   0.44482785  0.88837112  0.95087545
   0.55736314  0.77558780  0.04810055
   0.77921520  0.22543198  0.95315000
   0.88980907  0.11496386  0.04797751
   0.77436145  0.55397295  0.95321851
   0.88737324  0.44107839  0.04660465
   0.77491893  0.88486581  0.95207700
   0.88461845  0.77469681  0.04805104
unknown system                          
           1
     8.283643    4.788921    0.000000
    -8.278250    4.779596    0.000000
     0.000000    0.000000   30.000000
   V    Mo   W    S 
   3   3   3  18
Direct configuration=     4
   0.66584714  0.66662325 -0.00001821
   0.66204800  0.33107083  0.00030071
   1.00218010  0.33076209  0.00009027
   0.32709370  0.00155648 -0.00002011
   0.32893768  0.32506303 -0.00003859
   0.00906585  0.00329484 -0.00022013
   0.00453023  0.67416190  0.00031785
   0.33401143  0.66775116 -0.00006248
   0.66590106 -0.00090862 -0.00024060
   0.10794223  0.22508555  0.94987442
   0.22215858  0.11107840  0.05191578
   0.10840284  0.55075690  0.95083700
   0.21719720  0.44273044  0.04933304
   0.11037931  0.88772133  0.94823085
   0.22201139  0.77690878  0.05100607
   0.45020299  0.22512245  0.95004331
   0.55867270  0.11582926  0.04930939
   0.44925342  0.55855196  0.95102417
   0.56080223  0.44685034  0.04806927
   0.44464929  0.88850687  0.94951434
   0.55788284  0.77514409  0.04963392
   0.77981043  0.22651808  0.95203912
   0.89036940  0.11581216  0.04920058
   0.77367088  0.55344896  0.95225482
   0.88693789  0.44038467  0.04721269
   0.77458874  0.88397293  0.95094592
   0.88366690  0.77441632  0.04944651
unknown system                          
           1
     8.285444    4.797556    0.000000
    -8.274888    4.779286    0.000000
     0.000000    0.000000   30.000000
   V    Mo   W    S 
   3   3   3  18
Direct configuration=     5
   0.66397938  0.66739581 -0.00027267
   0.65842442  0.32871248  0.00046533
   1.00413313  0.32840459  0.00040297
   0.31961098  0.00079117 -0.00001375
   0.32395549  0.31704211 -0.00012210
   0.01831377  0.00585938 -0.00008230
   0.01078677  0.68240767  0.00041967
   0.33550580  0.67062864 -0.00029465
   0.66360246 -0.00377979 -0.00029598
   0.10774915  0.22507288  0.94706158
   0.22220315  0.11117315  0.05539988
   0.10746128  0.54996546  0.94947511
   0.21676263  0.44189257  0.05094356
   0.11063046  0.88848502  0.94486157
   0.22297097  0.77817354  0.05345100
   0.45065500  0.22529405  0.94763939
   0.55807573  0.11623874  0.05092443
   0.44945592  0.55749122  0.94977324
   0.56051253  0.44669684  0.04976063
   0.44392103  0.88946512  0.94774140
   0.55838434  0.77453057  0.05178247
   0.78036284  0.22762777  0.95059156
   0.89122244  0.11600510  0.05059037
   0.77356112  0.55321984  0.95120138
   0.88688612  0.44044622  0.04779361
   0.77565464  0.88375275  0.94958140
   0.88343291  0.77522159  0.05122079
unknown system                          
           1
     8.279774    4.794946    0.000000
    -8.270189    4.778350    0.000000
     0.000000    0.000000   30.000000
   V    Mo   W    S 
   3   3   3  18
Direct configuration=     6
   0.66271730  0.66747806 -0.00024336
   0.65717711  0.32785470  0.00046945
   1.00463830  0.32717521  0.00035538
   0.31929490  0.00010792  0.00008092
   0.32346503  0.31616177 -0.00007790
   0.01886449  0.00619193 -0.00012354
   0.01242681  0.68438187  0.00033606
   0.33644284  0.67246944 -0.00024877
   0.66245818 -0.00492480 -0.00031214
   0.10784969  0.22448176  0.94685243
   0.22250447  0.11114740  0.05578422
   0.10754290  0.55041791  0.94958674
   0.21752613  0.44198154  0.05081620
   0.11068784  0.88895543  0.94446088
   0.22353747  0.77888084  0.05370616
   0.44969022  0.22455476  0.94751194
   0.55709424  0.11544325  0.05088993
   0.44840610  0.55630081  0.94986811
   0.55960627  0.44629362  0.04973875
   0.44347559  0.89016411  0.94762796
   0.55818106  0.77436851  0.05199502
   0.78025048  0.22737500  0.95065868
   0.89132146  0.11500173  0.05048536
   0.77423895  0.55367244  0.95141786
   0.88754699  0.44149780  0.04747276
   0.77692076  0.88462815  0.94973092
   0.88434889  0.77615328  0.05115990
unknown system                          
           1
     8.282298    4.796807    0.000000
    -8.272660    4.780119    0.000000
     0.000000    0.000000   30.000000
   V    Mo   W    S 
   3   3   3  18
Direct configuration=     7
   0.66136363  0.66741414 -0.00027703
   0.65564339  0.32687337  0.00045304
   1.00504105  0.32560781  0.00036543
   0.31863249 -0.00059615  0.00010811
   0.32277296  0.31464410 -0.00001712
   0.02029122  0.00698943 -0.00006270
   0.01430418  0.68661776  0.00028604
   0.33752196  0.67476596 -0.00025227
   0.66113355 -0.00611361 -0.00035885
   0.10800014  0.22420949  0.94659355
   0.22262710  0.11104998  0.05603400
   0.10775482  0.55080107  0.94970246
   0.21804847  0.44212362  0.05067271
   0.11089382  0.88943961  0.94413248
   0.22387731  0.77923952  0.05400847
   0.44911071  0.22408133  0.94738471
   0.55658697  0.11497132  0.05094693
   0.44767212  0.55561510  0.94997915
   0.55903330  0.44607369  0.04974458
   0.44329828  0.89066740  0.94742194
   0.55804347  0.77426478  0.05226482
   0.78016100  0.22718044  0.95073523
   0.89123435  0.11426933  0.05041440
   0.77468796  0.55402988  0.95167831
   0.88800570  0.44219161  0.04708131
   0.77759949  0.88507843  0.94986001
   0.88487501  0.77672506  0.05110019
unknown system                          
           1
     8.246757    4.774837    0.000000
    -8.232942    4.750939    0.000000
     0.000000    0.000000   30.000000
   V    Mo   W    S 
   3   3   3  18
Direct configuration=     8
   0.66121218  0.66737270 -0.00027981
   0.65549673  0.32677208  0.00045351
   1.00503868  0.32539356  0.00036620
   0.31873759 -0.00067802  0.00011256
   0.32275788  0.31457902 -0.00001422
   0.02030727  0.00709520 -0.00006960
   0.01442560  0.68671678  0.00028386
   0.33764981  0.67506683 -0.00024782
   0.66099247 -0.00620435 -0.00036283
   0.10801817  0.22420500  0.94661186
   0.22265557  0.11102956  0.05601051
   0.10779432  0.55084447  0.94974469
   0.21809724  0.44216558  0.05061801
   0.11090802  0.88948547  0.94415429
   0.22388861  0.77923179  0.05400850
   0.44906687  0.22404670  0.94740228
   0.55659339  0.11494633  0.05093644
   0.44759168  0.55559661  0.95001701
   0.55900634  0.44607016  0.04972200
   0.44330687  0.89069389  0.94740861
   0.55802784  0.77427923  0.05226146
   0.78015156  0.22714884  0.95076885
   0.89120233  0.11421326  0.05038689
   0.77472239  0.55406588  0.95172995
   0.88804940  0.44223319  0.04701256
   0.77761070  0.88510107  0.94990218
   0.88490496  0.77674362  0.05106197
unknown system                          
           1
     8.240163    4.770198    0.000000
    -8.225643    4.745085    0.000000
     0.000000    0.000000   30.000000
   V    Mo   W    S 
   3   3   3  18
Direct configuration=     9
   0.66260007  0.66779513 -0.00027300
   0.65630298  0.32693312  0.00047224
   1.00565286  0.32700781  0.00036316
   0.31748426 -0.00013016  0.00012838
   0.32233686  0.31482969 -0.00005647
   0.02018909  0.00625724 -0.00014322
   0.01440953  0.68682839  0.00027646
   0.33591798  0.67236317 -0.00027550
   0.66236659 -0.00501480 -0.00032137
   0.10773020  0.22399642  0.94638084
   0.22252197  0.11126796  0.05652575
   0.10728424  0.55043074  0.94932720
   0.21758771  0.44153665  0.05117069
   0.11074561  0.88928134  0.94367768
   0.22406657  0.77962902  0.05416373
   0.44919723  0.22408315  0.94714325
   0.55606661  0.11488294  0.05101592
   0.44788681  0.55514430  0.94960460
   0.55894132  0.44582770  0.04999936
   0.44297038  0.89076688  0.94749079
   0.55805257  0.77400244  0.05249760
   0.78032281  0.22750452  0.95047808
   0.89170194  0.11457221  0.05058035
   0.77468262  0.55378011  0.95127573
   0.88797317  0.44231048  0.04746143
   0.77810867  0.88534628  0.94947988
   0.88511382  0.77698170  0.05155633
unknown system                          
           1
     8.292757    4.807461    0.000000
    -8.282699    4.790029    0.000000
     0.000000    0.000000   30.000000
   V    Mo   W    S 
   3   3   3  18
Direct configuration=    10
   0.66326694  0.66799755 -0.00026195
   0.65676117  0.32712984  0.00047211
   1.00586715  0.32786934  0.00035245
   0.31719455  0.00018879  0.00012296
   0.32236070  0.31522346 -0.00006696
   0.01986594  0.00578148 -0.00014939
   0.01410212  0.68653579  0.00027551
   0.33517470  0.67103171 -0.00028214
   0.66302663 -0.00451459 -0.00029982
   0.10761899  0.22396048  0.94633795
   0.22242087  0.11135620  0.05662688
   0.10709656  0.55025923  0.94916347
   0.21736920  0.44131276  0.05138670
   0.11068487  0.88916208  0.94357207
   0.22409636  0.77971679  0.05416845
   0.44928085  0.22414123  0.94709124
   0.55591350  0.11487642  0.05103392
   0.44809355  0.55509648  0.94946710
   0.55897870  0.44577680  0.05007171
   0.44287777  0.89071590  0.94757575
   0.55806411  0.77390762  0.05250958
   0.78039034  0.22764129  0.95037340
   0.89186615  0.11475090  0.05065167
   0.77463744  0.55366326  0.95110275
   0.88790421  0.44228615  0.04766253
   0.77817146  0.88536167  0.94932475
   0.88512961  0.77698579  0.05171721
unknown system                          
           1
     8.264585    4.790218    0.000000
    -8.254684    4.773055    0.000000
     0.000000    0.000000   30.000000
   V    Mo   W    S 
   3   3   3  18
Direct configuration=    11
   0.65883206  0.66700976 -0.00032582
   0.65341275  0.32547015  0.00045625
   1.00519790  0.32227051  0.00041412
   0.31861098 -0.00215115  0.00016404
   0.32183567  0.31246834  0.00004748
   0.02207145  0.00876989 -0.00003822
   0.01690534  0.68936662  0.00024787
   0.33983152  0.67973564 -0.00023471
   0.65860450 -0.00817604 -0.00041098
   0.10824974  0.22409692  0.94624385
   0.22304056  0.11082101  0.05636991
   0.10807882  0.55129059  0.94999317
   0.21881457  0.44248048  0.05024096
   0.11111278  0.89016093  0.94375124
   0.22420459  0.77946947  0.05453509
   0.44843605  0.22351623  0.94716216
   0.55633680  0.11457031  0.05115179
   0.44652963  0.55491289  0.95022446
   0.55839277  0.44592863  0.04976765
   0.44323925  0.89137894  0.94683704
   0.55792881  0.77430965  0.05267055
   0.78010828  0.22694995  0.95084997
   0.89100230  0.11331843  0.05032663
   0.77518775  0.55453939  0.95212087
   0.88865398  0.44287995  0.04638629
   0.77823658  0.88549781  0.95014777
   0.88535902  0.77732917  0.05090047
unknown system                          
           1
     8.278275    4.800282    0.000000
    -8.268561    4.783435    0.000000
     0.000000    0.000000   30.000000
   V    Mo   W    S 
   3   3   3  18
Direct configuration=    12
   0.66037485  0.66756657 -0.00032439
   0.65344018  0.32509251  0.00045775
   1.00607950  0.32433955  0.00034039
   0.31802318 -0.00092085  0.00014385
   0.32185383  0.31309619  0.00002660
   0.02141964  0.00738857 -0.00007731
   0.01681282  0.68944905  0.00022050
   0.33778771  0.67622363 -0.00022879
   0.66010789 -0.00686888 -0.00041496
   0.10798125  0.22383934  0.94616347
   0.22269786  0.11092413  0.05655552
   0.10780195  0.55107016  0.94964153
   0.21834410  0.44208092  0.05075846
   0.11109481  0.89010477  0.94351461
   0.22447814  0.77977277  0.05449782
   0.44849821  0.22356509  0.94710888
   0.55584553  0.11441214  0.05109642
   0.44681882  0.55477813  0.94998490
   0.55841241  0.44569545  0.04985197
   0.44295877  0.89130694  0.94721018
   0.55781030  0.77399851  0.05262749
   0.78023827  0.22721180  0.95071637
   0.89134015  0.11352773  0.05046115
   0.77530355  0.55435338  0.95188687
   0.88858043  0.44310979  0.04665706
   0.77846062  0.88565291  0.94986408
   0.88564969  0.77744414  0.05125948
unknown system                          
           1
     8.282276    4.803270    0.000000
    -8.272820    4.786863    0.000000
     0.000000    0.000000   30.000000
   V    Mo   W    S 
   3   3   3  18
Direct configuration=    13
   0.65832170  0.66709199 -0.00036915
   0.65158467  0.32400238  0.00046842
   1.00581439  0.32155907  0.00039640
   0.31860082 -0.00204041  0.00018925
   0.32142773  0.31152538  0.00007742
   0.02265064  0.00891476 -0.00005809
   0.01839500  0.69102226  0.00021715
   0.33987999  0.68047315 -0.00021601
   0.65797714 -0.00846682 -0.00046426
   0.10828663  0.22387946  0.94610776
   0.22303496  0.11069147  0.05649630
   0.10823379  0.55153598  0.95003464
   0.21898288  0.44257297  0.05021459
   0.11131078  0.89059131  0.94356514
   0.22452526  0.77971606  0.05468997
   0.44817259  0.22333191  0.94707460
   0.55613368  0.11437727  0.05118244
   0.44605757  0.55462802  0.95032111
   0.55813359  0.44573012  0.04974224
   0.44312923  0.89160327  0.94681381
   0.55778572  0.77423417  0.05275999
   0.78009009  0.22690190  0.95094294
   0.89095700  0.11293757  0.05029211
   0.77556426  0.55469673  0.95237771
   0.88888640  0.44336576  0.04600252
   0.77850819  0.88572093  0.95023477
   0.88576975  0.77761778  0.05090611
unknown system                          
           1
     8.279255    4.800936    0.000000
    -8.269325    4.783710    0.000000
     0.000000    0.000000   30.000000
   V    Mo   W    S 
   3   3   3  18
Direct configuration=    14
   0.65788730  0.66707414 -0.00038660
   0.65066993  0.32329970  0.00046987
   1.00597700  0.32097376  0.00040130
   0.31887006 -0.00207839  0.00019770
   0.32129713  0.31111648  0.00009179
   0.02289059  0.00914003 -0.00005234
   0.01901441  0.69164071  0.00020972
   0.34018327  0.68127454 -0.00020120
   0.65745218 -0.00876733 -0.00048431
   0.10834331  0.22383631  0.94602220
   0.22308359  0.11060659  0.05656648
   0.10832053  0.55164293  0.95007567
   0.21911590  0.44265900  0.05014861
   0.11143618  0.89081877  0.94347670
   0.22465793  0.77980010  0.05480608
   0.44807186  0.22326618  0.94699567
   0.55613601  0.11433725  0.05125761
   0.44579518  0.55450651  0.95037418
   0.55801869  0.44567172  0.04974673
   0.44311536  0.89172962  0.94670333
   0.55775858  0.77425514  0.05283241
   0.78008395  0.22689496  0.95097808
   0.89089410  0.11274436  0.05028156
   0.77571040  0.55476365  0.95251876
   0.88896195  0.44351257  0.04579828
   0.77859924  0.88578096  0.95029031
   0.88586982  0.77771419  0.05088132
unknown system                          
           1
     8.283291    4.805927    0.000000
    -8.275008    4.791534    0.000000
     0.000000    0.000000   30.000000
   V    Mo   W    S 
   3   3   3  18
Direct configuration=    15
   0.65825019  0.66734173 -0.00039238
   0.65018618  0.32279598  0.00047042
   1.00646374  0.32148504  0.00039109
   0.31882439 -0.00165520  0.00020412
   0.32122163  0.31120447  0.00010537
   0.02277655  0.00878918 -0.00005245
   0.01918812  0.69186690  0.00020296
   0.33959654  0.68039327 -0.00020087
   0.65771270 -0.00852060 -0.00048542
   0.10831913  0.22374995  0.94601756
   0.22299212  0.11063752  0.05657974
   0.10827239  0.55163480  0.95000546
   0.21904383  0.44252130  0.05025067
   0.11153766  0.89089950  0.94343054
   0.22478051  0.77995573  0.05479944
   0.44802635  0.22331068  0.94693864
   0.55604382  0.11427953  0.05130254
   0.44582184  0.55444560  0.95036581
   0.55794698  0.44557255  0.04974358
   0.44305546  0.89166374  0.94679369
   0.55775037  0.77422525  0.05279463
   0.78009585  0.22693716  0.95097643
   0.89095696  0.11278148  0.05026751
   0.77581890  0.55473401  0.95255434
   0.88894716  0.44363222  0.04574260
   0.77860538  0.88580486  0.95025340
   0.88597969  0.77772781  0.05094047
unknown system                          
           1
     8.285117    4.808797    0.000000
    -8.278125    4.796625    0.000000
     0.000000    0.000000   30.000000
   V    Mo   W    S 
   3   3   3  18
Direct configuration=    16
   0.65652250  0.66689908 -0.00043090
   0.64835464  0.32159526  0.00047017
   1.00615272  0.31911582  0.00041311
   0.31963291 -0.00233428  0.00020764
   0.32094402  0.30981415  0.00011239
   0.02380373  0.00997213 -0.00004538
   0.02054320  0.69317352  0.00019852
   0.34135508  0.68400044 -0.00017737
   0.65574898 -0.00969902 -0.00056015
   0.10855433  0.22378206  0.94589768
   0.22327839  0.11036203  0.05662638
   0.10864424  0.55200764  0.95030841
   0.21956528  0.44298667  0.04982774
   0.11176974  0.89136543  0.94341785
   0.22487816  0.77990794  0.05502510
   0.44780824  0.22314830  0.94686415
   0.55633729  0.11430500  0.05142495
   0.44510459  0.55430811  0.95060134
   0.55772326  0.44554893  0.04969956
   0.44320061  0.89201167  0.94640518
   0.55770875  0.77440847  0.05297151
   0.77999869  0.22676912  0.95114254
   0.89064811  0.11222990  0.05018787
   0.77603624  0.55496274  0.95296318
   0.88910745  0.44376235  0.04521051
   0.77872878  0.88592247  0.95054345
   0.88606450  0.77788853  0.05069447
unknown system                          
           1
     8.290604    4.821507    0.000000
    -8.290540    4.821244    0.000000
     0.000000    0.000000   30.000000
   V    Mo   W    S 
   3   3   3  18
Direct configuration=    17
   0.65534322  0.66661759 -0.00045646
   0.64685959  0.32051746  0.00047026
   1.00595932  0.31750226  0.00042205
   0.32037970 -0.00258566  0.00021651
   0.32074070  0.30887082  0.00013423
   0.02452037  0.01064814 -0.00003357
   0.02155124  0.69413882  0.00019492
   0.34243642  0.68626723 -0.00012730
   0.65429913 -0.01037988 -0.00060969
   0.10872393  0.22375506  0.94577815
   0.22349520  0.11012766  0.05667712
   0.10895347  0.55227357  0.95050666
   0.21992421  0.44334208  0.04952388
   0.11202726  0.89176775  0.94337920
   0.22503794  0.77996293  0.05520825
   0.44766155  0.22305006  0.94674334
   0.55655690  0.11432258  0.05156651
   0.44451727  0.55419378  0.95074675
   0.55751663  0.44546219  0.04968906
   0.44328713  0.89232385  0.94607732
   0.55768825  0.77457100  0.05311559
   0.77994265  0.22669810  0.95124126
   0.89043103  0.11179106  0.05014705
   0.77620897  0.55509006  0.95327785
   0.88916381  0.44383823  0.04481281
   0.77885858  0.88603250  0.95075116
   0.88612999  0.77801522  0.05054699
unknown system                          
           1
     8.297373    4.825938    0.000000
    -8.292563    4.817515    0.000000
     0.000000    0.000000   30.000000
   V    Mo   W    S 
   3   3   3  18
Direct configuration=    18
   0.64900613  0.66478631 -0.00057100
   0.63946438  0.31514866  0.00042881
   1.00405556  0.30906525  0.00037142
   0.32472859 -0.00347301  0.00014864
   0.32019571  0.30433815  0.00016289
   0.02838528  0.01356813 -0.00000726
   0.02648313  0.69886023  0.00017931
   0.34795543  0.69757134  0.00012820
   0.64638356 -0.01336615 -0.00089446
   0.10967906  0.22342557  0.94518628
   0.22480238  0.10875484  0.05694528
   0.11087529  0.55375779  0.95162607
   0.22184042  0.44555819  0.04779853
   0.11364216  0.89394329  0.94327943
   0.22593440  0.78040076  0.05615461
   0.44699074  0.22263539  0.94610984
   0.55786127  0.11451659  0.05238877
   0.44123537  0.55373066  0.95147367
   0.55633693  0.44478578  0.04968406
   0.44376514  0.89406957  0.94429627
   0.55774772  0.77566421  0.05390079
   0.77952703  0.22628962  0.95171327
   0.88913263  0.10914990  0.04998978
   0.77698449  0.55565358  0.95495755
   0.88924065  0.44405319  0.04279048
   0.77956136  0.88665482  0.95199451
   0.88639967  0.77867180  0.04976418
unknown system                          
           1
     8.299605    4.833135    0.000000
    -8.298476    4.831043    0.000000
     0.000000    0.000000   30.000000
   V    Mo   W    S 
   3   3   3  18
Direct configuration=    19
   0.64992860  0.66467208 -0.00045631
   0.64196321  0.31696961  0.00045356
   1.00397239  0.31083726  0.00029994
   0.32425922 -0.00266943  0.00013880
   0.32035540  0.30589045  0.00014748
   0.02778503  0.01272305 -0.00001381
   0.02514453  0.69750755  0.00024960
   0.34580076  0.69336867  0.00025290
   0.64857023 -0.01178743 -0.00068688
   0.10959296  0.22325682  0.94532706
   0.22483881  0.10888954  0.05685435
   0.11088058  0.55349634  0.95150912
   0.22142100  0.44560500  0.04779904
   0.11370539  0.89369700  0.94329601
   0.22607883  0.78064821  0.05591363
   0.44705721  0.22272402  0.94611753
   0.55757789  0.11426145  0.05229239
   0.44137356  0.55391629  0.95123395
   0.55640070  0.44466322  0.04976783
   0.44354052  0.89402109  0.94445600
   0.55798787  0.77582507  0.05373653
   0.77945379  0.22619814  0.95157763
   0.88910708  0.10918279  0.05004150
   0.77664393  0.55555333  0.95466608
   0.88913551  0.44375087  0.04315618
   0.77938235  0.88651854  0.95196156
   0.88625707  0.77849493  0.04990821
unknown system                          
           1
     8.305312    4.834128    0.000000
    -8.301203    4.826918    0.000000
     0.000000    0.000000   30.000000
   V    Mo   W    S 
   3   3   3  18
Direct configuration=    20
   0.64439027  0.66258446 -0.00045813
   0.63676470  0.31318999  0.00039536
   1.00171635  0.30387846  0.00014804
   0.32800800 -0.00303176 -0.00000950
   0.32009600  0.30265075  0.00009582
   0.03118362  0.01486637  0.00001019
   0.02897485  0.70110072  0.00027875
   0.34998224  0.70198298  0.00038827
   0.64219174 -0.01350344 -0.00090237
   0.11036996  0.22274108  0.94490725
   0.22613336  0.10787017  0.05701219
   0.11251161  0.55454296  0.95246581
   0.22277893  0.44758942  0.04623636
   0.11532169  0.89544606  0.94327969
   0.22697518  0.78133436  0.05660221
   0.44660690  0.22261091  0.94562283
   0.55860372  0.11437818  0.05299801
   0.43853961  0.55364145  0.95173099
   0.55529815  0.44390813  0.04984113
   0.44389863  0.89523651  0.94319906
   0.55818141  0.77691543  0.05433358
   0.77903896  0.22575299  0.95189160
   0.88802970  0.10681208  0.04990124
   0.77711931  0.55603336  0.95602259
   0.88918433  0.44375443  0.04155421
   0.77991394  0.88696316  0.95318018
   0.88640131  0.77896523  0.04927457
unknown system                          
           1
     8.309359    4.836508    0.000000
    -8.304921    4.828732    0.000000
     0.000000    0.000000   30.000000
   V    Mo   W    S 
   3   3   3  18
Direct configuration=    21
   0.64517471  0.66246910 -0.00037308
   0.63847326  0.31443190  0.00039266
   1.00188077  0.30558033  0.00010137
   0.32729090 -0.00260327 -0.00001953
   0.32038879  0.30381173  0.00006445
   0.03047690  0.01413579 -0.00000261
   0.02804600  0.70019019  0.00029670
   0.34854237  0.69928896  0.00033557
   0.64420679 -0.01244992 -0.00078499
   0.11018809  0.22266997  0.94500123
   0.22607049  0.10821734  0.05694794
   0.11207412  0.55416541  0.95226366
   0.22221914  0.44721357  0.04644047
   0.11514731  0.89500498  0.94330766
   0.22691862  0.78145416  0.05640521
   0.44687888  0.22288491  0.94574217
   0.55836913  0.11443334  0.05285920
   0.43904863  0.55379474  0.95151674
   0.55546067  0.44392168  0.04988612
   0.44378115  0.89486735  0.94357492
   0.55822940  0.77681995  0.05416537
   0.77898304  0.22573525  0.95174436
   0.88821735  0.10708024  0.04993644
   0.77688003  0.55598131  0.95574196
   0.88917544  0.44359152  0.04193935
   0.77976010  0.88675945  0.95311020
   0.88633236  0.77876447  0.04940637
unknown system                          
           1
     8.311739    4.837164    0.000000
    -8.307004    4.828878    0.000000
     0.000000    0.000000   30.000000
   V    Mo   W    S 
   3   3   3  18
Direct configuration=    22
   0.64390346  0.66156212 -0.00029372
   0.63813437  0.31419356  0.00038245
   1.00118346  0.30457526  0.00002333
   0.32791585 -0.00235159 -0.00002706
   0.32061782  0.30373474  0.00003124
   0.03105724  0.01434731  0.00000304
   0.02850334  0.70054251  0.00033095
   0.34891969  0.70008507  0.00038587
   0.64366284 -0.01222396 -0.00074343
   0.11026626  0.22244329  0.94495087
   0.22643063  0.10823212  0.05692764
   0.11215403  0.55416052  0.95238291
   0.22215998  0.44745890  0.04612546
   0.11550481  0.89517817  0.94330371
   0.22718286  0.78177082  0.05644207
   0.44700648  0.22309549  0.94567837
   0.55852600  0.11457092  0.05294547
   0.43863420  0.55385301  0.95149440
   0.55525900  0.44370204  0.04994695
   0.44387183  0.89499992  0.94346202
   0.55821892  0.77700544  0.05420049
   0.77880355  0.22560631  0.95170660
   0.88812511  0.10665201  0.04990579
   0.77685828  0.55609783  0.95593991
   0.88919280  0.44350509  0.04175191
   0.77981454  0.88668880  0.95343571
   0.88630710  0.77872876  0.04930696
unknown system                          
           1
     8.312449    4.836372    0.000000
    -8.306965    4.826801    0.000000
     0.000000    0.000000   30.000000
   V    Mo   W    S 
   3   3   3  18
Direct configuration=    23
   0.64349703  0.66111767 -0.00025258
   0.63821761  0.31426235  0.00037364
   1.00091114  0.30432450 -0.00001749
   0.32803977 -0.00221188 -0.00003767
   0.32073907  0.30385738  0.00000897
   0.03119653  0.01439652 -0.00000443
   0.02856064  0.70055082  0.00033676
   0.34893222  0.70014795  0.00037771
   0.64370263 -0.01201206 -0.00072872
   0.11024924  0.22236053  0.94495740
   0.22655139  0.10832903  0.05691192
   0.11208470  0.55408566  0.95240004
   0.22201305  0.44743918  0.04605051
   0.11560007  0.89515597  0.94331475
   0.22726844  0.78190583  0.05643155
   0.44711461  0.22322245  0.94568110
   0.55856402  0.11466666  0.05295693
   0.43858064  0.55390250  0.95145333
   0.55521703  0.44362861  0.04998131
   0.44391481  0.89498363  0.94349728
   0.55818540  0.77703094  0.05419789
   0.77874732  0.22557411  0.95167259
   0.88817966  0.10660370  0.04989409
   0.77682752  0.55613507  0.95597067
   0.88921502  0.44346161  0.04174002
   0.77981674  0.88661585  0.95354703
   0.88628813  0.77867987  0.04928532
unknown system                          
           1
     8.315584    4.838168    0.000000
    -8.309943    4.828327    0.000000
     0.000000    0.000000   30.000000
   V    Mo   W    S 
   3   3   3  18
Direct configuration=    24
   0.64229392  0.65998370 -0.00014715
   0.63824719  0.31430579  0.00035509
   1.00022922  0.30360862 -0.00012655
   0.32841384 -0.00192742 -0.00005828
   0.32099292  0.30395528 -0.00003081
   0.03173730  0.01450206 -0.00001993
   0.02893126  0.70078361  0.00035094
   0.34900978  0.70053182  0.00039797
   0.64351270 -0.01168434 -0.00068260
   0.11031315  0.22214320  0.94492135
   0.22689325  0.10850670  0.05688149
   0.11205360  0.55404515  0.95248558
   0.22180935  0.44753157  0.04579695
   0.11589235  0.89523216  0.94333501
   0.22753027  0.78224595  0.05644350
   0.44727393  0.22346134  0.94563355
   0.55871316  0.11485468  0.05302763
   0.43826260  0.55399657  0.95137334
   0.55504048  0.44342434  0.05007765
   0.44403363  0.89509385  0.94346098