unknown system                          
           1
     8.860421    5.104258    0.000000
    -8.861768    5.106577    0.000000
     0.000000    0.000000   30.000000
   V    Mo   W    S 
   3   3   3  18
Direct configuration=     1
   0.33333334  0.00000000  0.00000000
   0.66666669  0.00000000  0.00000000
   0.33333334  0.66666669  0.00000000
   0.33333334  0.33333334  0.00000000
   0.00000000  0.66666669  0.00000000
   0.66666669  0.66666669  0.00000000
   0.00000000  0.00000000  0.00000000
   1.00000000  0.33333334  0.00000000
   0.66666669  0.33333334  0.00000000
   0.11068511  0.22244981  0.95539999
   0.22244981  0.11068511  0.04460000
   0.11068511  0.55578315  0.95539999
   0.22244981  0.44401845  0.04460000
   0.11068511  0.88911647  0.95539999
   0.22244981  0.77735180  0.04460000
   0.44401845  0.22244981  0.95539999
   0.55578315  0.11068511  0.04460000
   0.44401845  0.55578315  0.95539999
   0.55578315  0.44401845  0.04460000
   0.44401845  0.88911647  0.95539999
   0.55578315  0.77735180  0.04460000
   0.77735180  0.22244981  0.95539999
   0.88911647  0.11068511  0.04460000
   0.77735180  0.55578315  0.95539999
   0.88911647  0.44401845  0.04460000
   0.77735180  0.88911647  0.95539999
   0.88911647  0.77735180  0.04460000
unknown system                          
           1
     8.670195    4.997274    0.000000
    -8.671516    4.999547    0.000000
     0.000000    0.000000   30.000000
   V    Mo   W    S 
   3   3   3  18
Direct configuration=     2
   0.33264618 -0.00051043  0.00000961
   0.66583003 -0.00159176 -0.00001935
   0.33382052  0.66647295  0.00001239
   0.33470983  0.33477111  0.00009231
  -0.00115761  0.66671493 -0.00005553
   0.66649087  0.66536032 -0.00014678
   0.00002827 -0.00166111  0.00017325
   1.00168639  0.33507051  0.00015455
   0.66611322  0.33573128 -0.00017061
   0.11021240  0.22163603  0.95082883
   0.22348250  0.10816878  0.04800211
   0.11496774  0.55672656  0.95192538
   0.22326865  0.44821620  0.04811907
   0.11504458  0.89135791  0.95189062
   0.22658411  0.77967729  0.04683512
   0.44324158  0.21810065  0.95196518
   0.55390792  0.10743224  0.04681700
   0.44206345  0.55796532  0.95201014
   0.55572487  0.44381091  0.04930999
   0.44421084  0.88892896  0.95415152
   0.55321558  0.77984476  0.04691961
   0.77587068  0.21844201  0.95198542
   0.88522296  0.10932052  0.04808454
   0.77716463  0.55443458  0.95062907
   0.88841632  0.44337939  0.04923076
   0.77612801  0.89155435  0.95202585
   0.88931993  0.77886018  0.04921985
unknown system                          
           1
     8.486329    4.897784    0.000000
    -8.487613    4.899996    0.000000
     0.000000    0.000000   30.000000
   V    Mo   W    S 
   3   3   3  18
Direct configuration=     3
   0.33234292 -0.00062851  0.00006329
   0.66575239 -0.00194417 -0.00001249
   0.33383323  0.66623085  0.00002189
   0.33514301  0.33523708  0.00005692
  -0.00206466  0.66647506 -0.00002525
   0.66671841  0.66457580 -0.00017030
   0.00002532 -0.00211192  0.00019027
   1.00222000  0.33549882  0.00011589
   0.66620560  0.33694721 -0.00019570
   0.10996173  0.22152581  0.95091827
   0.22328959  0.10801243  0.04799711
   0.11496531  0.55658826  0.95195065
   0.22313480  0.44823842  0.04817124
   0.11502345  0.89152550  0.95187237
   0.22667683  0.77975498  0.04674257
   0.44342241  0.21812030  0.95198609
   0.55395258  0.10760207  0.04667358
   0.44202317  0.55805014  0.95196426
   0.55584617  0.44368017  0.04942943
   0.44420548  0.88888787  0.95423124
   0.55315527  0.77986244  0.04685977
   0.77592261  0.21862841  0.95213482
   0.88540640  0.10937370  0.04800798
   0.77701890  0.55420295  0.95045457
   0.88829030  0.44311285  0.04922006
   0.77631483  0.89167570  0.95204440
   0.88942839  0.77909225  0.04929698
unknown system                          
           1
     8.280909    4.772717    0.000000
    -8.285865    4.781290    0.000000
     0.000000    0.000000   30.000000
   V    Mo   W    S 
   3   3   3  18
Direct configuration=     4
   0.33093462 -0.00075142  0.00026536
   0.66617603 -0.00277950  0.00003488
   0.33340033  0.66457524  0.00006641
   0.33655472  0.33686334 -0.00008191
  -0.00639811  0.66515853  0.00008078
   0.66820367  0.66120646 -0.00018562
  -0.00005010 -0.00351337  0.00015929
   1.00407792  0.33669796 -0.00008522
   0.66706478  0.34210665 -0.00019566
   0.10975322  0.22133965  0.94966211
   0.22383869  0.10758700  0.04944294
   0.11617011  0.55748243  0.95058246
   0.22398091  0.44960322  0.04989581
   0.11610817  0.89201865  0.95031869
   0.22767122  0.78031652  0.04768738
   0.44292946  0.21698920  0.95058590
   0.55351481  0.10696766  0.04742505
   0.44159734  0.55890313  0.95033861
   0.55588067  0.44366855  0.05154429
   0.44413751  0.88871607  0.95328903
   0.55263557  0.78017723  0.04793232
   0.77533358  0.21793424  0.95126905
   0.88463712  0.10888686  0.04920882
   0.77695110  0.55425195  0.94803948
   0.88803467  0.44275823  0.05080677
   0.77584246  0.89199223  0.95067181
   0.88923401  0.77905775  0.05124105
unknown system                          
           1
     8.289575    4.773022    0.000000
    -8.295725    4.783658    0.000000
     0.000000    0.000000   30.000000
   V    Mo   W    S 
   3   3   3  18
Direct configuration=     5
   0.32846314 -0.00090933  0.00054380
   0.66714719 -0.00430420  0.00016145
   0.33249994  0.66113472  0.00015905
   0.33877662  0.33992131 -0.00027464
  -0.01547837  0.66255916  0.00015346
   0.67177429  0.65505155 -0.00007797
  -0.00053331 -0.00611862 -0.00000544
   1.00786876  0.33846160 -0.00039038
   0.66882536  0.35184206 -0.00010683
   0.11021097  0.22105486  0.94813252
   0.22450851  0.10765628  0.05131804
   0.11743301  0.55931870  0.94893724
   0.22535284  0.45129370  0.05225855
   0.11693267  0.89170197  0.94835106
   0.22744252  0.78015434  0.04886341
   0.44284898  0.21636327  0.94884294
   0.55343118  0.10744753  0.04822034
   0.44202716  0.56016525  0.94816696
   0.55557328  0.44400945  0.05449389
   0.44385669  0.88828592  0.95184049
   0.55243552  0.77964202  0.04933999
   0.77454775  0.21783695  0.95039644
   0.88413107  0.10852394  0.05077452
   0.77712546  0.55479557  0.94425313
   0.88756662  0.44261412  0.05277560
   0.77507901  0.89119950  0.94894689
   0.88836757  0.77851283  0.05392542
unknown system                          
           1
     8.279429    4.767353    0.000000
    -8.284497    4.776111    0.000000
     0.000000    0.000000   30.000000
   V    Mo   W    S 
   3   3   3  18
Direct configuration=     6
   0.32805728 -0.00104629  0.00056837
   0.66701950 -0.00517098  0.00016354
   0.33263052  0.66033050  0.00011019
   0.33864390  0.34061715 -0.00024397
  -0.01657952  0.66266835  0.00004458
   0.67227509  0.65513336 -0.00006077
  -0.00101522 -0.00684799  0.00002271
   1.00927876  0.33847835 -0.00040663
   0.66883462  0.35273537 -0.00015553
   0.11070985  0.22092943  0.94809000
   0.22428240  0.10798830  0.05129825
   0.11707210  0.55979476  0.94905209
   0.22550100  0.45121108  0.05245501
   0.11642802  0.89106588  0.94830327
   0.22591844  0.77923369  0.04872315
   0.44343678  0.21711797  0.94888273
   0.55406299  0.10888045  0.04798331
   0.44304983  0.56049611  0.94812057
   0.55528160  0.44413360  0.05480836
   0.44370829  0.88810428  0.95184609
   0.55290808  0.77878120  0.04933541
   0.77453582  0.21874298  0.95070075
   0.88473947  0.10878504  0.05075552
   0.77719785  0.55493595  0.94374799
   0.88738958  0.44267803  0.05275203
   0.77495424  0.89020172  0.94895588
   0.88789319  0.77823617  0.05414700
unknown system                          
           1
     8.288825    4.771560    0.000000
    -8.294079    4.780638    0.000000
     0.000000    0.000000   30.000000
   V    Mo   W    S 
   3   3   3  18
Direct configuration=     7
   0.32738837 -0.00131296  0.00066842
   0.66662617 -0.00669517  0.00017365
   0.33290715  0.65905916  0.00005929
   0.33869883  0.34191586 -0.00018617
  -0.01884594  0.66284614  0.00000209
   0.67329684  0.65438937 -0.00003176
  -0.00173779 -0.00821258  0.00008561
   1.01171659  0.33861245 -0.00046421
   0.66873848  0.35518858 -0.00015832
   0.11116924  0.22068532  0.94794879
   0.22407408  0.10827235  0.05132576
   0.11689157  0.56030057  0.94912958
   0.22581828  0.45135290  0.05285993
   0.11604235  0.89062350  0.94811556
   0.22456070  0.77836939  0.04854553
   0.44374424  0.21774808  0.94883541
   0.55461391  0.11008485  0.04771315
   0.44388712  0.56088057  0.94792110
   0.55504478  0.44427634  0.05517130
   0.44358122  0.88790332  0.95182885
   0.55324047  0.77806119  0.04945108
   0.77465816  0.21956125  0.95107228
   0.88528075  0.10899151  0.05080215
   0.77710228  0.55509062  0.94311317
   0.88734443  0.44274728  0.05268690
   0.77486183  0.88943685  0.94881141
   0.88751035  0.77803772  0.05451936
unknown system                          
           1
     8.293897    4.772510    0.000000
    -8.299085    4.781470    0.000000
     0.000000    0.000000   30.000000
   V    Mo   W    S 
   3   3   3  18
Direct configuration=     8
   0.32737138 -0.00139108  0.00068362
   0.66638651 -0.00706394  0.00016849
   0.33305821  0.65897035  0.00004960
   0.33857013  0.34206303 -0.00019205
  -0.01869156  0.66319066 -0.00002034
   0.67325332  0.65466610 -0.00003171
  -0.00188811 -0.00838593  0.00009454
   1.01216933  0.33851039 -0.00047694
   0.66847546  0.35503190 -0.00018816
   0.11121746  0.22061383  0.94798449
   0.22401739  0.10828011  0.05125386
   0.11686190  0.56028588  0.94922344
   0.22583506  0.45136883  0.05285926
   0.11600219  0.89063212  0.94815598
   0.22447071  0.77828674  0.04845850
   0.44373702  0.21782204  0.94889815
   0.55467082  0.11015573  0.04762911
   0.44394189  0.56089324  0.94795941
   0.55500250  0.44431194  0.05513452
   0.44358583  0.88788583  0.95188910
   0.55323926  0.77805057  0.04943844
   0.77475730  0.21965203  0.95120331
   0.88531746  0.10901851  0.05074759
   0.77708304  0.55510109  0.94317466
   0.88737604  0.44274391  0.05256611
   0.77491123  0.88945373  0.94883884
   0.88748269  0.77806685  0.05449809
unknown system                          
           1
     8.280515    4.768954    0.000000
    -8.286499    4.779304    0.000000
     0.000000    0.000000   30.000000
   V    Mo   W    S 
   3   3   3  18
Direct configuration=     9
   0.32703148 -0.00168048  0.00076766
   0.66572247 -0.00850156  0.00016412
   0.33345563  0.65820893  0.00001554
   0.33843127  0.34300363 -0.00017249
  -0.01958989  0.66393862 -0.00005949
   0.67371507  0.65470567 -0.00001226
  -0.00251572 -0.00935524  0.00014831
   1.01419750  0.33836530 -0.00051852
   0.66789128  0.35601088 -0.00022851
   0.11149869  0.22035014  0.94793294
   0.22385389  0.10839905  0.05116803
   0.11680152  0.56050011  0.94939346
   0.22605183  0.45152130  0.05308422
   0.11582840  0.89051132  0.94809638
   0.22384698  0.77782071  0.04825940
   0.44379255  0.21815362  0.94893830
   0.55497625  0.11070863  0.04739150
   0.44434068  0.56110214  0.94788150
   0.55484691  0.44445247  0.05526806
   0.44352951  0.88774819  0.95194899
   0.55332738  0.77778121  0.04951938
   0.77498762  0.22012009  0.95158742
   0.88555176  0.10912108  0.05069877
   0.77700826  0.55521613  0.94295587
   0.88741223  0.44275633  0.05232508
   0.77495508  0.88922038  0.94877534
   0.88726586  0.77803581  0.05467091
unknown system                          
           1
     8.277579    4.769153    0.000000
    -8.284036    4.780328    0.000000
     0.000000    0.000000   30.000000
   V    Mo   W    S 
   3   3   3  18
Direct configuration=    10
   0.32767524 -0.00099602  0.00057874
   0.66744725 -0.00519739  0.00019040
   0.33253785  0.65966499  0.00008279
   0.33866800  0.34102396 -0.00019630
  -0.01825063  0.66182114  0.00003110
   0.67288535  0.65425266 -0.00005453
  -0.00113678 -0.00730002  0.00002052
   1.00993410  0.33892409 -0.00044592
   0.66946534  0.35445156 -0.00010540
   0.11090610  0.22093879  0.94806360
   0.22414929  0.10818868  0.05138878
   0.11691216  0.56020143  0.94899620
   0.22555550  0.45116922  0.05262500
   0.11610356  0.89059535  0.94821954
   0.22480445  0.77862600  0.04863417
   0.44383580  0.21762130  0.94886872
   0.55443172  0.10985090  0.04785071
   0.44367851  0.56072686  0.94805566
   0.55514355  0.44412333  0.05503578
   0.44362995  0.88804327  0.95185515
   0.55326001  0.77810846  0.04927643
   0.77442332  0.21924754  0.95073951
   0.88521578  0.10894124  0.05081625
   0.77714930  0.55496180  0.94326595
   0.88729389  0.44275373  0.05294670
   0.77479966  0.88944492  0.94893495
   0.88769616  0.77802668  0.05432539
unknown system                          
           1
     8.272054    4.766854    0.000000
    -8.278495    4.778004    0.000000
     0.000000    0.000000   30.000000
   V    Mo   W    S 
   3   3   3  18
Direct configuration=    11
   0.32788657 -0.00040982  0.00046328
   0.66900391 -0.00274891  0.00023091
   0.33184710  0.66031983  0.00012679
   0.33884718  0.33976558 -0.00020297
  -0.01809426  0.65967425  0.00003746
   0.67250053  0.65350297 -0.00008007
  -0.00016018 -0.00610000 -0.00007905
   1.00695284  0.33973784 -0.00042443
   0.67113724  0.35414494 -0.00005620
   0.11055320  0.22134612  0.94817256
   0.22424903  0.10811359  0.05158050
   0.11688998  0.56015135  0.94869256
   0.22516579  0.45091893  0.05238443
   0.11607582  0.89034806  0.94829927
   0.22486223  0.77885204  0.04878152
   0.44410370  0.21756248  0.94886962
   0.55428531  0.10978542  0.04804657
   0.44350829  0.56053492  0.94816571
   0.55518877  0.44386998  0.05501780
   0.44373991  0.88826455  0.95185829
   0.55344155  0.77802641  0.04901534
   0.77405061  0.21893549  0.95021281
   0.88529614  0.10901039  0.05089534
   0.77718685  0.55470219  0.94323905
   0.88718811  0.44273663  0.05352372
   0.77462127  0.88925363  0.94907271
   0.88788698  0.77791559  0.05415638
unknown system                          
           1
     8.278444    4.769688    0.000000
    -8.284869    4.780809    0.000000
     0.000000    0.000000   30.000000
   V    Mo   W    S 
   3   3   3  18
Direct configuration=    12
   0.32748023 -0.00026208  0.00050191
   0.66941357 -0.00259683  0.00027786
   0.33174766  0.65996398  0.00014528
   0.33923343  0.33992172 -0.00017461
  -0.01883985  0.65882094 -0.00000287
   0.67262055  0.65292464 -0.00007164
  -0.00005823 -0.00650382 -0.00009958
   1.00643599  0.34049546 -0.00041140
   0.67195477  0.35502513 -0.00002150
   0.11049529  0.22141707  0.94829222
   0.22409282  0.10814443  0.05159267
   0.11672532  0.56022512  0.94866210
   0.22498548  0.45083603  0.05236418
   0.11579680  0.89000698  0.94833493
   0.22426061  0.77852164  0.04861553
   0.44438189  0.21786118  0.94894752
   0.55451565  0.11028062  0.04787316
   0.44372043  0.56052066  0.94819755
   0.55511049  0.44374905  0.05507467
   0.44383051  0.88834367  0.95198084
   0.55370249  0.77777955  0.04886119
   0.77411359  0.21926224  0.95025244
   0.88573820  0.10933920  0.05083760
   0.77712915  0.55463227  0.94301653
   0.88717456  0.44275970  0.05366714
   0.77462630  0.88899910  0.94914978
   0.88782677  0.77774678  0.05413639
unknown system                          
           1
     8.281430    4.770894    0.000000
    -8.288023    4.782305    0.000000
     0.000000    0.000000   30.000000
   V    Mo   W    S 
   3   3   3  18
Direct configuration=    13
   0.32712002 -0.00038856  0.00056174
   0.66905353 -0.00363243  0.00028374
   0.33205162  0.65935894  0.00012013
   0.33935752  0.34061819 -0.00017199
  -0.01934137  0.65928233 -0.00006172
   0.67279863  0.65298751 -0.00008559
  -0.00053908 -0.00737479 -0.00007524
   1.00753857  0.34065939 -0.00044289
   0.67163947  0.35562214 -0.00006838
   0.11063017  0.22125653  0.94831855
   0.22396666  0.10824694  0.05156009
   0.11672049  0.56038001  0.94873902
   0.22512093  0.45093974  0.05252281
   0.11569419  0.88991636  0.94825953
   0.22387764  0.77819491  0.04848652
   0.44443072  0.21807048  0.94897255
   0.55473165  0.11063084  0.04770747
   0.44393672  0.56061954  0.94812447
   0.55500803  0.44381457  0.05519200
   0.44382994  0.88827987  0.95203021
   0.55375859  0.77762882  0.04894345
   0.77425567  0.21955085  0.95049439
   0.88595514  0.10945992  0.05079805
   0.77705272  0.55470569  0.94286233
   0.88721348  0.44279199  0.05356546
   0.77467693  0.88890218  0.94908750
   0.88767590  0.77769251  0.05427570
unknown system                          
           1
     8.279780    4.770292    0.000000
    -8.286384    4.781724    0.000000
     0.000000    0.000000   30.000000
   V    Mo   W    S 
   3   3   3  18
Direct configuration=    14
   0.32677089 -0.00044373  0.00061192
   0.66883033 -0.00436891  0.00029982
   0.33229392  0.65893699  0.00010642
   0.33952352  0.34110737 -0.00015255
  -0.01975429  0.65946416 -0.00009189
   0.67292624  0.65298852 -0.00008614
  -0.00086661 -0.00817488 -0.00005100
   1.00824664  0.34102101 -0.00045707
   0.67152990  0.35614759 -0.00007667
   0.11068240  0.22113538  0.94838277
   0.22385512  0.10830834  0.05152169
   0.11673408  0.56052041  0.94878547
   0.22519144  0.45099991  0.05261485
   0.11563105  0.88984877  0.94821793
   0.22358575  0.77797628  0.04835677
   0.44447517  0.21822131  0.94901059
   0.55486802  0.11090989  0.04755091
   0.44409310  0.56067504  0.94807081
   0.55496422  0.44385683  0.05525128
   0.44382932  0.88825569  0.95209503
   0.55380401  0.77749090  0.04899008
   0.77434788  0.21976870  0.95066985
   0.88616679  0.10956174  0.05074108
   0.77697456  0.55474606  0.94274568
   0.88722252  0.44283363  0.05349625
   0.77472367  0.88881466  0.94904662
   0.88756482  0.77761278  0.05434939
unknown system                          
           1
     8.275213    4.767933    0.000000
    -8.281511    4.778833    0.000000
     0.000000    0.000000   30.000000
   V    Mo   W    S 
   3   3   3  18
Direct configuration=    15
   0.32707107 -0.00039982  0.00057087
   0.66901022 -0.00359936  0.00028321
   0.33198709  0.65934334  0.00012021
   0.33930649  0.34054035 -0.00015852
  -0.01944913  0.65928817 -0.00004826
   0.67285709  0.65287062 -0.00006899
  -0.00039435 -0.00724764 -0.00006661
   1.00758286  0.34050758 -0.00043047
   0.67164944  0.35571776 -0.00004990
   0.11068009  0.22128755  0.94828428
   0.22398620  0.10824206  0.05155358
   0.11666594  0.56035217  0.94874965
   0.22510035  0.45091027  0.05253652
   0.11570413  0.88991241  0.94826745
   0.22379649  0.77818491  0.04846796
   0.44444447  0.21807325  0.94897839
   0.55472625  0.11068119  0.04768906
   0.44397980  0.56064024  0.94811379
   0.55499602  0.44379165  0.05519546
   0.44381755  0.88829706  0.95203541
   0.55380197  0.77761203  0.04893603
   0.77429208  0.21962027  0.95050170
   0.88599185  0.10951127  0.05081509
   0.77705202  0.55470548  0.94282147
   0.88721670  0.44279172  0.05353946
   0.77466694  0.88887501  0.94908600
   0.88767483  0.77770496  0.05427704
unknown system                          
           1
     8.280392    4.770148    0.000000
    -8.286872    4.781363    0.000000
     0.000000    0.000000   30.000000
   V    Mo   W    S 
   3   3   3  18
Direct configuration=    16
   0.32713813 -0.00052112  0.00055869
   0.66905129 -0.00374135  0.00027301
   0.33206544  0.65918747  0.00010587
   0.33915518  0.34073985 -0.00017037
  -0.01982444  0.65931793 -0.00008328
   0.67296814  0.65276236 -0.00008921
  -0.00062267 -0.00716938 -0.00007675
   1.00793594  0.34019437 -0.00045027
   0.67165351  0.35604036 -0.00008189
   0.11076466  0.22127659  0.94826666
   0.22396433  0.10831871  0.05156982
   0.11659159  0.56032348  0.94882489
   0.22512787  0.45091931  0.05257476
   0.11561836  0.88985951  0.94826169
   0.22357601  0.77798580  0.04843122
   0.44450749  0.21819083  0.94899946
   0.55488328  0.11083392  0.04763556
   0.44406114  0.56067845  0.94813551
   0.55493859  0.44377130  0.05523227
   0.44387205  0.88828333  0.95206921
   0.55387047  0.77761492  0.04889339
   0.77433862  0.21970341  0.95060161
   0.88600299  0.10952474  0.05080594
   0.77703666  0.55470152  0.94279046
   0.88723153  0.44279549  0.05348257
   0.77466971  0.88887237  0.94914082
   0.88763859  0.77775028  0.05429825
unknown system                          
           1
     8.273120    4.767172    0.000000
    -8.279019    4.777382    0.000000
     0.000000    0.000000   30.000000
   V    Mo   W    S 
   3   3   3  18
Direct configuration=    17
   0.32673714 -0.00055160  0.00062099
   0.66872234 -0.00467626  0.00029509
   0.33240352  0.65876631  0.00009485
   0.33943716  0.34133187 -0.00015036
  -0.02002968  0.65962343 -0.00010983
   0.67303374  0.65296365 -0.00008971
  -0.00106055 -0.00830002 -0.00004313
   1.00871924  0.34084932 -0.00046821
   0.67142252  0.35641703 -0.00009217
   0.11076139  0.22108971  0.94836946
   0.22382666  0.10835734  0.05151065
   0.11669850  0.56053164  0.94884926
   0.22523860  0.45102690  0.05266372
   0.11558738  0.88983028  0.94820656
   0.22341835  0.77783357  0.04830596
   0.44449675  0.21830306  0.94902830
   0.55497070  0.11103923  0.04748571
   0.44417389  0.56071989  0.94806446
   0.55492587  0.44386788  0.05527855
   0.44384644  0.88823423  0.95212300
   0.55383832  0.77747054  0.04898910
   0.77440673  0.21986587  0.95077675
   0.88619895  0.10957894  0.05072646
   0.77695100  0.55476324  0.94270744
   0.88723514  0.44284367  0.05341929
   0.77473661  0.88880271  0.94905869
   0.88751774  0.77763201  0.05437902
unknown system                          
           1
     8.269330    4.764823    0.000000
    -8.275244    4.775058    0.000000
     0.000000    0.000000   30.000000
   V    Mo   W    S 
   3   3   3  18
Direct configuration=    18
   0.32772641 -0.00064313  0.00045613
   0.66970384 -0.00155058  0.00024869
   0.33125010  0.66007153  0.00014071
   0.33814630  0.33917494 -0.00012965
  -0.01960654  0.65893819 -0.00000073
   0.67297903  0.65215680 -0.00000528
   0.00088976 -0.00420491 -0.00009489
   1.00657704  0.33817145 -0.00036328
   0.67211405  0.35536120  0.00000359
   0.11097495  0.22168769  0.94784510
   0.22430595  0.10816633  0.05169589
   0.11630022  0.55992626  0.94879010
   0.22492864  0.45073323  0.05247486
   0.11572577  0.88991189  0.94837789
   0.22359172  0.77818880  0.04861889
   0.44454191  0.21790366  0.94893120
   0.55469319  0.11058297  0.04789791
   0.44396756  0.56073198  0.94822942
   0.55489490  0.44354483  0.05519728
   0.44388287  0.88841062  0.95196101
   0.55406353  0.77777297  0.04866486
   0.77421983  0.21948705  0.95020291
   0.88563102  0.10947671  0.05110388
   0.77719971  0.55461261  0.94273269
   0.88727252  0.44274293  0.05360494
   0.77441555  0.88883250  0.94927553
   0.88782466  0.77802595  0.05414023
unknown system                          
           1
     8.277548    4.768584    0.000000
    -8.283646    4.779137    0.000000
     0.000000    0.000000   30.000000
   V    Mo   W    S 
   3   3   3  18
Direct configuration=    19
   0.32807294 -0.00078323  0.00034455
   0.67029574  0.00029236  0.00019598
   0.33057346  0.66059186  0.00013397
   0.33703842  0.33789155 -0.00017095
  -0.01976245  0.65858659  0.00000362
   0.67296013  0.65131804 -0.00003303
   0.00226878 -0.00138742 -0.00016795
   1.00579784  0.33622378 -0.00033330
   0.67257632  0.35520376 -0.00000701
   0.11118053  0.22204533  0.94752224
   0.22455235  0.10803514  0.05183163
   0.11598066  0.55947497  0.94883831
   0.22475010  0.45055932  0.05239577
   0.11573320  0.88998254  0.94850630
   0.22350915  0.77829484  0.04875380
   0.44460712  0.21776383  0.94894925
   0.55456026  0.11046054  0.04809328
   0.44389061  0.56068233  0.94839530
   0.55483784  0.44331338  0.05516243
   0.44391116  0.88853861  0.95191025
   0.55427202  0.77787882  0.04845695
   0.77424474  0.21942736  0.94994374
   0.88540367  0.10944127  0.05134920
   0.77726864  0.55449234  0.94279678
   0.88735387  0.44270746  0.05364586
   0.77434569  0.88884061  0.94949029
   0.88799167  0.77833847  0.05399259
unknown system                          
           1
     8.283751    4.770167    0.000000
    -8.290539    4.781913    0.000000
     0.000000    0.000000   30.000000
   V    Mo   W    S 
   3   3   3  18
Direct configuration=    20
   0.32748460 -0.00082448  0.00044546
   0.66966191 -0.00165779  0.00021825
   0.33128548  0.65973012  0.00009677
   0.33770882  0.33926166 -0.00018372
  -0.02013969  0.65911149 -0.00008125
   0.67305898  0.65178308 -0.00009361
   0.00108147 -0.00377253 -0.00013563
   1.00731757  0.33762497 -0.00040284
   0.67210138  0.35593207 -0.00008081
   0.11112683  0.22167261  0.94779397
   0.22427361  0.10814588  0.05171696
   0.11621267  0.55985411  0.94890920
   0.22497447  0.45078186  0.05254427
   0.11564023  0.88992927  0.94840694
   0.22330396  0.77800217  0.04854443
   0.44458073  0.21802368  0.94901353
   0.55477226  0.11079610  0.04782715
   0.44405659  0.56072852  0.94829639
   0.55483330  0.44352065  0.05524078
   0.44389372  0.88841419  0.95201310
   0.55415534  0.77767571  0.04865049
   0.77436514  0.21968029  0.95031960
   0.88572347  0.10950188  0.05115188
   0.77710249  0.55459601  0.94275502
   0.88734524  0.44278648  0.05351465
   0.77450597  0.88879117  0.94935701
   0.88778790  0.77812528  0.05416193
unknown system                          
           1
     8.284456    4.770419    0.000000
    -8.291265    4.782201    0.000000
     0.000000    0.000000   30.000000
   V    Mo   W    S 
   3   3   3  18
Direct configuration=    21
   0.32697475 -0.00111305  0.00055290
   0.66914602 -0.00286132  0.00024987
   0.33182252  0.65908439  0.00009499
   0.33747696  0.33997839 -0.00009289
  -0.02065795  0.65979220 -0.00003985
   0.67313694  0.65183283  0.00000788
   0.00070390 -0.00449707 -0.00003213
   1.00894604  0.33768198 -0.00038992
   0.67166006  0.35656143 -0.00001646
   0.11125615  0.22144345  0.94777142
   0.22411019  0.10822396  0.05163284
   0.11626908  0.55999489  0.94903573
   0.22515172  0.45091633  0.05267391
   0.11554324  0.88994325  0.94832339
   0.22297250  0.77768972  0.04833680
   0.44455910  0.21822663  0.94906711
   0.55495578  0.11115309  0.04759451
   0.44420353  0.56079033  0.94820712
   0.55477321  0.44361506  0.05522824
   0.44388293  0.88833304  0.95210253
   0.55415851  0.77750354  0.04871047
   0.77458588  0.21999687  0.95061663
   0.88596031  0.10955893  0.05106553
   0.77699774  0.55468698  0.94256012
   0.88739239  0.44286221  0.05325246
   0.77464248  0.88873412  0.94931054
   0.88759047  0.77808227  0.05417617
unknown system                          
           1
     8.275455    4.769012    0.000000
    -8.281040    4.778679    0.000000
     0.000000    0.000000   30.000000
   V    Mo   W    S 
   3   3   3  18
Direct configuration=    22
   0.32697792 -0.00116472  0.00054005
   0.66916105 -0.00273793  0.00023678
   0.33179570  0.65910588  0.00008624
   0.33727240  0.33985739 -0.00010441
  -0.02070114  0.65983168 -0.00005569
   0.67313135  0.65174435 -0.00000895
   0.00086220 -0.00415536 -0.00004393
   1.00901294  0.33740017 -0.00039613
   0.67166835  0.35657711 -0.00003545
   0.11129732  0.22146984  0.94772356
   0.22413498  0.10821683  0.05165205
   0.11623798  0.55994879  0.94905861
   0.22515373  0.45091439  0.05268685
   0.11553709  0.88995978  0.94833579
   0.22295190  0.77768098  0.04834428
   0.44455936  0.21822202  0.94907674
   0.55495163  0.11115505  0.04760686
   0.44419977  0.56078408  0.94822191
   0.55474013  0.44358373  0.05523937
   0.44388509  0.88833895  0.95210247
   0.55417756  0.77751233  0.04869902
   0.77461188  0.22001284  0.95061525
   0.88593858  0.10955429  0.05109671
   0.77699680  0.55467850  0.94257128
   0.88741972  0.44285339  0.05324053
   0.77464465  0.88873783  0.94933777
   0.88759550  0.77813227  0.05417234
unknown system                          
           1
     8.285412    4.772295    0.000000
    -8.291855    4.783444    0.000000
     0.000000    0.000000   30.000000
   V    Mo   W    S 
   3   3   3  18
Direct configuration=    23
   0.32737415 -0.00037004  0.00052697
   0.66977057 -0.00230886  0.00030875
   0.33146565  0.65979954  0.00015065
   0.33917790  0.33989947 -0.00015089
  -0.01994000  0.65867775 -0.00005043
   0.67320756  0.65237606 -0.00005465
  -0.00003762 -0.00611138 -0.00010619
   1.00654168  0.33942594 -0.00041294
   0.67223185  0.35590815 -0.00003334
   0.11085867  0.22158156  0.94815380
   0.22411223  0.10820965  0.05161206
   0.11634827  0.56009565  0.94874186
   0.22491603  0.45074268  0.05248129
   0.11566010  0.88979816  0.94833408
   0.22334671  0.77802753  0.04850596
   0.44464213  0.21809207  0.94896935
   0.55482632  0.11080839  0.04773176
   0.44410726  0.56072832  0.94822219
   0.55496768  0.44365674  0.05525716
   0.44396566  0.88846984  0.95202969
   0.55411572  0.77762828  0.04870330
   0.77415906  0.21955551  0.95031336
   0.88588891  0.10953095  0.05096567
   0.77708412  0.55457623  0.94265647
   0.88718404  0.44281515  0.05368494
   0.77449029  0.88879010  0.94921164
   0.88774953  0.77781099  0.05424740
unknown system                          
           1
     8.283732    4.771840    0.000000
    -8.289919    4.782547    0.000000
     0.000000    0.000000   30.000000
   V    Mo   W    S 
   3   3   3  18
Direct configuration=    24
   0.32687862 -0.00070849  0.00056817
   0.66933067 -0.00332231  0.00029246
   0.33186218  0.65908035  0.00010135
   0.33885938  0.34058821 -0.00013626
  -0.02044975  0.65935346 -0.00012560
   0.67321307  0.65227136 -0.00008287
  -0.00026098 -0.00651159 -0.00008104
   1.00815180  0.33931069 -0.00043814
   0.67182378  0.35655986 -0.00007840
   0.11102477  0.22135233  0.94813136
   0.22396005  0.10826702  0.05158873
   0.11639440  0.56021478  0.94891141
   0.22509375  0.45089980  0.05261917
   0.11554404  0.88980900  0.94829146
   0.22301299  0.77771085  0.04833116
   0.44462800  0.21827260  0.94904449
   0.55500631  0.11116824  0.04754361
   0.44425359  0.56080005  0.94819209
   0.55488386  0.44373044  0.05530599
   0.44393224  0.88837191  0.95212930