   27   27  100    1
  0.9710400E+02  0.1002848E-08  0.1002848E-08  0.3000000E-08  0.5000000E-15
  1.000000000000000E-004
  CAR 
 unknown system                          
    159     34    120
 
  0.0000000E+00  0.0000000E+00  0.0000000E+00  0.1562500E-01
    1      -17.838163   1.000000
    2      -16.784859   1.000000
    3      -16.692026   1.000000
    4      -16.605106   1.000000
    5      -16.554967   1.000000
    6      -16.463363   1.000000
    7      -16.421867   1.000000
    8      -16.268667   1.000000
    9      -16.228189   1.000000
   10      -16.132658   1.000000
   11      -16.079971   1.000000
   12      -15.983209   1.000000
   13      -15.898707   1.000000
   14      -15.611082   1.000000
   15      -15.595296   1.000000
   16      -15.474367   1.000000
   17      -15.232705   1.000000
   18      -15.210705   1.000000
   19       -9.398974   1.000000
   20       -9.052703   1.000000
   21       -8.989213   1.000000
   22       -8.836546   1.000000
   23       -8.744231   1.000000
   24       -8.710106   1.000000
   25       -8.695295   1.000000
   26       -8.676704   1.000000
   27       -8.533648   1.000000
   28       -8.506092   1.000000
   29       -8.452715   1.000000
   30       -8.414549   1.000000
   31       -8.250759   1.000000
   32       -8.133933   1.000000
   33       -8.090569   1.000000
   34       -7.986514   1.000000
   35       -7.793414   1.000000
   36       -7.751372   1.000000
   37       -7.625031   1.000000
   38       -7.583836   1.000000
   39       -7.547038   1.000000
   40       -7.337222   1.000000
   41       -7.323193   1.000000
   42       -7.227378   1.000000
   43       -7.098773   1.000000
   44       -6.938727   1.000000
   45       -6.876630   1.000000
   46       -6.782824   1.000000
   47       -6.766672   1.000000
   48       -6.674771   1.000000
   49       -6.611465   1.000000
   50       -6.502398   1.000000
   51       -6.423531   1.000000
   52       -6.275707   1.000000
   53       -6.226571   1.000000
   54       -6.176997   1.000000
   55       -6.145417   1.000000
   56       -6.088911   1.000000
   57       -6.025209   1.000000
   58       -5.933984   1.000000
   59       -5.872811   1.000000
   60       -5.630441   1.000000
   61       -5.601564   1.000000
   62       -5.343210   1.000000
   63       -5.327793   1.000000
   64       -5.058488   1.000000
   65       -5.023371   1.000000
   66       -4.943919   1.000000
   67       -4.871841   1.000000
   68       -4.855757   1.000000
   69       -4.765615   1.000000
   70       -4.710814   1.000000
   71       -4.648657   1.000000
   72       -4.621180   1.000000
   73       -4.424596   1.000000
   74       -4.393188   1.000000
   75       -4.274348   1.000000
   76       -3.990238   1.000000
   77       -3.765549   0.999876
   78       -3.592376   0.992653
   79       -3.478888   0.949221
   80       -3.231782   0.456224
   81       -3.195973   0.358243
   82       -2.890952   0.005868
   83       -2.694584   0.000046
   84       -2.662120   0.000018
   85       -2.596473   0.000002
   86       -2.501444   0.000000
   87       -2.286358   0.000000
   88       -2.273363   0.000000
   89       -2.227700   0.000000
   90       -2.075137   0.000000
   91       -1.730887   0.000000
   92       -1.568398   0.000000
   93       -1.428721   0.000000
   94       -1.232178   0.000000
   95       -1.184652   0.000000
   96       -1.009256   0.000000
   97       -0.899207   0.000000
   98       -0.833113   0.000000
   99       -0.776397   0.000000
  100       -0.635249   0.000000
  101       -0.609957   0.000000
  102       -0.519198   0.000000
  103       -0.428841   0.000000
  104       -0.278652   0.000000
  105       -0.254774   0.000000
  106       -0.132135   0.000000
  107       -0.084928   0.000000
  108        0.035239   0.000000
  109        0.213354   0.000000
  110        0.246408   0.000000
  111        0.352600   0.000000
  112        0.495336   0.000000
  113        0.658737   0.000000
  114        0.738776   0.000000
  115        0.984050   0.000000
  116        1.164851   0.000000
  117        1.216909   0.000000
  118        1.644711   0.000000
  119        1.839553   0.000000
  120        2.160926   0.000000
 
  0.1250000E+00  0.2775558E-16  0.0000000E+00  0.3125000E-01
    1      -17.813705   1.000000
    2      -16.817472   1.000000
    3      -16.771115   1.000000
    4      -16.626930   1.000000
    5      -16.546974   1.000000
    6      -16.449968   1.000000
    7      -16.400080   1.000000
    8      -16.304299   1.000000
    9      -16.236986   1.000000
   10      -16.079466   1.000000
   11      -16.014310   1.000000
   12      -15.983651   1.000000
   13      -15.872900   1.000000
   14      -15.609580   1.000000
   15      -15.589358   1.000000
   16      -15.478571   1.000000
   17      -15.262745   1.000000
   18      -15.206601   1.000000
   19       -9.393533   1.000000
   20       -9.189942   1.000000
   21       -9.078217   1.000000
   22       -8.931056   1.000000
   23       -8.796473   1.000000
   24       -8.729353   1.000000
   25       -8.677444   1.000000
   26       -8.649462   1.000000
   27       -8.549171   1.000000
   28       -8.508848   1.000000
   29       -8.449864   1.000000
   30       -8.295480   1.000000
   31       -8.177994   1.000000
   32       -8.029828   1.000000
   33       -7.987171   1.000000
   34       -7.878497   1.000000
   35       -7.856209   1.000000
   36       -7.738180   1.000000
   37       -7.674262   1.000000
   38       -7.491944   1.000000
   39       -7.448200   1.000000
   40       -7.409804   1.000000
   41       -7.336565   1.000000
   42       -7.220552   1.000000
   43       -7.148369   1.000000
   44       -6.965636   1.000000
   45       -6.869186   1.000000
   46       -6.825243   1.000000
   47       -6.783558   1.000000
   48       -6.673443   1.000000
   49       -6.599613   1.000000
   50       -6.491107   1.000000
   51       -6.424393   1.000000
   52       -6.321800   1.000000
   53       -6.257572   1.000000
   54       -6.159779   1.000000
   55       -6.120887   1.000000
   56       -6.085837   1.000000
   57       -6.044110   1.000000
   58       -5.896411   1.000000
   59       -5.780511   1.000000
   60       -5.593246   1.000000
   61       -5.560644   1.000000
   62       -5.385526   1.000000
   63       -5.329082   1.000000
   64       -5.228745   1.000000
   65       -5.090449   1.000000
   66       -5.037881   1.000000
   67       -4.949468   1.000000
   68       -4.835070   1.000000
   69       -4.781807   1.000000
   70       -4.662886   1.000000
   71       -4.619954   1.000000
   72       -4.521674   1.000000
   73       -4.381375   1.000000
   74       -4.318468   1.000000
   75       -4.256554   1.000000
   76       -3.917123   0.999999
   77       -3.828717   0.999980
   78       -3.674972   0.998752
   79       -3.499717   0.962839
   80       -3.402143   0.863172
   81       -3.015558   0.050618
   82       -2.894132   0.006254
   83       -2.710118   0.000073
   84       -2.620728   0.000005
   85       -2.599593   0.000002
   86       -2.500843   0.000000
   87       -2.290221   0.000000
   88       -2.230253   0.000000
   89       -2.193360   0.000000
   90       -2.080186   0.000000
   91       -1.735178   0.000000
   92       -1.539612   0.000000
   93       -1.432336   0.000000
   94       -1.233358   0.000000
   95       -1.187562   0.000000
   96       -1.006017   0.000000
   97       -0.910394   0.000000
   98       -0.839861   0.000000
   99       -0.798025   0.000000
  100       -0.685004   0.000000
  101       -0.656067   0.000000
  102       -0.587739   0.000000
  103       -0.509227   0.000000
  104       -0.345652   0.000000
  105       -0.286715   0.000000
  106       -0.159000   0.000000
  107       -0.107418   0.000000
  108        0.110328   0.000000
  109        0.196848   0.000000
  110        0.254968   0.000000
  111        0.322610   0.000000
  112        0.473848   0.000000
  113        0.625517   0.000000
  114        0.775827   0.000000
  115        1.029420   0.000000
  116        1.201959   0.000000
  117        1.261483   0.000000
  118        1.689886   0.000000
  119        1.878986   0.000000
  120        2.196352   0.000000
 
  0.2500000E+00  0.5551115E-16  0.0000000E+00  0.3125000E-01
    1      -17.742345   1.000000
    2      -17.007314   1.000000
    3      -16.763293   1.000000
    4      -16.685151   1.000000
    5      -16.596025   1.000000
    6      -16.438795   1.000000
    7      -16.396053   1.000000
    8      -16.258448   1.000000
    9      -16.200184   1.000000
   10      -16.062887   1.000000
   11      -15.985815   1.000000
   12      -15.880997   1.000000
   13      -15.835400   1.000000
   14      -15.594165   1.000000
   15      -15.572579   1.000000
   16      -15.478734   1.000000
   17      -15.318395   1.000000
   18      -15.220750   1.000000
   19       -9.534132   1.000000
   20       -9.307658   1.000000
   21       -9.202781   1.000000
   22       -9.017159   1.000000
   23       -8.940447   1.000000
   24       -8.767699   1.000000
   25       -8.650763   1.000000
   26       -8.606221   1.000000
   27       -8.507122   1.000000
   28       -8.448748   1.000000
   29       -8.380163   1.000000
   30       -8.214150   1.000000
   31       -8.086006   1.000000
   32       -8.019969   1.000000
   33       -7.940301   1.000000
   34       -7.787651   1.000000
   35       -7.761789   1.000000
   36       -7.607027   1.000000
   37       -7.598511   1.000000
   38       -7.534250   1.000000
   39       -7.427178   1.000000
   40       -7.379342   1.000000
   41       -7.288251   1.000000
   42       -7.214384   1.000000
   43       -7.142755   1.000000
   44       -7.007338   1.000000
   45       -6.926410   1.000000
   46       -6.853528   1.000000
   47       -6.746656   1.000000
   48       -6.659945   1.000000
   49       -6.534446   1.000000
   50       -6.481283   1.000000
   51       -6.447653   1.000000
   52       -6.346339   1.000000
   53       -6.288492   1.000000
   54       -6.176798   1.000000
   55       -6.140203   1.000000
   56       -6.078978   1.000000
   57       -5.913862   1.000000
   58       -5.846788   1.000000
   59       -5.712033   1.000000
   60       -5.691894   1.000000
   61       -5.561586   1.000000
   62       -5.516231   1.000000
   63       -5.445467   1.000000
   64       -5.251956   1.000000
   65       -5.172419   1.000000
   66       -5.164332   1.000000
   67       -5.041437   1.000000
   68       -4.856908   1.000000
   69       -4.789204   1.000000
   70       -4.592904   1.000000
   71       -4.491992   1.000000
   72       -4.463764   1.000000
   73       -4.299599   1.000000
   74       -4.243447   1.000000
   75       -4.138924   1.000000
   76       -4.092107   1.000000
   77       -3.927863   0.999999
   78       -3.731674   0.999692
   79       -3.508984   0.967855
   80       -3.403099   0.864647
   81       -2.958985   0.020729
   82       -2.889723   0.005725
   83       -2.706383   0.000065
   84       -2.605561   0.000003
   85       -2.535327   0.000000
   86       -2.495986   0.000000
   87       -2.278346   0.000000
   88       -2.165450   0.000000
   89       -2.120966   0.000000
   90       -2.070860   0.000000
   91       -1.734585   0.000000
   92       -1.471595   0.000000
   93       -1.436862   0.000000
   94       -1.242928   0.000000
   95       -1.203006   0.000000
   96       -1.038382   0.000000
   97       -0.942235   0.000000
   98       -0.915048   0.000000
   99       -0.848870   0.000000
  100       -0.814965   0.000000
  101       -0.722776   0.000000
  102       -0.662488   0.000000
  103       -0.640779   0.000000
  104       -0.451330   0.000000
  105       -0.378913   0.000000
  106       -0.181330   0.000000
  107       -0.112380   0.000000
  108       -0.012475   0.000000
  109        0.084039   0.000000
  110        0.276549   0.000000
  111        0.340948   0.000000
  112        0.457495   0.000000
  113        0.615372   0.000000
  114        0.874884   0.000000
  115        1.134787   0.000000
  116        1.255062   0.000000
  117        1.374496   0.000000
  118        1.815986   0.000000
  119        1.992383   0.000000
  120        2.301347   0.000000
 
  0.3750000E+00  0.0000000E+00  0.0000000E+00  0.3125000E-01
    1      -17.633837   1.000000
    2      -17.204854   1.000000
    3      -16.751323   1.000000
    4      -16.722670   1.000000
    5      -16.647074   1.000000
    6      -16.473702   1.000000
    7      -16.363719   1.000000
    8      -16.208062   1.000000
    9      -16.169456   1.000000
   10      -16.041488   1.000000
   11      -15.926992   1.000000
   12      -15.869697   1.000000
   13      -15.785550   1.000000
   14      -15.608864   1.000000
   15      -15.546647   1.000000
   16      -15.435357   1.000000
   17      -15.362597   1.000000
   18      -15.257225   1.000000
   19       -9.738589   1.000000
   20       -9.382851   1.000000
   21       -9.213470   1.000000
   22       -9.054697   1.000000
   23       -9.011230   1.000000
   24       -8.833907   1.000000
   25       -8.600955   1.000000
   26       -8.558231   1.000000
   27       -8.478419   1.000000
   28       -8.342968   1.000000
   29       -8.320606   1.000000
   30       -8.228443   1.000000
   31       -8.099741   1.000000
   32       -7.968059   1.000000
   33       -7.948695   1.000000
   34       -7.806710   1.000000
   35       -7.752577   1.000000
   36       -7.663334   1.000000
   37       -7.589536   1.000000
   38       -7.494370   1.000000
   39       -7.384596   1.000000
   40       -7.308210   1.000000
   41       -7.204575   1.000000
   42       -7.138066   1.000000
   43       -7.061495   1.000000
   44       -6.995051   1.000000
   45       -6.919575   1.000000
   46       -6.799795   1.000000
   47       -6.674081   1.000000
   48       -6.580805   1.000000
   49       -6.529209   1.000000
   50       -6.495776   1.000000
   51       -6.355574   1.000000
   52       -6.336777   1.000000
   53       -6.269293   1.000000
   54       -6.181349   1.000000
   55       -6.080004   1.000000
   56       -6.051014   1.000000
   57       -6.029927   1.000000
   58       -5.996836   1.000000
   59       -5.847126   1.000000
   60       -5.719175   1.000000
   61       -5.648482   1.000000
   62       -5.561893   1.000000
   63       -5.494141   1.000000
   64       -5.302225   1.000000
   65       -5.195286   1.000000
   66       -5.093473   1.000000
   67       -5.045917   1.000000
   68       -4.857518   1.000000
   69       -4.791999   1.000000
   70       -4.676544   1.000000
   71       -4.507902   1.000000
   72       -4.432421   1.000000
   73       -4.326576   1.000000
   74       -4.240838   1.000000
   75       -4.149622   1.000000
   76       -4.029839   1.000000
   77       -3.928566   0.999999
   78       -3.741536   0.999763
   79       -3.552826   0.984620
   80       -3.255197   0.522175
   81       -2.987881   0.033283
   82       -2.913724   0.009163
   83       -2.678699   0.000029
   84       -2.614130   0.000004
   85       -2.504224   0.000000
   86       -2.445673   0.000000
   87       -2.240015   0.000000
   88       -2.132222   0.000000
   89       -2.081663   0.000000
   90       -2.017733   0.000000
   91       -1.712912   0.000000
   92       -1.458269   0.000000
   93       -1.377470   0.000000
   94       -1.280271   0.000000
   95       -1.238628   0.000000
   96       -1.119992   0.000000
   97       -1.059014   0.000000
   98       -0.936150   0.000000
   99       -0.921385   0.000000
  100       -0.877148   0.000000
  101       -0.803400   0.000000
  102       -0.758135   0.000000
  103       -0.629672   0.000000
  104       -0.517304   0.000000
  105       -0.442005   0.000000
  106       -0.258997   0.000000
  107       -0.214120   0.000000
  108       -0.068698   0.000000
  109       -0.036288   0.000000
  110        0.253415   0.000000
  111        0.337754   0.000000
  112        0.457818   0.000000
  113        0.659037   0.000000
  114        0.972039   0.000000
  115        1.235519   0.000000
  116        1.308490   0.000000
  117        1.464230   0.000000
  118        2.003241   0.000000
  119        2.169304   0.000000
  120        2.469732   0.000000
 
  0.5000000E+00  0.1110223E-15  0.0000000E+00  0.1562500E-01
    1      -17.550411   1.000000
    2      -17.320290   1.000000
    3      -16.755339   1.000000
    4      -16.721422   1.000000
    5      -16.670723   1.000000
    6      -16.487136   1.000000
    7      -16.350451   1.000000
    8      -16.201886   1.000000
    9      -16.157796   1.000000
   10      -16.003623   1.000000
   11      -15.906405   1.000000
   12      -15.894476   1.000000
   13      -15.736412   1.000000
   14      -15.647842   1.000000
   15      -15.530441   1.000000
   16      -15.430932   1.000000
   17      -15.324641   1.000000
   18      -15.306970   1.000000
   19       -9.815572   1.000000
   20       -9.420005   1.000000
   21       -9.216163   1.000000
   22       -9.090460   1.000000
   23       -8.967930   1.000000
   24       -8.864999   1.000000
   25       -8.599961   1.000000
   26       -8.567764   1.000000
   27       -8.467231   1.000000
   28       -8.294910   1.000000
   29       -8.256058   1.000000
   30       -8.181741   1.000000
   31       -8.132512   1.000000
   32       -7.985343   1.000000
   33       -7.959714   1.000000
   34       -7.888579   1.000000
   35       -7.738075   1.000000
   36       -7.681850   1.000000
   37       -7.583218   1.000000
   38       -7.478140   1.000000
   39       -7.425420   1.000000
   40       -7.332869   1.000000
   41       -7.207906   1.000000
   42       -7.026213   1.000000
   43       -7.015165   1.000000
   44       -6.934401   1.000000
   45       -6.760674   1.000000
   46       -6.682166   1.000000
   47       -6.626882   1.000000
   48       -6.586623   1.000000
   49       -6.541499   1.000000
   50       -6.516807   1.000000
   51       -6.428565   1.000000
   52       -6.364760   1.000000
   53       -6.324427   1.000000
   54       -6.242134   1.000000
   55       -6.196715   1.000000
   56       -6.074085   1.000000
   57       -5.991559   1.000000
   58       -5.833699   1.000000
   59       -5.802175   1.000000
   60       -5.727287   1.000000
   61       -5.704035   1.000000
   62       -5.571405   1.000000
   63       -5.532374   1.000000
   64       -5.402463   1.000000
   65       -5.204753   1.000000
   66       -5.056400   1.000000
   67       -5.045398   1.000000
   68       -4.967966   1.000000
   69       -4.833406   1.000000
   70       -4.612432   1.000000
   71       -4.503716   1.000000
   72       -4.462078   1.000000
   73       -4.339660   1.000000
   74       -4.233998   1.000000
   75       -4.202988   1.000000
   76       -3.950877   1.000000
   77       -3.844365   0.999988
   78       -3.764976   0.999874
   79       -3.605755   0.994369
   80       -3.140583   0.225176
   81       -3.004307   0.042858
   82       -2.969975   0.024927
   83       -2.666194   0.000020
   84       -2.617177   0.000004
   85       -2.498895   0.000000
   86       -2.414679   0.000000
   87       -2.215416   0.000000
   88       -2.126015   0.000000
   89       -2.065086   0.000000
   90       -1.999260   0.000000
   91       -1.695714   0.000000
   92       -1.454608   0.000000
   93       -1.332915   0.000000
   94       -1.310157   0.000000
   95       -1.266803   0.000000
   96       -1.173655   0.000000
   97       -1.093327   0.000000
   98       -0.972391   0.000000
   99       -0.943191   0.000000
  100       -0.906991   0.000000
  101       -0.813581   0.000000
  102       -0.779538   0.000000
  103       -0.605779   0.000000
  104       -0.557980   0.000000
  105       -0.465310   0.000000
  106       -0.302610   0.000000
  107       -0.271900   0.000000
  108       -0.116737   0.000000
  109       -0.042066   0.000000
  110        0.244884   0.000000
  111        0.332221   0.000000
  112        0.456533   0.000000
  113        0.681741   0.000000
  114        1.005580   0.000000
  115        1.277416   0.000000
  116        1.331063   0.000000
  117        1.496079   0.000000
  118        2.229722   0.000000
  119        2.245678   0.000000
  120        2.397643   0.000000
 
  0.0000000E+00  0.1250000E+00  0.0000000E+00  0.3125000E-01
    1      -17.813029   1.000000
    2      -16.826776   1.000000
    3      -16.769166   1.000000
    4      -16.629066   1.000000
    5      -16.545271   1.000000
    6      -16.424434   1.000000
    7      -16.389610   1.000000
    8      -16.325007   1.000000
    9      -16.251252   1.000000
   10      -16.087748   1.000000
   11      -16.008706   1.000000
   12      -15.971534   1.000000
   13      -15.875430   1.000000
   14      -15.609559   1.000000
   15      -15.587289   1.000000
   16      -15.482755   1.000000
   17      -15.261286   1.000000
   18      -15.206416   1.000000
   19       -9.388346   1.000000
   20       -9.221792   1.000000
   21       -9.105223   1.000000
   22       -8.927501   1.000000
   23       -8.772841   1.000000
   24       -8.731722   1.000000
   25       -8.653291   1.000000
   26       -8.635168   1.000000
   27       -8.551605   1.000000
   28       -8.437292   1.000000
   29       -8.388390   1.000000
   30       -8.325303   1.000000
   31       -8.288778   1.000000
   32       -8.035928   1.000000
   33       -7.955665   1.000000
   34       -7.942193   1.000000
   35       -7.823203   1.000000
   36       -7.730782   1.000000
   37       -7.690696   1.000000
   38       -7.528160   1.000000
   39       -7.423713   1.000000
   40       -7.398364   1.000000
   41       -7.312351   1.000000
   42       -7.266253   1.000000
   43       -7.123602   1.000000
   44       -6.955136   1.000000
   45       -6.901332   1.000000
   46       -6.809737   1.000000
   47       -6.738526   1.000000
   48       -6.677101   1.000000
   49       -6.616250   1.000000
   50       -6.488967   1.000000
   51       -6.422724   1.000000
   52       -6.304201   1.000000
   53       -6.255270   1.000000
   54       -6.183676   1.000000
   55       -6.146055   1.000000
   56       -6.078589   1.000000
   57       -6.003887   1.000000
   58       -5.920737   1.000000
   59       -5.805199   1.000000
   60       -5.581792   1.000000
   61       -5.557805   1.000000
   62       -5.392179   1.000000
   63       -5.347759   1.000000
   64       -5.222703   1.000000
   65       -5.063444   1.000000
   66       -5.039712   1.000000
   67       -4.896471   1.000000
   68       -4.845592   1.000000
   69       -4.792488   1.000000
   70       -4.653720   1.000000
   71       -4.631213   1.000000
   72       -4.549530   1.000000
   73       -4.435567   1.000000
   74       -4.329867   1.000000
   75       -4.204254   1.000000
   76       -3.914496   0.999999
   77       -3.803009   0.999957
   78       -3.704196   0.999382
   79       -3.495280   0.960221
   80       -3.405338   0.868061
   81       -3.008297   0.045492
   82       -2.892504   0.006053
   83       -2.716657   0.000088
   84       -2.633373   0.000007
   85       -2.586290   0.000001
   86       -2.500736   0.000000
   87       -2.279180   0.000000
   88       -2.241161   0.000000
   89       -2.196904   0.000000
   90       -2.066838   0.000000
   91       -1.734099   0.000000
   92       -1.544368   0.000000
   93       -1.434006   0.000000
   94       -1.233662   0.000000
   95       -1.176855   0.000000
   96       -1.012198   0.000000
   97       -0.914519   0.000000
   98       -0.834610   0.000000
   99       -0.787620   0.000000
  100       -0.690613   0.000000
  101       -0.616222   0.000000
  102       -0.575032   0.000000
  103       -0.465409   0.000000
  104       -0.387026   0.000000
  105       -0.318051   0.000000
  106       -0.248748   0.000000
  107       -0.138529   0.000000
  108        0.123367   0.000000
  109        0.241685   0.000000
  110        0.265107   0.000000
  111        0.346477   0.000000
  112        0.512022   0.000000
  113        0.698032   0.000000
  114        0.777781   0.000000
  115        0.999360   0.000000
  116        1.165508   0.000000
  117        1.216836   0.000000
  118        1.690004   0.000000
  119        1.878180   0.000000
  120        2.196424   0.000000
 
  0.1250000E+00  0.1250000E+00  0.0000000E+00  0.3125000E-01
    1      -17.763560   1.000000
    2      -16.962062   1.000000
    3      -16.755515   1.000000
    4      -16.706120   1.000000
    5      -16.534393   1.000000
    6      -16.429301   1.000000
    7      -16.405748   1.000000
    8      -16.273149   1.000000
    9      -16.213116   1.000000
   10      -16.109096   1.000000
   11      -16.011384   1.000000
   12      -15.876818   1.000000
   13      -15.837055   1.000000
   14      -15.588826   1.000000
   15      -15.565906   1.000000
   16      -15.479038   1.000000
   17      -15.310960   1.000000
   18      -15.222427   1.000000
   19       -9.475080   1.000000
   20       -9.319122   1.000000
   21       -9.225929   1.000000
   22       -8.985216   1.000000
   23       -8.841570   1.000000
   24       -8.717157   1.000000
   25       -8.652716   1.000000
   26       -8.593208   1.000000
   27       -8.520854   1.000000
   28       -8.464011   1.000000
   29       -8.389259   1.000000
   30       -8.284536   1.000000
   31       -8.161628   1.000000
   32       -8.034756   1.000000
   33       -7.969199   1.000000
   34       -7.852363   1.000000
   35       -7.726859   1.000000
   36       -7.627944   1.000000
   37       -7.582622   1.000000
   38       -7.493562   1.000000
   39       -7.448926   1.000000
   40       -7.357111   1.000000
   41       -7.272162   1.000000
   42       -7.249092   1.000000
   43       -7.170673   1.000000
   44       -6.989155   1.000000
   45       -6.945475   1.000000
   46       -6.856127   1.000000
   47       -6.756144   1.000000
   48       -6.700619   1.000000
   49       -6.550466   1.000000
   50       -6.500074   1.000000
   51       -6.396434   1.000000
   52       -6.378690   1.000000
   53       -6.321572   1.000000
   54       -6.178659   1.000000
   55       -6.135349   1.000000
   56       -6.065347   1.000000
   57       -5.922807   1.000000
   58       -5.789788   1.000000
   59       -5.722656   1.000000
   60       -5.680891   1.000000
   61       -5.540488   1.000000
   62       -5.471224   1.000000
   63       -5.324165   1.000000
   64       -5.256819   1.000000
   65       -5.212834   1.000000
   66       -5.162046   1.000000
   67       -5.052144   1.000000
   68       -4.828986   1.000000
   69       -4.794216   1.000000
   70       -4.631189   1.000000
   71       -4.512258   1.000000
   72       -4.497333   1.000000
   73       -4.314250   1.000000
   74       -4.262614   1.000000
   75       -4.153977   1.000000
   76       -3.999260   1.000000
   77       -3.877429   0.999996
   78       -3.690170   0.999130
   79       -3.610082   0.994842
   80       -3.395868   0.853212
   81       -2.968033   0.024138
   82       -2.895018   0.006365
   83       -2.726934   0.000117
   84       -2.593297   0.000002
   85       -2.572108   0.000001
   86       -2.501498   0.000000
   87       -2.315486   0.000000
   88       -2.191879   0.000000
   89       -2.129756   0.000000
   90       -2.060171   0.000000
   91       -1.733376   0.000000
   92       -1.482260   0.000000
   93       -1.441662   0.000000
   94       -1.234893   0.000000
   95       -1.175707   0.000000
   96       -1.028808   0.000000
   97       -0.938992   0.000000
   98       -0.855454   0.000000
   99       -0.832919   0.000000
  100       -0.729121   0.000000
  101       -0.714280   0.000000
  102       -0.626332   0.000000
  103       -0.550602   0.000000
  104       -0.452724   0.000000
  105       -0.402600   0.000000
  106       -0.256489   0.000000
  107       -0.196908   0.000000
  108        0.077585   0.000000
  109        0.168050   0.000000
  110        0.242420   0.000000
  111        0.316109   0.000000
  112        0.522917   0.000000
  113        0.690129   0.000000
  114        0.850172   0.000000
  115        1.084875   0.000000
  116        1.220190   0.000000
  117        1.330368   0.000000
  118        1.777213   0.000000
  119        1.952171   0.000000
  120        2.267266   0.000000
 
  0.2500000E+00  0.1250000E+00  0.0000000E+00  0.3125000E-01
    1      -17.670821   1.000000
    2      -17.128154   1.000000
    3      -16.832856   1.000000
    4      -16.732222   1.000000
    5      -16.534215   1.000000
    6      -16.447599   1.000000
    7      -16.369895   1.000000
    8      -16.221252   1.000000
    9      -16.175939   1.000000
   10      -16.097030   1.000000
   11      -15.978812   1.000000
   12      -15.850904   1.000000
   13      -15.803987   1.000000
   14      -15.570362   1.000000
   15      -15.536433   1.000000
   16      -15.447794   1.000000
   17      -15.358029   1.000000
   18      -15.260054   1.000000
   19       -9.657197   1.000000
   20       -9.465627   1.000000
   21       -9.220982   1.000000
   22       -9.082295   1.000000
   23       -8.860860   1.000000
   24       -8.738896   1.000000
   25       -8.591465   1.000000
   26       -8.560516   1.000000
   27       -8.487473   1.000000
   28       -8.386299   1.000000
   29       -8.345261   1.000000
   30       -8.262011   1.000000
   31       -8.100554   1.000000
   32       -8.048688   1.000000
   33       -7.958643   1.000000
   34       -7.909015   1.000000
   35       -7.764181   1.000000
   36       -7.681657   1.000000
   37       -7.523250   1.000000
   38       -7.389816   1.000000
   39       -7.339717   1.000000
   40       -7.273730   1.000000
   41       -7.225042   1.000000
   42       -7.158573   1.000000
   43       -7.139091   1.000000
   44       -7.014097   1.000000
   45       -6.928378   1.000000
   46       -6.831666   1.000000
   47       -6.721676   1.000000