unknown system                          
           1
     8.855291    5.104991    0.000000
    -8.855392    5.105166    0.000000
     0.000000    0.000000   30.000000
   V    Mo   W    S 
   3   3   3  18
Direct configuration=     1
   0.33333334  0.66666669  0.00000000
   0.66666669  0.33333334  0.00000000
   0.66666669  0.00000000  0.00000000
   0.33333334  0.00000000  0.00000000
   0.66666669  0.66666669  0.00000000
   1.00000000  0.33333334  0.00000000
   0.00000000  0.00000000  0.00000000
   0.00000000  0.66666669  0.00000000
   0.33333334  0.33333334  0.00000000
   0.11068511  0.22244981  0.95539999
   0.22244981  0.11068511  0.04460000
   0.11068511  0.55578315  0.95539999
   0.22244981  0.44401845  0.04460000
   0.11068511  0.88911647  0.95539999
   0.22244981  0.77735180  0.04460000
   0.44401845  0.22244981  0.95539999
   0.55578315  0.11068511  0.04460000
   0.44401845  0.55578315  0.95539999
   0.55578315  0.44401845  0.04460000
   0.44401845  0.88911647  0.95539999
   0.55578315  0.77735180  0.04460000
   0.77735180  0.22244981  0.95539999
   0.88911647  0.11068511  0.04460000
   0.77735180  0.55578315  0.95539999
   0.88911647  0.44401845  0.04460000
   0.77735180  0.88911647  0.95539999
   0.88911647  0.77735180  0.04460000
unknown system                          
           1
     8.666963    4.998682    0.000000
    -8.667145    4.998997    0.000000
     0.000000    0.000000   30.000000
   V    Mo   W    S 
   3   3   3  18
Direct configuration=     2
   0.33382331  0.66716968  0.00016821
   0.66675392  0.33289331 -0.00017480
   0.66614271  0.00000276  0.00000432
   0.33351494 -0.00006739 -0.00001487
   0.66661191  0.66681910  0.00007348
   0.99980932  0.33318075 -0.00005857
  -0.00030761  0.00006886  0.00000911
  -0.00002980  0.66623821 -0.00021671
   0.33357948  0.33360427  0.00021047
   0.11133045  0.22158136  0.95074884
   0.22169550  0.11153793  0.04927820
   0.11495938  0.55813532  0.95194363
   0.22490031  0.44847281  0.04811243
   0.11010328  0.88823727  0.95071253
   0.22374511  0.77477737  0.04801991
   0.44856920  0.22479980  0.95191067
   0.55986083  0.11295546  0.04688800
   0.44151744  0.55695459  0.95201862
   0.55679887  0.44145473  0.04797463
   0.44651075  0.88664918  0.95305147
   0.55317229  0.77973751  0.04696648
   0.77322735  0.22024075  0.95309808
   0.88479407  0.10836113  0.04807201
   0.77644422  0.55136346  0.95190687
   0.88477589  0.44306148  0.04804432
   0.77630099  0.89169480  0.95199574
   0.88961032  0.77828996  0.04925683
unknown system                          
           1
     8.484314    4.898294    0.000000
    -8.483998    4.897746    0.000000
     0.000000    0.000000   30.000000
   V    Mo   W    S 
   3   3   3  18
Direct configuration=     3
   0.33386838  0.66718772  0.00018668
   0.66678647  0.33287929 -0.00019432
   0.66609724  0.00000106  0.00000549
   0.33305608 -0.00006667 -0.00001577
   0.66686725  0.66687723  0.00007813
   1.00001777  0.33313288 -0.00006234
  -0.00013293  0.00007868  0.00000912
  -0.00006408  0.66638627 -0.00023806
   0.33337391  0.33343346  0.00023135
   0.11147125  0.22147338  0.95074554
   0.22158158  0.11167573  0.04930777
   0.11497894  0.55835039  0.95195759
   0.22512636  0.44849295  0.04812062
   0.10981742  0.88810925  0.95068763
   0.22355836  0.77459349  0.04801928
   0.44859268  0.22502462  0.95192521
   0.55994784  0.11301074  0.04684894
   0.44135594  0.55677261  0.95204972
   0.55660819  0.44126536  0.04796906
   0.44657140  0.88662330  0.95309792
   0.55312558  0.77978680  0.04694180
   0.77312527  0.22015997  0.95311334
   0.88476788  0.10816359  0.04805592
   0.77660090  0.55133532  0.95189425
   0.88476108  0.44321010  0.04800794
   0.77646261  0.89186078  0.95200195
   0.88989107  0.77839613  0.04925513
unknown system                          
           1
     8.265995    4.772437    0.000000
    -8.265091    4.770870    0.000000
     0.000000    0.000000   30.000000
   V    Mo   W    S 
   3   3   3  18
Direct configuration=     4
   0.33359978  0.66676248  0.00017624
   0.66694763  0.33331990 -0.00018446
   0.66635284 -0.00003772  0.00000697
   0.33041590 -0.00008419 -0.00001192
   0.66829160  0.66707663  0.00005520
   1.00125660  0.33295822 -0.00004336
   0.00112952  0.00008053  0.00000620
  -0.00026850  0.66753860 -0.00020635
   0.33196275  0.33220546  0.00020119
   0.11170932  0.22143757  0.94909883
   0.22145131  0.11179034  0.05108959
   0.11629513  0.55914772  0.95055125
   0.22594131  0.44976882  0.04965266
   0.10945126  0.88800674  0.94892387
   0.22393710  0.77392327  0.04946527
   0.44975634  0.22583236  0.95051487
   0.56095757  0.11356620  0.04799591
   0.44082019  0.55726872  0.95074388
   0.55714911  0.44058054  0.04940906
   0.44714125  0.88616493  0.95197703
   0.55262264  0.78043210  0.04817757
   0.77199621  0.21941643  0.95184409
   0.88347455  0.10742574  0.04945495
   0.77602353  0.55007275  0.95035314
   0.88362433  0.44263844  0.04929416
   0.77589740  0.89249703  0.95057504
   0.89027777  0.77842485  0.05087901
unknown system                          
           1
     8.253996    4.765863    0.000000
    -8.250032    4.758996    0.000000
     0.000000    0.000000   30.000000
   V    Mo   W    S 
   3   3   3  18
Direct configuration=     5
   0.33248872  0.66525773 -0.00003369
   0.66738726  0.33483711  0.00002633
   0.66722635 -0.00008498  0.00000737
   0.32453400 -0.00009556 -0.00000745
   0.67151698  0.66742118 -0.00002131
   1.00411430  0.33258962  0.00002878
   0.00468222  0.00014944  0.00000693
  -0.00072927  0.67062414 -0.00004490
   0.32826118  0.32890598  0.00004017
   0.11181953  0.22142805  0.94676626
   0.22127721  0.11194039  0.05381318
   0.11766557  0.55983146  0.94873195
   0.22683759  0.45120137  0.05192417
   0.10910673  0.88786623  0.94621020
   0.22439781  0.77359951  0.05142311
   0.45073954  0.22627820  0.94859515
   0.56117467  0.11378874  0.04950663
   0.44080673  0.55796741  0.94919101
   0.55775921  0.44000881  0.05124835
   0.44733300  0.88606496  0.95048084
   0.55244437  0.78109284  0.05001934
   0.77127231  0.21869587  0.94998476
   0.88213193  0.10678377  0.05131948
   0.77549131  0.54866615  0.94807266
   0.88273480  0.44185191  0.05083053
   0.77529421  0.89308141  0.94868106
   0.89044617  0.77846268  0.05319899
unknown system                          
           1
     8.257264    4.767847    0.000000
    -8.251941    4.758626    0.000000
     0.000000    0.000000   30.000000
   V    Mo   W    S 
   3   3   3  18
Direct configuration=     6
   0.33190263  0.66440315 -0.00007773
   0.66769309  0.33571570  0.00007212
   0.66757301 -0.00011430  0.00000525
   0.32263878 -0.00010117 -0.00000925
   0.67294290  0.66770234 -0.00003069
   1.00523500  0.33229818  0.00003800
   0.00617229  0.00015508  0.00000311
  -0.00093328  0.67225274 -0.00006027
   0.32640488  0.32723417  0.00005605
   0.11154694  0.22113262  0.94636542
   0.22111143  0.11203130  0.05435693
   0.11728693  0.55975018  0.94871460
   0.22702637  0.45104210  0.05219132
   0.10887710  0.88777849  0.94567531
   0.22421845  0.77397601  0.05152422
   0.45017624  0.22588362  0.94849160
   0.56020605  0.11340492  0.04945487
   0.44125944  0.55774582  0.94924740
   0.55743818  0.44010154  0.05125630
   0.44674973  0.88645852  0.95052785
   0.55272256  0.78086535  0.05008671
   0.77179157  0.21894621  0.94992027
   0.88262772  0.10678522  0.05140987
   0.77586089  0.54882513  0.94779944
   0.88341201  0.44206230  0.05078867
   0.77580854  0.89310116  0.94859678
   0.89046501  0.77877807  0.05359577
unknown system                          
           1
     8.260119    4.769593    0.000000
    -8.251953    4.755448    0.000000
     0.000000    0.000000   30.000000
   V    Mo   W    S 
   3   3   3  18
Direct configuration=     7
   0.33151257  0.66371776 -0.00012009
   0.66803092  0.33642889  0.00011490
   0.66773319 -0.00013971  0.00000661
   0.32113399 -0.00010974 -0.00000650
   0.67445152  0.66820454 -0.00003763
   1.00622381  0.33180545  0.00004401
   0.00723773  0.00015662  0.00000397
  -0.00122296  0.67371664 -0.00004155
   0.32463379  0.32573614  0.00003818
   0.11136613  0.22083692  0.94613071
   0.22096081  0.11205726  0.05469500
   0.11695803  0.55972852  0.94881699
   0.22717032  0.45090107  0.05233209
   0.10871494  0.88774855  0.94533779
   0.22400226  0.77419428  0.05150110
   0.44973689  0.22565414  0.94851512
   0.55953042  0.11315922  0.04927949
   0.44155085  0.55745468  0.94942599
   0.55711747  0.44012518  0.05114821
   0.44631656  0.88670962  0.95069645
   0.55287652  0.78065409  0.05001199
   0.77215985  0.21917438  0.94999783
   0.88303012  0.10675191  0.05139150
   0.77616162  0.54896572  0.94765455
   0.88399470  0.44234878  0.05062082
   0.77625528  0.89314889  0.94861398
   0.89057711  0.77908464  0.05382838
unknown system                          
           1
     8.260205    4.769605    0.000000
    -8.252727    4.756650    0.000000
     0.000000    0.000000   30.000000
   V    Mo   W    S 
   3   3   3  18
Direct configuration=     8
   0.33099055  0.66274529 -0.00019261
   0.66857617  0.33748265  0.00018832
   0.66776105 -0.00016073  0.00000867
   0.31899749 -0.00011505 -0.00000628
   0.67711330  0.66923263 -0.00006562
   1.00778300  0.33078303  0.00006824
   0.00863733  0.00015143  0.00000013
  -0.00175110  0.67599858 -0.00005404
   0.32181589  0.32338040  0.00004926
   0.11106734  0.22030803  0.94575913
   0.22076949  0.11208959  0.05515240
   0.11645474  0.55968925  0.94904429
   0.22738041  0.45070106  0.05251501
   0.10850674  0.88771179  0.94488654
   0.22365941  0.77443334  0.05143956
   0.44915149  0.22540221  0.94858493
   0.55871848  0.11292071  0.04898462
   0.44193781  0.55696925  0.94976129
   0.55664299  0.44016703  0.05091230
   0.44574267  0.88696007  0.95098142
   0.55305922  0.78036935  0.04986671
   0.77262162  0.21947492  0.95014619
   0.88350029  0.10665778  0.05136016
   0.77658317  0.54915953  0.94746410
   0.88485496  0.44282272  0.05029972
   0.77683114  0.89325832  0.94864263
   0.89080879  0.77962129  0.05420283
unknown system                          
           1
     8.261127    4.770204    0.000000
    -8.254126    4.758076    0.000000
     0.000000    0.000000   30.000000
   V    Mo   W    S 
   3   3   3  18
Direct configuration=     9
   0.33114128  0.66301280 -0.00017283
   0.66843754  0.33719748  0.00016834
   0.66773199 -0.00015344  0.00000834
   0.31962389 -0.00011368 -0.00000606
   0.67643946  0.66900016 -0.00005754
   1.00735751  0.33101310  0.00006129
   0.00819293  0.00015222  0.00000126
  -0.00163396  0.67536245 -0.00005190
   0.32257287  0.32403526  0.00004782
   0.11114650  0.22044341  0.94585997
   0.22082507  0.11207697  0.05502107
   0.11658545  0.55969307  0.94899062
   0.22731965  0.45075538  0.05246334
   0.10856954  0.88772477  0.94501593
   0.22374998  0.77435746  0.05145272
   0.44932048  0.22548239  0.94856977
   0.55896323  0.11299988  0.04906434
   0.44183490  0.55709838  0.94967730
   0.55677419  0.44016254  0.05096821
   0.44590885  0.88687891  0.95090414
   0.55300409  0.78044936  0.04990324
   0.77248599  0.21938969  0.95010841
   0.88335830  0.10667899  0.05137023
   0.77646350  0.54910554  0.94751735
   0.88462456  0.44269628  0.05038004
   0.77666379  0.89323197  0.94863301
   0.89075286  0.77948310  0.05410148
unknown system                          
           1
     8.257801    4.767882    0.000000
    -8.250369    4.755008    0.000000
     0.000000    0.000000   30.000000
   V    Mo   W    S 
   3   3   3  18
Direct configuration=    10
   0.33117028  0.66305528 -0.00016530
   0.66842018  0.33714035  0.00015412
   0.66762700 -0.00019580  0.00000742
   0.31961579 -0.00015492 -0.00000583
   0.67672699  0.66925999 -0.00005776
   1.00746831  0.33082186  0.00006076
   0.00816764  0.00013795  0.00000206
  -0.00165325  0.67556716 -0.00005651
   0.32232615  0.32388315  0.00005179
   0.11111973  0.22039606  0.94585765
   0.22079696  0.11204155  0.05499267
   0.11655519  0.55965627  0.94902608
   0.22731784  0.45078855  0.05244623
   0.10857436  0.88775720  0.94504428
   0.22375579  0.77427832  0.05143076
   0.44938848  0.22555114  0.94858632
   0.55903062  0.11303739  0.04907412
   0.44186035  0.55712532  0.94971537
   0.55676714  0.44021370  0.05094163
   0.44593271  0.88681534  0.95090053
   0.55297943  0.78043593  0.04988644
   0.77248322  0.21938306  0.95011910
   0.88328235  0.10662307  0.05136082
   0.77643314  0.54909288  0.94752882
   0.88465186  0.44268779  0.05035273
   0.77664181  0.89328570  0.94864040
   0.89077437  0.77953016  0.05410519
unknown system                          
           1
     8.245263    4.760479    0.000000
    -8.236355    4.745050    0.000000
     0.000000    0.000000   30.000000
   V    Mo   W    S 
   3   3   3  18
Direct configuration=    11
   0.33105364  0.66276586 -0.00012964
   0.66860320  0.33750418  0.00012546
   0.66828526 -0.00007248  0.00000359
   0.31876950 -0.00007413 -0.00000866
   0.67579643  0.66839820 -0.00004065
   1.00720698  0.33150174  0.00003482
   0.00876155  0.00019833 -0.00001276
  -0.00130342  0.67538005 -0.00006457
   0.32289083  0.32394342  0.00005317
   0.11112820  0.22053670  0.94587174
   0.22080878  0.11218555  0.05514060
   0.11673956  0.55987156  0.94886774
   0.22742677  0.45083630  0.05250274
   0.10845375  0.88761091  0.94492395
   0.22375311  0.77446033  0.05149452
   0.44926759  0.22540490  0.94850081
   0.55878122  0.11286371  0.04901157
   0.44171314  0.55703627  0.94955661
   0.55673253  0.43996534  0.05111531
   0.44586968  0.88704904  0.95097630
   0.55301653  0.78042196  0.04989372
   0.77250553  0.21945061  0.95009886
   0.88352985  0.10674419  0.05136062
   0.77646619  0.54895223  0.94744837
   0.88456818  0.44273591  0.05051614
   0.77675574  0.89314743  0.94866707
   0.89063411  0.77939635  0.05409247
unknown system                          
           1
     8.248421    4.762503    0.000000
    -8.238303    4.744977    0.000000
     0.000000    0.000000   30.000000
   V    Mo   W    S 
   3   3   3  18
Direct configuration=    12
   0.33076999  0.66131457 -0.00013292
   0.66980327  0.33921108  0.00015530
   0.67090224  0.00027750  0.00000732
   0.31518693  0.00011659  0.00000804
   0.67267667  0.66538386 -0.00002678
   1.00660127  0.33396381  0.00003309
   0.01095198  0.00040865  0.00000811
  -0.00021825  0.67498540 -0.00002232
   0.32445906  0.32400340  0.00003147
   0.11104950  0.22087490  0.94596294
   0.22055286  0.11261618  0.05574120
   0.11745956  0.56063470  0.94845162
   0.22772712  0.45094236  0.05261913
   0.10779195  0.88713443  0.94435458
   0.22367432  0.77506613  0.05164194
   0.44871866  0.22487700  0.94827199
   0.55777207  0.11222621  0.04856829
   0.44112580  0.55658323  0.94918962
   0.55664814  0.43912536  0.05159284
   0.44554864  0.88786407  0.95147075
   0.55311322  0.78018155  0.04988107
   0.77275772  0.21982773  0.95003402
   0.88461132  0.10720648  0.05127800
   0.77658743  0.54860228  0.94722344
   0.88441825  0.44308846  0.05091043
   0.77731803  0.89261278  0.94880293
   0.89020669  0.77908575  0.05394379
unknown system                          
           1
     8.267795    4.773985    0.000000
    -8.254808    4.751488    0.000000
     0.000000    0.000000   30.000000
   V    Mo   W    S 
   3   3   3  18
Direct configuration=    13
   0.33073792  0.66074180 -0.00017559
   0.67037521  0.33986526  0.00019816
   0.67155083  0.00032984  0.00000930
   0.31404499  0.00013068  0.00001008
   0.67256508  0.66499574 -0.00003517
   1.00677464  0.33422752  0.00004170
   0.01153087  0.00045709  0.00001496
  -0.00021536  0.67532604 -0.00002527
   0.32416015  0.32361025  0.00003301
   0.11093654  0.22080771  0.94594837
   0.22039334  0.11269470  0.05593490
   0.11750535  0.56073915  0.94846579
   0.22776267  0.45089702  0.05265441
   0.10754788  0.88704597  0.94416336
   0.22361111  0.77519483  0.05162834
   0.44852660  0.22474399  0.94828668
   0.55743683  0.11207147  0.04836329
   0.44107031  0.55635743  0.94922100
   0.55658400  0.43900518  0.05158862
   0.44538972  0.88805848  0.95167941
   0.55313739  0.78002850  0.04985600
   0.77291699  0.21999242  0.95004623
   0.88493525  0.10730960  0.05126376
   0.77666454  0.54863237  0.94717518
   0.88458149  0.44329849  0.05088479
   0.77753354  0.89249780  0.94882367
   0.89015657  0.77915514  0.05394492
unknown system                          
           1
     8.269934    4.775288    0.000000
    -8.255791    4.750789    0.000000
     0.000000    0.000000   30.000000
   V    Mo   W    S 
   3   3   3  18
Direct configuration=    14
   0.33091281  0.65979679 -0.00021262
   0.67154312  0.34083882  0.00020842
   0.67224716  0.00026825 -0.00000033
   0.31268537 -0.00001096 -0.00000624
   0.67350574  0.66541629 -0.00002093
   1.00739289  0.33377804 -0.00000384
   0.01195474  0.00049337 -0.00002181
  -0.00064029  0.67643033 -0.00012094
   0.32264038  0.32263588  0.00009016
   0.11064766  0.22052274  0.94589430
   0.22012918  0.11277434  0.05612836
   0.11732373  0.56069118  0.94870567
   0.22774431  0.45080000  0.05270945
   0.10716606  0.88699080  0.94399777
   0.22351285  0.77524662  0.05146872
   0.44830380  0.22462319  0.94848478
   0.55700621  0.11191659  0.04798837
   0.44115973  0.55591473  0.94940573
   0.55642933  0.43904446  0.05136858
   0.44513921  0.88821066  0.95205204
   0.55311522  0.77973108  0.04976740
   0.77320612  0.22025101  0.95014290
   0.88525452  0.10740684  0.05130624
   0.77679194  0.54883827  0.94713404
   0.88513406  0.44376205  0.05071201
   0.77778506  0.89241174  0.94879988
   0.89012352  0.77943132  0.05402179
unknown system                          
           1
     8.268811    4.774463    0.000000
    -8.255258    4.750986    0.000000
     0.000000    0.000000   30.000000
   V    Mo   W    S 
   3   3   3  18
Direct configuration=    15
   0.33116088  0.65881813 -0.00023682
   0.67283991  0.34189226  0.00023766
   0.67310581  0.00025186  0.00000501
   0.31123994 -0.00011059  0.00001219
   0.67433952  0.66581838 -0.00000137
   1.00782043  0.33326960 -0.00000166
   0.01231594  0.00053740 -0.00000241
  -0.00112047  0.67731901 -0.00013650
   0.32130891  0.32182273  0.00013560
   0.11044752  0.22031216  0.94583474
   0.21987581  0.11280623  0.05626455
   0.11720136  0.56073367  0.94890457
   0.22771298  0.45068604  0.05275753
   0.10685831  0.88696020  0.94383105
   0.22331451  0.77529604  0.05128623
   0.44802855  0.22452719  0.94867650
   0.55662776  0.11175722  0.04761409
   0.44121237  0.55549399  0.94955084
   0.55625786  0.43899874  0.05117005
   0.44493675  0.88837215  0.95241270
   0.55313903  0.77953082  0.04967432
   0.77344324  0.22043686  0.95023082
   0.88551677  0.10749151  0.05130479
   0.77690200  0.54900325  0.94707151
   0.88563126  0.44420026  0.05055410
   0.77796835  0.89233506  0.94879583
   0.89012916  0.77965429  0.05405397
unknown system                          
           1
     8.283189    4.782987    0.000000
    -8.267373    4.755592    0.000000
     0.000000    0.000000   30.000000
   V    Mo   W    S 
   3   3   3  18
Direct configuration=    16
   0.33124898  0.65903200 -0.00023702
   0.67273483  0.34169555  0.00024238
   0.67275560  0.00023743  0.00000778
   0.31176764 -0.00009359  0.00001499
   0.67496512  0.66635766 -0.00000541
   1.00786083  0.33273080  0.00000936
   0.01193913  0.00051332  0.00000405
  -0.00141446  0.67735402 -0.00012874
   0.32101115  0.32177888  0.00013420
   0.11047635  0.22026292  0.94579317
   0.21993099  0.11271866  0.05616385
   0.11704944  0.56061323  0.94896180
   0.22764274  0.45063187  0.05276354
   0.10700109  0.88705087  0.94391659
   0.22328739  0.77519761  0.05126683
   0.44810517  0.22462697  0.94871381
   0.55680717  0.11186537  0.04769340
   0.44133763  0.55556474  0.94959373
   0.55625701  0.43911991  0.05108938
   0.44500574  0.88825692  0.95231313
   0.55316037  0.77961861  0.04969410
   0.77338051  0.22034442  0.95022900
   0.88530386  0.10740415  0.05132799
   0.77688159  0.54906156  0.94708808
   0.88566006  0.44413100  0.05049206
   0.77784334  0.89243350  0.94876044
   0.89021517  0.77970605  0.05409740
unknown system                          
           1
     8.283712    4.783351    0.000000
    -8.267069    4.754523    0.000000
     0.000000    0.000000   30.000000
   V    Mo   W    S 
   3   3   3  18
Direct configuration=    17
   0.33145886  0.65773863 -0.00024611
   0.67428988  0.34309812  0.00024450
   0.67445941  0.00030687  0.00000337
   0.30972891 -0.00013925  0.00001842
   0.67403876  0.66536694  0.00001995
   1.00782386  0.33345595 -0.00002015
   0.01283376  0.00061646  0.00000530
  -0.00134445  0.67769090 -0.00017114
   0.32080472  0.32145321  0.00017073
   0.11025601  0.22025389  0.94582867
   0.21962080  0.11292797  0.05647028
   0.11733684  0.56095726  0.94896869
   0.22773233  0.45067897  0.05284440
   0.10645713  0.88684042  0.94361438
   0.22319840  0.77545383  0.05116657
   0.44771473  0.22432223  0.94881873
   0.55612952  0.11149226  0.04717882
   0.44104962  0.55502159  0.94954411
   0.55616696  0.43875524  0.05111177
   0.44472404  0.88866768  0.95284276
   0.55312316  0.77930247  0.04962096
   0.77366876  0.22068120  0.95028396
   0.88591305  0.10770860  0.05131846
   0.77695003  0.54903724  0.94699155
   0.88595115  0.44466963  0.05054528
   0.77814898  0.89213022  0.94879150
   0.88997922  0.77972593  0.05403409
unknown system                          
           1
     8.283831    4.783495    0.000000
    -8.267298    4.754859    0.000000
     0.000000    0.000000   30.000000
   V    Mo   W    S 
   3   3   3  18
Direct configuration=    18
   0.33167985  0.65703464 -0.00024540
   0.67524242  0.34386920  0.00024402
   0.67543446  0.00034465  0.00000083
   0.30869329 -0.00017016  0.00002297
   0.67359030  0.66491691  0.00003754
   1.00775648  0.33373049 -0.00003731
   0.01321491  0.00068455  0.00000175
  -0.00143386  0.67783958 -0.00019460
   0.32061609  0.32132366  0.00019457
   0.11015537  0.22026295  0.94588028
   0.21945793  0.11301636  0.05656273
   0.11746937  0.56112174  0.94900550
   0.22772617  0.45067156  0.05286673
   0.10619070  0.88675787  0.94352480
   0.22312019  0.77554880  0.05108032
   0.44753871  0.22420686  0.94890824
   0.55584310  0.11131919  0.04690023
   0.44091972  0.55475488  0.94951602
   0.55613316  0.43857265  0.05108855
   0.44462576  0.88886478  0.95312206
   0.55312532  0.77918019  0.04958356
   0.77379592  0.22082079  0.95031509
   0.88616900  0.10787053  0.05131361
   0.77695756  0.54904517  0.94695999
   0.88609921  0.44493349  0.05056676
   0.77823839  0.89196833  0.94881062
   0.88985492  0.77972478  0.05397045
unknown system                          
           1
     8.283108    4.783560    0.000000
    -8.265852    4.753666    0.000000
     0.000000    0.000000   30.000000
   V    Mo   W    S 
   3   3   3  18
Direct configuration=    19
   0.33212229  0.65668907 -0.00026925
   0.67604945  0.34422601  0.00025673
   0.67548700  0.00028306 -0.00000286
   0.30872342 -0.00026622  0.00001826
   0.67510000  0.66618837  0.00004002
   1.00805989  0.33243408 -0.00005029
   0.01259097  0.00069067 -0.00002141
  -0.00230793  0.67835869 -0.00023494
   0.31926517  0.32094208  0.00021751
   0.11003925  0.22004150  0.94574853
   0.21940666  0.11290078  0.05650300
   0.11714134  0.56092298  0.94924085
   0.22754399  0.45051498  0.05293506
   0.10623542  0.88689608  0.94359486
   0.22294447  0.77534553  0.05095987
   0.44758965  0.22439003  0.94906268
   0.55602491  0.11144333  0.04684344
   0.44120558  0.55469610  0.94962311
   0.55604868  0.43875691  0.05085117
   0.44469653  0.88873299  0.95315033
   0.55321827  0.77929831  0.04960518
   0.77377866  0.22069720  0.95031677
   0.88586453  0.10774033  0.05142790
   0.77693403  0.54922144  0.94690611
   0.88644432  0.44500928  0.05044515
   0.77805178  0.89209594  0.94870429
   0.88995611  0.77996494  0.05412782
unknown system                          
           1
     8.287991    4.785681    0.000000
    -8.269679    4.753965    0.000000
     0.000000    0.000000   30.000000
   V    Mo   W    S 
   3   3   3  18
Direct configuration=    20
   0.33095652  0.65708228 -0.00019373
   0.67427740  0.34354629  0.00018249
   0.67587757  0.00039093 -0.00001770
   0.30820990 -0.00011250 -0.00001214
   0.66961490  0.66173520 -0.00000422
   1.00719677  0.33704358 -0.00005363
   0.01471999  0.00071415 -0.00006544
   0.00035902  0.67682971 -0.00021907
   0.32328357  0.32235381  0.00015126
   0.11035544  0.22075831  0.94636996
   0.21945110  0.11321032  0.05662517
   0.11838244  0.56166090  0.94855097
   0.22805052  0.45110081  0.05266453
   0.10598097  0.88655345  0.94355367
   0.22356689  0.77588824  0.05124990
   0.44754646  0.22385598  0.94869802
   0.55546637  0.11101538  0.04685938
   0.44014384  0.55482924  0.94929601
   0.55640068  0.43805770  0.05158479
   0.44452944  0.88915032  0.95323589
   0.55283464  0.77886061  0.04950549
   0.77383230  0.22114356  0.95035803
   0.88684655  0.10823935  0.05104359
   0.77689615  0.54866560  0.94714944
   0.88530643  0.44485150  0.05084641
   0.77859951  0.89160423  0.94912028
   0.88952909  0.77918549  0.05352053
unknown system                          
           1
     8.290066    4.787198    0.000000
    -8.270289    4.752942    0.000000
     0.000000    0.000000   30.000000
   V    Mo   W    S 
   3   3   3  18
Direct configuration=    21
   0.33083315  0.65714446 -0.00010594
   0.67400212  0.34328477  0.00017190
   0.67682691  0.00051904 -0.00000201
   0.30789801  0.00002188  0.00005726
   0.66501587  0.65828015  0.00004461
   1.00596623  0.34033380  0.00000389
   0.01602342  0.00080046  0.00006304
   0.00187225  0.67558811 -0.00013280
   0.32606995  0.32353933  0.00022921
   0.11039960  0.22131273  0.94679155
   0.21938370  0.11336687  0.05660025
   0.11918903  0.56227181  0.94807535
   0.22804658  0.45124210  0.05258012
   0.10578773  0.88636368  0.94344089
   0.22389594  0.77611613  0.05130803
   0.44766976  0.22365796  0.94859586
   0.55523732  0.11061392  0.04669308
   0.43949855  0.55473363  0.94889502
   0.55659238  0.43745695  0.05198411
   0.44470223  0.88956790  0.95339941
   0.55272520  0.77866874  0.04949024
   0.77392159  0.22137119  0.95036098
   0.88745343  0.10878756  0.05074604
   0.77674082  0.54850110  0.94724923
   0.88470418  0.44492689  0.05114378
   0.77870619  0.89108553  0.94936686
   0.88905231  0.77865777  0.05294992
unknown system                          
           1
     8.294654    4.790025    0.000000
    -8.273368    4.753155    0.000000
     0.000000    0.000000   30.000000
   V    Mo   W    S 
   3   3   3  18
Direct configuration=    22
   0.33110015  0.65701981 -0.00010019
   0.67435281  0.34334291  0.00012920
   0.67726194  0.00053629 -0.00002386
   0.30770133  0.00000715  0.00001567
   0.66348096  0.65733267  0.00000425
   1.00543397  0.34119449 -0.00001560
   0.01638561  0.00086686 -0.00000399
   0.00222160  0.67528401 -0.00020181
   0.32671520  0.32392415  0.00020884
   0.11036842  0.22143843  0.94695642
   0.21939201  0.11340998  0.05663244
   0.11934553  0.56244600  0.94802918
   0.22792747  0.45121399  0.05256831
   0.10574416  0.88636712  0.94349176
   0.22397131  0.77609050  0.05129273
   0.44774390  0.22367094  0.94864725
   0.55525798  0.11050078  0.04661932
   0.43932591  0.55462040  0.94878676
   0.55658993  0.43724847  0.05206159
   0.44482388  0.88967007  0.95348429
   0.55272359  0.77863887  0.04952008
   0.77396080  0.22142137  0.95034804
   0.88760881  0.10899949  0.05071238
   0.77664458  0.54852162  0.94730604
   0.88463315  0.44502717  0.05126135
   0.77865607  0.89088017  0.94944248
   0.88884337  0.77854075  0.05282699
unknown system                          
           1
     8.294474    4.790159    0.000000
    -8.273237    4.753371    0.000000
     0.000000    0.000000   30.000000
   V    Mo   W    S 
   3   3   3  18
Direct configuration=    23
   0.33190588  0.65660707 -0.00010207
   0.67559143  0.34378500  0.00011120
   0.67773623  0.00052493 -0.00003553
   0.30750387 -0.00007300  0.00000443
   0.66345582  0.65772720 -0.00000649
   1.00502631  0.34062521 -0.00002361
   0.01615420  0.00095282 -0.00003689
   0.00169701  0.67547728 -0.00025708
   0.32605892  0.32387450  0.00022759
   0.11019540  0.22134413  0.94692805
   0.21935692  0.11334689  0.05662891
   0.11914425  0.56242982  0.94821573
   0.22762132  0.45101637  0.05262590
   0.10575380  0.88648228  0.94352555
   0.22384614  0.77588057  0.05115270
   0.44785457  0.22386005  0.94882828
   0.55544342  0.11050199  0.04649366
   0.43943130  0.55440176  0.94875188
   0.55646551  0.43722034  0.05189087
   0.44500224  0.88964951  0.95358637
   0.55281996  0.77870972  0.04958765
   0.77399928  0.22136027  0.95030021
   0.88750450  0.10909279  0.05080840
   0.77652102  0.54870941  0.94727844
   0.88495201  0.44524746  0.05127180
   0.77844299  0.89077911  0.94937630
   0.88873014  0.77868097  0.05286765
unknown system                          
           1
     8.291326    4.787728    0.000000
    -8.269135    4.749294    0.000000
     0.000000    0.000000   30.000000
   V    Mo   W    S 
   3   3   3  18
Direct configuration=    24
   0.33244315  0.65628109 -0.00010219
   0.67644944  0.34410195  0.00011164
   0.67799423  0.00050983 -0.00003583
   0.30730837 -0.00013323  0.00001516
   0.66365601  0.65810692  0.00001395
   1.00490875  0.34013668 -0.00003128
   0.01604435  0.00101498 -0.00002647
   0.00126599  0.67570453 -0.00025602
   0.32544663  0.32376936  0.00024188
   0.11008117  0.22128341  0.94687814
   0.21928991  0.11326558  0.05661044
   0.11905573  0.56241000  0.94834363
   0.22746344  0.45089921  0.05266362
   0.10575814  0.88658207  0.94352521
   0.22374839  0.77576680  0.05105066
   0.44788185  0.22395125  0.94894002
   0.55551145  0.11051895  0.04641281
   0.43947846  0.55427927  0.94873448
   0.55641435  0.43722554  0.05177001
   0.44504640  0.88960819  0.95365465