   27   27  100    1
  0.9710400E+02  0.1002848E-08  0.1002848E-08  0.3000000E-08  0.5000000E-15
  1.000000000000000E-004
  CAR 
 unknown system                          
    159     34    120
 
  0.0000000E+00  0.0000000E+00  0.0000000E+00  0.1562500E-01
    1      -17.845091   1.000000
    2      -16.787807   1.000000
    3      -16.644124   1.000000
    4      -16.628515   1.000000
    5      -16.574834   1.000000
    6      -16.516797   1.000000
    7      -16.360376   1.000000
    8      -16.276345   1.000000
    9      -16.218481   1.000000
   10      -16.130269   1.000000
   11      -16.103004   1.000000
   12      -15.970535   1.000000
   13      -15.902255   1.000000
   14      -15.615111   1.000000
   15      -15.601519   1.000000
   16      -15.474933   1.000000
   17      -15.246623   1.000000
   18      -15.192291   1.000000
   19       -9.410475   1.000000
   20       -9.056292   1.000000
   21       -8.991682   1.000000
   22       -8.922229   1.000000
   23       -8.739893   1.000000
   24       -8.712051   1.000000
   25       -8.667926   1.000000
   26       -8.552207   1.000000
   27       -8.525493   1.000000
   28       -8.494698   1.000000
   29       -8.450600   1.000000
   30       -8.430289   1.000000
   31       -8.339589   1.000000
   32       -8.100247   1.000000
   33       -8.091611   1.000000
   34       -8.015967   1.000000
   35       -7.809074   1.000000
   36       -7.725976   1.000000
   37       -7.659280   1.000000
   38       -7.574631   1.000000
   39       -7.534813   1.000000
   40       -7.378709   1.000000
   41       -7.324219   1.000000
   42       -7.200427   1.000000
   43       -7.076225   1.000000
   44       -6.942221   1.000000
   45       -6.861589   1.000000
   46       -6.794910   1.000000
   47       -6.750660   1.000000
   48       -6.677277   1.000000
   49       -6.607744   1.000000
   50       -6.493595   1.000000
   51       -6.439422   1.000000
   52       -6.265191   1.000000
   53       -6.249557   1.000000
   54       -6.193720   1.000000
   55       -6.163781   1.000000
   56       -6.092634   1.000000
   57       -6.005901   1.000000
   58       -5.908813   1.000000
   59       -5.881418   1.000000
   60       -5.629065   1.000000
   61       -5.593361   1.000000
   62       -5.337292   1.000000
   63       -5.284962   1.000000
   64       -5.083044   1.000000
   65       -5.013436   1.000000
   66       -4.956765   1.000000
   67       -4.893058   1.000000
   68       -4.856675   1.000000
   69       -4.768701   1.000000
   70       -4.692697   1.000000
   71       -4.658321   1.000000
   72       -4.644137   1.000000
   73       -4.452824   1.000000
   74       -4.345842   1.000000
   75       -4.267183   1.000000
   76       -3.991893   1.000000
   77       -3.799146   0.999966
   78       -3.596089   0.994600
   79       -3.487632   0.962641
   80       -3.219350   0.454285
   81       -3.165293   0.309564
   82       -2.901153   0.009019
   83       -2.710640   0.000103
   84       -2.663258   0.000026
   85       -2.592803   0.000003
   86       -2.508135   0.000000
   87       -2.291821   0.000000
   88       -2.284600   0.000000
   89       -2.240745   0.000000
   90       -2.130115   0.000000
   91       -1.660847   0.000000
   92       -1.565303   0.000000
   93       -1.422390   0.000000
   94       -1.224449   0.000000
   95       -1.091650   0.000000
   96       -1.061376   0.000000
   97       -0.975334   0.000000
   98       -0.839334   0.000000
   99       -0.791548   0.000000
  100       -0.611383   0.000000
  101       -0.591716   0.000000
  102       -0.495489   0.000000
  103       -0.393243   0.000000
  104       -0.279761   0.000000
  105       -0.225929   0.000000
  106       -0.127271   0.000000
  107       -0.094178   0.000000
  108       -0.001540   0.000000
  109        0.045215   0.000000
  110        0.243687   0.000000
  111        0.419147   0.000000
  112        0.584456   0.000000
  113        0.710162   0.000000
  114        0.923474   0.000000
  115        0.988958   0.000000
  116        1.082265   0.000000
  117        1.108734   0.000000
  118        1.648077   0.000000
  119        1.841469   0.000000
  120        2.162682   0.000000
 
  0.1250000E+00  0.2775558E-16  0.0000000E+00  0.3125000E-01
    1      -17.821572   1.000000
    2      -16.814639   1.000000
    3      -16.756177   1.000000
    4      -16.634716   1.000000
    5      -16.562267   1.000000
    6      -16.505102   1.000000
    7      -16.353837   1.000000
    8      -16.266807   1.000000
    9      -16.219998   1.000000
   10      -16.119715   1.000000
   11      -15.999600   1.000000
   12      -15.959841   1.000000
   13      -15.901529   1.000000
   14      -15.624976   1.000000
   15      -15.601226   1.000000
   16      -15.492470   1.000000
   17      -15.248503   1.000000
   18      -15.195311   1.000000
   19       -9.404369   1.000000
   20       -9.168725   1.000000
   21       -9.077715   1.000000
   22       -9.026054   1.000000
   23       -8.794559   1.000000
   24       -8.745410   1.000000
   25       -8.699291   1.000000
   26       -8.553493   1.000000
   27       -8.533674   1.000000
   28       -8.491367   1.000000
   29       -8.381890   1.000000
   30       -8.259956   1.000000
   31       -8.214919   1.000000
   32       -8.088897   1.000000
   33       -8.046730   1.000000
   34       -7.933462   1.000000
   35       -7.744446   1.000000
   36       -7.696155   1.000000
   37       -7.653178   1.000000
   38       -7.598783   1.000000
   39       -7.504976   1.000000
   40       -7.462965   1.000000
   41       -7.305218   1.000000
   42       -7.165941   1.000000
   43       -7.134785   1.000000
   44       -7.017760   1.000000
   45       -6.867425   1.000000
   46       -6.809767   1.000000
   47       -6.740421   1.000000
   48       -6.616373   1.000000
   49       -6.550167   1.000000
   50       -6.455028   1.000000
   51       -6.436765   1.000000
   52       -6.330286   1.000000
   53       -6.258538   1.000000
   54       -6.198090   1.000000
   55       -6.161109   1.000000
   56       -6.080314   1.000000
   57       -6.025469   1.000000
   58       -5.980934   1.000000
   59       -5.760545   1.000000
   60       -5.614528   1.000000
   61       -5.552778   1.000000
   62       -5.427884   1.000000
   63       -5.407143   1.000000
   64       -5.188503   1.000000
   65       -5.038705   1.000000
   66       -4.972726   1.000000
   67       -4.886659   1.000000
   68       -4.851796   1.000000
   69       -4.757750   1.000000
   70       -4.688653   1.000000
   71       -4.622781   1.000000
   72       -4.557455   1.000000
   73       -4.443872   1.000000
   74       -4.292748   1.000000
   75       -4.228564   1.000000
   76       -4.044969   1.000000
   77       -3.818769   0.999981
   78       -3.672965   0.999008
   79       -3.551082   0.987155
   80       -3.176481   0.337981
   81       -3.124376   0.215813
   82       -2.862894   0.004202
   83       -2.686771   0.000052
   84       -2.640307   0.000013
   85       -2.584271   0.000002
   86       -2.504116   0.000000
   87       -2.270486   0.000000
   88       -2.250704   0.000000
   89       -2.213753   0.000000
   90       -2.124553   0.000000
   91       -1.681438   0.000000
   92       -1.548540   0.000000
   93       -1.415182   0.000000
   94       -1.240467   0.000000
   95       -1.101601   0.000000
   96       -1.067043   0.000000
   97       -0.973569   0.000000
   98       -0.855051   0.000000
   99       -0.815983   0.000000
  100       -0.677547   0.000000
  101       -0.648600   0.000000
  102       -0.560331   0.000000
  103       -0.491189   0.000000
  104       -0.399742   0.000000
  105       -0.255519   0.000000
  106       -0.132176   0.000000
  107       -0.056393   0.000000
  108        0.035240   0.000000
  109        0.138363   0.000000
  110        0.244933   0.000000
  111        0.428888   0.000000
  112        0.566193   0.000000
  113        0.669129   0.000000
  114        0.919133   0.000000
  115        1.009127   0.000000
  116        1.075757   0.000000
  117        1.152274   0.000000
  118        1.690193   0.000000
  119        1.882559   0.000000
  120        2.197383   0.000000
 
  0.2500000E+00  0.5551115E-16  0.0000000E+00  0.3125000E-01
    1      -17.753489   1.000000
    2      -16.998271   1.000000
    3      -16.767031   1.000000
    4      -16.671916   1.000000
    5      -16.631313   1.000000
    6      -16.458302   1.000000
    7      -16.351166   1.000000
    8      -16.249324   1.000000
    9      -16.186108   1.000000
   10      -16.055791   1.000000
   11      -15.944323   1.000000
   12      -15.899358   1.000000
   13      -15.838505   1.000000
   14      -15.653716   1.000000
   15      -15.600368   1.000000
   16      -15.535652   1.000000
   17      -15.254091   1.000000
   18      -15.203692   1.000000
   19       -9.515143   1.000000
   20       -9.315827   1.000000
   21       -9.192729   1.000000
   22       -9.124508   1.000000
   23       -8.920778   1.000000
   24       -8.811055   1.000000
   25       -8.633785   1.000000
   26       -8.544370   1.000000
   27       -8.503043   1.000000
   28       -8.413447   1.000000
   29       -8.291700   1.000000
   30       -8.215221   1.000000
   31       -8.086579   1.000000
   32       -8.072926   1.000000
   33       -7.929544   1.000000
   34       -7.796719   1.000000
   35       -7.732221   1.000000
   36       -7.683171   1.000000
   37       -7.611110   1.000000
   38       -7.558989   1.000000
   39       -7.500494   1.000000
   40       -7.363855   1.000000
   41       -7.296551   1.000000
   42       -7.171070   1.000000
   43       -7.132858   1.000000
   44       -7.030269   1.000000
   45       -6.915503   1.000000
   46       -6.794868   1.000000
   47       -6.713841   1.000000
   48       -6.619802   1.000000
   49       -6.500280   1.000000
   50       -6.444873   1.000000
   51       -6.351189   1.000000
   52       -6.341418   1.000000
   53       -6.291274   1.000000
   54       -6.234055   1.000000
   55       -6.178842   1.000000
   56       -6.095835   1.000000
   57       -6.032258   1.000000
   58       -5.913767   1.000000
   59       -5.725594   1.000000
   60       -5.652478   1.000000
   61       -5.599500   1.000000
   62       -5.565905   1.000000
   63       -5.427487   1.000000
   64       -5.404764   1.000000
   65       -5.252138   1.000000
   66       -5.001290   1.000000
   67       -4.889013   1.000000
   68       -4.811511   1.000000
   69       -4.709018   1.000000
   70       -4.662522   1.000000
   71       -4.505475   1.000000
   72       -4.459439   1.000000
   73       -4.386347   1.000000
   74       -4.303056   1.000000
   75       -4.215517   1.000000
   76       -4.113671   1.000000
   77       -3.835192   0.999989
   78       -3.812470   0.999977
   79       -3.596240   0.994617
   80       -3.124257   0.215566
   81       -3.057698   0.104214
   82       -2.794814   0.000914
   83       -2.667572   0.000030
   84       -2.587361   0.000002
   85       -2.537997   0.000000
   86       -2.477479   0.000000
   87       -2.212570   0.000000
   88       -2.185098   0.000000
   89       -2.155046   0.000000
   90       -2.057473   0.000000
   91       -1.703136   0.000000
   92       -1.520928   0.000000
   93       -1.412521   0.000000
   94       -1.307093   0.000000
   95       -1.175040   0.000000
   96       -1.081627   0.000000
   97       -0.997672   0.000000
   98       -0.918933   0.000000
   99       -0.889093   0.000000
  100       -0.820844   0.000000
  101       -0.729778   0.000000
  102       -0.665122   0.000000
  103       -0.616708   0.000000
  104       -0.507058   0.000000
  105       -0.327550   0.000000
  106       -0.177612   0.000000
  107       -0.047458   0.000000
  108       -0.008226   0.000000
  109        0.235477   0.000000
  110        0.294385   0.000000
  111        0.402922   0.000000
  112        0.533476   0.000000
  113        0.600336   0.000000
  114        0.949114   0.000000
  115        1.009391   0.000000
  116        1.103927   0.000000
  117        1.272846   0.000000
  118        1.807912   0.000000
  119        1.999331   0.000000
  120        2.300042   0.000000
 
  0.3750000E+00  0.0000000E+00  0.0000000E+00  0.3125000E-01
    1      -17.652976   1.000000
    2      -17.190974   1.000000
    3      -16.761911   1.000000
    4      -16.701792   1.000000
    5      -16.677920   1.000000
    6      -16.446230   1.000000
    7      -16.347756   1.000000
    8      -16.261452   1.000000
    9      -16.102354   1.000000
   10      -15.988580   1.000000
   11      -15.938232   1.000000
   12      -15.883130   1.000000
   13      -15.733598   1.000000
   14      -15.673425   1.000000
   15      -15.631579   1.000000
   16      -15.559050   1.000000
   17      -15.261166   1.000000
   18      -15.213867   1.000000
   19       -9.709761   1.000000
   20       -9.362915   1.000000
   21       -9.256753   1.000000
   22       -9.142924   1.000000
   23       -9.021705   1.000000
   24       -8.850827   1.000000
   25       -8.541183   1.000000
   26       -8.506727   1.000000
   27       -8.439644   1.000000
   28       -8.306302   1.000000
   29       -8.267380   1.000000
   30       -8.230853   1.000000
   31       -8.142685   1.000000
   32       -8.079973   1.000000
   33       -7.895566   1.000000
   34       -7.831192   1.000000
   35       -7.775640   1.000000
   36       -7.740973   1.000000
   37       -7.567006   1.000000
   38       -7.393575   1.000000
   39       -7.367177   1.000000
   40       -7.299091   1.000000
   41       -7.210095   1.000000
   42       -7.140350   1.000000
   43       -7.064691   1.000000
   44       -6.991630   1.000000
   45       -6.828475   1.000000
   46       -6.785291   1.000000
   47       -6.683283   1.000000
   48       -6.585835   1.000000
   49       -6.544533   1.000000
   50       -6.445829   1.000000
   51       -6.410882   1.000000
   52       -6.367676   1.000000
   53       -6.280259   1.000000
   54       -6.214719   1.000000
   55       -6.139695   1.000000
   56       -6.058152   1.000000
   57       -6.038961   1.000000
   58       -5.868912   1.000000
   59       -5.823041   1.000000
   60       -5.748593   1.000000
   61       -5.697466   1.000000
   62       -5.590868   1.000000
   63       -5.577121   1.000000
   64       -5.452178   1.000000
   65       -5.306293   1.000000
   66       -5.041187   1.000000
   67       -4.886569   1.000000
   68       -4.817109   1.000000
   69       -4.747441   1.000000
   70       -4.683981   1.000000
   71       -4.571887   1.000000
   72       -4.449825   1.000000
   73       -4.385234   1.000000
   74       -4.217569   1.000000
   75       -4.161257   1.000000
   76       -4.051788   1.000000
   77       -3.959729   1.000000
   78       -3.786960   0.999952
   79       -3.584347   0.993170
   80       -3.102040   0.172495
   81       -3.007054   0.053047
   82       -2.757152   0.000358
   83       -2.661140   0.000024
   84       -2.580172   0.000002
   85       -2.474139   0.000000
   86       -2.405551   0.000000
   87       -2.139724   0.000000
   88       -2.115739   0.000000
   89       -2.094873   0.000000
   90       -1.932500   0.000000
   91       -1.694693   0.000000
   92       -1.518125   0.000000
   93       -1.441692   0.000000
   94       -1.421906   0.000000
   95       -1.281953   0.000000
   96       -1.129970   0.000000
   97       -1.061296   0.000000
   98       -1.024101   0.000000
   99       -0.963466   0.000000
  100       -0.902565   0.000000
  101       -0.809808   0.000000
  102       -0.731765   0.000000
  103       -0.604800   0.000000
  104       -0.540206   0.000000
  105       -0.383419   0.000000
  106       -0.245720   0.000000
  107       -0.112902   0.000000
  108       -0.054874   0.000000
  109        0.170645   0.000000
  110        0.340385   0.000000
  111        0.391564   0.000000
  112        0.459322   0.000000
  113        0.633122   0.000000
  114        0.976910   0.000000
  115        1.054639   0.000000
  116        1.117145   0.000000
  117        1.394311   0.000000
  118        1.984141   0.000000
  119        2.177834   0.000000
  120        2.437498   0.000000
 
  0.5000000E+00  0.1110223E-15  0.0000000E+00  0.1562500E-01
    1      -17.582753   1.000000
    2      -17.294045   1.000000
    3      -16.760044   1.000000
    4      -16.711736   1.000000
    5      -16.694199   1.000000
    6      -16.445361   1.000000
    7      -16.345746   1.000000
    8      -16.267464   1.000000
    9      -16.041273   1.000000
   10      -16.000083   1.000000
   11      -15.926240   1.000000
   12      -15.857593   1.000000
   13      -15.719124   1.000000
   14      -15.691625   1.000000
   15      -15.635679   1.000000
   16      -15.558620   1.000000
   17      -15.264569   1.000000
   18      -15.218745   1.000000
   19       -9.783248   1.000000
   20       -9.396106   1.000000
   21       -9.271846   1.000000
   22       -9.129286   1.000000
   23       -9.057659   1.000000
   24       -8.863153   1.000000
   25       -8.503297   1.000000
   26       -8.486483   1.000000
   27       -8.375967   1.000000
   28       -8.315364   1.000000
   29       -8.267149   1.000000
   30       -8.200396   1.000000
   31       -8.151055   1.000000
   32       -8.069304   1.000000
   33       -7.976536   1.000000
   34       -7.888692   1.000000
   35       -7.826130   1.000000
   36       -7.758761   1.000000
   37       -7.498260   1.000000
   38       -7.352713   1.000000
   39       -7.323084   1.000000
   40       -7.235995   1.000000
   41       -7.104248   1.000000
   42       -7.083453   1.000000
   43       -7.052963   1.000000
   44       -7.020387   1.000000
   45       -6.820821   1.000000
   46       -6.745186   1.000000
   47       -6.617414   1.000000
   48       -6.571209   1.000000
   49       -6.558011   1.000000
   50       -6.503816   1.000000
   51       -6.451066   1.000000
   52       -6.350186   1.000000
   53       -6.251758   1.000000
   54       -6.208899   1.000000
   55       -6.144710   1.000000
   56       -6.091960   1.000000
   57       -6.046264   1.000000
   58       -5.879816   1.000000
   59       -5.849349   1.000000
   60       -5.791325   1.000000
   61       -5.710166   1.000000
   62       -5.646809   1.000000
   63       -5.529403   1.000000
   64       -5.407476   1.000000
   65       -5.251253   1.000000
   66       -5.227799   1.000000
   67       -4.956098   1.000000
   68       -4.880292   1.000000
   69       -4.782645   1.000000
   70       -4.681792   1.000000
   71       -4.521641   1.000000
   72       -4.457739   1.000000
   73       -4.345466   1.000000
   74       -4.176224   1.000000
   75       -4.145251   1.000000
   76       -4.026962   1.000000
   77       -4.009187   1.000000
   78       -3.768209   0.999917
   79       -3.566667   0.990385
   80       -3.098877   0.166843
   81       -2.988235   0.040139
   82       -2.748754   0.000288
   83       -2.653771   0.000019
   84       -2.585978   0.000002
   85       -2.459156   0.000000
   86       -2.357895   0.000000
   87       -2.103910   0.000000
   88       -2.086787   0.000000
   89       -2.046146   0.000000
   90       -1.870654   0.000000
   91       -1.677934   0.000000
   92       -1.599594   0.000000
   93       -1.460061   0.000000
   94       -1.384396   0.000000
   95       -1.367261   0.000000
   96       -1.185156   0.000000
   97       -1.092447   0.000000
   98       -1.080936   0.000000
   99       -0.976972   0.000000
  100       -0.924601   0.000000
  101       -0.845009   0.000000
  102       -0.738203   0.000000
  103       -0.595732   0.000000
  104       -0.529349   0.000000
  105       -0.401569   0.000000
  106       -0.283613   0.000000
  107       -0.147130   0.000000
  108       -0.078902   0.000000
  109        0.120497   0.000000
  110        0.337880   0.000000
  111        0.395229   0.000000
  112        0.445864   0.000000
  113        0.650158   0.000000
  114        0.980430   0.000000
  115        1.094878   0.000000
  116        1.113823   0.000000
  117        1.441345   0.000000
  118        2.161954   0.000000
  119        2.265847   0.000000
  120        2.404342   0.000000
 
  0.0000000E+00  0.1250000E+00  0.0000000E+00  0.3125000E-01
    1      -17.820899   1.000000
    2      -16.802948   1.000000
    3      -16.771567   1.000000
    4      -16.653489   1.000000
    5      -16.558090   1.000000
    6      -16.431339   1.000000
    7      -16.381763   1.000000
    8      -16.318313   1.000000
    9      -16.228381   1.000000
   10      -16.088329   1.000000
   11      -16.012592   1.000000
   12      -15.982623   1.000000
   13      -15.873825   1.000000
   14      -15.613559   1.000000
   15      -15.595988   1.000000
   16      -15.479857   1.000000
   17      -15.267493   1.000000
   18      -15.196864   1.000000
   19       -9.408160   1.000000
   20       -9.191535   1.000000
   21       -9.048756   1.000000
   22       -9.032793   1.000000
   23       -8.771163   1.000000
   24       -8.726150   1.000000
   25       -8.659081   1.000000
   26       -8.572131   1.000000
   27       -8.547307   1.000000
   28       -8.501469   1.000000
   29       -8.439696   1.000000
   30       -8.317612   1.000000
   31       -8.233103   1.000000
   32       -8.021773   1.000000
   33       -7.983312   1.000000
   34       -7.877257   1.000000
   35       -7.853036   1.000000
   36       -7.744423   1.000000
   37       -7.696851   1.000000
   38       -7.518816   1.000000
   39       -7.448455   1.000000
   40       -7.420138   1.000000
   41       -7.314503   1.000000
   42       -7.224773   1.000000
   43       -7.120515   1.000000
   44       -6.974423   1.000000
   45       -6.877932   1.000000
   46       -6.816744   1.000000
   47       -6.750505   1.000000
   48       -6.656508   1.000000
   49       -6.610657   1.000000
   50       -6.488356   1.000000
   51       -6.452072   1.000000
   52       -6.313642   1.000000
   53       -6.285684   1.000000
   54       -6.189165   1.000000
   55       -6.114811   1.000000
   56       -6.083840   1.000000
   57       -6.016242   1.000000
   58       -5.904018   1.000000
   59       -5.778481   1.000000
   60       -5.585763   1.000000
   61       -5.557328   1.000000
   62       -5.353731   1.000000
   63       -5.312302   1.000000
   64       -5.252522   1.000000
   65       -5.087111   1.000000
   66       -5.025055   1.000000
   67       -4.924406   1.000000
   68       -4.866954   1.000000
   69       -4.811368   1.000000
   70       -4.664504   1.000000
   71       -4.640005   1.000000
   72       -4.514989   1.000000
   73       -4.382953   1.000000
   74       -4.294403   1.000000
   75       -4.249693   1.000000
   76       -3.932607   1.000000
   77       -3.834947   0.999989
   78       -3.690183   0.999347
   79       -3.489792   0.963869
   80       -3.413782   0.896165
   81       -2.977626   0.034069
   82       -2.901096   0.009009
   83       -2.713849   0.000112
   84       -2.632212   0.000010
   85       -2.605441   0.000004
   86       -2.512792   0.000000
   87       -2.305191   0.000000
   88       -2.243204   0.000000
   89       -2.211926   0.000000
   90       -2.114790   0.000000
   91       -1.667220   0.000000
   92       -1.535345   0.000000
   93       -1.424216   0.000000
   94       -1.227106   0.000000
   95       -1.097252   0.000000
   96       -1.053836   0.000000
   97       -0.972489   0.000000
   98       -0.862404   0.000000
   99       -0.819666   0.000000
  100       -0.669014   0.000000
  101       -0.629764   0.000000
  102       -0.546119   0.000000
  103       -0.472055   0.000000
  104       -0.346649   0.000000
  105       -0.272748   0.000000
  106       -0.147651   0.000000
  107       -0.115743   0.000000
  108       -0.032179   0.000000
  109        0.114665   0.000000
  110        0.233536   0.000000
  111        0.423692   0.000000
  112        0.565234   0.000000
  113        0.701090   0.000000
  114        0.896371   0.000000
  115        1.036323   0.000000
  116        1.131858   0.000000
  117        1.174018   0.000000
  118        1.692580   0.000000
  119        1.880896   0.000000
  120        2.197986   0.000000
 
  0.1250000E+00  0.1250000E+00  0.0000000E+00  0.3125000E-01
    1      -17.775245   1.000000
    2      -16.912571   1.000000
    3      -16.808161   1.000000
    4      -16.738277   1.000000
    5      -16.485761   1.000000
    6      -16.452790   1.000000
    7      -16.369881   1.000000
    8      -16.298785   1.000000
    9      -16.218186   1.000000
   10      -16.035808   1.000000
   11      -15.994384   1.000000
   12      -15.899126   1.000000
   13      -15.862310   1.000000
   14      -15.636014   1.000000
   15      -15.595853   1.000000
   16      -15.503299   1.000000
   17      -15.275004   1.000000
   18      -15.198574   1.000000
   19       -9.438825   1.000000
   20       -9.306317   1.000000
   21       -9.212608   1.000000
   22       -9.145638   1.000000
   23       -8.832406   1.000000
   24       -8.692668   1.000000
   25       -8.663307   1.000000
   26       -8.553524   1.000000
   27       -8.501554   1.000000
   28       -8.457463   1.000000
   29       -8.332956   1.000000
   30       -8.268819   1.000000
   31       -8.101718   1.000000
   32       -8.056992   1.000000
   33       -8.009134   1.000000
   34       -7.841323   1.000000
   35       -7.731087   1.000000
   36       -7.682178   1.000000
   37       -7.604386   1.000000
   38       -7.566149   1.000000
   39       -7.485291   1.000000
   40       -7.351930   1.000000
   41       -7.278843   1.000000
   42       -7.234052   1.000000
   43       -7.126837   1.000000
   44       -7.015360   1.000000
   45       -6.909226   1.000000
   46       -6.827747   1.000000
   47       -6.761396   1.000000
   48       -6.627461   1.000000
   49       -6.537370   1.000000
   50       -6.447496   1.000000
   51       -6.412901   1.000000
   52       -6.336913   1.000000
   53       -6.288939   1.000000
   54       -6.211540   1.000000
   55       -6.172162   1.000000
   56       -6.056593   1.000000
   57       -5.987759   1.000000
   58       -5.958155   1.000000
   59       -5.740035   1.000000
   60       -5.568306   1.000000
   61       -5.546854   1.000000
   62       -5.499256   1.000000
   63       -5.433707   1.000000
   64       -5.302366   1.000000
   65       -5.217091   1.000000
   66       -5.067046   1.000000
   67       -4.911835   1.000000
   68       -4.824842   1.000000
   69       -4.803640   1.000000
   70       -4.651012   1.000000
   71       -4.523619   1.000000
   72       -4.464534   1.000000
   73       -4.350608   1.000000
   74       -4.232963   1.000000
   75       -4.188012   1.000000
   76       -4.106331   1.000000
   77       -3.936718   1.000000
   78       -3.716903   0.999667
   79       -3.530967   0.981629
   80       -3.324028   0.734126
   81       -2.944921   0.019922
   82       -2.840586   0.002610
   83       -2.681662   0.000045
   84       -2.603590   0.000004
   85       -2.581633   0.000002
   86       -2.506431   0.000000
   87       -2.237086   0.000000
   88       -2.209837   0.000000
   89       -2.170357   0.000000
   90       -2.099719   0.000000
   91       -1.684820   0.000000
   92       -1.516238   0.000000
   93       -1.412405   0.000000
   94       -1.255132   0.000000
   95       -1.134359   0.000000
   96       -1.077664   0.000000
   97       -0.985066   0.000000
   98       -0.896063   0.000000
   99       -0.863169   0.000000
  100       -0.777419   0.000000
  101       -0.727176   0.000000
  102       -0.618024   0.000000
  103       -0.582980   0.000000
  104       -0.473481   0.000000
  105       -0.296389   0.000000
  106       -0.136592   0.000000
  107       -0.118486   0.000000
  108       -0.004699   0.000000
  109        0.108713   0.000000
  110        0.276189   0.000000
  111        0.417680   0.000000
  112        0.550773   0.000000
  113        0.651150   0.000000
  114        0.925225   0.000000
  115        1.056875   0.000000
  116        1.156105   0.000000
  117        1.221501   0.000000
  118        1.772465   0.000000
  119        1.960584   0.000000
  120        2.266686   0.000000
 
  0.2500000E+00  0.1250000E+00  0.0000000E+00  0.3125000E-01
    1      -17.689630   1.000000
    2      -17.088186   1.000000
    3      -16.880327   1.000000
    4      -16.747799   1.000000
    5      -16.484799   1.000000
    6      -16.442643   1.000000
    7      -16.370802   1.000000
    8      -16.232217   1.000000
    9      -16.195612   1.000000
   10      -15.998376   1.000000
   11      -15.974888   1.000000
   12      -15.879472   1.000000
   13      -15.747607   1.000000
   14      -15.686636   1.000000
   15      -15.600491   1.000000
   16      -15.526474   1.000000
   17      -15.285545   1.000000
   18      -15.202003   1.000000
   19       -9.604217   1.000000
   20       -9.431146   1.000000
   21       -9.316521   1.000000
   22       -9.178208   1.000000
   23       -8.888027   1.000000
   24       -8.688051   1.000000
   25       -8.569093   1.000000
   26       -8.498533   1.000000
   27       -8.447296   1.000000
   28       -8.386138   1.000000
   29       -8.273727   1.000000
   30       -8.232502   1.000000
   31       -8.138324   1.000000
   32       -8.112169   1.000000
   33       -7.955074   1.000000
   34       -7.873516   1.000000
   35       -7.778016   1.000000
   36       -7.638210   1.000000
   37       -7.610272   1.000000
   38       -7.464015   1.000000
   39       -7.403528   1.000000
   40       -7.316027   1.000000
   41       -7.223704   1.000000
   42       -7.122172   1.000000
   43       -7.066735   1.000000
   44       -6.947380   1.000000
   45       -6.925832   1.000000
   46       -6.804372   1.000000
   47       -6.753411   1.000000