       N       E                     dE             d eps       ncg     rms          rms(c)
DAV:   1     0.112433465489E+04    0.11243E+04   -0.35858E+04  8160   0.577E+02
DAV:   2    -0.339962107147E+01   -0.11277E+04   -0.10882E+04 11160   0.173E+02
DAV:   3    -0.200012456884E+03   -0.19661E+03   -0.18904E+03 11040   0.818E+01
DAV:   4    -0.208971864601E+03   -0.89594E+01   -0.86433E+01 12160   0.253E+01
DAV:   5    -0.209278901458E+03   -0.30704E+00   -0.30609E+00 11680   0.350E+00    0.275E+01
DAV:   6    -0.237208004929E+03   -0.27929E+02   -0.10774E+02 12760   0.605E+01    0.594E+01
DAV:   7    -0.196639591492E+03    0.40568E+02   -0.17741E+02 13160   0.152E+02    0.204E+01
DAV:   8    -0.190085518386E+03    0.65541E+01   -0.20334E+01 11760   0.134E+01    0.137E+01
DAV:   9    -0.188311312737E+03    0.17742E+01   -0.35006E+00 12000   0.622E+00    0.938E+00
DAV:  10    -0.187124694011E+03    0.11866E+01   -0.17693E+00 13320   0.759E+00    0.337E+00
DAV:  11    -0.187014686959E+03    0.11001E+00   -0.65608E-01 12520   0.248E+00    0.238E+00
DAV:  12    -0.187030375812E+03   -0.15689E-01   -0.47767E-01 12760   0.326E+00    0.346E+00
DAV:  13    -0.186932825791E+03    0.97550E-01   -0.27756E-01 13160   0.313E+00    0.190E+00
DAV:  14    -0.186903474117E+03    0.29352E-01   -0.10510E-01 12920   0.173E+00    0.961E-01
DAV:  15    -0.186898359426E+03    0.51147E-02   -0.41586E-02 12240   0.104E+00    0.972E-01
DAV:  16    -0.186892566733E+03    0.57927E-02   -0.15647E-02 13040   0.670E-01    0.484E-01
DAV:  17    -0.186889920428E+03    0.26463E-02   -0.73297E-03 12920   0.387E-01    0.176E-01
DAV:  18    -0.186889382957E+03    0.53747E-03   -0.19221E-03 11720   0.142E-01    0.167E-01
DAV:  19    -0.186889172940E+03    0.21002E-03   -0.77519E-04 11320   0.134E-01    0.465E-02
DAV:  20    -0.186890055727E+03   -0.88279E-03   -0.82865E-04  9120   0.581E-02    0.443E-02
DAV:  21    -0.186890925295E+03   -0.86957E-03   -0.22801E-04  8240   0.522E-02    0.353E-02
DAV:  22    -0.186891734867E+03   -0.80957E-03   -0.10578E-04  6760   0.297E-02    0.338E-02
DAV:  23    -0.186892892086E+03   -0.11572E-02   -0.13763E-04  7440   0.407E-02    0.168E-02
DAV:  24    -0.186893475181E+03   -0.58310E-03   -0.26689E-05  6800   0.182E-02    0.436E-03
DAV:  25    -0.186893841750E+03   -0.36657E-03   -0.16596E-05  5440   0.889E-03    0.462E-03
DAV:  26    -0.186894080185E+03   -0.23844E-03   -0.91176E-06  6800   0.703E-03    0.151E-03
DAV:  27    -0.186894170621E+03   -0.90436E-04   -0.31946E-06  7240   0.384E-03
   1 F= -.18689417E+03 E0= -.18672339E+03  d E =-.186894E+03
       N       E                     dE             d eps       ncg     rms          rms(c)
DAV:   1    -0.187531762145E+03   -0.63768E+00   -0.27016E+02  8160   0.349E+01    0.466E+00
DAV:   2    -0.189594323483E+03   -0.20626E+01   -0.20364E+01 12280   0.159E+01    0.101E+01
DAV:   3    -0.189330218195E+03    0.26411E+00   -0.43085E+00 12360   0.125E+01    0.629E+00
DAV:   4    -0.188790140770E+03    0.54008E+00   -0.56418E-01 12640   0.425E+00    0.179E+00
DAV:   5    -0.188888546942E+03   -0.98406E-01   -0.43411E-01 12200   0.315E+00    0.486E+00
DAV:   6    -0.188779228063E+03    0.10932E+00   -0.72950E-01 12640   0.430E+00    0.258E+00
DAV:   7    -0.188720370100E+03    0.58858E-01   -0.18616E-01 12080   0.188E+00    0.106E+00
DAV:   8    -0.188710816417E+03    0.95537E-02   -0.62869E-02 12920   0.125E+00    0.123E+00
DAV:   9    -0.188700078339E+03    0.10738E-01   -0.24646E-02 12000   0.901E-01    0.382E-01
DAV:  10    -0.188699182442E+03    0.89590E-03   -0.40400E-03 12040   0.254E-01    0.221E-01
DAV:  11    -0.188698545384E+03    0.63706E-03   -0.24884E-03 12480   0.168E-01    0.101E-01
DAV:  12    -0.188698639249E+03   -0.93866E-04   -0.92692E-04 11840   0.895E-02
   2 F= -.18869864E+03 E0= -.18856046E+03  d E =-.180447E+01
       N       E                     dE             d eps       ncg     rms          rms(c)
DAV:   1    -0.190618897314E+03   -0.19204E+01   -0.30966E+01  9120   0.142E+01    0.443E+00
DAV:   2    -0.190569183957E+03    0.49713E-01   -0.27328E+00 11240   0.942E+00    0.722E+00
DAV:   3    -0.190106887209E+03    0.46230E+00   -0.13086E+00 12320   0.858E+00    0.424E+00
DAV:   4    -0.189894478573E+03    0.21241E+00   -0.70228E-01 12560   0.420E+00    0.250E+00
DAV:   5    -0.189848173767E+03    0.46305E-01   -0.33721E-01 12360   0.270E+00    0.232E+00
DAV:   6    -0.189797474447E+03    0.50699E-01   -0.11693E-01 12720   0.214E+00    0.777E-01
DAV:   7    -0.189790728834E+03    0.67456E-02   -0.14109E-02 11600   0.571E-01    0.204E-01
DAV:   8    -0.189791151342E+03   -0.42251E-03   -0.34241E-03 12240   0.265E-01    0.270E-01
DAV:   9    -0.189790850445E+03    0.30090E-03   -0.18315E-03 10880   0.278E-01    0.170E-01
DAV:  10    -0.189791087717E+03   -0.23727E-03   -0.99081E-04  9880   0.153E-01    0.129E-01
DAV:  11    -0.189790811374E+03    0.27634E-03   -0.46872E-04  9080   0.784E-02    0.217E-02
DAV:  12    -0.189790834861E+03   -0.23486E-04   -0.73468E-05  6840   0.288E-02
   3 F= -.18979083E+03 E0= -.18967430E+03  d E =-.109220E+01
       N       E                     dE             d eps       ncg     rms          rms(c)
DAV:   1    -0.191366505830E+03   -0.15757E+01   -0.74555E+01  8160   0.197E+01    0.457E+00
DAV:   2    -0.191184772309E+03    0.18173E+00   -0.53248E+00 13360   0.763E+00    0.453E+00
DAV:   3    -0.191333679665E+03   -0.14891E+00   -0.15070E+00 12200   0.906E+00    0.671E+00
DAV:   4    -0.190935942740E+03    0.39774E+00   -0.13378E+00 12480   0.759E+00    0.293E+00
DAV:   5    -0.190893105899E+03    0.42837E-01   -0.41227E-01 12280   0.387E+00    0.284E+00
DAV:   6    -0.190807534467E+03    0.85571E-01   -0.19688E-01 12320   0.312E+00    0.120E+00
DAV:   7    -0.190795503434E+03    0.12031E-01   -0.42820E-02 12600   0.111E+00    0.463E-01
DAV:   8    -0.190793134438E+03    0.23690E-02   -0.86351E-03 11440   0.499E-01    0.377E-01
DAV:   9    -0.190792097896E+03    0.10365E-02   -0.30315E-03 11360   0.374E-01    0.168E-01
DAV:  10    -0.190792269169E+03   -0.17127E-03   -0.12671E-03 11320   0.150E-01    0.823E-02
DAV:  11    -0.190792183311E+03    0.85858E-04   -0.46093E-04  9400   0.789E-02
   4 F= -.19079218E+03 E0= -.19069426E+03  d E =-.100135E+01
       N       E                     dE             d eps       ncg     rms          rms(c)
DAV:   1    -0.192267644989E+03   -0.14754E+01   -0.17065E+02  8160   0.291E+01    0.579E+00
DAV:   2    -0.191995730126E+03    0.27191E+00   -0.99887E+00 11040   0.798E+00    0.362E+00
DAV:   3    -0.192051206021E+03   -0.55476E-01   -0.18511E+00 12200   0.785E+00    0.603E+00
DAV:   4    -0.191878136012E+03    0.17307E+00   -0.15319E+00 12000   0.956E+00    0.479E+00
DAV:   5    -0.191611358213E+03    0.26678E+00   -0.65619E-01 12360   0.488E+00    0.173E+00
DAV:   6    -0.191590170916E+03    0.21187E-01   -0.15958E-01 12600   0.285E+00    0.151E+00
DAV:   7    -0.191572280643E+03    0.17890E-01   -0.81086E-02 12400   0.201E+00    0.699E-01
DAV:   8    -0.191565703711E+03    0.65769E-02   -0.13637E-02 12000   0.715E-01    0.383E-01
DAV:   9    -0.191564728486E+03    0.97523E-03   -0.46066E-03 11800   0.473E-01    0.218E-01
DAV:  10    -0.191564701611E+03    0.26875E-04   -0.23148E-03 11520   0.209E-01    0.842E-02
DAV:  11    -0.191564641133E+03    0.60478E-04   -0.56336E-04 10800   0.882E-02
   5 F= -.19156464E+03 E0= -.19147868E+03  d E =-.772458E+00
       N       E                     dE             d eps       ncg     rms          rms(c)
DAV:   1    -0.191683682820E+03   -0.11898E+00   -0.89902E+00  8160   0.638E+00    0.747E-01
DAV:   2    -0.191747035323E+03   -0.63353E-01   -0.35951E-01 12760   0.294E+00    0.204E+00
DAV:   3    -0.191702535735E+03    0.44500E-01   -0.98281E-02 12600   0.237E+00    0.501E-01
DAV:   4    -0.191702387908E+03    0.14783E-03   -0.12693E-02 11640   0.759E-01    0.594E-01
DAV:   5    -0.191699092773E+03    0.32951E-02   -0.86145E-03 11640   0.707E-01    0.280E-01
DAV:   6    -0.191698943864E+03    0.14891E-03   -0.38620E-03 11440   0.324E-01    0.196E-01
DAV:   7    -0.191698422595E+03    0.52127E-03   -0.20401E-03 11520   0.251E-01    0.166E-01
DAV:   8    -0.191698185126E+03    0.23747E-03   -0.69736E-04  9200   0.187E-01    0.532E-02
DAV:   9    -0.191698187920E+03   -0.27939E-05   -0.10789E-04  6160   0.570E-02
   6 F= -.19169819E+03 E0= -.19161382E+03  d E =-.133547E+00
       N       E                     dE             d eps       ncg     rms          rms(c)
DAV:   1    -0.191819520856E+03   -0.12134E+00   -0.97205E+00  8160   0.665E+00    0.705E-01
DAV:   2    -0.191860289424E+03   -0.40769E-01   -0.32112E-01 12680   0.240E+00    0.147E+00
DAV:   3    -0.191838488823E+03    0.21801E-01   -0.64213E-02 12520   0.197E+00    0.570E-01
DAV:   4    -0.191835373879E+03    0.31149E-02   -0.95934E-03 11760   0.660E-01    0.425E-01
DAV:   5    -0.191834572540E+03    0.80134E-03   -0.72412E-03 12200   0.660E-01    0.368E-01
DAV:   6    -0.191833902884E+03    0.66966E-03   -0.48873E-03 11720   0.422E-01    0.195E-01
DAV:   7    -0.191833087918E+03    0.81497E-03   -0.15632E-03 10400   0.159E-01    0.377E-02
DAV:   8    -0.191833136839E+03   -0.48921E-04   -0.20842E-04  7880   0.769E-02
   7 F= -.19183314E+03 E0= -.19175111E+03  d E =-.134949E+00
       N       E                     dE             d eps       ncg     rms          rms(c)
DAV:   1    -0.191991954184E+03   -0.15887E+00   -0.24198E+01  8160   0.106E+01    0.108E+00
DAV:   2    -0.192062484356E+03   -0.70530E-01   -0.82133E-01 12320   0.310E+00    0.142E+00
DAV:   3    -0.192053935458E+03    0.85489E-02   -0.10042E-01 12440   0.260E+00    0.116E+00
DAV:   4    -0.192034156415E+03    0.19779E-01   -0.22664E-02 12520   0.118E+00    0.324E-01
DAV:   5    -0.192037282039E+03   -0.31256E-02   -0.15013E-02 12600   0.679E-01    0.612E-01
DAV:   6    -0.192034822926E+03    0.24591E-02   -0.13009E-02 12480   0.907E-01    0.443E-01
DAV:   7    -0.192032372359E+03    0.24506E-02   -0.38578E-03 11520   0.423E-01    0.648E-02
DAV:   8    -0.192032364985E+03    0.73744E-05   -0.50165E-04  9800   0.719E-02
   8 F= -.19203236E+03 E0= -.19195198E+03  d E =-.199228E+00
       N       E                     dE             d eps       ncg     rms          rms(c)
DAV:   1    -0.192147061054E+03   -0.11469E+00   -0.58328E+01  8160   0.164E+01    0.168E+00
DAV:   2    -0.192306770524E+03   -0.15971E+00   -0.21244E+00 11680   0.422E+00    0.160E+00
DAV:   3    -0.192346181874E+03   -0.39411E-01   -0.22680E-01 12240   0.403E+00    0.242E+00
DAV:   4    -0.192273669167E+03    0.72513E-01   -0.80506E-02 11960   0.261E+00    0.738E-01
DAV:   5    -0.192277224663E+03   -0.35555E-02   -0.32233E-02 12280   0.155E+00    0.994E-01
DAV:   6    -0.192268134900E+03    0.90898E-02   -0.29535E-02 12600   0.125E+00    0.452E-01
DAV:   7    -0.192266239319E+03    0.18956E-02   -0.92430E-03 11800   0.733E-01    0.352E-01
DAV:   8    -0.192264862310E+03    0.13770E-02   -0.24576E-03 11440   0.394E-01    0.939E-02
DAV:   9    -0.192264720409E+03    0.14190E-03   -0.69945E-04 10200   0.985E-02    0.516E-02
DAV:  10    -0.192264674837E+03    0.45572E-04   -0.22214E-04  7960   0.483E-02
   9 F= -.19226467E+03 E0= -.19218999E+03  d E =-.232310E+00
       N       E                     dE             d eps       ncg     rms          rms(c)
DAV:   1    -0.192294416731E+03   -0.29696E-01   -0.16415E+00  8160   0.276E+00    0.408E-01
DAV:   2    -0.192300809705E+03   -0.63930E-02   -0.79284E-02 12200   0.110E+00    0.650E-01
DAV:   3    -0.192298043607E+03    0.27661E-02   -0.14903E-02 12400   0.105E+00    0.442E-01
DAV:   4    -0.192295762925E+03    0.22807E-02   -0.41227E-03 12600   0.526E-01    0.209E-01
DAV:   5    -0.192295895015E+03   -0.13209E-03   -0.26098E-03 11680   0.435E-01    0.257E-01
DAV:   6    -0.192295126171E+03    0.76884E-03   -0.18855E-03 12080   0.323E-01    0.738E-02
DAV:   7    -0.192295088039E+03    0.38132E-04   -0.33873E-04  8600   0.119E-01
  10 F= -.19229509E+03 E0= -.19222139E+03  d E =-.304132E-01
       N       E                     dE             d eps       ncg     rms          rms(c)
DAV:   1    -0.192336567161E+03   -0.41441E-01   -0.13896E+01  8160   0.790E+00    0.858E-01
DAV:   2    -0.192385136514E+03   -0.48569E-01   -0.52432E-01 11880   0.241E+00    0.124E+00
DAV:   3    -0.192379012796E+03    0.61237E-02   -0.66256E-02 12040   0.222E+00    0.105E+00
DAV:   4    -0.192365529911E+03    0.13483E-01   -0.16675E-02 12480   0.109E+00    0.267E-01
DAV:   5    -0.192366171121E+03   -0.64121E-03   -0.65166E-03 12240   0.521E-01    0.362E-01
DAV:   6    -0.192365565441E+03    0.60568E-03   -0.53199E-03 11600   0.632E-01    0.305E-01
DAV:   7    -0.192364376205E+03    0.11892E-02   -0.21029E-03 11600   0.348E-01    0.949E-02
DAV:   8    -0.192364336158E+03    0.40047E-04   -0.41675E-04  8760   0.156E-01
  11 F= -.19236434E+03 E0= -.19229432E+03  d E =-.692481E-01
       N       E                     dE             d eps       ncg     rms          rms(c)
DAV:   1    -0.192376272203E+03   -0.11896E-01   -0.74841E-01  8160   0.187E+00    0.245E-01
DAV:   2    -0.192379214123E+03   -0.29419E-02   -0.30202E-02 12160   0.729E-01    0.439E-01
DAV:   3    -0.192377573030E+03    0.16411E-02   -0.57769E-03 12440   0.656E-01    0.233E-01
DAV:   4    -0.192376942968E+03    0.63006E-03   -0.12519E-03 10960   0.287E-01    0.127E-01
DAV:   5    -0.192376957008E+03   -0.14040E-04   -0.89444E-04 10680   0.258E-01
  12 F= -.19237696E+03 E0= -.19230738E+03  d E =-.126209E-01
       N       E                     dE             d eps       ncg     rms          rms(c)
DAV:   1    -0.192395310130E+03   -0.18367E-01   -0.16774E+00  8160   0.276E+00    0.363E-01
DAV:   2    -0.192402427817E+03   -0.71177E-02   -0.64055E-02 12200   0.110E+00    0.690E-01
DAV:   3    -0.192398064880E+03    0.43629E-02   -0.12419E-02 12520   0.979E-01    0.320E-01
DAV:   4    -0.192396818180E+03    0.12467E-02   -0.23486E-03 12480   0.363E-01    0.161E-01
DAV:   5    -0.192396890036E+03   -0.71856E-04   -0.16710E-03 12040   0.332E-01    0.193E-01
DAV:   6    -0.192396516184E+03    0.37385E-03   -0.11489E-03 10720   0.270E-01    0.719E-02
DAV:   7    -0.192396421977E+03    0.94207E-04   -0.19718E-04  7280   0.923E-02
  13 F= -.19239642E+03 E0= -.19232768E+03  d E =-.194650E-01
       N       E                     dE             d eps       ncg     rms          rms(c)
DAV:   1    -0.192403901008E+03   -0.73848E-02   -0.27263E-01  8160   0.116E+00    0.229E-01
DAV:   2    -0.192404833772E+03   -0.93276E-03   -0.16314E-02 11280   0.619E-01    0.360E-01
DAV:   3    -0.192403676691E+03    0.11571E-02   -0.42585E-03 11600   0.565E-01    0.199E-01
DAV:   4    -0.192403279358E+03    0.39733E-03   -0.13751E-03 10360   0.300E-01    0.151E-01
DAV:   5    -0.192403250830E+03    0.28528E-04   -0.10278E-03 10040   0.278E-01    0.151E-01
DAV:   6    -0.192402967499E+03    0.28333E-03   -0.55098E-04 10040   0.177E-01    0.312E-02
DAV:   7    -0.192402964473E+03    0.30261E-05   -0.78161E-05  6000   0.428E-02
  14 F= -.19240296E+03 E0= -.19233501E+03  d E =-.654250E-02
       N       E                     dE             d eps       ncg     rms          rms(c)
DAV:   1    -0.192413482967E+03   -0.10515E-01   -0.71026E-01  8160   0.180E+00    0.224E-01
DAV:   2    -0.192417393802E+03   -0.39108E-02   -0.29595E-02 12360   0.763E-01    0.485E-01
DAV:   3    -0.192415024946E+03    0.23689E-02   -0.56848E-03 12640   0.656E-01    0.185E-01
DAV:   4    -0.192414614913E+03    0.41003E-03   -0.82863E-04 10400   0.200E-01    0.900E-02
DAV:   5    -0.192414621592E+03   -0.66795E-05   -0.55180E-04 10240   0.173E-01
  15 F= -.19241462E+03 E0= -.19234730E+03  d E =-.116571E-01
       N       E                     dE             d eps       ncg     rms          rms(c)
DAV:   1    -0.192433140538E+03   -0.18526E-01   -0.76383E+00  8160   0.592E+00    0.766E-01
DAV:   2    -0.192468311626E+03   -0.35171E-01   -0.32231E-01 12440   0.238E+00    0.145E+00
DAV:   3    -0.192449407118E+03    0.18905E-01   -0.57376E-02 12400   0.208E+00    0.672E-01
DAV:   4    -0.192443313587E+03    0.60935E-02   -0.10355E-02 12400   0.773E-01    0.334E-01
DAV:   5    -0.192443910815E+03   -0.59723E-03   -0.77413E-03 12440   0.731E-01    0.437E-01
DAV:   6    -0.192441810597E+03    0.21002E-02   -0.59070E-03 11960   0.587E-01    0.147E-01
DAV:   7    -0.192441529693E+03    0.28090E-03   -0.11288E-03 11120   0.218E-01    0.109E-01
DAV:   8    -0.192441418893E+03    0.11080E-03   -0.32557E-04  9800   0.152E-01    0.551E-02
DAV:   9    -0.192441379384E+03    0.39509E-04   -0.74271E-05  6480   0.626E-02
  16 F= -.19244138E+03 E0= -.19237528E+03  d E =-.267578E-01
       N       E                     dE             d eps       ncg     rms          rms(c)
DAV:   1    -0.192446993477E+03   -0.55746E-02   -0.59746E-01  8160   0.164E+00    0.201E-01
DAV:   2    -0.192450064189E+03   -0.30707E-02   -0.27949E-02 10560   0.719E-01    0.374E-01
DAV:   3    -0.192448695972E+03    0.13682E-02   -0.40987E-03 11840   0.543E-01    0.179E-01
DAV:   4    -0.192448356867E+03    0.33910E-03   -0.85730E-04 10200   0.240E-01    0.112E-01
DAV:   5    -0.192448325575E+03    0.31292E-04   -0.52170E-04  9640   0.205E-01
  17 F= -.19244833E+03 E0= -.19238293E+03  d E =-.694619E-02
       N       E                     dE             d eps       ncg     rms          rms(c)
DAV:   1    -0.192452417545E+03   -0.40607E-02   -0.23215E+00  8160   0.323E+00    0.411E-01
DAV:   2    -0.192461667072E+03   -0.92495E-02   -0.11184E-01 11520   0.120E+00    0.558E-01
DAV:   3    -0.192460337124E+03    0.13299E-02   -0.13464E-02 12200   0.100E+00    0.468E-01
DAV:   4    -0.192457580374E+03    0.27567E-02   -0.41056E-03 11880   0.561E-01    0.184E-01
DAV:   5    -0.192457865782E+03   -0.28541E-03   -0.23226E-03 11040   0.408E-01    0.248E-01
DAV:   6    -0.192457130763E+03    0.73502E-03   -0.17710E-03 12560   0.326E-01    0.626E-02
DAV:   7    -0.192457083527E+03    0.47236E-04   -0.20535E-04  6080   0.801E-02
  18 F= -.19245708E+03 E0= -.19239300E+03  d E =-.875795E-02
       N       E                     dE             d eps       ncg     rms          rms(c)
DAV:   1    -0.192457195536E+03   -0.64773E-04   -0.13637E-01  8160   0.815E-01    0.134E-01
DAV:   2    -0.192457602451E+03   -0.40691E-03   -0.57602E-03 10680   0.359E-01    0.226E-01
DAV:   3    -0.192457157706E+03    0.44474E-03   -0.15206E-03 11360   0.340E-01    0.124E-01
DAV:   4    -0.192456954199E+03    0.20351E-03   -0.41732E-04  8720   0.168E-01    0.721E-02
DAV:   5    -0.192456963796E+03   -0.95965E-05   -0.33141E-04  8560   0.156E-01
  19 F= -.19245696E+03 E0= -.19239252E+03  d E =0.119731E-03
       N       E                     dE             d eps       ncg     rms          rms(c)
DAV:   1    -0.192457927171E+03   -0.97297E-03   -0.74595E-02  8160   0.594E-01    0.108E-01
DAV:   2    -0.192458053014E+03   -0.12584E-03   -0.41113E-03 10600   0.228E-01    0.119E-01
DAV:   3    -0.192458041442E+03    0.11573E-04   -0.79103E-04 10880   0.235E-01
  20 F= -.19245804E+03 E0= -.19239353E+03  d E =-.107765E-02
       N       E                     dE             d eps       ncg     rms          rms(c)
DAV:   1    -0.192458906293E+03   -0.85328E-03   -0.57351E-02  8160   0.529E-01    0.773E-02
DAV:   2    -0.192459608130E+03   -0.70184E-03   -0.31124E-03 12480   0.297E-01    0.223E-01
DAV:   3    -0.192459025731E+03    0.58240E-03   -0.86231E-04 10160   0.267E-01    0.481E-02
DAV:   4    -0.192459013240E+03    0.12491E-04   -0.66284E-05  5760   0.535E-02
  21 F= -.19245901E+03 E0= -.19239475E+03  d E =-.971798E-03
       N       E                     dE             d eps       ncg     rms          rms(c)
DAV:   1    -0.192459391846E+03   -0.36612E-03   -0.11553E-02  8160   0.234E-01    0.543E-02
DAV:   2    -0.192459574867E+03   -0.18302E-03   -0.85683E-04 10320   0.198E-01    0.129E-01
DAV:   3    -0.192459367192E+03    0.20767E-03   -0.28972E-04  8920   0.160E-01    0.295E-02
DAV:   4    -0.192459376485E+03   -0.92931E-05   -0.43705E-05  5840   0.569E-02
  22 F= -.19245938E+03 E0= -.19239525E+03  d E =-.363246E-03
       N       E                     dE             d eps       ncg     rms          rms(c)
DAV:   1    -0.192460487040E+03   -0.11198E-02   -0.98711E-02  8160   0.667E-01    0.849E-02
DAV:   2    -0.192460991309E+03   -0.50427E-03   -0.50737E-03 11120   0.274E-01    0.143E-01
DAV:   3    -0.192460825304E+03    0.16600E-03   -0.66480E-04 10920   0.221E-01    0.835E-02
DAV:   4    -0.192460738617E+03    0.86687E-04   -0.11227E-04  5600   0.100E-01
  23 F= -.19246074E+03 E0= -.19239680E+03  d E =-.136213E-02
       N       E                     dE             d eps       ncg     rms          rms(c)
DAV:   1    -0.192461791885E+03   -0.96658E-03   -0.91903E-02  8160   0.645E-01    0.869E-02
DAV:   2    -0.192462205621E+03   -0.41374E-03   -0.44048E-03 11720   0.232E-01    0.123E-01
DAV:   3    -0.192462077766E+03    0.12785E-03   -0.58740E-04 10560   0.212E-01    0.836E-02
DAV:   4    -0.192461993111E+03    0.84655E-04   -0.10635E-04  5720   0.977E-02
  24 F= -.19246199E+03 E0= -.19239825E+03  d E =-.125449E-02
       N       E                     dE             d eps       ncg     rms          rms(c)
DAV:   1    -0.192463030633E+03   -0.95287E-03   -0.46522E-01  8160   0.144E+00    0.179E-01
DAV:   2    -0.192464948704E+03   -0.19181E-02   -0.22048E-02 10840   0.462E-01    0.229E-01
DAV:   3    -0.192464859392E+03    0.89312E-04   -0.25134E-03 12240   0.443E-01    0.225E-01
DAV:   4    -0.192464233222E+03    0.62617E-03   -0.69799E-04 10120   0.235E-01    0.629E-02
DAV:   5    -0.192464361941E+03   -0.12872E-03   -0.39724E-04  9120   0.177E-01    0.117E-01
DAV:   6    -0.192464195630E+03    0.16631E-03   -0.31128E-04  8760   0.143E-01    0.188E-02
DAV:   7    -0.192464197546E+03   -0.19166E-05   -0.48165E-05  6520   0.309E-02
  25 F= -.19246420E+03 E0= -.19240090E+03  d E =-.220444E-02
       N       E                     dE             d eps       ncg     rms          rms(c)
DAV:   1    -0.192464243524E+03   -0.47894E-04   -0.45464E-01  8160   0.142E+00    0.164E-01
DAV:   2    -0.192465944244E+03   -0.17007E-02   -0.22164E-02 10240   0.433E-01    0.141E-01
DAV:   3    -0.192466341581E+03   -0.39734E-03   -0.18284E-03 13120   0.374E-01    0.241E-01
DAV:   4    -0.192465640192E+03    0.70139E-03   -0.75603E-04 10200   0.265E-01    0.544E-02
DAV:   5    -0.192465707921E+03   -0.67729E-04   -0.26787E-04  8600   0.129E-01
  26 F= -.19246571E+03 E0= -.19240284E+03  d E =-.151037E-02
       N       E                     dE             d eps       ncg     rms          rms(c)
DAV:   1    -0.192464941556E+03    0.69864E-03   -0.78083E-02  8160   0.595E-01    0.737E-02
DAV:   2    -0.192465429435E+03   -0.48788E-03   -0.40750E-03 11640   0.234E-01    0.137E-01
DAV:   3    -0.192465199582E+03    0.22985E-03   -0.63674E-04  9960   0.199E-01    0.617E-02
DAV:   4    -0.192465161684E+03    0.37899E-04   -0.10701E-04  5680   0.882E-02
  27 F= -.19246516E+03 E0= -.19240215E+03  d E =0.546238E-03
