       N       E                     dE             d eps       ncg     rms          rms(c)
DAV:   1     0.111960362627E+04    0.11196E+04   -0.35906E+04  8200   0.577E+02
DAV:   2    -0.421789790360E+01   -0.11238E+04   -0.10831E+04 11160   0.173E+02
DAV:   3    -0.199996931729E+03   -0.19578E+03   -0.18801E+03 10960   0.817E+01
DAV:   4    -0.209027438594E+03   -0.90305E+01   -0.87425E+01 12360   0.257E+01
DAV:   5    -0.209307592067E+03   -0.28015E+00   -0.27929E+00 11440   0.331E+00    0.275E+01
DAV:   6    -0.236745034319E+03   -0.27437E+02   -0.11028E+02 12520   0.603E+01    0.595E+01
DAV:   7    -0.196524387086E+03    0.40221E+02   -0.17811E+02 13520   0.152E+02    0.200E+01
DAV:   8    -0.189488617113E+03    0.70358E+01   -0.17525E+01 11920   0.128E+01    0.127E+01
DAV:   9    -0.188171728283E+03    0.13169E+01   -0.31205E+00 12560   0.632E+00    0.916E+00
DAV:  10    -0.187032830587E+03    0.11389E+01   -0.21428E+00 13400   0.741E+00    0.302E+00
DAV:  11    -0.186942614945E+03    0.90216E-01   -0.58936E-01 12400   0.234E+00    0.233E+00
DAV:  12    -0.187061074803E+03   -0.11846E+00   -0.67425E-01 12920   0.422E+00    0.473E+00
DAV:  13    -0.186883380386E+03    0.17769E+00   -0.50569E-01 12440   0.405E+00    0.211E+00
DAV:  14    -0.186845655271E+03    0.37725E-01   -0.10861E-01 13320   0.178E+00    0.125E+00
DAV:  15    -0.186840022072E+03    0.56332E-02   -0.63330E-02 12000   0.149E+00    0.109E+00
DAV:  16    -0.186829504210E+03    0.10518E-01   -0.19498E-02 12440   0.699E-01    0.471E-01
DAV:  17    -0.186827329943E+03    0.21743E-02   -0.91032E-03 12600   0.466E-01    0.241E-01
DAV:  18    -0.186827000258E+03    0.32968E-03   -0.21121E-03 11760   0.138E-01    0.179E-01
DAV:  19    -0.186826627848E+03    0.37241E-03   -0.95388E-04 10080   0.128E-01    0.516E-02
DAV:  20    -0.186827209171E+03   -0.58132E-03   -0.61139E-04  9240   0.583E-02    0.566E-02
DAV:  21    -0.186827868418E+03   -0.65925E-03   -0.42169E-04  9160   0.595E-02    0.436E-02
DAV:  22    -0.186829058658E+03   -0.11902E-02   -0.23128E-04  7560   0.588E-02    0.402E-02
DAV:  23    -0.186830325670E+03   -0.12670E-02   -0.15128E-04  7600   0.456E-02    0.111E-02
DAV:  24    -0.186830928771E+03   -0.60310E-03   -0.31943E-05  6640   0.140E-02    0.929E-03
DAV:  25    -0.186831313988E+03   -0.38522E-03   -0.17680E-05  5600   0.139E-02    0.562E-03
DAV:  26    -0.186831529922E+03   -0.21593E-03   -0.85607E-06  6840   0.741E-03    0.216E-03
DAV:  27    -0.186831636454E+03   -0.10653E-03   -0.39854E-06  6880   0.444E-03    0.126E-03
DAV:  28    -0.186831681294E+03   -0.44840E-04   -0.20994E-06  7240   0.346E-03
   1 F= -.18683168E+03 E0= -.18665914E+03  d E =-.186832E+03
       N       E                     dE             d eps       ncg     rms          rms(c)
DAV:   1    -0.187465843658E+03   -0.63421E+00   -0.27345E+02  8160   0.351E+01    0.461E+00
DAV:   2    -0.189256761857E+03   -0.17909E+01   -0.20089E+01 12200   0.148E+01    0.776E+00
DAV:   3    -0.189391512970E+03   -0.13475E+00   -0.37122E+00 12480   0.117E+01    0.699E+00
DAV:   4    -0.188734580193E+03    0.65693E+00   -0.66648E-01 12640   0.498E+00    0.176E+00
DAV:   5    -0.188727856830E+03    0.67234E-02   -0.29362E-01 10920   0.153E+00    0.212E+00
DAV:   6    -0.188692553655E+03    0.35303E-01   -0.29766E-01 12120   0.220E+00    0.202E+00
DAV:   7    -0.188687964164E+03    0.45895E-02   -0.16885E-01 12960   0.245E+00    0.227E+00
DAV:   8    -0.188649163886E+03    0.38800E-01   -0.92278E-02 12800   0.163E+00    0.536E-01
DAV:   9    -0.188645501575E+03    0.36623E-02   -0.78949E-03 10640   0.323E-01    0.189E-01
DAV:  10    -0.188646226185E+03   -0.72461E-03   -0.42056E-03 13440   0.325E-01    0.393E-01
DAV:  11    -0.188645139689E+03    0.10865E-02   -0.27435E-03 12240   0.304E-01    0.125E-01
DAV:  12    -0.188645233691E+03   -0.94002E-04   -0.59046E-04 10840   0.978E-02
   2 F= -.18864523E+03 E0= -.18850278E+03  d E =-.181355E+01
       N       E                     dE             d eps       ncg     rms          rms(c)
DAV:   1    -0.190566194157E+03   -0.19211E+01   -0.31209E+01  9240   0.142E+01    0.446E+00
DAV:   2    -0.190551040751E+03    0.15153E-01   -0.28446E+00 11400   0.968E+00    0.743E+00
DAV:   3    -0.190040738964E+03    0.51030E+00   -0.13562E+00 12360   0.865E+00    0.414E+00
DAV:   4    -0.189834576730E+03    0.20616E+00   -0.71103E-01 12800   0.408E+00    0.247E+00
DAV:   5    -0.189746853078E+03    0.87724E-01   -0.29162E-01 11720   0.188E+00    0.829E-01
DAV:   6    -0.189732008931E+03    0.14844E-01   -0.39639E-02 10600   0.719E-01    0.310E-01
DAV:   7    -0.189733268158E+03   -0.12592E-02   -0.90033E-03 12400   0.514E-01    0.419E-01
DAV:   8    -0.189732014949E+03    0.12532E-02   -0.29913E-03 11960   0.342E-01    0.149E-01
DAV:   9    -0.189732138896E+03   -0.12395E-03   -0.98435E-04 10440   0.120E-01    0.129E-01
DAV:  10    -0.189732250066E+03   -0.11117E-03   -0.79202E-04 10400   0.158E-01    0.154E-01
DAV:  11    -0.189732074916E+03    0.17515E-03   -0.47882E-04  9560   0.147E-01    0.580E-02
DAV:  12    -0.189732058706E+03    0.16210E-04   -0.86535E-05  6240   0.493E-02
   3 F= -.18973206E+03 E0= -.18961147E+03  d E =-.108683E+01
       N       E                     dE             d eps       ncg     rms          rms(c)
DAV:   1    -0.191283085157E+03   -0.15510E+01   -0.74760E+01  8160   0.197E+01    0.461E+00
DAV:   2    -0.191182984713E+03    0.10010E+00   -0.54757E+00 13080   0.838E+00    0.526E+00
DAV:   3    -0.191198521582E+03   -0.15537E-01   -0.16315E+00 12160   0.920E+00    0.635E+00
DAV:   4    -0.190871138815E+03    0.32738E+00   -0.13838E+00 12640   0.734E+00    0.335E+00
DAV:   5    -0.190858376709E+03    0.12762E-01   -0.59858E-01 11760   0.507E+00    0.340E+00
DAV:   6    -0.190711207580E+03    0.14717E+00   -0.21742E-01 12080   0.327E+00    0.862E-01
DAV:   7    -0.190703782680E+03    0.74249E-02   -0.40965E-02 12440   0.907E-01    0.453E-01
DAV:   8    -0.190702643887E+03    0.11388E-02   -0.10205E-02 11200   0.593E-01    0.481E-01
DAV:   9    -0.190700687094E+03    0.19568E-02   -0.38193E-03 11520   0.449E-01    0.154E-01
DAV:  10    -0.190700919041E+03   -0.23195E-03   -0.10907E-03 10240   0.142E-01    0.113E-01
DAV:  11    -0.190700804599E+03    0.11444E-03   -0.79334E-04 10480   0.992E-02    0.503E-02
DAV:  12    -0.190700788282E+03    0.16317E-04   -0.15509E-04  7800   0.453E-02
   4 F= -.19070079E+03 E0= -.19059619E+03  d E =-.968730E+00
       N       E                     dE             d eps       ncg     rms          rms(c)
DAV:   1    -0.192033397640E+03   -0.13326E+01   -0.15653E+02  8160   0.280E+01    0.567E+00
DAV:   2    -0.191890276760E+03    0.14312E+00   -0.95260E+00 12280   0.935E+00    0.504E+00
DAV:   3    -0.192214692102E+03   -0.32442E+00   -0.24581E+00 11280   0.110E+01    0.940E+00
DAV:   4    -0.191586654122E+03    0.62804E+00   -0.28902E+00 12080   0.114E+01    0.406E+00
DAV:   5    -0.191522494581E+03    0.64160E-01   -0.82543E-01 12240   0.597E+00    0.375E+00
DAV:   6    -0.191334999224E+03    0.18750E+00   -0.29870E-01 12240   0.399E+00    0.953E-01
DAV:   7    -0.191328302006E+03    0.66972E-02   -0.55955E-02 12240   0.114E+00    0.565E-01
DAV:   8    -0.191325945969E+03    0.23560E-02   -0.17669E-02 11840   0.776E-01    0.575E-01
DAV:   9    -0.191322992999E+03    0.29530E-02   -0.59212E-03 11880   0.548E-01    0.186E-01
DAV:  10    -0.191323394049E+03   -0.40105E-03   -0.20707E-03 10920   0.180E-01    0.127E-01
DAV:  11    -0.191323149942E+03    0.24411E-03   -0.81531E-04 11280   0.108E-01    0.480E-02
DAV:  12    -0.191323151085E+03   -0.11433E-05   -0.11896E-04  6520   0.404E-02
   5 F= -.19132315E+03 E0= -.19122239E+03  d E =-.622363E+00
       N       E                     dE             d eps       ncg     rms          rms(c)
DAV:   1    -0.191363162762E+03   -0.40013E-01   -0.35361E+00  8160   0.396E+00    0.511E-01
DAV:   2    -0.191404541977E+03   -0.41379E-01   -0.20366E-01 12600   0.235E+00    0.182E+00
DAV:   3    -0.191374523117E+03    0.30019E-01   -0.69800E-02 12080   0.180E+00    0.442E-01
DAV:   4    -0.191374507441E+03    0.15676E-04   -0.93573E-03 11160   0.670E-01    0.456E-01
DAV:   5    -0.191372397135E+03    0.21103E-02   -0.51107E-03 10240   0.514E-01    0.194E-01
DAV:   6    -0.191372291326E+03    0.10581E-03   -0.16854E-03 10840   0.222E-01    0.164E-01
DAV:   7    -0.191372599919E+03   -0.30859E-03   -0.21337E-03 10480   0.329E-01    0.244E-01
DAV:   8    -0.191371977100E+03    0.62282E-03   -0.10204E-03  8920   0.220E-01    0.338E-02
DAV:   9    -0.191371988740E+03   -0.11640E-04   -0.90352E-05  5880   0.373E-02
   6 F= -.19137199E+03 E0= -.19126951E+03  d E =-.488377E-01
       N       E                     dE             d eps       ncg     rms          rms(c)
DAV:   1    -0.191416386866E+03   -0.44410E-01   -0.48182E+00  8160   0.461E+00    0.528E-01
DAV:   2    -0.191446602004E+03   -0.30215E-01   -0.16149E-01 12960   0.176E+00    0.161E+00
DAV:   3    -0.191424639532E+03    0.21962E-01   -0.65467E-02 12240   0.173E+00    0.555E-01
DAV:   4    -0.191422768509E+03    0.18710E-02   -0.97495E-03 11080   0.594E-01    0.395E-01
DAV:   5    -0.191421622780E+03    0.11457E-02   -0.56715E-03 10760   0.540E-01    0.279E-01
DAV:   6    -0.191421128167E+03    0.49461E-03   -0.28665E-03 10240   0.334E-01    0.196E-01
DAV:   7    -0.191421360125E+03   -0.23196E-03   -0.25538E-03 11400   0.356E-01    0.245E-01
DAV:   8    -0.191420746040E+03    0.61408E-03   -0.11788E-03  9360   0.236E-01    0.462E-02
DAV:   9    -0.191420735455E+03    0.10585E-04   -0.10095E-04  5640   0.446E-02
   7 F= -.19142074E+03 E0= -.19131702E+03  d E =-.487467E-01
       N       E                     dE             d eps       ncg     rms          rms(c)
DAV:   1    -0.191437147256E+03   -0.16401E-01   -0.47904E-01  8160   0.148E+00    0.207E-01
DAV:   2    -0.191440548059E+03   -0.34008E-02   -0.20023E-02 12160   0.700E-01    0.570E-01
DAV:   3    -0.191437586590E+03    0.29615E-02   -0.74379E-03 11520   0.606E-01    0.182E-01
DAV:   4    -0.191437690690E+03   -0.10410E-03   -0.17247E-03  9880   0.291E-01    0.215E-01
DAV:   5    -0.191437257027E+03    0.43366E-03   -0.12861E-03  9920   0.260E-01    0.104E-01
DAV:   6    -0.191437189522E+03    0.67505E-04   -0.46344E-04  8080   0.122E-01
   8 F= -.19143719E+03 E0= -.19133319E+03  d E =-.164541E-01
       N       E                     dE             d eps       ncg     rms          rms(c)
DAV:   1    -0.191454968788E+03   -0.17712E-01   -0.71064E-01  8160   0.179E+00    0.253E-01
DAV:   2    -0.191465637660E+03   -0.10669E-01   -0.40806E-02 13040   0.115E+00    0.100E+00
DAV:   3    -0.191456245924E+03    0.93917E-02   -0.19723E-02 10920   0.927E-01    0.204E-01
DAV:   4    -0.191456401192E+03   -0.15527E-03   -0.22636E-03 10080   0.330E-01    0.225E-01
DAV:   5    -0.191455858766E+03    0.54243E-03   -0.10995E-03 10120   0.234E-01    0.736E-02
DAV:   6    -0.191455882738E+03   -0.23971E-04   -0.31260E-04  7360   0.963E-02
   9 F= -.19145588E+03 E0= -.19135148E+03  d E =-.186932E-01
       N       E                     dE             d eps       ncg     rms          rms(c)
DAV:   1    -0.191494932460E+03   -0.39074E-01   -0.26926E+00  8160   0.345E+00    0.410E-01
DAV:   2    -0.191519832322E+03   -0.24900E-01   -0.97133E-02 13520   0.159E+00    0.151E+00
DAV:   3    -0.191498227098E+03    0.21605E-01   -0.40488E-02 12160   0.146E+00    0.279E-01
DAV:   4    -0.191498149270E+03    0.77828E-04   -0.33750E-03 11520   0.335E-01    0.284E-01
DAV:   5    -0.191497641033E+03    0.50824E-03   -0.30732E-03 12080   0.380E-01    0.209E-01
DAV:   6    -0.191497553058E+03    0.87975E-04   -0.17691E-03  9560   0.254E-01    0.157E-01
DAV:   7    -0.191497459883E+03    0.93176E-04   -0.12044E-03 10160   0.242E-01    0.133E-01
DAV:   8    -0.191497237061E+03    0.22282E-03   -0.34885E-04  7600   0.128E-01    0.192E-02
DAV:   9    -0.191497245436E+03   -0.83748E-05   -0.45407E-05  6360   0.251E-02
  10 F= -.19149725E+03 E0= -.19139326E+03  d E =-.413627E-01
       N       E                     dE             d eps       ncg     rms          rms(c)
DAV:   1    -0.191467730286E+03    0.29507E-01   -0.14045E+00  8160   0.252E+00    0.330E-01
DAV:   2    -0.191477806372E+03   -0.10076E-01   -0.50915E-02 13440   0.116E+00    0.973E-01
DAV:   3    -0.191468832610E+03    0.89738E-02   -0.19305E-02 11840   0.101E+00    0.273E-01
DAV:   4    -0.191468869915E+03   -0.37306E-04   -0.35202E-03 10200   0.415E-01    0.296E-01
DAV:   5    -0.191468065209E+03    0.80471E-03   -0.27830E-03 10360   0.386E-01    0.161E-01
DAV:   6    -0.191467927980E+03    0.13723E-03   -0.11499E-03 10160   0.198E-01    0.124E-01
DAV:   7    -0.191467906025E+03    0.21955E-04   -0.85034E-04  8600   0.195E-01
  11 F= -.19146791E+03 E0= -.19136361E+03  d E =0.293394E-01
       N       E                     dE             d eps       ncg     rms          rms(c)
DAV:   1    -0.191535294828E+03   -0.67367E-01   -0.76891E+00  8160   0.587E+00    0.699E-01
DAV:   2    -0.191587482770E+03   -0.52188E-01   -0.26696E-01 13120   0.254E+00    0.222E+00
DAV:   3    -0.191545165053E+03    0.42318E-01   -0.10183E-01 12240   0.224E+00    0.587E-01
DAV:   4    -0.191545184341E+03   -0.19288E-04   -0.16814E-02 12240   0.864E-01    0.665E-01
DAV:   5    -0.191541313307E+03    0.38710E-02   -0.12961E-02 11680   0.811E-01    0.368E-01
DAV:   6    -0.191541120352E+03    0.19296E-03   -0.68807E-03 11160   0.502E-01    0.346E-01
DAV:   7    -0.191540475219E+03    0.64513E-03   -0.50590E-03 11600   0.490E-01    0.232E-01
DAV:   8    -0.191539784142E+03    0.69108E-03   -0.12155E-03  9560   0.212E-01    0.447E-02
DAV:   9    -0.191539762036E+03    0.22106E-04   -0.14063E-04  6680   0.439E-02
  12 F= -.19153976E+03 E0= -.19143645E+03  d E =-.718560E-01
       N       E                     dE             d eps       ncg     rms          rms(c)
DAV:   1    -0.191549998366E+03   -0.10214E-01   -0.14665E-01  8160   0.811E-01    0.907E-02
DAV:   2    -0.191550762626E+03   -0.76426E-03   -0.49657E-03 12440   0.308E-01    0.237E-01
DAV:   3    -0.191550272109E+03    0.49052E-03   -0.14576E-03 10040   0.266E-01    0.941E-02
DAV:   4    -0.191550256101E+03    0.16008E-04   -0.29487E-04  7080   0.116E-01
  13 F= -.19155026E+03 E0= -.19144729E+03  d E =-.104941E-01
       N       E                     dE             d eps       ncg     rms          rms(c)
DAV:   1    -0.191473786230E+03    0.76486E-01   -0.69429E+00  8160   0.564E+00    0.733E-01
DAV:   2    -0.191514795027E+03   -0.41009E-01   -0.28796E-01 13320   0.261E+00    0.168E+00
DAV:   3    -0.191483710121E+03    0.31085E-01   -0.71768E-02 12240   0.197E+00    0.553E-01
DAV:   4    -0.191484061041E+03   -0.35092E-03   -0.18025E-02 11280   0.867E-01    0.684E-01
DAV:   5    -0.191480780244E+03    0.32808E-02   -0.15009E-02 11040   0.881E-01    0.454E-01
DAV:   6    -0.191478782515E+03    0.19977E-02   -0.53926E-03 12040   0.433E-01    0.161E-01
DAV:   7    -0.191478779962E+03    0.25535E-05   -0.25236E-03 12040   0.264E-01    0.207E-01
DAV:   8    -0.191478425819E+03    0.35414E-03   -0.13226E-03  9760   0.240E-01    0.965E-02
DAV:   9    -0.191478331166E+03    0.94653E-04   -0.19860E-04  6240   0.838E-02
  14 F= -.19147833E+03 E0= -.19137491E+03  d E =0.719249E-01
       N       E                     dE             d eps       ncg     rms          rms(c)
DAV:   1    -0.191402794034E+03    0.75632E-01   -0.80391E+00  8160   0.601E+00    0.629E-01
DAV:   2    -0.191432641632E+03   -0.29848E-01   -0.23041E-01 12320   0.179E+00    0.134E+00
DAV:   3    -0.191418765854E+03    0.13876E-01   -0.58631E-02 12280   0.173E+00    0.783E-01
DAV:   4    -0.191414229408E+03    0.45364E-02   -0.14010E-02 12200   0.759E-01    0.380E-01
DAV:   5    -0.191412897916E+03    0.13315E-02   -0.68076E-03 11280   0.558E-01    0.337E-01
DAV:   6    -0.191412446178E+03    0.45174E-03   -0.45247E-03 11600   0.473E-01    0.246E-01
DAV:   7    -0.191412487867E+03   -0.41689E-04   -0.30728E-03 11520   0.359E-01    0.275E-01
DAV:   8    -0.191411729689E+03    0.75818E-03   -0.14425E-03  9160   0.258E-01    0.505E-02
DAV:   9    -0.191411718363E+03    0.11326E-04   -0.11366E-04  5840   0.524E-02
  15 F= -.19141172E+03 E0= -.19130849E+03  d E =0.666128E-01
       N       E                     dE             d eps       ncg     rms          rms(c)
DAV:   1    -0.191398271758E+03    0.13458E-01   -0.27782E+00  8160   0.354E+00    0.413E-01
DAV:   2    -0.191416160918E+03   -0.17889E-01   -0.87203E-02 13280   0.152E+00    0.125E+00
DAV:   3    -0.191401745150E+03    0.14416E-01   -0.32705E-02 11440   0.131E+00    0.371E-01
DAV:   4    -0.191401645622E+03    0.99528E-04   -0.59445E-03 11360   0.528E-01    0.372E-01
DAV:   5    -0.191400402263E+03    0.12434E-02   -0.39059E-03 11200   0.461E-01    0.209E-01
DAV:   6    -0.191399972869E+03    0.42939E-03   -0.15678E-03 10320   0.222E-01    0.101E-01
DAV:   7    -0.191400301158E+03   -0.32829E-03   -0.12691E-03 10560   0.237E-01    0.216E-01
DAV:   8    -0.191399843557E+03    0.45760E-03   -0.76347E-04  8360   0.190E-01    0.307E-02
DAV:   9    -0.191399848163E+03   -0.46051E-05   -0.50224E-05  5600   0.323E-02
  16 F= -.19139985E+03 E0= -.19129698E+03  d E =0.118702E-01
       N       E                     dE             d eps       ncg     rms          rms(c)
DAV:   1    -0.191399810662E+03    0.32896E-04   -0.30629E+00  8160   0.373E+00    0.428E-01
DAV:   2    -0.191413366713E+03   -0.13556E-01   -0.85730E-02 13520   0.125E+00    0.101E+00
DAV:   3    -0.191404024088E+03    0.93426E-02   -0.31638E-02 12200   0.124E+00    0.484E-01
DAV:   4    -0.191402951058E+03    0.10730E-02   -0.76300E-03 11040   0.562E-01    0.344E-01
DAV:   5    -0.191402086909E+03    0.86415E-03   -0.39673E-03 10640   0.472E-01    0.268E-01
DAV:   6    -0.191401361584E+03    0.72533E-03   -0.20663E-03 10520   0.294E-01    0.112E-01
DAV:   7    -0.191401758453E+03   -0.39687E-03   -0.13558E-03 10440   0.251E-01    0.226E-01
DAV:   8    -0.191401247317E+03    0.51114E-03   -0.80604E-04  8480   0.208E-01    0.366E-02
DAV:   9    -0.191401246508E+03    0.80908E-06   -0.54722E-05  5560   0.363E-02
  17 F= -.19140125E+03 E0= -.19129878E+03  d E =-.139835E-02
       N       E                     dE             d eps       ncg     rms          rms(c)
DAV:   1    -0.191425645515E+03   -0.24398E-01   -0.15416E+00  8160   0.265E+00    0.355E-01
DAV:   2    -0.191438825269E+03   -0.13180E-01   -0.66281E-02 13080   0.135E+00    0.112E+00
DAV:   3    -0.191427596891E+03    0.11228E-01   -0.26637E-02 11720   0.111E+00    0.309E-01
DAV:   4    -0.191428150400E+03   -0.55351E-03   -0.54874E-03 11240   0.533E-01    0.395E-01
DAV:   5    -0.191426521251E+03    0.16291E-02   -0.35033E-03 10160   0.431E-01    0.142E-01
DAV:   6    -0.191426419562E+03    0.10169E-03   -0.11635E-03  9840   0.169E-01    0.117E-01
DAV:   7    -0.191426460113E+03   -0.40551E-04   -0.89605E-04  9680   0.214E-01
  18 F= -.19142646E+03 E0= -.19132388E+03  d E =-.252136E-01
       N       E                     dE             d eps       ncg     rms          rms(c)
DAV:   1    -0.191437336438E+03   -0.10917E-01   -0.35248E-01  8160   0.127E+00    0.147E-01
DAV:   2    -0.191439709625E+03   -0.23732E-02   -0.12104E-02 12560   0.535E-01    0.457E-01
DAV:   3    -0.191437844631E+03    0.18650E-02   -0.46243E-03 11280   0.460E-01    0.139E-01
DAV:   4    -0.191437844506E+03    0.12525E-06   -0.69697E-04  8360   0.175E-01
  19 F= -.19143784E+03 E0= -.19133551E+03  d E =-.113844E-01
       N       E                     dE             d eps       ncg     rms          rms(c)
DAV:   1    -0.191426899969E+03    0.10945E-01   -0.13597E+00  8160   0.249E+00    0.274E-01
DAV:   2    -0.191433612371E+03   -0.67124E-02   -0.37537E-02 13600   0.914E-01    0.700E-01
DAV:   3    -0.191428292450E+03    0.53199E-02   -0.11527E-02 12000   0.790E-01    0.241E-01
DAV:   4    -0.191428386465E+03   -0.94016E-04   -0.32263E-03 11000   0.361E-01    0.265E-01
DAV:   5    -0.191427856889E+03    0.52958E-03   -0.19120E-03  9840   0.316E-01    0.158E-01
DAV:   6    -0.191427565720E+03    0.29117E-03   -0.68023E-04  9080   0.164E-01    0.577E-02
DAV:   7    -0.191427705729E+03   -0.14001E-03   -0.46324E-04  8760   0.137E-01    0.130E-01
DAV:   8    -0.191427539815E+03    0.16591E-03   -0.32056E-04  7560   0.127E-01    0.289E-02
DAV:   9    -0.191427541291E+03   -0.14757E-05   -0.31301E-05  5600   0.291E-02
  20 F= -.19142754E+03 E0= -.19132447E+03  d E =0.103032E-01
       N       E                     dE             d eps       ncg     rms          rms(c)
DAV:   1    -0.191409277250E+03    0.18263E-01   -0.35026E+00  8160   0.398E+00    0.419E-01
DAV:   2    -0.191418835840E+03   -0.95586E-02   -0.83630E-02 12640   0.104E+00    0.763E-01
DAV:   3    -0.191414953964E+03    0.38819E-02   -0.24425E-02 12200   0.106E+00    0.602E-01
DAV:   4    -0.191412569080E+03    0.23849E-02   -0.92682E-03 11800   0.597E-01    0.283E-01
DAV:   5    -0.191411761170E+03    0.80791E-03   -0.31634E-03 10440   0.361E-01    0.235E-01
DAV:   6    -0.191411469876E+03    0.29129E-03   -0.21850E-03 10280   0.334E-01    0.163E-01
DAV:   7    -0.191411495713E+03   -0.25837E-04   -0.12104E-03  9920   0.229E-01    0.170E-01
DAV:   8    -0.191411201166E+03    0.29455E-03   -0.60161E-04  8160   0.178E-01    0.478E-02
DAV:   9    -0.191411184925E+03    0.16241E-04   -0.74828E-05  6000   0.505E-02
  21 F= -.19141118E+03 E0= -.19130690E+03  d E =0.163564E-01
       N       E                     dE             d eps       ncg     rms          rms(c)
DAV:   1    -0.191438272912E+03   -0.27072E-01   -0.24173E+00  8160   0.329E+00    0.378E-01
DAV:   2    -0.191454551963E+03   -0.16279E-01   -0.81623E-02 13440   0.139E+00    0.117E+00
DAV:   3    -0.191442121910E+03    0.12430E-01   -0.29152E-02 12440   0.123E+00    0.345E-01
DAV:   4    -0.191441658555E+03    0.46335E-03   -0.44739E-03 11200   0.420E-01    0.289E-01
DAV:   5    -0.191441043150E+03    0.61541E-03   -0.29902E-03 11000   0.391E-01    0.209E-01
DAV:   6    -0.191440767511E+03    0.27564E-03   -0.14931E-03  9560   0.245E-01    0.143E-01
DAV:   7    -0.191440931749E+03   -0.16424E-03   -0.14598E-03  9920   0.262E-01    0.183E-01
DAV:   8    -0.191440563087E+03    0.36866E-03   -0.61067E-04  8160   0.165E-01    0.262E-02
DAV:   9    -0.191440569300E+03   -0.62132E-05   -0.53955E-05  5520   0.294E-02
  22 F= -.19144057E+03 E0= -.19133568E+03  d E =-.293844E-01
       N       E                     dE             d eps       ncg     rms          rms(c)
DAV:   1    -0.191437213434E+03    0.33497E-02   -0.38832E-02  8160   0.419E-01    0.454E-02
DAV:   2    -0.191437323484E+03   -0.11005E-03   -0.97588E-04 12280   0.116E-01    0.882E-02
DAV:   3    -0.191437270255E+03    0.53229E-04   -0.28633E-04  7640   0.120E-01
  23 F= -.19143727E+03 E0= -.19133240E+03  d E =0.329905E-02
       N       E                     dE             d eps       ncg     rms          rms(c)
DAV:   1    -0.191405196347E+03    0.32127E-01   -0.71607E+00  8160   0.572E+00    0.647E-01
DAV:   2    -0.191435203969E+03   -0.30008E-01   -0.19672E-01 13560   0.187E+00    0.156E+00
DAV:   3    -0.191416013585E+03    0.19190E-01   -0.68728E-02 12200   0.184E+00    0.755E-01
DAV:   4    -0.191411339774E+03    0.46738E-02   -0.14741E-02 11560   0.712E-01    0.338E-01
DAV:   5    -0.191408992118E+03    0.23477E-02   -0.43684E-03 10920   0.266E-01    0.133E-01
DAV:   6    -0.191410194462E+03   -0.12023E-02   -0.35409E-03 11640   0.369E-01    0.363E-01
DAV:   7    -0.191409009454E+03    0.11850E-02   -0.27949E-03  9960   0.373E-01    0.117E-01
DAV:   8    -0.191408852867E+03    0.15659E-03   -0.37480E-04  8440   0.112E-01    0.404E-02
DAV:   9    -0.191408861385E+03   -0.85174E-05   -0.11052E-04  7560   0.755E-02
  24 F= -.19140886E+03 E0= -.19130521E+03  d E =0.284089E-01
       N       E                     dE             d eps       ncg     rms          rms(c)
DAV:   1    -0.191417399338E+03   -0.85465E-02   -0.23603E+00  8160   0.327E+00    0.349E-01
DAV:   2    -0.191422166835E+03   -0.47675E-02   -0.52660E-02 12800   0.770E-01    0.521E-01
DAV:   3    -0.191421128907E+03    0.10379E-02   -0.15380E-02 12480   0.837E-01    0.505E-01
DAV:   4    -0.191419371583E+03    0.17573E-02   -0.63870E-03 11600   0.546E-01    0.253E-01
DAV:   5    -0.191418819051E+03    0.55253E-03   -0.22623E-03 10080   0.336E-01    0.214E-01
DAV:   6    -0.191418487005E+03    0.33205E-03   -0.15689E-03 11320   0.285E-01    0.121E-01
DAV:   7    -0.191418536232E+03   -0.49227E-04   -0.70763E-04  8360   0.178E-01
  25 F= -.19141854E+03 E0= -.19131591E+03  d E =-.967485E-02
       N       E                     dE             d eps       ncg     rms          rms(c)
DAV:   1    -0.191416948759E+03    0.15382E-02   -0.13766E+01  8160   0.793E+00    0.886E-01
DAV:   2    -0.191459830896E+03   -0.42882E-01   -0.34580E-01 13520   0.233E+00    0.174E+00
DAV:   3    -0.191438561203E+03    0.21270E-01   -0.11810E-01 11400   0.238E+00    0.117E+00
DAV:   4    -0.191427460211E+03    0.11101E-01   -0.32670E-02 12560   0.115E+00    0.488E-01
DAV:   5    -0.191422764294E+03    0.46959E-02   -0.89993E-03 11000   0.430E-01    0.236E-01
DAV:   6    -0.191425836305E+03   -0.30720E-02   -0.95078E-03 12720   0.657E-01    0.606E-01
DAV:   7    -0.191422552023E+03    0.32843E-02   -0.65583E-03 11080   0.561E-01    0.141E-01
DAV:   8    -0.191422289446E+03    0.26258E-03   -0.78181E-04  9680   0.149E-01    0.744E-02
DAV:   9    -0.191422268547E+03    0.20899E-04   -0.23980E-04  8680   0.107E-01
  26 F= -.19142227E+03 E0= -.19131742E+03  d E =-.373232E-02
       N       E                     dE             d eps       ncg     rms          rms(c)
DAV:   1    -0.191433716130E+03   -0.11427E-01   -0.35228E-01  8160   0.125E+00    0.143E-01
DAV:   2    -0.191435879880E+03   -0.21637E-02   -0.11081E-02 13160   0.508E-01    0.437E-01
DAV:   3    -0.191434147733E+03    0.17321E-02   -0.39734E-03 11280   0.446E-01    0.127E-01
DAV:   4    -0.191434143266E+03    0.44674E-05   -0.62612E-04  8280   0.168E-01
  27 F= -.19143414E+03 E0= -.19132926E+03  d E =-.118747E-01
       N       E                     dE             d eps       ncg     rms          rms(c)
DAV:   1    -0.191457114186E+03   -0.22966E-01   -0.12803E+00  8160   0.243E+00    0.341E-01
DAV:   2    -0.191468473043E+03   -0.11359E-01   -0.51017E-02 13400   0.118E+00    0.112E+00
DAV:   3    -0.191457922887E+03    0.10550E-01   -0.24789E-02 11360   0.106E+00    0.283E-01
DAV:   4    -0.191457764066E+03    0.15882E-03   -0.38478E-03 11400   0.400E-01    0.286E-01
DAV:   5    -0.191457211734E+03    0.55233E-03   -0.31717E-03 10640   0.399E-01    0.212E-01
DAV:   6    -0.191456925492E+03    0.28624E-03   -0.16063E-03  9920   0.253E-01    0.150E-01
DAV:   7    -0.191456816405E+03    0.10909E-03   -0.92588E-04  8800   0.214E-01    0.105E-01
DAV:   8    -0.191456688661E+03    0.12774E-03   -0.21743E-04  6240   0.989E-02    0.209E-02
DAV:   9    -0.191456686157E+03    0.25045E-05   -0.41755E-05  6720   0.256E-02
  28 F= -.19145669E+03 E0= -.19135163E+03  d E =-.225429E-01
       N       E                     dE             d eps       ncg     rms          rms(c)
DAV:   1    -0.191476907944E+03   -0.20219E-01   -0.96606E-01  8160   0.207E+00    0.216E-01
DAV:   2    -0.191481352088E+03   -0.44441E-02   -0.27420E-02 12160   0.727E-01    0.591E-01
DAV:   3    -0.191478381288E+03    0.29708E-02   -0.84465E-03 11560   0.647E-01    0.223E-01
DAV:   4    -0.191478006942E+03    0.37435E-03   -0.11741E-03  9600   0.194E-01    0.116E-01
DAV:   5    -0.191478091615E+03   -0.84673E-04   -0.10432E-03  9520   0.212E-01    0.170E-01
DAV:   6    -0.191477903353E+03    0.18826E-03   -0.82234E-04  8240   0.193E-01    0.784E-02
DAV:   7    -0.191477862168E+03    0.41185E-04   -0.22528E-04  6000   0.880E-02
  29 F= -.19147786E+03 E0= -.19137329E+03  d E =-.211760E-01
       N       E                     dE             d eps       ncg     rms          rms(c)
DAV:   1    -0.191496514394E+03   -0.18611E-01   -0.79451E-01  8160   0.187E+00    0.199E-01
DAV:   2    -0.191501235514E+03   -0.47211E-02   -0.24092E-02 12360   0.729E-01    0.636E-01
DAV:   3    -0.191497630933E+03    0.36046E-02   -0.81360E-03 11480   0.637E-01    0.166E-01
DAV:   4    -0.191497545197E+03    0.85736E-04   -0.84906E-04  9840   0.174E-01
  30 F= -.19149755E+03 E0= -.19139365E+03  d E =-.196830E-01
       N       E                     dE             d eps       ncg     rms          rms(c)
DAV:   1    -0.191435715028E+03    0.61916E-01   -0.70801E+00  8160   0.559E+00    0.588E-01
DAV:   2    -0.191488099754E+03   -0.52385E-01   -0.22424E-01 12840   0.237E+00    0.215E+00
DAV:   3    -0.191445421527E+03    0.42678E-01   -0.81913E-02 12360   0.206E+00    0.435E-01
DAV:   4    -0.191446328169E+03   -0.90664E-03   -0.99106E-03 11240   0.669E-01    0.570E-01
DAV:   5    -0.191443361116E+03    0.29671E-02   -0.85847E-03 11840   0.643E-01    0.254E-01
DAV:   6    -0.191444153703E+03   -0.79259E-03   -0.44747E-03 10920   0.438E-01    0.367E-01
DAV:   7    -0.191442936249E+03    0.12175E-02   -0.31408E-03 10360   0.387E-01    0.116E-01
DAV:   8    -0.191442724071E+03    0.21218E-03   -0.51459E-04  9200   0.114E-01    0.271E-02
DAV:   9    -0.191442723346E+03    0.72535E-06   -0.81580E-05  7960   0.347E-02
  31 F= -.19144272E+03 E0= -.19133708E+03  d E =0.548219E-01
       N       E                     dE             d eps       ncg     rms          rms(c)
DAV:   1    -0.191463237172E+03   -0.20513E-01   -0.12279E+00  8160   0.235E+00    0.247E-01
DAV:   2    -0.191467505808E+03   -0.42686E-02   -0.34363E-02 11760   0.718E-01    0.543E-01
DAV:   3    -0.191465535536E+03    0.19703E-02   -0.10149E-02 12000   0.693E-01    0.336E-01
DAV:   4    -0.191464521892E+03    0.10136E-02   -0.22005E-03 10760   0.283E-01    0.123E-01
DAV:   5    -0.191464580519E+03   -0.58626E-04   -0.11805E-03 10080   0.218E-01    0.172E-01
DAV:   6    -0.191464422834E+03    0.15768E-03   -0.10872E-03 10080   0.224E-01    0.114E-01
DAV:   7    -0.191464384342E+03    0.38492E-04   -0.51061E-04  8280   0.152E-01
  32 F= -.19146438E+03 E0= -.19135898E+03  d E =-.216610E-01
       N       E                     dE             d eps       ncg     rms          rms(c)
DAV:   1    -0.191483216577E+03   -0.18794E-01   -0.85045E-01  8160   0.195E+00    0.227E-01
DAV:   2    -0.191488562118E+03   -0.53455E-02   -0.27977E-02 13520   0.796E-01    0.681E-01
DAV:   3    -0.191484344642E+03    0.42175E-02   -0.97705E-03 11800   0.708E-01    0.194E-01
DAV:   4    -0.191484078347E+03    0.26629E-03   -0.11153E-03 10040   0.189E-01    0.123E-01
DAV:   5    -0.191484148383E+03   -0.70035E-04   -0.10926E-03 10760   0.220E-01    0.169E-01
DAV:   6    -0.191483954150E+03    0.19423E-03   -0.74229E-04  8200   0.177E-01    0.760E-02
DAV:   7    -0.191483941414E+03    0.12736E-04   -0.30854E-04  7160   0.117E-01
  33 F= -.19148394E+03 E0= -.19137901E+03  d E =-.195571E-01
       N       E                     dE             d eps       ncg     rms          rms(c)
DAV:   1    -0.191495890343E+03   -0.11936E-01   -0.40154E-01  8160   0.137E+00    0.179E-01
DAV:   2    -0.191497790505E+03   -0.19002E-02   -0.15487E-02 13600   0.539E-01    0.391E-01
DAV:   3    -0.191496524949E+03    0.12656E-02   -0.47347E-03 11240   0.471E-01    0.193E-01
DAV:   4    -0.191496460704E+03    0.64245E-04   -0.15772E-03  9520   0.261E-01    0.191E-01
DAV:   5    -0.191496178336E+03    0.28237E-03   -0.10707E-03  9520   0.231E-01    0.109E-01
DAV:   6    -0.191496060226E+03    0.11811E-03   -0.36000E-04  7080   0.108E-01    0.390E-02
DAV:   7    -0.191496038841E+03    0.21385E-04   -0.11023E-04  6400   0.400E-02
  34 F= -.19149604E+03 E0= -.19139098E+03  d E =-.120974E-01
       N       E                     dE             d eps       ncg     rms          rms(c)
DAV:   1    -0.191524768499E+03   -0.28708E-01   -0.19284E+00  8160   0.291E+00    0.300E-01
DAV:   2    -0.191534377110E+03   -0.96086E-02   -0.52488E-02 12440   0.107E+00    0.885E-01
DAV:   3    -0.191527247166E+03    0.71299E-02   -0.16710E-02 12160   0.927E-01    0.264E-01
DAV:   4    -0.191526848179E+03    0.39899E-03   -0.19620E-03 10000   0.262E-01    0.193E-01
DAV:   5    -0.191526807785E+03    0.40394E-04   -0.20384E-03 11280   0.309E-01    0.202E-01
DAV:   6    -0.191526579098E+03    0.22869E-03   -0.12310E-03  9640   0.217E-01    0.106E-01
DAV:   7    -0.191526562275E+03    0.16823E-04   -0.55501E-04  8680   0.172E-01
  35 F= -.19152656E+03 E0= -.19142258E+03  d E =-.305234E-01
       N       E                     dE             d eps       ncg     rms          rms(c)
DAV:   1    -0.191535788811E+03   -0.92097E-02   -0.30039E-01  8160   0.117E+00    0.123E-01
DAV:   2    -0.191536353459E+03   -0.56465E-03   -0.78614E-03 12280   0.258E-01    0.138E-01
DAV:   3    -0.191536473056E+03   -0.11960E-03   -0.18570E-03 11400   0.268E-01    0.205E-01
DAV:   4    -0.191536143771E+03    0.32929E-03   -0.92320E-04  8400   0.204E-01    0.825E-02
DAV:   5    -0.191536080042E+03    0.63728E-04   -0.22022E-04  5760   0.917E-02
  36 F= -.19153608E+03 E0= -.19143239E+03  d E =-.951777E-02
       N       E                     dE             d eps       ncg     rms          rms(c)
DAV:   1    -0.191533488633E+03    0.26551E-02   -0.50034E-02  8160   0.485E-01    0.793E-02
DAV:   2    -0.191534649322E+03   -0.11607E-02   -0.32588E-03 12040   0.348E-01    0.325E-01
DAV:   3    -0.191533512458E+03    0.11369E-02   -0.19051E-03  9680   0.312E-01    0.639E-02
DAV:   4    -0.191533512674E+03   -0.21616E-06   -0.15315E-04  5920   0.857E-02
  37 F= -.19153351E+03 E0= -.19142994E+03  d E =0.256737E-02
       N       E                     dE             d eps       ncg     rms          rms(c)
DAV:   1    -0.191566005379E+03   -0.32493E-01   -0.32642E+00  8160   0.378E+00    0.421E-01
DAV:   2    -0.191591653684E+03   -0.25648E-01   -0.10382E-01 13520   0.175E+00    0.153E+00
DAV:   3    -0.191569098158E+03    0.22556E-01   -0.40073E-02 12320   0.147E+00    0.250E-01
DAV:   4    -0.191568905990E+03    0.19217E-03   -0.29607E-03 11040   0.294E-01    0.263E-01
DAV:   5    -0.191568661706E+03    0.24428E-03   -0.30430E-03 10080   0.378E-01    0.226E-01
DAV:   6    -0.191568466587E+03    0.19512E-03   -0.15810E-03 10280   0.230E-01    0.116E-01
DAV:   7    -0.191568246883E+03    0.21970E-03   -0.56223E-04  8720   0.139E-01    0.624E-02
DAV:   8    -0.191568212147E+03    0.34736E-04   -0.11842E-04  6560   0.831E-02
  38 F= -.19156821E+03 E0= -.19146643E+03  d E =-.346995E-01
       N       E                     dE             d eps       ncg     rms          rms(c)
DAV:   1    -0.191545199955E+03    0.23047E-01   -0.12828E+00  8160   0.237E+00    0.255E-01
DAV:   2    -0.191554306980E+03   -0.91070E-02   -0.38170E-02 13120   0.102E+00    0.917E-01
DAV:   3    -0.191546350913E+03    0.79561E-02   -0.15344E-02 11600   0.872E-01    0.162E-01
DAV:   4    -0.191546400262E+03   -0.49349E-04   -0.12465E-03 10240   0.215E-01    0.183E-01
DAV:   5    -0.191546167914E+03    0.23235E-03   -0.12238E-03 10400   0.249E-01    0.125E-01
DAV:   6    -0.191546262210E+03   -0.94296E-04   -0.79422E-04  8480   0.180E-01
  39 F= -.19154626E+03 E0= -.19144355E+03  d E =0.219499E-01
       N       E                     dE             d eps       ncg     rms          rms(c)
DAV:   1    -0.191546480999E+03   -0.31308E-03   -0.28110E+00  8160   0.354E+00    0.389E-01
DAV:   2    -0.191562656767E+03   -0.16176E-01   -0.79807E-02 13600   0.141E+00    0.122E+00
DAV:   3    -0.191548861718E+03    0.13795E-01   -0.31952E-02 12280   0.122E+00    0.294E-01
DAV:   4    -0.191548885202E+03   -0.23484E-04   -0.44959E-03 11320   0.379E-01    0.310E-01
DAV:   5    -0.191548442857E+03    0.44235E-03   -0.42049E-03 11680   0.444E-01    0.273E-01
DAV:   6    -0.191547897547E+03    0.54531E-03   -0.20191E-03  9760   0.285E-01    0.132E-01
DAV:   7    -0.191548020072E+03   -0.12252E-03   -0.12045E-03 10440   0.240E-01    0.162E-01
DAV:   8    -0.191547707205E+03    0.31287E-03   -0.52654E-04  8720   0.167E-01    0.262E-02
DAV:   9    -0.191547708406E+03   -0.12010E-05   -0.50926E-05  5960   0.302E-02
  40 F= -.19154771E+03 E0= -.19144427E+03  d E =-.144620E-02
       N       E                     dE             d eps       ncg     rms          rms(c)
DAV:   1    -0.191586589449E+03   -0.38882E-01   -0.45747E+00  8160   0.449E+00    0.498E-01
DAV:   2    -0.191616730253E+03   -0.30141E-01   -0.14578E-01 13240   0.190E+00    0.161E+00
DAV:   3    -0.191591918450E+03    0.24812E-01   -0.51434E-02 12440   0.163E+00    0.342E-01
DAV:   4    -0.191590693092E+03    0.12254E-02   -0.38563E-03 10560   0.314E-01    0.227E-01
DAV:   5    -0.191591407011E+03   -0.71392E-03   -0.45111E-03 11520   0.464E-01    0.370E-01
DAV:   6    -0.191590298330E+03    0.11087E-02   -0.29730E-03 11080   0.346E-01    0.100E-01
DAV:   7    -0.191590188155E+03    0.11018E-03   -0.61025E-04  9760   0.148E-01    0.852E-02
DAV:   8    -0.191590116006E+03    0.72149E-04   -0.20264E-04  8040   0.105E-01
  41 F= -.19159012E+03 E0= -.19148862E+03  d E =-.424076E-01
       N       E                     dE             d eps       ncg     rms          rms(c)
DAV:   1    -0.191596341574E+03   -0.61534E-02   -0.66544E-02  8160   0.547E-01    0.607E-02
DAV:   2    -0.191596643405E+03   -0.30183E-03   -0.20576E-03 13240   0.185E-01    0.151E-01
DAV:   3    -0.191596446661E+03    0.19674E-03   -0.61675E-04  8640   0.175E-01    0.625E-02
DAV:   4    -0.191596423759E+03    0.22902E-04   -0.83819E-05  5440   0.586E-02
  42 F= -.19159642E+03 E0= -.19149515E+03  d E =-.630775E-02
       N       E                     dE             d eps       ncg     rms          rms(c)
DAV:   1    -0.191627181455E+03   -0.30735E-01   -0.18181E+00  8160   0.286E+00    0.311E-01
DAV:   2    -0.191635833752E+03   -0.86523E-02   -0.55943E-02 12280   0.105E+00    0.825E-01
DAV:   3    -0.191630071743E+03    0.57620E-02   -0.17348E-02 12200   0.919E-01    0.314E-01
DAV:   4    -0.191629352182E+03    0.71956E-03   -0.24754E-03 10240   0.305E-01    0.191E-01
DAV:   5    -0.191629363923E+03   -0.11741E-04   -0.22961E-03 11280   0.337E-01    0.219E-01
DAV:   6    -0.191629046881E+03    0.31704E-03   -0.16243E-03  9760   0.258E-01    0.115E-01
DAV:   7    -0.191629044926E+03    0.19553E-05   -0.68829E-04  9360   0.184E-01
  43 F= -.19162904E+03 E0= -.19152917E+03  d E =-.326212E-01
       N       E                     dE             d eps       ncg     rms          rms(c)
DAV:   1    -0.191638076945E+03   -0.90301E-02   -0.12814E-01  8160   0.776E-01    0.138E-01
DAV:   2    -0.191638773056E+03   -0.69611E-03   -0.61489E-03 11480   0.392E-01    0.293E-01
DAV:   3    -0.191638000940E+03    0.77212E-03   -0.24843E-03 11000   0.362E-01    0.132E-01
DAV:   4    -0.191637923998E+03    0.76941E-04   -0.85837E-04  8280   0.190E-01
  44 F= -.19163792E+03 E0= -.19153864E+03  d E =-.887907E-02
       N       E                     dE             d eps       ncg     rms          rms(c)
DAV:   1    -0.191692405195E+03   -0.54404E-01   -0.52203E+00  8160   0.490E+00    0.568E-01
DAV:   2    -0.191714081051E+03   -0.21676E-01   -0.16829E-01 13000   0.164E+00    0.128E+00
DAV:   3    -0.191700977482E+03    0.13104E-01   -0.54083E-02 12280   0.159E+00    0.619E-01
DAV:   4    -0.191697689678E+03    0.32878E-02   -0.10728E-02 11840   0.602E-01    0.331E-01
DAV:   5    -0.191697564517E+03    0.12516E-03   -0.71897E-03 11920   0.572E-01    0.418E-01
DAV:   6    -0.191696349058E+03    0.12155E-02   -0.57397E-03 11640   0.508E-01    0.199E-01
DAV:   7    -0.191695874027E+03    0.47503E-03   -0.14967E-03 10760   0.189E-01    0.557E-02
DAV:   8    -0.191695797458E+03    0.76570E-04   -0.18610E-04  7040   0.531E-02
  45 F= -.19169580E+03 E0= -.19159897E+03  d E =-.578735E-01
       N       E                     dE             d eps       ncg     rms          rms(c)
DAV:   1    -0.191719951461E+03   -0.24077E-01   -0.93203E-01  8160   0.205E+00    0.238E-01
DAV:   2    -0.191726046090E+03   -0.60946E-02   -0.34256E-02 13080   0.880E-01    0.684E-01
DAV:   3    -0.191721400432E+03    0.46457E-02   -0.10956E-02 11880   0.742E-01    0.193E-01
DAV:   4    -0.191721469746E+03   -0.69313E-04   -0.17874E-03  9600   0.287E-01    0.215E-01
DAV:   5    -0.191721038495E+03    0.43125E-03   -0.13073E-03 11040   0.266E-01    0.987E-02
DAV:   6    -0.191721103494E+03   -0.64999E-04   -0.62397E-04  9240   0.162E-01
  46 F= -.19172110E+03 E0= -.19162583E+03  d E =-.253060E-01
       N       E                     dE             d eps       ncg     rms          rms(c)
DAV:   1    -0.191731419103E+03   -0.10381E-01   -0.21137E-01  8160   0.989E-01    0.137E-01
DAV:   2    -0.191733401313E+03   -0.19822E-02   -0.90956E-03 12080   0.520E-01    0.407E-01
DAV:   3    -0.191731616618E+03    0.17847E-02   -0.30139E-03 11160   0.424E-01    0.944E-02
DAV:   4    -0.191731726405E+03   -0.10979E-03   -0.60107E-04  8240   0.174E-01    0.137E-01
DAV:   5    -0.191731560431E+03    0.16597E-03   -0.48804E-04  8240   0.159E-01    0.590E-02
DAV:   6    -0.191731563980E+03   -0.35493E-05   -0.16830E-04  6440   0.813E-02
  47 F= -.19173156E+03 E0= -.19163685E+03  d E =-.104605E-01
       N       E                     dE             d eps       ncg     rms          rms(c)
DAV:   1    -0.191772540070E+03   -0.40980E-01   -0.25068E+00  8160   0.339E+00    0.393E-01
DAV:   2    -0.191786827313E+03   -0.14287E-01   -0.88672E-02 13520   0.131E+00    0.105E+00
DAV:   3    -0.191776427958E+03    0.10399E-01   -0.29597E-02 12240   0.120E+00    0.327E-01
DAV:   4    -0.191775883744E+03    0.54421E-03   -0.38744E-03 11320   0.390E-01    0.292E-01
DAV:   5    -0.191775251422E+03    0.63232E-03   -0.28852E-03 12360   0.407E-01    0.181E-01
DAV:   6    -0.191775160772E+03    0.90650E-04   -0.14741E-03 10120   0.235E-01    0.131E-01
DAV:   7    -0.191775033493E+03    0.12728E-03   -0.76083E-04 10280   0.207E-01    0.104E-01
DAV:   8    -0.191774899836E+03    0.13366E-03   -0.22704E-04  7480   0.114E-01    0.215E-02
DAV:   9    -0.191774899383E+03    0.45253E-06   -0.39606E-05  6600   0.274E-02
  48 F= -.19177490E+03 E0= -.19168247E+03  d E =-.433354E-01
       N       E                     dE             d eps       ncg     rms          rms(c)
DAV:   1    -0.191790850593E+03   -0.15951E-01   -0.34527E-01  8160   0.128E+00    0.164E-01
DAV:   2    -0.191791975031E+03   -0.11244E-02   -0.12516E-02 11840   0.427E-01    0.298E-01
DAV:   3    -0.191791445273E+03    0.52976E-03   -0.36449E-03 12000   0.423E-01    0.201E-01
DAV:   4    -0.191791046487E+03    0.39879E-03   -0.98192E-04  9040   0.209E-01    0.841E-02
DAV:   5    -0.191791046118E+03    0.36875E-06   -0.57479E-04  9800   0.151E-01
  49 F= -.19179105E+03 E0= -.19169925E+03  d E =-.161467E-01
       N       E                     dE             d eps       ncg     rms          rms(c)
DAV:   1    -0.191790101748E+03    0.94474E-03   -0.84906E-02  9040   0.722E-01    0.163E-01
DAV:   2    -0.191789818333E+03    0.28342E-03   -0.52042E-03 11640   0.256E-01    0.177E-01
DAV:   3    -0.191789935298E+03   -0.11697E-03   -0.28364E-03 11440   0.367E-01    0.237E-01
DAV:   4    -0.191789420858E+03    0.51444E-03   -0.17984E-03  9760   0.288E-01    0.103E-01
DAV:   5    -0.191789308092E+03    0.11277E-03   -0.53999E-04  8440   0.126E-01    0.801E-02
DAV:   6    -0.191789265751E+03    0.42342E-04   -0.25312E-04  6880   0.120E-01
  50 F= -.19178927E+03 E0= -.19169791E+03  d E =0.178037E-02
       N       E                     dE             d eps       ncg     rms          rms(c)
DAV:   1    -0.191840341435E+03   -0.51033E-01   -0.36904E+00  8160   0.411E+00    0.443E-01
DAV:   2    -0.191855707787E+03   -0.15366E-01   -0.10938E-01 12960   0.141E+00    0.106E+00
DAV:   3    -0.191845717180E+03    0.99906E-02   -0.31366E-02 12400   0.127E+00    0.402E-01
DAV:   4    -0.191844858375E+03    0.85881E-03   -0.53634E-03 10920   0.499E-01    0.327E-01
DAV:   5    -0.191843950406E+03    0.90797E-03   -0.37449E-03 11880   0.478E-01    0.196E-01
DAV:   6    -0.191843801985E+03    0.14842E-03   -0.19104E-03 11720   0.269E-01    0.140E-01
DAV:   7    -0.191843757185E+03    0.44800E-04   -0.12228E-03 10520   0.253E-01    0.146E-01
DAV:   8    -0.191843502469E+03    0.25472E-03   -0.38654E-04  8560   0.147E-01    0.211E-02
DAV:   9    -0.191843507731E+03   -0.52619E-05   -0.46831E-05  5960   0.286E-02
  51 F= -.19184351E+03 E0= -.19175533E+03  d E =-.542420E-01
       N       E                     dE             d eps       ncg     rms          rms(c)
DAV:   1    -0.191819540667E+03    0.23962E-01   -0.64081E-01  8160   0.172E+00    0.191E-01
DAV:   2    -0.191822023138E+03   -0.24825E-02   -0.18993E-02 12680   0.566E-01    0.423E-01
DAV:   3    -0.191820470829E+03    0.15523E-02   -0.50906E-03 12520   0.527E-01    0.185E-01
DAV:   4    -0.191820249293E+03    0.22154E-03   -0.10433E-03  9880   0.206E-01    0.126E-01
DAV:   5    -0.191820127790E+03    0.12150E-03   -0.56761E-04  9200   0.190E-01    0.854E-02
DAV:   6    -0.191820081065E+03    0.46724E-04   -0.28056E-04  7560   0.105E-01
  52 F= -.19182008E+03 E0= -.19173073E+03  d E =0.234267E-01
       N       E                     dE             d eps       ncg     rms          rms(c)
DAV:   1    -0.191724285194E+03    0.95843E-01   -0.10330E+01  8160   0.690E+00    0.770E-01
DAV:   2    -0.191768791469E+03   -0.44506E-01   -0.32078E-01 13360   0.236E+00    0.180E+00
DAV:   3    -0.191741022609E+03    0.27769E-01   -0.96627E-02 12280   0.218E+00    0.729E-01
DAV:   4    -0.191738159501E+03    0.28631E-02   -0.17484E-02 12200   0.843E-01    0.567E-01
DAV:   5    -0.191735203889E+03    0.29556E-02   -0.98857E-03 11920   0.771E-01    0.325E-01
DAV:   6    -0.191734631669E+03    0.57222E-03   -0.45954E-03 12200   0.376E-01    0.164E-01
DAV:   7    -0.191734125525E+03    0.50614E-03   -0.15392E-03 11440   0.198E-01    0.102E-01
DAV:   8    -0.191734063487E+03    0.62037E-04   -0.48336E-04  9480   0.152E-01
  53 F= -.19173406E+03 E0= -.19164062E+03  d E =0.860176E-01
       N       E                     dE             d eps       ncg     rms          rms(c)
DAV:   1    -0.191680040948E+03    0.54085E-01   -0.84604E+00  8160   0.630E+00    0.781E-01
DAV:   2    -0.191728572213E+03   -0.48531E-01   -0.29801E-01 13000   0.255E+00    0.211E+00
DAV:   3    -0.191690780330E+03    0.37792E-01   -0.12833E-01 12120   0.234E+00    0.682E-01
DAV:   4    -0.191690130516E+03    0.64981E-03   -0.20822E-02 12280   0.991E-01    0.689E-01
DAV:   5    -0.191685767517E+03    0.43630E-02   -0.14225E-02 11280   0.919E-01    0.416E-01
DAV:   6    -0.191684504174E+03    0.12633E-02   -0.74113E-03 11040   0.505E-01    0.259E-01
DAV:   7    -0.191684930932E+03   -0.42676E-03   -0.47880E-03 12080   0.496E-01    0.349E-01
DAV:   8    -0.191683611189E+03    0.13197E-02   -0.20632E-03 10320   0.328E-01    0.531E-02
DAV:   9    -0.191683583022E+03    0.28167E-04   -0.16625E-04  5960   0.559E-02
  54 F= -.19168358E+03 E0= -.19158905E+03  d E =0.504805E-01
       N       E                     dE             d eps       ncg     rms          rms(c)
DAV:   1    -0.191685938257E+03   -0.23271E-02   -0.23283E+00  8160   0.330E+00    0.400E-01
DAV:   2    -0.191694143317E+03   -0.82051E-02   -0.73371E-02 12440   0.999E-01    0.741E-01
DAV:   3    -0.191689835697E+03    0.43076E-02   -0.23407E-02 12160   0.107E+00    0.462E-01
DAV:   4    -0.191687815060E+03    0.20206E-02   -0.54976E-03 11360   0.473E-01    0.188E-01
DAV:   5    -0.191687421359E+03    0.39370E-03   -0.19746E-03 11120   0.260E-01    0.165E-01
DAV:   6    -0.191687534672E+03   -0.11331E-03   -0.17835E-03 11280   0.322E-01    0.192E-01
DAV:   7    -0.191687162648E+03    0.37202E-03   -0.96020E-04  9640   0.216E-01    0.814E-02
DAV:   8    -0.191687138918E+03    0.23730E-04   -0.25667E-04  7360   0.117E-01
  55 F= -.19168714E+03 E0= -.19159465E+03  d E =-.355590E-02
       N       E                     dE             d eps       ncg     rms          rms(c)
DAV:   1    -0.191714413787E+03   -0.27251E-01   -0.22730E+00  8160   0.321E+00    0.402E-01
DAV:   2    -0.191733427625E+03   -0.19014E-01   -0.87982E-02 13600   0.153E+00    0.126E+00
DAV:   3    -0.191716972912E+03    0.16455E-01   -0.35182E-02 12200   0.137E+00    0.255E-01
DAV:   4    -0.191716157785E+03    0.81513E-03   -0.21547E-03 11200   0.219E-01    0.140E-01
DAV:   5    -0.191716490444E+03   -0.33266E-03   -0.17797E-03 11520   0.324E-01    0.230E-01
DAV:   6    -0.191716021124E+03    0.46932E-03   -0.13253E-03 10120   0.273E-01    0.101E-01
DAV:   7    -0.191715972510E+03    0.48614E-04   -0.46624E-04  8640   0.154E-01
  56 F= -.19171597E+03 E0= -.19162410E+03  d E =-.288336E-01
       N       E                     dE             d eps       ncg     rms          rms(c)
DAV:   1    -0.191739702255E+03   -0.23681E-01   -0.16494E+00  8160   0.273E+00    0.315E-01
DAV:   2    -0.191750203766E+03   -0.10502E-01   -0.60645E-02 13480   0.114E+00    0.875E-01
DAV:   3    -0.191742453708E+03    0.77501E-02   -0.18880E-02 12320   0.101E+00    0.232E-01
DAV:   4    -0.191741899467E+03    0.55424E-03   -0.14557E-03 11360   0.212E-01    0.128E-01
DAV:   5    -0.191742180177E+03   -0.28071E-03   -0.13788E-03 11520   0.284E-01    0.215E-01
DAV:   6    -0.191741814981E+03    0.36520E-03   -0.11458E-03  9800   0.238E-01    0.770E-02
DAV:   7    -0.191741748736E+03    0.66245E-04   -0.27882E-04  7200   0.103E-01
  57 F= -.19174175E+03 E0= -.19165103E+03  d E =-.257762E-01
       N       E                     dE             d eps       ncg     rms          rms(c)
DAV:   1    -0.191751929099E+03   -0.10114E-01   -0.27183E-01  8160   0.111E+00    0.133E-01
DAV:   2    -0.191753777309E+03   -0.18482E-02   -0.10214E-02 13440   0.494E-01    0.375E-01
DAV:   3    -0.191752332963E+03    0.14443E-02   -0.33989E-03 11840   0.430E-01    0.951E-02
DAV:   4    -0.191752272521E+03    0.60441E-04   -0.24885E-04  6960   0.932E-02
  58 F= -.19175227E+03 E0= -.19166209E+03  d E =-.105238E-01
       N       E                     dE             d eps       ncg     rms          rms(c)
DAV:   1    -0.191719014991E+03    0.33318E-01   -0.25330E+00  8160   0.340E+00    0.402E-01
DAV:   2    -0.191740045832E+03   -0.21031E-01   -0.98708E-02 13560   0.164E+00    0.130E+00
DAV:   3    -0.191722333336E+03    0.17712E-01   -0.39767E-02 11760   0.141E+00    0.245E-01
DAV:   4    -0.191722023146E+03    0.31019E-03   -0.27821E-03 11400   0.313E-01    0.232E-01
DAV:   5    -0.191721894527E+03    0.12862E-03   -0.24749E-03 11200   0.375E-01    0.228E-01
DAV:   6    -0.191721542678E+03    0.35185E-03   -0.15019E-03  9800   0.254E-01    0.114E-01
DAV:   7    -0.191721539018E+03    0.36605E-05   -0.77639E-04 10360   0.204E-01
  59 F= -.19172154E+03 E0= -.19163072E+03  d E =0.307335E-01
       N       E                     dE             d eps       ncg     rms          rms(c)
DAV:   1    -0.191761470092E+03   -0.39927E-01   -0.52239E+00  8160   0.485E+00    0.560E-01
DAV:   2    -0.191795407796E+03   -0.33938E-01   -0.18208E-01 13480   0.214E+00    0.156E+00
DAV:   3    -0.191768520158E+03    0.26888E-01   -0.56176E-02 12040   0.180E+00    0.398E-01
DAV:   4    -0.191767846205E+03    0.67395E-03   -0.67293E-03 11320   0.570E-01    0.369E-01
DAV:   5    -0.191766711400E+03    0.11348E-02   -0.50272E-03 12560   0.565E-01    0.240E-01
DAV:   6    -0.191766263344E+03    0.44806E-03   -0.22588E-03 11920   0.275E-01    0.113E-01
DAV:   7    -0.191766329334E+03   -0.65989E-04   -0.11572E-03 10200   0.234E-01    0.169E-01
DAV:   8    -0.191766028993E+03    0.30034E-03   -0.44448E-04  8280   0.164E-01    0.256E-02
DAV:   9    -0.191766037479E+03   -0.84857E-05   -0.53507E-05  5560   0.294E-02
  60 F= -.19176604E+03 E0= -.19167677E+03  d E =-.444985E-01
       N       E                     dE             d eps       ncg     rms          rms(c)
DAV:   1    -0.191771897579E+03   -0.58686E-02   -0.96645E-02  8160   0.663E-01    0.854E-02
DAV:   2    -0.191772687366E+03   -0.78979E-03   -0.44062E-03 13240   0.329E-01    0.247E-01
DAV:   3    -0.191772055036E+03    0.63233E-03   -0.13998E-03 10040   0.277E-01    0.583E-02
DAV:   4    -0.191772039270E+03    0.15766E-04   -0.10733E-04  5560   0.766E-02
  61 F= -.19177204E+03 E0= -.19168306E+03  d E =-.600179E-02
       N       E                     dE             d eps       ncg     rms          rms(c)
DAV:   1    -0.191800820760E+03   -0.28766E-01   -0.23113E+00  8160   0.326E+00    0.392E-01
DAV:   2    -0.191814578157E+03   -0.13757E-01   -0.84628E-02 13480   0.134E+00    0.100E+00
DAV:   3    -0.191804379965E+03    0.10198E-01   -0.25495E-02 12160   0.120E+00    0.305E-01
DAV:   4    -0.191803724368E+03    0.65560E-03   -0.33711E-03 10840   0.355E-01    0.246E-01
DAV:   5    -0.191803398376E+03    0.32599E-03   -0.27072E-03 12760   0.402E-01    0.205E-01
DAV:   6    -0.191803238024E+03    0.16035E-03   -0.16988E-03 10640   0.277E-01    0.144E-01
DAV:   7    -0.191803075586E+03    0.16244E-03   -0.87748E-04 10240   0.214E-01    0.107E-01
DAV:   8    -0.191802939309E+03    0.13628E-03   -0.22935E-04  7640   0.120E-01    0.256E-02
DAV:   9    -0.191802933967E+03    0.53419E-05   -0.36240E-05  6480   0.293E-02
  62 F= -.19180293E+03 E0= -.19171469E+03  d E =-.308947E-01
       N       E                     dE             d eps       ncg     rms          rms(c)
DAV:   1    -0.191814722474E+03   -0.11783E-01   -0.33967E-01  8160   0.124E+00    0.146E-01
DAV:   2    -0.191816779099E+03   -0.20566E-02   -0.11870E-02 12280   0.544E-01    0.383E-01
DAV:   3    -0.191815161980E+03    0.16171E-02   -0.33470E-03 11800   0.449E-01    0.106E-01
DAV:   4    -0.191815178239E+03   -0.16260E-04   -0.52983E-04  8360   0.165E-01
  63 F= -.19181518E+03 E0= -.19172700E+03  d E =-.122443E-01
       N       E                     dE             d eps       ncg     rms          rms(c)
DAV:   1    -0.191830047634E+03   -0.14886E-01   -0.55732E-01  8160   0.160E+00    0.213E-01
DAV:   2    -0.191834205572E+03   -0.41579E-02   -0.21621E-02 13480   0.755E-01    0.592E-01
DAV:   3    -0.191830657717E+03    0.35479E-02   -0.78216E-03 12000   0.670E-01    0.162E-01
DAV:   4    -0.191830531054E+03    0.12666E-03   -0.10052E-03  9600   0.198E-01    0.128E-01
DAV:   5    -0.191830528142E+03    0.29123E-05   -0.96106E-04 10880   0.242E-01
  64 F= -.19183053E+03 E0= -.19174340E+03  d E =-.153499E-01
       N       E                     dE             d eps       ncg     rms          rms(c)
DAV:   1    -0.191844564919E+03   -0.14034E-01   -0.43912E-01  8160   0.145E+00    0.204E-01
DAV:   2    -0.191846948214E+03   -0.23833E-02   -0.16122E-02 12720   0.607E-01    0.457E-01
DAV:   3    -0.191844851506E+03    0.20967E-02   -0.56944E-03 11960   0.586E-01    0.162E-01
DAV:   4    -0.191844543487E+03    0.30802E-03   -0.78144E-04 10000   0.161E-01    0.799E-02
DAV:   5    -0.191844697352E+03   -0.15386E-03   -0.59243E-04  9320   0.199E-01    0.149E-01
DAV:   6    -0.191844471943E+03    0.22541E-03   -0.45185E-04  8240   0.173E-01    0.459E-02
DAV:   7    -0.191844485036E+03   -0.13093E-04   -0.14207E-04  5960   0.896E-02
  65 F= -.19184449E+03 E0= -.19175705E+03  d E =-.139569E-01
       N       E                     dE             d eps       ncg     rms          rms(c)
DAV:   1    -0.191831434414E+03    0.13038E-01   -0.34020E-01  8160   0.125E+00    0.141E-01
DAV:   2    -0.191832966855E+03   -0.15324E-02   -0.10357E-02 12680   0.447E-01    0.323E-01
DAV:   3    -0.191831875244E+03    0.10916E-02   -0.28511E-03 11480   0.410E-01    0.117E-01
DAV:   4    -0.191831832572E+03    0.42671E-04   -0.53204E-04  8400   0.157E-01
  66 F= -.19183183E+03 E0= -.19174467E+03  d E =0.126525E-01
       N       E                     dE             d eps       ncg     rms          rms(c)
DAV:   1    -0.191856977313E+03   -0.25102E-01   -0.15951E+00  8160   0.270E+00    0.319E-01
DAV:   2    -0.191866705177E+03   -0.97279E-02   -0.58600E-02 12160   0.124E+00    0.809E-01
DAV:   3    -0.191859197959E+03    0.75072E-02   -0.14276E-02 11760   0.964E-01    0.220E-01
DAV:   4    -0.191859320607E+03   -0.12265E-03   -0.25957E-03 10480   0.384E-01    0.272E-01
DAV:   5    -0.191858635080E+03    0.68553E-03   -0.19462E-03 10120   0.347E-01    0.124E-01
DAV:   6    -0.191858607689E+03    0.27391E-04   -0.82598E-04 10320   0.183E-01
  67 F= -.19185861E+03 E0= -.19177234E+03  d E =-.267751E-01
       N       E                     dE             d eps       ncg     rms          rms(c)
DAV:   1    -0.191867392848E+03   -0.87578E-02   -0.14923E-01  8160   0.871E-01    0.141E-01
DAV:   2    -0.191869080297E+03   -0.16874E-02   -0.71018E-03 12920   0.462E-01    0.381E-01
DAV:   3    -0.191867430933E+03    0.16494E-02   -0.29349E-03 10680   0.439E-01    0.105E-01
DAV:   4    -0.191867456196E+03   -0.25263E-04   -0.54550E-04  8480   0.157E-01
  68 F= -.19186746E+03 E0= -.19178073E+03  d E =-.884851E-02
       N       E                     dE             d eps       ncg     rms          rms(c)
DAV:   1    -0.191870327316E+03   -0.28964E-02   -0.23834E-01  8160   0.113E+00    0.225E-01
DAV:   2    -0.191873251345E+03   -0.29240E-02   -0.17382E-02 12320   0.715E-01    0.557E-01
DAV:   3    -0.191870021794E+03    0.32296E-02   -0.78454E-03 11360   0.685E-01    0.172E-01
DAV:   4    -0.191869762389E+03    0.25940E-03   -0.12549E-03  9680   0.213E-01    0.126E-01
DAV:   5    -0.191869782255E+03   -0.19866E-04   -0.10080E-03 10200   0.250E-01    0.150E-01
DAV:   6    -0.191869532348E+03    0.24991E-03   -0.44841E-04  8240   0.162E-01    0.307E-02
DAV:   7    -0.191869538760E+03   -0.64126E-05   -0.85884E-05  6200   0.457E-02
  69 F= -.19186954E+03 E0= -.19178401E+03  d E =-.208256E-02
       N       E                     dE             d eps       ncg     rms          rms(c)
DAV:   1    -0.191911482309E+03   -0.41950E-01   -0.25883E+00  8160   0.364E+00    0.650E-01
DAV:   2    -0.191905783043E+03    0.56993E-02   -0.88636E-02 10960   0.797E-01    0.451E-01
DAV:   3    -0.191909502246E+03   -0.37192E-02   -0.27623E-02 11880   0.109E+00    0.869E-01
DAV:   4    -0.191901914056E+03    0.75882E-02   -0.19908E-02 12160   0.113E+00    0.346E-01
DAV:   5    -0.191900529815E+03    0.13842E-02   -0.66689E-03 11080   0.428E-01    0.222E-01
DAV:   6    -0.191900058377E+03    0.47144E-03   -0.29388E-03 11560   0.358E-01    0.163E-01
DAV:   7    -0.191899848291E+03    0.21009E-03   -0.81365E-04  9400   0.218E-01    0.836E-02
DAV:   8    -0.191899793293E+03    0.54998E-04   -0.23658E-04  6440   0.119E-01
  70 F= -.19189979E+03 E0= -.19181253E+03  d E =-.302545E-01
       N       E                     dE             d eps       ncg     rms          rms(c)
DAV:   1    -0.191922418284E+03   -0.22570E-01   -0.94270E-01  8160   0.213E+00    0.378E-01
DAV:   2    -0.191929291693E+03   -0.68734E-02   -0.50307E-02 12080   0.122E+00    0.847E-01
DAV:   3    -0.191921889150E+03    0.74025E-02   -0.16963E-02 12240   0.105E+00    0.300E-01
DAV:   4    -0.191921706195E+03    0.18295E-03   -0.43915E-03 11080   0.507E-01    0.327E-01
DAV:   5    -0.191920841776E+03    0.86442E-03   -0.35372E-03 10760   0.489E-01    0.196E-01
DAV:   6    -0.191920361467E+03    0.48031E-03   -0.14608E-03 11480   0.237E-01    0.762E-02
DAV:   7    -0.191920405526E+03   -0.44059E-04   -0.47713E-04  9320   0.166E-01
  71 F= -.19192041E+03 E0= -.19183457E+03  d E =-.206122E-01
       N       E                     dE             d eps       ncg     rms          rms(c)
DAV:   1    -0.191954864651E+03   -0.34503E-01   -0.20631E+00  8160   0.309E+00    0.370E-01
DAV:   2    -0.191962493456E+03   -0.76288E-02   -0.56862E-02 12920   0.103E+00    0.728E-01
DAV:   3    -0.191957252192E+03    0.52413E-02   -0.14189E-02 12280   0.982E-01    0.338E-01
DAV:   4    -0.191956956997E+03    0.29519E-03   -0.39985E-03 11240   0.473E-01    0.305E-01
DAV:   5    -0.191956074444E+03    0.88255E-03   -0.26227E-03 11400   0.426E-01    0.156E-01
DAV:   6    -0.191955907832E+03    0.16661E-03   -0.89980E-04 10520   0.185E-01    0.710E-02
DAV:   7    -0.191955825486E+03    0.82346E-04   -0.25553E-04  6200   0.847E-02
  72 F= -.19195583E+03 E0= -.19187085E+03  d E =-.354200E-01
       N       E                     dE             d eps       ncg     rms          rms(c)
DAV:   1    -0.191939143497E+03    0.16764E-01   -0.43486E-01  8160   0.142E+00    0.169E-01
DAV:   2    -0.191941357009E+03   -0.22135E-02   -0.12911E-02 12640   0.539E-01    0.407E-01
DAV:   3    -0.191939581605E+03    0.17754E-02   -0.37473E-03 12200   0.502E-01    0.129E-01
DAV:   4    -0.191939618880E+03   -0.37275E-04   -0.76648E-04  9240   0.205E-01
  73 F= -.19193962E+03 E0= -.19185450E+03  d E =0.162066E-01
       N       E                     dE             d eps       ncg     rms          rms(c)
DAV:   1    -0.191956999272E+03   -0.17418E-01   -0.62826E-01  8160   0.171E+00    0.233E-01
DAV:   2    -0.191961841356E+03   -0.48421E-02   -0.26040E-02 12200   0.908E-01    0.621E-01
DAV:   3    -0.191957521358E+03    0.43200E-02   -0.72176E-03 12240   0.714E-01    0.152E-01
DAV:   4    -0.191957689100E+03   -0.16774E-03   -0.13856E-03  9560   0.306E-01    0.213E-01
DAV:   5    -0.191957223200E+03    0.46590E-03   -0.10133E-03 10040   0.266E-01    0.806E-02
DAV:   6    -0.191957156421E+03    0.66779E-04   -0.34775E-04  7400   0.937E-02
  74 F= -.19195716E+03 E0= -.19187257E+03  d E =-.175375E-01
       N       E                     dE             d eps       ncg     rms          rms(c)
DAV:   1    -0.191979662564E+03   -0.22439E-01   -0.81959E-01  8160   0.196E+00    0.250E-01
DAV:   2    -0.191981607545E+03   -0.19450E-02   -0.23716E-02 12640   0.552E-01    0.363E-01
DAV:   3    -0.191980778496E+03    0.82905E-03   -0.57843E-03 11600   0.618E-01    0.290E-01
DAV:   4    -0.191980045643E+03    0.73285E-03   -0.19172E-03 11120   0.342E-01    0.163E-01
DAV:   5    -0.191979920645E+03    0.12500E-03   -0.10921E-03 10280   0.278E-01    0.139E-01
DAV:   6    -0.191979742257E+03    0.17839E-03   -0.51008E-04  8680   0.168E-01    0.510E-02
DAV:   7    -0.191979731900E+03    0.10357E-04   -0.17832E-04  7160   0.963E-02
  75 F= -.19197973E+03 E0= -.19189530E+03  d E =-.225755E-01
       N       E                     dE             d eps       ncg     rms          rms(c)
DAV:   1    -0.192035899095E+03   -0.56157E-01   -0.59953E+00  8160   0.528E+00    0.629E-01
DAV:   2    -0.192056732470E+03   -0.20833E-01   -0.16911E-01 13000   0.169E+00    0.116E+00
DAV:   3    -0.192043556700E+03    0.13176E-01   -0.37608E-02 11680   0.162E+00    0.584E-01
DAV:   4    -0.192041854786E+03    0.17019E-02   -0.10954E-02 12120   0.787E-01    0.471E-01
DAV:   5    -0.192039831175E+03    0.20236E-02   -0.67604E-03 11640   0.699E-01    0.271E-01
DAV:   6    -0.192039295193E+03    0.53598E-03   -0.26958E-03 11760   0.340E-01    0.138E-01
DAV:   7    -0.192039124602E+03    0.17059E-03   -0.11820E-03 10360   0.217E-01    0.129E-01
DAV:   8    -0.192038938024E+03    0.18658E-03   -0.44645E-04  9000   0.171E-01    0.416E-02
DAV:   9    -0.192038921964E+03    0.16061E-04   -0.60150E-05  6560   0.491E-02
  76 F= -.19203892E+03 E0= -.19195558E+03  d E =-.591901E-01
       N       E                     dE             d eps       ncg     rms          rms(c)
DAV:   1    -0.192109809565E+03   -0.70872E-01   -0.19552E+01  8160   0.955E+00    0.109E+00
DAV:   2    -0.192176932894E+03   -0.67123E-01   -0.58015E-01 12680   0.302E+00    0.190E+00
DAV:   3    -0.192138419158E+03    0.38514E-01   -0.10628E-01 11360   0.274E+00    0.931E-01
DAV:   4    -0.192133202566E+03    0.52166E-02   -0.29737E-02 12360   0.130E+00    0.746E-01
DAV:   5    -0.192128511258E+03    0.46913E-02   -0.18160E-02 12040   0.118E+00    0.479E-01
DAV:   6    -0.192126879093E+03    0.16322E-02   -0.85421E-03 12640   0.634E-01    0.258E-01
DAV:   7    -0.192126064901E+03    0.81419E-03   -0.33935E-03 11880   0.365E-01    0.210E-01
DAV:   8    -0.192125588394E+03    0.47651E-03   -0.12023E-03 10440   0.273E-01    0.629E-02
DAV:   9    -0.192125551457E+03    0.36937E-04   -0.14665E-04  6440   0.754E-02
  77 F= -.19212555E+03 E0= -.19204451E+03  d E =-.866295E-01
       N       E                     dE             d eps       ncg     rms          rms(c)
DAV:   1    -0.192143435502E+03   -0.17847E-01   -0.17237E+00  8160   0.283E+00    0.364E-01
DAV:   2    -0.192148122359E+03   -0.46869E-02   -0.76993E-02 11320   0.813E-01    0.344E-01
DAV:   3    -0.192149734553E+03   -0.16122E-02   -0.11026E-02 12280   0.842E-01    0.537E-01
DAV:   4    -0.192146337785E+03    0.33968E-02   -0.48045E-03 12400   0.606E-01    0.125E-01
DAV:   5    -0.192146229577E+03    0.10821E-03   -0.12268E-03 11280   0.163E-01    0.106E-01
DAV:   6    -0.192146271090E+03   -0.41513E-04   -0.10872E-03 11440   0.236E-01    0.132E-01
DAV:   7    -0.192146070594E+03    0.20050E-03   -0.39656E-04  8560   0.165E-01    0.396E-02
DAV:   8    -0.192146054491E+03    0.16104E-04   -0.60691E-05  6360   0.539E-02
  78 F= -.19214605E+03 E0= -.19206503E+03  d E =-.205030E-01
       N       E                     dE             d eps       ncg     rms          rms(c)
DAV:   1    -0.192154014984E+03   -0.79444E-02   -0.35328E-01  8160   0.128E+00    0.187E-01
DAV:   2    -0.192155936563E+03   -0.19216E-02   -0.18371E-02 11480   0.636E-01    0.345E-01
DAV:   3    -0.192154694265E+03    0.12423E-02   -0.32796E-03 12280   0.480E-01    0.133E-01
DAV:   4    -0.192154521987E+03    0.17228E-03   -0.75330E-04  9960   0.193E-01    0.112E-01
DAV:   5    -0.192154501582E+03    0.20404E-04   -0.65353E-04 10040   0.207E-01
  79 F= -.19215450E+03 E0= -.19207429E+03  d E =-.844709E-02
       N       E                     dE             d eps       ncg     rms          rms(c)
DAV:   1    -0.192164841958E+03   -0.10320E-01   -0.79264E-01  8160   0.190E+00    0.223E-01
DAV:   2    -0.192167763607E+03   -0.29216E-02   -0.31248E-02 11360   0.593E-01    0.321E-01
DAV:   3    -0.192167127354E+03    0.63625E-03   -0.47348E-03 11840   0.553E-01    0.235E-01
DAV:   4    -0.192166494701E+03    0.63265E-03   -0.11674E-03 10200   0.273E-01    0.999E-02
DAV:   5    -0.192166522581E+03   -0.27881E-04   -0.53580E-04  9720   0.200E-01
  80 F= -.19216652E+03 E0= -.19208714E+03  d E =-.120210E-01
       N       E                     dE             d eps       ncg     rms          rms(c)
DAV:   1    -0.192176954635E+03   -0.10460E-01   -0.89834E-01  8160   0.205E+00    0.249E-01
DAV:   2    -0.192179019654E+03   -0.20650E-02   -0.33922E-02 11240   0.484E-01    0.193E-01
DAV:   3    -0.192179763860E+03   -0.74421E-03   -0.39979E-03 12280   0.509E-01    0.330E-01
DAV:   4    -0.192178442876E+03    0.13210E-02   -0.19282E-03 11120   0.384E-01    0.970E-02
DAV:   5    -0.192178532521E+03   -0.89645E-04   -0.10016E-03 10320   0.200E-01    0.130E-01
DAV:   6    -0.192178416902E+03    0.11562E-03   -0.69364E-04 10480   0.206E-01    0.836E-02
DAV:   7    -0.192178310673E+03    0.10623E-03   -0.15525E-04  7000   0.930E-02    0.188E-02
DAV:   8    -0.192178314809E+03   -0.41358E-05   -0.39819E-05  6720   0.415E-02
  81 F= -.19217831E+03 E0= -.19209958E+03  d E =-.117922E-01
       N       E                     dE             d eps       ncg     rms          rms(c)
DAV:   1    -0.192192915133E+03   -0.14604E-01   -0.42045E+00  8160   0.439E+00    0.489E-01
DAV:   2    -0.192204560542E+03   -0.11645E-01   -0.15176E-01 11080   0.113E+00    0.498E-01
DAV:   3    -0.192205656333E+03   -0.10958E-02   -0.18412E-02 12360   0.112E+00    0.609E-01
DAV:   4    -0.192201176802E+03    0.44795E-02   -0.69755E-03 11880   0.701E-01    0.208E-01
DAV:   5    -0.192201472989E+03   -0.29619E-03   -0.31740E-03 11080   0.441E-01    0.265E-01
DAV:   6    -0.192200923657E+03    0.54933E-03   -0.26275E-03 10600   0.380E-01    0.131E-01
DAV:   7    -0.192200609170E+03    0.31449E-03   -0.65003E-04 10000   0.142E-01    0.366E-02
DAV:   8    -0.192200627086E+03   -0.17917E-04   -0.96620E-05  6640   0.810E-02
  82 F= -.19220063E+03 E0= -.19212354E+03  d E =-.223123E-01
       N       E                     dE             d eps       ncg     rms          rms(c)
DAV:   1    -0.192207883893E+03   -0.72747E-02   -0.55137E-01  8160   0.160E+00    0.188E-01
DAV:   2    -0.192209440137E+03   -0.15562E-02   -0.20724E-02 10800   0.439E-01    0.196E-01
DAV:   3    -0.192209700526E+03   -0.26039E-03   -0.27169E-03 11520   0.436E-01    0.253E-01
DAV:   4    -0.192208960352E+03    0.74017E-03   -0.10697E-03 10840   0.280E-01    0.713E-02
DAV:   5    -0.192209048810E+03   -0.88458E-04   -0.40825E-04  9080   0.166E-01
  83 F= -.19220905E+03 E0= -.19213243E+03  d E =-.842172E-02
       N       E                     dE             d eps       ncg     rms          rms(c)
DAV:   1    -0.192206801252E+03    0.21591E-02   -0.34419E-02  8160   0.433E-01    0.630E-02
DAV:   2    -0.192207231882E+03   -0.43063E-03   -0.18799E-03 12800   0.236E-01    0.172E-01
DAV:   3    -0.192206849382E+03    0.38250E-03   -0.55950E-04  8720   0.214E-01    0.460E-02
DAV:   4    -0.192206837760E+03    0.11621E-04   -0.83091E-05  5640   0.656E-02
  84 F= -.19220684E+03 E0= -.19213007E+03  d E =0.221105E-02
       N       E                     dE             d eps       ncg     rms          rms(c)
DAV:   1    -0.192212233980E+03   -0.53846E-02   -0.29746E-01  8160   0.118E+00    0.139E-01
DAV:   2    -0.192213228898E+03   -0.99492E-03   -0.10987E-02 11240   0.403E-01    0.210E-01
DAV:   3    -0.192212935984E+03    0.29291E-03   -0.16470E-03 12080   0.349E-01    0.141E-01
DAV:   4    -0.192212682467E+03    0.25352E-03   -0.36845E-04  8520   0.164E-01    0.540E-02
DAV:   5    -0.192212733192E+03   -0.50724E-04   -0.25347E-04  7440   0.134E-01
  85 F= -.19221273E+03 E0= -.19213625E+03  d E =-.589543E-02
       N       E                     dE             d eps       ncg     rms          rms(c)
DAV:   1    -0.192212149567E+03    0.53290E-03   -0.26038E-03 11360   0.162E-01    0.303E-02
DAV:   2    -0.192212270911E+03   -0.12134E-03   -0.31403E-04  8760   0.132E-01    0.985E-02
DAV:   3    -0.192212137319E+03    0.13359E-03   -0.15495E-04  7000   0.119E-01    0.203E-02
DAV:   4    -0.192212135867E+03    0.14516E-05   -0.22541E-05  5880   0.282E-02
  86 F= -.19221214E+03 E0= -.19213567E+03  d E =0.597325E-03
       N       E                     dE             d eps       ncg     rms          rms(c)
DAV:   1    -0.192211590593E+03    0.54673E-03   -0.26171E-02  8160   0.391E-01    0.101E-01
DAV:   2    -0.192211400530E+03    0.19006E-03   -0.14229E-03 10880   0.162E-01    0.104E-01
DAV:   3    -0.192211407241E+03   -0.67112E-05   -0.63607E-04  9960   0.221E-01
  87 F= -.19221141E+03 E0= -.19213544E+03  d E =0.728625E-03
       N       E                     dE             d eps       ncg     rms          rms(c)
DAV:   1    -0.192217768966E+03   -0.63684E-02   -0.40349E-01  8160   0.138E+00    0.168E-01
DAV:   2    -0.192219598125E+03   -0.18292E-02   -0.15278E-02 11520   0.490E-01    0.308E-01
DAV:   3    -0.192218665179E+03    0.93295E-03   -0.26881E-03 12080   0.457E-01    0.149E-01
DAV:   4    -0.192218459001E+03    0.20618E-03   -0.51612E-04  8640   0.174E-01    0.756E-02
DAV:   5    -0.192218442654E+03    0.16347E-04   -0.30846E-04  9480   0.146E-01
  88 F= -.19221844E+03 E0= -.19214274E+03  d E =-.703541E-02
       N       E                     dE             d eps       ncg     rms          rms(c)
DAV:   1    -0.192219146385E+03   -0.68738E-03   -0.38150E-03  8200   0.178E-01    0.526E-02
DAV:   2    -0.192219412669E+03   -0.26628E-03   -0.87018E-04 11200   0.194E-01    0.139E-01
DAV:   3    -0.192219112123E+03    0.30055E-03   -0.46722E-04  9360   0.175E-01    0.338E-02
DAV:   4    -0.192219103394E+03    0.87290E-05   -0.39232E-05  5680   0.419E-02
  89 F= -.19221910E+03 E0= -.19214352E+03  d E =-.660740E-03
       N       E                     dE             d eps       ncg     rms          rms(c)
DAV:   1    -0.192219833092E+03   -0.72097E-03   -0.52220E-03  8160   0.165E-01    0.430E-02
DAV:   2    -0.192220002996E+03   -0.16990E-03   -0.53131E-04  9280   0.181E-01    0.128E-01
DAV:   3    -0.192219801406E+03    0.20159E-03   -0.28075E-04  8080   0.151E-01    0.212E-02
DAV:   4    -0.192219803691E+03   -0.22844E-05   -0.34415E-05  5760   0.403E-02
  90 F= -.19221980E+03 E0= -.19214417E+03  d E =-.700297E-03
       N       E                     dE             d eps       ncg     rms          rms(c)
DAV:   1    -0.192227316926E+03   -0.75155E-02   -0.46667E-01  8160   0.148E+00    0.177E-01
DAV:   2    -0.192228831634E+03   -0.15147E-02   -0.15960E-02 10880   0.489E-01    0.272E-01
DAV:   3    -0.192228301530E+03    0.53010E-03   -0.26767E-03 12480   0.450E-01    0.178E-01
DAV:   4    -0.192227895988E+03    0.40554E-03   -0.53077E-04  9360   0.185E-01    0.527E-02
DAV:   5    -0.192228032052E+03   -0.13606E-03   -0.40619E-04  9320   0.150E-01    0.109E-01
DAV:   6    -0.192227880669E+03    0.15138E-03   -0.28312E-04  8560   0.141E-01    0.267E-02
DAV:   7    -0.192227879361E+03    0.13077E-05   -0.36864E-05  6040   0.474E-02
  91 F= -.19222788E+03 E0= -.19215266E+03  d E =-.807567E-02
       N       E                     dE             d eps       ncg     rms          rms(c)
DAV:   1    -0.192230104273E+03   -0.22236E-02   -0.34840E-02  8160   0.404E-01    0.501E-02
DAV:   2    -0.192230201199E+03   -0.96926E-04   -0.12101E-03 10520   0.118E-01    0.671E-02
DAV:   3    -0.192230181175E+03    0.20024E-04   -0.18233E-04  8200   0.125E-01
  92 F= -.19223018E+03 E0= -.19215503E+03  d E =-.230181E-02
       N       E                     dE             d eps       ncg     rms          rms(c)
DAV:   1    -0.192230596231E+03   -0.39503E-03   -0.28249E-02  8160   0.368E-01    0.547E-02
DAV:   2    -0.192230894884E+03   -0.29865E-03   -0.15800E-03 13600   0.213E-01    0.144E-01
DAV:   3    -0.192230637823E+03    0.25706E-03   -0.42251E-04  8480   0.179E-01    0.345E-02
DAV:   4    -0.192230631863E+03    0.59600E-05   -0.43833E-05  5520   0.424E-02
  93 F= -.19223063E+03 E0= -.19215535E+03  d E =-.450688E-03
       N       E                     dE             d eps       ncg     rms          rms(c)
DAV:   1    -0.192238254422E+03   -0.76166E-02   -0.44073E-01  8160   0.143E+00    0.179E-01
DAV:   2    -0.192240255663E+03   -0.20012E-02   -0.14550E-02 11760   0.569E-01    0.367E-01
DAV:   3    -0.192238769550E+03    0.14861E-02   -0.34761E-03 12480   0.506E-01    0.131E-01
DAV:   4    -0.192238648031E+03    0.12152E-03   -0.47118E-04  8880   0.169E-01    0.930E-02
DAV:   5    -0.192238613774E+03    0.34257E-04   -0.43576E-04  9400   0.181E-01
  94 F= -.19223861E+03 E0= -.19216392E+03  d E =-.798191E-02
       N       E                     dE             d eps       ncg     rms          rms(c)
DAV:   1    -0.192239916347E+03   -0.12683E-02   -0.17542E-02  8160   0.312E-01    0.556E-02
DAV:   2    -0.192240114119E+03   -0.19777E-03   -0.11251E-03 12400   0.160E-01    0.113E-01
DAV:   3    -0.192239939862E+03    0.17426E-03   -0.35496E-04  8840   0.162E-01    0.532E-02
DAV:   4    -0.192239916976E+03    0.22887E-04   -0.93804E-05  5440   0.718E-02
  95 F= -.19223992E+03 E0= -.19216531E+03  d E =-.130320E-02
       N       E                     dE             d eps       ncg     rms          rms(c)
DAV:   1    -0.192247682771E+03   -0.77429E-02   -0.44270E-01  8160   0.143E+00    0.174E-01
DAV:   2    -0.192248898004E+03   -0.12152E-02   -0.14533E-02 11000   0.440E-01    0.237E-01
DAV:   3    -0.192248652717E+03    0.24529E-03   -0.22990E-03 12440   0.422E-01    0.193E-01
DAV:   4    -0.192248198387E+03    0.45433E-03   -0.63377E-04  9480   0.209E-01    0.566E-02
DAV:   5    -0.192248290467E+03   -0.92080E-04   -0.30703E-04  8560   0.127E-01
  96 F= -.19224829E+03 E0= -.19217404E+03  d E =-.837349E-02
       N       E                     dE             d eps       ncg     rms          rms(c)
DAV:   1    -0.192249914586E+03   -0.17162E-02   -0.19729E-02  8160   0.329E-01    0.613E-02
DAV:   2    -0.192250317630E+03   -0.40304E-03   -0.14051E-03 12400   0.247E-01    0.179E-01
DAV:   3    -0.192249908104E+03    0.40953E-03   -0.64170E-04  9000   0.220E-01    0.378E-02
DAV:   4    -0.192249905132E+03    0.29723E-05   -0.56808E-05  5480   0.490E-02
  97 F= -.19224991E+03 E0= -.19217570E+03  d E =-.161466E-02
       N       E                     dE             d eps       ncg     rms          rms(c)
DAV:   1    -0.192251798596E+03   -0.18905E-02   -0.23664E-02  8160   0.335E-01    0.557E-02
DAV:   2    -0.192251971641E+03   -0.17305E-03   -0.10920E-03 10080   0.183E-01    0.117E-01
DAV:   3    -0.192251791833E+03    0.17981E-03   -0.33984E-04  9160   0.156E-01    0.331E-02
DAV:   4    -0.192251795809E+03   -0.39757E-05   -0.41057E-05  5520   0.563E-02
  98 F= -.19225180E+03 E0= -.19217776E+03  d E =-.189068E-02
       N       E                     dE             d eps       ncg     rms          rms(c)
DAV:   1    -0.192261717816E+03   -0.99260E-02   -0.70847E-01  8160   0.181E+00    0.222E-01
DAV:   2    -0.192263788086E+03   -0.20703E-02   -0.22919E-02 11440   0.558E-01    0.331E-01
DAV:   3    -0.192262979351E+03    0.80874E-03   -0.44212E-03 12560   0.563E-01    0.224E-01
DAV:   4    -0.192262431158E+03    0.54819E-03   -0.99814E-04  9640   0.254E-01    0.916E-02
DAV:   5    -0.192262486751E+03   -0.55593E-04   -0.67490E-04 10280   0.208E-01
  99 F= -.19226249E+03 E0= -.19218896E+03  d E =-.106909E-01
       N       E                     dE             d eps       ncg     rms          rms(c)
DAV:   1    -0.192257019292E+03    0.54119E-02   -0.17377E-01  8160   0.924E-01    0.128E-01
DAV:   2    -0.192258369095E+03   -0.13498E-02   -0.72266E-03 12040   0.441E-01    0.314E-01
DAV:   3    -0.192257229485E+03    0.11396E-02   -0.21982E-03 11360   0.410E-01    0.100E-01
DAV:   4    -0.192257147457E+03    0.82028E-04   -0.36479E-04  8560   0.121E-01
 100 F= -.19225715E+03 E0= -.19218340E+03  d E =0.533929E-02
