unknown system                          
           1
     8.858915    5.110814    0.000000
    -8.855665    5.105223    0.000000
     0.000000    0.000000   30.000000
   V    Mo   W    S 
   3   3   3  18
Direct configuration=     1
   0.33333334  0.33333334  0.00000000
   0.33333334  0.00000000  0.00000000
   0.33333334  0.66666669  0.00000000
   0.66666669  0.33333334  0.00000000
   0.00000000  0.00000000  0.00000000
   0.00000000  0.66666669  0.00000000
   1.00000000  0.33333334  0.00000000
   0.66666669  0.00000000  0.00000000
   0.66666669  0.66666669  0.00000000
   0.11068511  0.22244981  0.95539999
   0.22244981  0.11068511  0.04460000
   0.11068511  0.55578315  0.95539999
   0.22244981  0.44401845  0.04460000
   0.11068511  0.88911647  0.95539999
   0.22244981  0.77735180  0.04460000
   0.44401845  0.22244981  0.95539999
   0.55578315  0.11068511  0.04460000
   0.44401845  0.55578315  0.95539999
   0.55578315  0.44401845  0.04460000
   0.44401845  0.88911647  0.95539999
   0.55578315  0.77735180  0.04460000
   0.77735180  0.22244981  0.95539999
   0.88911647  0.11068511  0.04460000
   0.77735180  0.55578315  0.95539999
   0.88911647  0.44401845  0.04460000
   0.77735180  0.88911647  0.95539999
   0.88911647  0.77735180  0.04460000
unknown system                          
           1
     8.669453    5.003343    0.000000
    -8.666687    4.998589    0.000000
     0.000000    0.000000   30.000000
   V    Mo   W    S 
   3   3   3  18
Direct configuration=     2
   0.33347770  0.33215520 -0.00004868
   0.33206702  0.00001674  0.00002580
   0.33215948  0.66673630  0.00001805
   0.66783838  0.33449582 -0.00019538
   0.00005765 -0.00147890  0.00014765
  -0.00109382  0.66699979  0.00022706
   0.99908048  0.33359604  0.00020250
   0.66760523  0.00142905 -0.00019259
   0.66909457  0.66614088 -0.00025380
   0.11505495  0.22474717  0.95200748
   0.22655188  0.11297073  0.04690342
   0.11501958  0.55670488  0.95197749
   0.22556489  0.44582817  0.04686664
   0.11553604  0.89100520  0.95194206
   0.22652566  0.77961472  0.04685985
   0.43989591  0.22016789  0.95313559
   0.55136823  0.10833308  0.04802006
   0.44085734  0.55396134  0.95318854
   0.55133763  0.44308485  0.04804416
   0.44087965  0.88725938  0.95314210
   0.55171899  0.77594578  0.04800122
   0.77789232  0.22156031  0.95066851
   0.88858912  0.11154368  0.04928515
   0.77699523  0.55583736  0.95068032
   0.88949075  0.44400852  0.04926191
   0.77661601  0.88822542  0.95074626
   0.88803356  0.77732505  0.04933852
unknown system                          
           1
     8.484507    4.901973    0.000000
    -8.481345    4.896527    0.000000
     0.000000    0.000000   30.000000
   V    Mo   W    S 
   3   3   3  18
Direct configuration=     3
   0.33347773  0.33185979 -0.00009946
   0.33169479 -0.00001698  0.00003015
   0.33181762  0.66670768  0.00002705
   0.66868601  0.33505264 -0.00017054
  -0.00041801 -0.00222159  0.00011836
  -0.00197509  0.66690344  0.00024323
   0.99834739  0.33339318  0.00021516
   0.66829358  0.00214925 -0.00014706
   0.67021330  0.66618856 -0.00026623
   0.11503314  0.22493612  0.95211038
   0.22664939  0.11302177  0.04691153
   0.11499638  0.55655346  0.95202731
   0.22538741  0.44575706  0.04678981
   0.11570158  0.89108601  0.95192094
   0.22659778  0.77969002  0.04682967
   0.43980809  0.22010143  0.95317321
   0.55139220  0.10815104  0.04793176
   0.44104411  0.55402320  0.95331367
   0.55135149  0.44325856  0.04800118
   0.44104352  0.88733680  0.95321831
   0.55190239  0.77600036  0.04782953
   0.77800864  0.22147393  0.95058829
   0.88849157  0.11165388  0.04929944
   0.77689229  0.55598558  0.95052960
   0.88962838  0.44389119  0.04935542
   0.77635896  0.88809899  0.95073051
   0.88778982  0.77717907  0.04948868
unknown system                          
           1
     8.279830    4.794064    0.000000
    -8.266147    4.770396    0.000000
     0.000000    0.000000   30.000000
   V    Mo   W    S 
   3   3   3  18
Direct configuration=     4
   0.33346366  0.33102037 -0.00027079
   0.33041177 -0.00024055  0.00003099
   0.33057563  0.66646954  0.00004464
   0.67273095  0.33739498 -0.00003011
  -0.00311677 -0.00545190 -0.00002983
  -0.00620202  0.66612679  0.00020213
   0.99469290  0.33201911  0.00014484
   0.67164614  0.00535796  0.00008111
   0.67494823  0.66680197 -0.00019062
   0.11594364  0.22556335  0.95109380
   0.22764246  0.11354364  0.04827234
   0.11588443  0.55715467  0.95079105
   0.22623788  0.44617595  0.04785515
   0.11702745  0.89162058  0.95041004
   0.22744930  0.78033853  0.04803217
   0.43894401  0.21950029  0.95201675
   0.55034540  0.10762117  0.04904698
   0.44037493  0.55358644  0.95246759
   0.55033982  0.44280953  0.04928071
   0.44019411  0.88696523  0.95216445
   0.55129640  0.77543493  0.04859038
   0.77815564  0.22165436  0.94857694
   0.88863721  0.11169275  0.05101779
   0.77708157  0.55608888  0.94825591
   0.88979747  0.44399063  0.05137329
   0.77607927  0.88795083  0.94902150
   0.88763299  0.77702444  0.05175069
unknown system                          
           1
     8.278644    4.810434    0.000000
    -8.250203    4.761191    0.000000
     0.000000    0.000000   30.000000
   V    Mo   W    S 
   3   3   3  18
Direct configuration=     5
   0.33347898  0.33030270 -0.00048779
   0.32781788 -0.00126304  0.00002416
   0.32775562  0.66540570  0.00007378
   0.68111560  0.34174901  0.00012793
  -0.00883306 -0.01212209 -0.00019538
  -0.01431359  0.66474351  0.00004337
   0.98733986  0.32930652 -0.00004687
   0.67846547  0.01224422  0.00036417
   0.68378445  0.66783746  0.00002135
   0.11612230  0.22544647  0.94995998
   0.22778403  0.11351249  0.05011342
   0.11589962  0.55778329  0.94930314
   0.22646178  0.44617037  0.04927056
   0.11769296  0.89153645  0.94838957
   0.22713156  0.78078584  0.04972113
   0.43919299  0.21918909  0.95049808
   0.54965216  0.10798573  0.05040151
   0.44069530  0.55347199  0.95139663
   0.55011607  0.44250275  0.05081537
   0.43988822  0.88716940  0.95086284
   0.55151002  0.77504596  0.04920780
   0.77805383  0.22216845  0.94562406
   0.88980698  0.11191886  0.05344625
   0.77749916  0.55583604  0.94493329
   0.89045785  0.44498317  0.05431302
   0.77559356  0.88743510  0.94670716
   0.88804487  0.77706902  0.05511135
unknown system                          
           1
     8.277800    4.810495    0.000000
    -8.249695    4.761824    0.000000
     0.000000    0.000000   30.000000
   V    Mo   W    S 
   3   3   3  18
Direct configuration=     6
   0.33375046  0.33068230 -0.00058767
   0.32636942 -0.00215366  0.00002979
   0.32588938  0.66426074  0.00015031
   0.68287287  0.34198735 -0.00002576
  -0.01017616 -0.01371137 -0.00005212
  -0.01480431  0.66507326  0.00017014
   0.98561131  0.32888523  0.00012887
   0.68069074  0.01477923  0.00027820
   0.68521701  0.66774743 -0.00007045
   0.11486301  0.22451992  0.95015822
   0.22694513  0.11297244  0.05009751
   0.11468479  0.55753275  0.94923971
   0.22554022  0.44559236  0.04925566
   0.11655094  0.89079120  0.94825457
   0.22600370  0.78046913  0.04977373
   0.44024272  0.21954784  0.95062871
   0.55057806  0.10900988  0.05030101
   0.44194115  0.55405886  0.95154264
   0.55132002  0.44279808  0.05079910
   0.44067972  0.88778460  0.95103138
   0.55278261  0.77555001  0.04878585
   0.77783644  0.22240903  0.94503530
   0.89074548  0.11216539  0.05374852
   0.77733108  0.55540008  0.94445697
   0.89130882  0.44590962  0.05468133
   0.77500342  0.88696381  0.94653166
   0.88843641  0.77718897  0.05565673
unknown system                          
           1
     8.282095    4.816889    0.000000
    -8.251158    4.763307    0.000000
     0.000000    0.000000   30.000000
   V    Mo   W    S 
   3   3   3  18
Direct configuration=     7
   0.33440932  0.33128041 -0.00072686
   0.32464667 -0.00318238 -0.00001883
   0.32347963  0.66278843  0.00019349
   0.68476136  0.34234921 -0.00006429
  -0.01157942 -0.01548683  0.00000043
  -0.01531787  0.66533208  0.00013921
   0.98377030  0.32861435  0.00014026
   0.68310679  0.01757287  0.00024864
   0.68688444  0.66750522 -0.00001108
   0.11402254  0.22392552  0.95047713
   0.22636029  0.11264874  0.05002644
   0.11393485  0.55733470  0.94922145
   0.22485739  0.44514087  0.04923675
   0.11578266  0.89036766  0.94819992
   0.22532766  0.78029828  0.04985488
   0.44096154  0.21974925  0.95082364
   0.55122817  0.10968195  0.05012343
   0.44277563  0.55455287  0.95172600
   0.55216126  0.44288557  0.05070344
   0.44131246  0.88818117  0.95131972
   0.55359310  0.77602920  0.04824268
   0.77811395  0.22275918  0.94458779
   0.89127454  0.11229121  0.05396147
   0.77756598  0.55524532  0.94419057
   0.89174755  0.44651365  0.05493647
   0.77468392  0.88678412  0.94646952
   0.88834973  0.77705182  0.05599763
unknown system                          
           1
     8.285721    4.822096    0.000000
    -8.252383    4.764350    0.000000
     0.000000    0.000000   30.000000
   V    Mo   W    S 
   3   3   3  18
Direct configuration=     8
   0.33501691  0.33174542 -0.00082912
   0.32352064 -0.00383177 -0.00002920
   0.32184352  0.66178852  0.00024951
   0.68565249  0.34249526 -0.00010359
  -0.01222730 -0.01643127  0.00004734
  -0.01530245  0.66560096  0.00017206
   0.98299042  0.32864405  0.00019397
   0.68435288  0.01906564  0.00021958
   0.68757548  0.66722498 -0.00001321
   0.11363755  0.22366036  0.95067902
   0.22611318  0.11252539  0.04997038
   0.11359698  0.55721815  0.94915392
   0.22455751  0.44493527  0.04922318
   0.11542635  0.89021143  0.94813862
   0.22509570  0.78026285  0.04990948
   0.44127132  0.21980562  0.95093832
   0.55151020  0.10996801  0.05001649
   0.44312269  0.55481407  0.95183838
   0.55255067  0.44288106  0.05067730
   0.44159697  0.88832234  0.95150797
   0.55393653  0.77629236  0.04789499
   0.77823880  0.22294013  0.94433094
   0.89161535  0.11242607  0.05405580
   0.77766940  0.55515716  0.94405486
   0.89201087  0.44684425  0.05506474
   0.77447894  0.88666973  0.94646416
   0.88836286  0.77697839  0.05617402
unknown system                          
           1
     8.277966    4.812814    0.000000
    -8.247713    4.760423    0.000000
     0.000000    0.000000   30.000000
   V    Mo   W    S 
   3   3   3  18
Direct configuration=     9
   0.33536089  0.33200890 -0.00088586
   0.32291178 -0.00418398 -0.00003050
   0.32094356  0.66123599  0.00028601
   0.68609133  0.34255400 -0.00012979
  -0.01254039 -0.01690947  0.00007791
  -0.01523595  0.66576248  0.00020440
   0.98263325  0.32868930  0.00023706
   0.68498500  0.01983719  0.00020177
   0.68788502  0.66705121 -0.00002546
   0.11344918  0.22353530  0.95078411
   0.22600296  0.11247325  0.04994005
   0.11343406  0.55715733  0.94910541
   0.22441886  0.44484030  0.04921562
   0.11525417  0.89014248  0.94809709
   0.22500256  0.78025391  0.04993870
   0.44141320  0.21982570  0.95099817
   0.55164271  0.11010056  0.04996260
   0.44327897  0.55494546  0.95189809
   0.55273759  0.44286764  0.05067098
   0.44173113  0.88837959  0.95160820
   0.55409743  0.77643134  0.04770839
   0.77828841  0.22302683  0.94418875
   0.89180661  0.11251350  0.05410358
   0.77770962  0.55510624  0.94398191
   0.89216124  0.44702105  0.05513120
   0.77435954  0.88660445  0.94646317
   0.88839172  0.77694390  0.05626832
unknown system                          
           1
     8.288168    4.824848    0.000000
    -8.254814    4.767051    0.000000
     0.000000    0.000000   30.000000
   V    Mo   W    S 
   3   3   3  18
Direct configuration=    10
   0.33462883  0.33169721 -0.00078173
   0.32406239 -0.00372956 -0.00003420
   0.32238535  0.66211187  0.00022426
   0.68566949  0.34242486 -0.00010273
  -0.01207753 -0.01607600  0.00005473
  -0.01525413  0.66521537  0.00017262
   0.98310712  0.32861791  0.00018288
   0.68403362  0.01881326  0.00022084
   0.68726867  0.66715993 -0.00002200
   0.11374099  0.22387162  0.95059633
   0.22625293  0.11261779  0.05000881
   0.11368249  0.55728522  0.94920049
   0.22462845  0.44502980  0.04921708
   0.11550715  0.89014074  0.94814373
   0.22507717  0.78017571  0.04988199
   0.44113297  0.21980703  0.95090684
   0.55148268  0.10987460  0.05007115
   0.44296214  0.55474352  0.95180032
   0.55239178  0.44288455  0.05069627
   0.44154596  0.88825167  0.95144370
   0.55378126  0.77626915  0.04799597
   0.77820549  0.22282250  0.94438126
   0.89146194  0.11246289  0.05404138
   0.77766393  0.55521237  0.94408378
   0.89202942  0.44684292  0.05503231
   0.77446726  0.88675412  0.94643879
   0.88837662  0.77693341  0.05614504
unknown system                          
           1
     8.290395    4.827872    0.000000
    -8.255717    4.767783    0.000000
     0.000000    0.000000   30.000000
   V    Mo   W    S 
   3   3   3  18
Direct configuration=    11
   0.33651038  0.33297517 -0.00107257
   0.32100517 -0.00545705 -0.00008232
   0.31799738  0.65953913  0.00037837
   0.68757733  0.34278788 -0.00019125
  -0.01333003 -0.01835560  0.00012458
  -0.01477208  0.66604907  0.00020055
   0.98150309  0.32902427  0.00025927
   0.68680773  0.02225365  0.00013754
   0.68867740  0.66621380  0.00003626
   0.11298115  0.22337555  0.95117002
   0.22577227  0.11237807  0.04982577
   0.11299423  0.55697205  0.94895943
   0.22390987  0.44451875  0.04922023
   0.11478301  0.88989647  0.94804784
   0.22467967  0.78019169  0.05007663
   0.44174757  0.21983133  0.95122690
   0.55202574  0.11044590  0.04978488
   0.44363199  0.55540975  0.95205647
   0.55323077  0.44276676  0.05064428
   0.44217459  0.88851492  0.95195730
   0.55441210  0.77690779  0.04703972
   0.77869750  0.22335230  0.94380125
   0.89222242  0.11283607  0.05422060
   0.77808754  0.55508572  0.94382651
   0.89256620  0.44755488  0.05536325
   0.77404813  0.88654656  0.94652885
   0.88827332  0.77659956  0.05645955
unknown system                          
           1
     8.287475    4.826786    0.000000
    -8.252350    4.765919    0.000000
     0.000000    0.000000   30.000000
   V    Mo   W    S 
   3   3   3  18
Direct configuration=    12
   0.33664892  0.33295044 -0.00107323
   0.32100596 -0.00534953 -0.00005593
   0.31811511  0.65959976  0.00038882
   0.68732712  0.34279447 -0.00018053
  -0.01325264 -0.01827856  0.00013178
  -0.01477914  0.66615807  0.00022548
   0.98168690  0.32908116  0.00028332
   0.68664506  0.02198299  0.00014404
   0.68859358  0.66629421  0.00001100
   0.11303661  0.22332177  0.95115580
   0.22575765  0.11236599  0.04982665
   0.11304845  0.55697441  0.94893906
   0.22398484  0.44454444  0.04921824
   0.11483689  0.88997758  0.94802525
   0.22476534  0.78024841  0.05007483
   0.44175167  0.21981427  0.95119501
   0.55195140  0.11041827  0.04978549
   0.44360955  0.55537365  0.95204848
   0.55319632  0.44276145  0.05065837
   0.44209814  0.88849199  0.95193642
   0.55438146  0.77682499  0.04708625
   0.77863314  0.22335322  0.94383818
   0.89224208  0.11278829  0.05419217
   0.77802165  0.55507126  0.94383855
   0.89249415  0.44747522  0.05532898
   0.77409436  0.88649534  0.94653512
   0.88831987  0.77668089  0.05644230
unknown system                          
           1
     8.272381    4.821898    0.000000
    -8.234923    4.756970    0.000000
     0.000000    0.000000   30.000000
   V    Mo   W    S 
   3   3   3  18
Direct configuration=    13
   0.33641007  0.33290897 -0.00106477
   0.32100941 -0.00544473 -0.00006683
   0.31809261  0.65961374  0.00039595
   0.68752912  0.34274262 -0.00018911
  -0.01328509 -0.01827716  0.00015103
  -0.01478025  0.66611296  0.00025071
   0.98157834  0.32901996  0.00031468
   0.68675729  0.02215880  0.00014468
   0.68863850  0.66628942  0.00000661
   0.11296404  0.22332791  0.95112521
   0.22577650  0.11234116  0.04983410
   0.11301273  0.55696856  0.94891597
   0.22393712  0.44455364  0.04923618
   0.11483064  0.88994133  0.94802396
   0.22473186  0.78022383  0.05008003
   0.44176353  0.21982478  0.95120975
   0.55198713  0.11044967  0.04980492
   0.44361759  0.55541243  0.95203876
   0.55323310  0.44274479  0.05065559
   0.44213697  0.88850653  0.95192501
   0.55441411  0.77688787  0.04707042
   0.77864458  0.22335767  0.94377024
   0.89224048  0.11282804  0.05421770
   0.77802505  0.55505829  0.94381377
   0.89256231  0.44752033  0.05535566
   0.77404531  0.88649934  0.94652595
   0.88834140  0.77664370  0.05645373
unknown system                          
           1
     8.290073    4.830996    0.000000
    -8.253714    4.767977    0.000000
     0.000000    0.000000   30.000000
   V    Mo   W    S 
   3   3   3  18
Direct configuration=    14
   0.33737709  0.33389130 -0.00129235
   0.31857207 -0.00709901 -0.00012470
   0.31456679  0.65769687  0.00049272
   0.68951824  0.34296295 -0.00026395
  -0.01410627 -0.01978436  0.00023519
  -0.01423332  0.66642563  0.00026433
   0.98020115  0.32935656  0.00034723
   0.68895794  0.02508406  0.00003611
   0.68954654  0.66538504  0.00002513
   0.11234427  0.22303343  0.95150577
   0.22548599  0.11210896  0.04973892
   0.11255458  0.55672634  0.94868328
   0.22335308  0.44423204  0.04932258
   0.11437189  0.88975160  0.94791985
   0.22445114  0.78025398  0.05031452
   0.44226233  0.21979202  0.95146905
   0.55236881  0.11088489  0.04961190
   0.44400274  0.55603317  0.95220769
   0.55385247  0.44255310  0.05062019
   0.44263403  0.88865629  0.95231275
   0.55474846  0.77745165  0.04628610
   0.77920004  0.22381387  0.94329721
   0.89277660  0.11319049  0.05438572
   0.77846652  0.55502269  0.94364060
   0.89297477  0.44811804  0.05564051
   0.77371392  0.88638087  0.94661167
   0.88825259  0.77629199  0.05671190
unknown system                          
           1
     8.298140    4.839454    0.000000
    -8.260650    4.774446    0.000000
     0.000000    0.000000   30.000000
   V    Mo   W    S 
   3   3   3  18
Direct configuration=    15
   0.33845696  0.33415259 -0.00131524
   0.31864987 -0.00670046 -0.00006032
   0.31468909  0.65762013  0.00050097
   0.68863636  0.34315235 -0.00022089
  -0.01402652 -0.01981712  0.00019242
  -0.01419288  0.66661990  0.00023039
   0.98071089  0.32965827  0.00030024
   0.68848002  0.02430937  0.00006293
   0.68931388  0.66539609  0.00003563
   0.11265220  0.22305041  0.95161978
   0.22543945  0.11224273  0.04969783
   0.11269559  0.55676551  0.94875282
   0.22356658  0.44422382  0.04922023
   0.11439938  0.88987360  0.94790873
   0.22458453  0.78031056  0.05025672
   0.44217121  0.21976038  0.95139582
   0.55223178  0.11073934  0.04954504
   0.44395066  0.55586270  0.95223884
   0.55367649  0.44263077  0.05065124
   0.44245767  0.88857339  0.95234451
   0.55460231  0.77718874  0.04635827
   0.77906518  0.22375575  0.94353259
   0.89276014  0.11305727  0.05425117
   0.77839759  0.55506611  0.94372070
   0.89275288  0.44793378  0.05550289
   0.77386925  0.88634798  0.94664232
   0.88822389  0.77644050  0.05663427
unknown system                          
           1
     8.303529    4.843492    0.000000
    -8.266072    4.778527    0.000000
     0.000000    0.000000   30.000000
   V    Mo   W    S 
   3   3   3  18
Direct configuration=    16
   0.34147589  0.33577301 -0.00157043
   0.31627459 -0.00793980  0.00000369
   0.31148854  0.65576025  0.00067648
   0.68928832  0.34366947 -0.00023737
  -0.01477744 -0.02144298  0.00024462
  -0.01340252  0.66717287  0.00027004
   0.98021363  0.33064071  0.00035445
   0.68985488  0.02586537  0.00001463
   0.68967808  0.66442771  0.00008390
   0.11255755  0.22288844  0.95219241
   0.22512201  0.11225457  0.04954033
   0.11242327  0.55659037  0.94852542
   0.22328205  0.44389606  0.04915060
   0.11403089  0.88985014  0.94775183
   0.22445531  0.78036617  0.05041597
   0.44248638  0.21957283  0.95149980
   0.55230285  0.11087632  0.04926677
   0.44417270  0.55633244  0.95238890
   0.55396359  0.44252992  0.05074853
   0.44261819  0.88853499  0.95278144
   0.55454902  0.77732665  0.04565548
   0.77937295  0.22414101  0.94332977
   0.89327180  0.11335638  0.05418911
   0.77875783  0.55511702  0.94362153
   0.89290725  0.44829542  0.05559963
   0.77372281  0.88615945  0.94676037
   0.88812403  0.77619965  0.05674202
unknown system                          
           1
     8.298146    4.840418    0.000000
    -8.260518    4.775155    0.000000
     0.000000    0.000000   30.000000
   V    Mo   W    S 
   3   3   3  18
Direct configuration=    17
   0.34288712  0.33654427 -0.00169307
   0.31508187 -0.00864722  0.00002853
   0.31008889  0.65503666  0.00074764
   0.68969814  0.34393417 -0.00026194
  -0.01504643 -0.02216468  0.00026284
  -0.01298314  0.66732145  0.00025973
   0.97996478  0.33118811  0.00034429
   0.69046489  0.02661510 -0.00003719
   0.68976312  0.66389475  0.00009549
   0.11252719  0.22284020  0.95246872
   0.22499143  0.11225644  0.04947475
   0.11225170  0.55648679  0.94839799
   0.22311245  0.44371026  0.04915037
   0.11385368  0.88981245  0.94767528
   0.22433995  0.78038937  0.05053490
   0.44264736  0.21943773  0.95154567
   0.55229595  0.11094328  0.04915077
   0.44424497  0.55660305  0.95242601
   0.55410968  0.44244314  0.05081851
   0.44267829  0.88851861  0.95297789
   0.55448089  0.77741518  0.04532942
   0.77957912  0.22435274  0.94320704
   0.89351458  0.11352749  0.05419569
   0.77897701  0.55515035  0.94356952
   0.89298684  0.44850797  0.05570158
   0.77363688  0.88607100  0.94680575
   0.88806725  0.77602579  0.05682373
unknown system                          
           1
     8.305792    4.846906    0.000000
    -8.268404    4.782031    0.000000
     0.000000    0.000000   30.000000
   V    Mo   W    S 
   3   3   3  18
Direct configuration=    18
   0.34249682  0.33643847 -0.00166704
   0.31529543 -0.00867601  0.00004742
   0.31051334  0.65533822  0.00075701
   0.68978616  0.34392921 -0.00024209
  -0.01502407 -0.02200950  0.00030136
  -0.01311361  0.66704959  0.00031141
   0.98008491  0.33124349  0.00039745
   0.69039322  0.02655631 -0.00000327
   0.68968164  0.66391332  0.00011517
   0.11253925  0.22288128  0.95245640
   0.22500850  0.11221721  0.04946726
   0.11226119  0.55649712  0.94838696
   0.22309541  0.44379508  0.04913115
   0.11380769  0.88975424  0.94767294
   0.22426880  0.78032728  0.05053830
   0.44265608  0.21942485  0.95156814
   0.55232184  0.11095530  0.04913588
   0.44417976  0.55660733  0.95240853
   0.55415201  0.44240826  0.05078396
   0.44265322  0.88852344  0.95294845
   0.55448317  0.77746101  0.04533153
   0.77959861  0.22435683  0.94316743
   0.89342071  0.11356743  0.05415182
   0.77896040  0.55515159  0.94356249
   0.89300374  0.44849695  0.05569662
   0.77363995  0.88606630  0.94680966
   0.88805026  0.77593985  0.05676493
unknown system                          
           1
     8.316589    4.855208    0.000000
    -8.279934    4.791564    0.000000
     0.000000    0.000000   30.000000
   V    Mo   W    S 
   3   3   3  18
Direct configuration=    19
   0.34636643  0.33832609 -0.00194845
   0.31272149 -0.01000736  0.00011990
   0.30742079  0.65363463  0.00091954
   0.69031470  0.34455254 -0.00028864
  -0.01569752 -0.02377052  0.00029714
  -0.01222862  0.66756308  0.00025673
   0.97951522  0.33243238  0.00033769
   0.69162972  0.02798674 -0.00011319
   0.68987163  0.66279023  0.00012684
   0.11259384  0.22280193  0.95313965
   0.22469653  0.11230368  0.04928669
   0.11192727  0.55628697  0.94817406
   0.22282614  0.44335491  0.04906342
   0.11346201  0.88973449  0.94754031
   0.22408668  0.78040940  0.05072658
   0.44293229  0.21911375  0.95162349
   0.55225449  0.11101324  0.04884469
   0.44436866  0.55712032  0.95251707
   0.55437490  0.44233124  0.05096900
   0.44271309  0.88845524  0.95341530
   0.55429366  0.77751650  0.04465217
   0.77992923  0.22474697  0.94306223
   0.89395536  0.11388130  0.05409348
   0.77939024  0.55526150  0.94351343
   0.89307149  0.44886304  0.05582186
   0.77349902  0.88585356  0.94694349
   0.88792571  0.77565858  0.05690542
unknown system                          
           1
     8.322951    4.857595    0.000000
    -8.290325    4.800873    0.000000
     0.000000    0.000000   30.000000
   V    Mo   W    S 
   3   3   3  18
Direct configuration=    20
   0.35206032  0.34107255 -0.00227756
   0.30945704 -0.01194782  0.00030331
   0.30406378  0.65194974  0.00118642
   0.69083631  0.34551513 -0.00030973
  -0.01665354 -0.02609000  0.00034943
  -0.01119291  0.66771212  0.00026575
   0.97918691  0.33452202  0.00032731
   0.69301201  0.02953010 -0.00020042
   0.68982010  0.66130055  0.00018471
   0.11293407  0.22286284  0.95419147
   0.22428536  0.11251175  0.04900926
   0.11143467  0.55601908  0.94782912
   0.22248347  0.44278985  0.04890007
   0.11288121  0.88957614  0.94729754
   0.22363830  0.78038687  0.05101781
   0.44333001  0.21850059  0.95162739
   0.55198681  0.11098451  0.04840807
   0.44452644  0.55791313  0.95256464
   0.55468501  0.44218187  0.05128158
   0.44258762  0.88832018  0.95401836
   0.55389483  0.77756442  0.04375020
   0.78033116  0.22532833  0.94284301
   0.89458167  0.11440972  0.05391367
   0.77997385  0.55540721  0.94338404
   0.89310597  0.44936478  0.05601079
   0.77326527  0.88546181  0.94708854
   0.88769871  0.77506698  0.05703513
unknown system                          
           1
     8.336235    4.863387    0.000000
    -8.305460    4.809858    0.000000
     0.000000    0.000000   30.000000
   V    Mo   W    S 
   3   3   3  18
Direct configuration=    21
   0.36143088  0.34534673 -0.00274372
   0.30433532 -0.01527560  0.00062557
   0.29962281  0.65007126  0.00153391
   0.69152282  0.34726230 -0.00044212
  -0.01816928 -0.02978444  0.00034433
  -0.00984773  0.66740350  0.00019815
   0.97902132  0.33826136  0.00015869
   0.69504136  0.03177962 -0.00045662
   0.68966918  0.65922643  0.00016711
   0.11391757  0.22317836  0.95610942
   0.22365224  0.11299479  0.04848704
   0.11069050  0.55566778  0.94738341
   0.22210870  0.44192741  0.04855517
   0.11180596  0.88914651  0.94703279
   0.22269357  0.78021393  0.05150659
   0.44405825  0.21727037  0.95157606
   0.55118919  0.11066566  0.04763814
   0.44481979  0.55928317  0.95256741
   0.55532042  0.44203845  0.05188246
   0.44202954  0.88811276  0.95500175
   0.55316261  0.77756031  0.04239418
   0.78092508  0.22624245  0.94270554
   0.89547686  0.11533909  0.05353977
   0.78079603  0.55567998  0.94328889
   0.89291316  0.45004765  0.05635730
   0.77282130  0.88470563  0.94735497
   0.88720701  0.77384901  0.05723370
unknown system                          
           1
     8.331788    4.859553    0.000000
    -8.302145    4.807976    0.000000
     0.000000    0.000000   30.000000
   V    Mo   W    S 
   3   3   3  18
Direct configuration=    22
   0.36293452  0.34584808 -0.00274502
   0.30354748 -0.01592279  0.00074983
   0.29943452  0.65016219  0.00159242
   0.69134596  0.34770870 -0.00039738
  -0.01838765 -0.03021337  0.00043589
  -0.00985036  0.66690568  0.00029309
   0.97964687  0.33924177  0.00022247
   0.69531401  0.03185421 -0.00045422
   0.68938796  0.65902311  0.00021730
   0.11454359  0.22340273  0.95659063
   0.22358229  0.11332149  0.04835594
   0.11058559  0.55574166  0.94721305
   0.22228062  0.44185546  0.04844610
   0.11141230  0.88886246  0.94691301
   0.22234609  0.78001571  0.05166630
   0.44431704  0.21689360  0.95150678
   0.55073255  0.11037627  0.04741837
   0.44490743  0.55956907  0.95250153
   0.55564972  0.44209984  0.05202551
   0.44165749  0.88809918  0.95515938
   0.55298907  0.77753288  0.04219960
   0.78101671  0.22655870  0.94257740
   0.89558974  0.11560717  0.05340454
   0.78090748  0.55570943  0.94315503
   0.89272770  0.45006445  0.05641395
   0.77254747  0.88445127  0.94729008
   0.88704826  0.77344549  0.05724832
unknown system                          
           1
     8.337130    4.861685    0.000000
    -8.308482    4.811826    0.000000
     0.000000    0.000000   30.000000
   V    Mo   W    S 
   3   3   3  18
Direct configuration=    23
   0.36445334  0.34639234 -0.00281862
   0.30257446 -0.01661573  0.00081499
   0.29896650  0.65007907  0.00160308
   0.69145856  0.34814540 -0.00047240
  -0.01866285 -0.03083367  0.00040851
  -0.00982401  0.66660043  0.00026575
   0.97976069  0.33999644  0.00014669
   0.69575380  0.03223547 -0.00058439
   0.68934199  0.65872723  0.00015309
   0.11497256  0.22356844  0.95702905
   0.22352344  0.11354088  0.04823246
   0.11050379  0.55577739  0.94718266
   0.22244628  0.44184668  0.04835149
   0.11106440  0.88862719  0.94694276
   0.22206324  0.77986688  0.05175718
   0.44448653  0.21665492  0.95152823
   0.55041898  0.11014700  0.04720346
   0.44495744  0.55969033  0.95251725
   0.55592140  0.44217593  0.05213504
   0.44141855  0.88814104  0.95534340
   0.55291038  0.77756988  0.04200979
   0.78117222  0.22675952  0.94266050
   0.89568104  0.11582715  0.05331404
   0.78095179  0.55577667  0.94319964
   0.89258757  0.45004445  0.05646486
   0.77240390  0.88433813  0.94734638
   0.88690848  0.77313499  0.05726502
unknown system                          
           1
     8.336430    4.860692    0.000000
    -8.309006    4.812938    0.000000
     0.000000    0.000000   30.000000
   V    Mo   W    S 
   3   3   3  18
Direct configuration=    24
   0.36564181  0.34679034 -0.00284040
   0.30179376 -0.01718996  0.00089563
   0.29867036  0.65005132  0.00162988
   0.69146248  0.34848685 -0.00048307
  -0.01888619 -0.03125291  0.00044046
  -0.00981539  0.66628318  0.00029684
   0.98001497  0.34065182  0.00014951
   0.69609656  0.03240217 -0.00063867
   0.68923156  0.65854667  0.00015200
   0.11537680  0.22370864  0.95737725
   0.22347130  0.11377245  0.04814605
   0.11045583  0.55585087  0.94709704
   0.22264080  0.44188272  0.04827959
   0.11073422  0.88838615  0.94690984
   0.22181089  0.77971166  0.05185476
   0.44465252  0.21639871  0.95151282
   0.55010848  0.10991777  0.04701071
   0.44499666  0.55982555  0.95249832
   0.55618166  0.44224411  0.05223211
   0.44119919  0.88819240  0.95547265