 vasp.5.4.1 05Feb16 (build Jul 05 2020 17:13:04) complex                        
  
 executed on           IFC91_ompi date 2024.07.05  03:18:39
 running on   40 total cores
 distrk:  each k-point on   40 cores,    1 groups
 distr:  one band on NCORES_PER_BAND=   1 cores,   40 groups


--------------------------------------------------------------------------------------------------------


 INCAR:
 POTCAR:   PAW_PBE V 08Apr2002                    
 POTCAR:   PAW_PBE Mo 08Apr2002                   
 POTCAR:   PAW_PBE W 08Apr2002                    
 POTCAR:    PAW_PBE S 17Jan2003                   

 ----------------------------------------------------------------------------- 
|                                                                             |
|           W    W    AA    RRRRR   N    N  II  N    N   GGGG   !!!           |
|           W    W   A  A   R    R  NN   N  II  NN   N  G    G  !!!           |
|           W    W  A    A  R    R  N N  N  II  N N  N  G       !!!           |
|           W WW W  AAAAAA  RRRRR   N  N N  II  N  N N  G  GGG   !            |
|           WW  WW  A    A  R   R   N   NN  II  N   NN  G    G                |
|           W    W  A    A  R    R  N    N  II  N    N   GGGG   !!!           |
|                                                                             |
|      For optimal performance we recommend to set                            |
|        NCORE= 4 - approx SQRT( number of cores)                             |
|      NCORE specifies how many cores store one orbital (NPAR=cpu/NCORE).     |
|      This setting can  greatly improve the performance of VASP for DFT.     |
|      The default, NPAR=number of cores might be grossly inefficient         |
|      on modern multi-core architectures or massively parallel machines.     |
|      Do your own testing !!!!                                               |
|      Unfortunately you need to use the default for GW and RPA calculations. |
|      (for HF NCORE is supported but not extensively tested yet)             |
|                                                                             |
 ----------------------------------------------------------------------------- 

 POTCAR:   PAW_PBE V 08Apr2002                    
   VRHFIN =V: p6 d4 s1                                                          
   LEXCH  = PE                                                                  
   EATOM  =   170.8679 eV,   12.5584 Ry                                         
                                                                                
   TITEL  = PAW_PBE V 08Apr2002                                                 
   LULTRA =        F    use ultrasoft PP ?                                      
   IUNSCR =        1    unscreen: 0-lin 1-nonlin 2-no                           
   RPACOR =    2.000    partial core radius                                     
   POMASS =   50.941; ZVAL   =    5.000    mass and valenz                      
   RCORE  =    2.700    outmost cutoff radius                                   
   RWIGS  =    2.500; RWIGS  =    1.323    wigner-seitz radius (au A)           
   ENMAX  =  192.543; ENMIN  =  144.408 eV                                      
   RCLOC  =    1.779    cutoff for local pot                                    
   LCOR   =        T    correct aug charges                                     
   LPAW   =        T    paw PP                                                  
   EAUG   =  358.662                                                            
   DEXC   =    -.034                                                            
   RMAX   =    3.323    core radius for proj-oper                               
   RAUG   =    1.300    factor for augmentation sphere                          
   RDEP   =    2.762    radius for radial grids                                 
   QCUT   =   -3.762; QGAM   =    7.524    optimization parameters              
                                                                                
   Description                                                                  
     l     E      TYP  RCUT    TYP  RCUT                                        
     2   .000     23  2.700                                                     
     2   .000     23  2.700                                                     
     0   .000     23  2.700                                                     
     0  2.000     23  2.700                                                     
     1   .000     23  2.700                                                     
     1  2.000     23  2.700                                                     
     3   .000      7   .000                                                     
  local pseudopotential read in
  partial core-charges read in
  atomic valenz-charges read in
  non local Contribution for L=           2  read in
    real space projection operators read in
  non local Contribution for L=           2  read in
    real space projection operators read in
  non local Contribution for L=           0  read in
    real space projection operators read in
  non local Contribution for L=           0  read in
    real space projection operators read in
  non local Contribution for L=           1  read in
    real space projection operators read in
  non local Contribution for L=           1  read in
    real space projection operators read in
    PAW grid and wavefunctions read in
 
   number of l-projection  operators is LMAX  =           6
   number of lm-projection operators is LMMAX =          18
 
 POTCAR:   PAW_PBE Mo 08Apr2002                   
   VRHFIN =Mo: 4p5s4d                                                           
   LEXCH  = PE                                                                  
   EATOM  =   217.5180 eV,   15.9871 Ry                                         
                                                                                
   TITEL  = PAW_PBE Mo 08Apr2002                                                
   LULTRA =        F    use ultrasoft PP ?                                      
   IUNSCR =        1    unscreen: 0-lin 1-nonlin 2-no                           
   RPACOR =    2.200    partial core radius                                     
   POMASS =   95.940; ZVAL   =    6.000    mass and valenz                      
   RCORE  =    2.750    outmost cutoff radius                                   
   RWIGS  =    2.750; RWIGS  =    1.455    wigner-seitz radius (au A)           
   ENMAX  =  224.584; ENMIN  =  168.438 eV                                      
   RCLOC  =    2.111    cutoff for local pot                                    
   LCOR   =        T    correct aug charges                                     
   LPAW   =        T    paw PP                                                  
   EAUG   =  345.278                                                            
   DEXC   =    -.088                                                            
   RMAX   =    3.077    core radius for proj-oper                               
   RAUG   =    1.300    factor for augmentation sphere                          
   RDEP   =    2.815    radius for radial grids                                 
   QCUT   =   -4.063; QGAM   =    8.126    optimization parameters              
                                                                                
   Description                                                                  
     l     E      TYP  RCUT    TYP  RCUT                                        
     2   .000     23  2.500                                                     
     2   .000     23  2.500                                                     
     0   .000     23  2.600                                                     
     0  1.000     23  2.600                                                     
     1   .400     23  2.750                                                     
     1  2.000     23  2.750                                                     
     3   .000      7   .000                                                     
  local pseudopotential read in
  partial core-charges read in
  atomic valenz-charges read in
  non local Contribution for L=           2  read in
    real space projection operators read in
  non local Contribution for L=           2  read in
    real space projection operators read in
  non local Contribution for L=           0  read in
    real space projection operators read in
  non local Contribution for L=           0  read in
    real space projection operators read in
  non local Contribution for L=           1  read in
    real space projection operators read in
  non local Contribution for L=           1  read in
    real space projection operators read in
    PAW grid and wavefunctions read in
 
   number of l-projection  operators is LMAX  =           6
   number of lm-projection operators is LMMAX =          18
 
 POTCAR:   PAW_PBE W 08Apr2002                    
   VRHFIN =W : 6s5d                                                             
   LEXCH  = PE                                                                  
   EATOM  =   204.6100 eV,   15.0384 Ry                                         
                                                                                
   TITEL  = PAW_PBE W 08Apr2002                                                 
   LULTRA =        F    use ultrasoft PP ?                                      
   IUNSCR =        1    unscreen: 0-lin 1-nonlin 2-no                           
   RPACOR =    2.330    partial core radius                                     
   POMASS =  183.850; ZVAL   =    6.000    mass and valenz                      
   RCORE  =    2.750    outmost cutoff radius                                   
   RWIGS  =    2.750; RWIGS  =    1.455    wigner-seitz radius (au A)           
   ENMAX  =  223.057; ENMIN  =  167.293 eV                                      
   RCLOC  =    2.147    cutoff for local pot                                    
   LCOR   =        T    correct aug charges                                     
   LPAW   =        T    paw PP                                                  
   EAUG   =  373.438                                                            
   DEXC   =    -.060                                                            
   RMAX   =    3.087    core radius for proj-oper                               
   RAUG   =    1.300    factor for augmentation sphere                          
   RDEP   =    2.886    radius for radial grids                                 
   QCUT   =   -4.049; QGAM   =    8.098    optimization parameters              
                                                                                
   Description                                                                  
     l     E      TYP  RCUT    TYP  RCUT                                        
     2   .000     23  2.500                                                     
     2   .000     23  2.500                                                     
     0   .000     23  2.500                                                     
     0   .000     23  2.500                                                     
     1   .200     23  2.750                                                     
     1  2.000     23  2.750                                                     
     3   .000      7   .000                                                     
  local pseudopotential read in
  partial core-charges read in
  atomic valenz-charges read in
  non local Contribution for L=           2  read in
    real space projection operators read in
  non local Contribution for L=           2  read in
    real space projection operators read in
  non local Contribution for L=           0  read in
    real space projection operators read in
  non local Contribution for L=           0  read in
    real space projection operators read in
  non local Contribution for L=           1  read in
    real space projection operators read in
  non local Contribution for L=           1  read in
    real space projection operators read in
    PAW grid and wavefunctions read in
 
   number of l-projection  operators is LMAX  =           6
   number of lm-projection operators is LMMAX =          18
 
 POTCAR:    PAW_PBE S 17Jan2003                   
   VRHFIN =S : s2p4                                                             
   LEXCH  = PE                                                                  
   EATOM  =   276.8230 eV,   20.3459 Ry                                         
                                                                                
   TITEL  = PAW_PBE S 17Jan2003                                                 
   LULTRA =        F    use ultrasoft PP ?                                      
   IUNSCR =        1    unscreen: 0-lin 1-nonlin 2-no                           
   RPACOR =    1.500    partial core radius                                     
   POMASS =   32.066; ZVAL   =    6.000    mass and valenz                      
   RCORE  =    1.900    outmost cutoff radius                                   
   RWIGS  =    2.200; RWIGS  =    1.164    wigner-seitz radius (au A)           
   ENMAX  =  280.000; ENMIN  =  194.016 eV                                      
   ICORE  =        2    local potential                                         
   LCOR   =        T    correct aug charges                                     
   LPAW   =        T    paw PP                                                  
   EAUG   =  335.092                                                            
   DEXC   =     .000                                                            
   RMAX   =    2.867    core radius for proj-oper                               
   RAUG   =    1.300    factor for augmentation sphere                          
   RDEP   =    1.954    radius for radial grids                                 
   QCUT   =   -4.360; QGAM   =    8.721    optimization parameters              
                                                                                
   Description                                                                  
     l     E      TYP  RCUT    TYP  RCUT                                        
     0   .000     23  1.900                                                     
     0   .000     23  1.900                                                     
     1   .000     23  1.900                                                     
     1   .000     23  1.900                                                     
     2   .000     23  1.900                                                     
  local pseudopotential read in
  partial core-charges read in
  atomic valenz-charges read in
  non local Contribution for L=           0  read in
    real space projection operators read in
  non local Contribution for L=           0  read in
    real space projection operators read in
  non local Contribution for L=           1  read in
    real space projection operators read in
  non local Contribution for L=           1  read in
    real space projection operators read in
    PAW grid and wavefunctions read in
 
   number of l-projection  operators is LMAX  =           4
   number of lm-projection operators is LMMAX =           8
 

 ----------------------------------------------------------------------------- 
|                                                                             |
|  ADVICE TO THIS USER RUNNING 'VASP/VAMP'   (HEAR YOUR MASTER'S VOICE ...):  |
|                                                                             |
|      You have a (more or less) 'large supercell' and for larger cells       |
|      it might be more efficient to use real space projection operators      |
|      So try LREAL= Auto  in the INCAR   file.                               |
|      Mind: If you want to do a very accurate calculations keep the          |
|      reciprocal projection scheme          (i.e. LREAL=.FALSE.)             |
|                                                                             |
 ----------------------------------------------------------------------------- 

 PAW_PBE V 08Apr2002                    :
 energy of atom  1       EATOM= -170.8679
 kinetic energy error for atom=    0.0047 (will be added to EATOM!!)
 PAW_PBE Mo 08Apr2002                   :
 energy of atom  2       EATOM= -217.5180
 kinetic energy error for atom=    0.0215 (will be added to EATOM!!)
 PAW_PBE W 08Apr2002                    :
 energy of atom  3       EATOM= -204.6100
 kinetic energy error for atom=    0.0205 (will be added to EATOM!!)
  PAW_PBE S 17Jan2003                   :
 energy of atom  4       EATOM= -276.8230
 kinetic energy error for atom=    0.0122 (will be added to EATOM!!)
 
 
 POSCAR: crystal structure from VMoWS2 with Hexag
  positions in cartesian coordinates
  No initial velocities read in
 exchange correlation table for  LEXCH =        8
   RHO(1)=    0.500       N(1)  =     2000
   RHO(2)=  100.500       N(2)  =     4000
 


--------------------------------------------------------------------------------------------------------


 ion  position               nearest neighbor table
   1  0.000  0.000  0.000-  23 2.34  14 2.34  11 2.36  10 2.36  27 2.36  26 2.36
   2  0.333  0.000  0.000-  11 2.34  20 2.34  17 2.36  16 2.36  15 2.36  14 2.36
   3  0.000  0.667  0.000-  27 2.34  12 2.34  14 2.36  15 2.36  24 2.36  25 2.36
   4  0.667  0.333  0.000-  19 2.34  22 2.34  25 2.36  24 2.36  17 2.36  16 2.36   7 3.34   5 3.34
                             6 3.34   8 3.34
   5  0.667  0.667  0.000-  21 2.34  24 2.34  27 2.36  26 2.36  19 2.36  18 2.36   6 3.34   4 3.34
                             9 3.34   8 3.36
   6  0.667  0.000  0.000-  17 2.34  26 2.34  23 2.36  22 2.36  21 2.36  20 2.36   5 3.34   4 3.34
                             7 3.36   9 3.36
   7  1.000  0.333  0.000-  25 2.34  10 2.34  13 2.36  12 2.36  22 2.36  23 2.36   4 3.34   8 3.34
                             6 3.36   9 3.36
   8  0.333  0.333  0.000-  13 2.34  16 2.34  19 2.36  18 2.36  11 2.36  10 2.36   9 3.34   7 3.34
                             4 3.34   5 3.36
   9  0.333  0.667  0.000-  15 2.34  18 2.34  20 2.36  21 2.36  13 2.36  12 2.36   8 3.34   5 3.34
                             6 3.36   7 3.36
  10  0.111  0.222  0.955-   7 2.34   1 2.36   8 2.36
  11  0.222  0.111  0.045-   2 2.34   1 2.36   8 2.36
  12  0.111  0.556  0.955-   3 2.34   7 2.36   9 2.36
  13  0.222  0.444  0.045-   8 2.34   7 2.36   9 2.36
  14  0.111  0.889  0.955-   1 2.34   3 2.36   2 2.36
  15  0.222  0.777  0.045-   9 2.34   3 2.36   2 2.36
  16  0.444  0.222  0.955-   8 2.34   2 2.36   4 2.36
  17  0.556  0.111  0.045-   6 2.34   2 2.36   4 2.36
  18  0.444  0.556  0.955-   9 2.34   8 2.36   5 2.36
  19  0.556  0.444  0.045-   4 2.34   8 2.36   5 2.36
  20  0.444  0.889  0.955-   2 2.34   9 2.36   6 2.36
  21  0.556  0.777  0.045-   5 2.34   9 2.36   6 2.36
  22  0.777  0.222  0.955-   4 2.34   6 2.36   7 2.36
  23  0.889  0.111  0.045-   1 2.34   6 2.36   7 2.36
  24  0.777  0.556  0.955-   5 2.34   4 2.36   3 2.36
  25  0.889  0.444  0.045-   7 2.34   4 2.36   3 2.36
  26  0.777  0.889  0.955-   6 2.34   5 2.36   1 2.36
  27  0.889  0.777  0.045-   3 2.34   5 2.36   1 2.36
 

IMPORTANT INFORMATION: All symmetrisations will be switched off!
NOSYMM: (Re-)initialisation of all symmetry stuff for point group C_1.

 
 
 KPOINTS: K-POINTS 	#supercell of CrS2 in hexagona

Automatic generation of k-mesh.
Space group operators:
 irot       det(A)        alpha          n_x          n_y          n_z        tau_x        tau_y        tau_z
    1     1.000000     0.000000     1.000000     0.000000     0.000000     0.000000     0.000000     0.000000
 
 Subroutine IBZKPT returns following result:
 ===========================================
 
 Found     34 irreducible k-points:
 
 Following reciprocal coordinates:
            Coordinates               Weight
  0.000000  0.000000  0.000000      1.000000
  0.125000  0.000000  0.000000      2.000000
  0.250000  0.000000  0.000000      2.000000
  0.375000  0.000000  0.000000      2.000000
  0.500000  0.000000  0.000000      1.000000
  0.000000  0.125000  0.000000      2.000000
  0.125000  0.125000  0.000000      2.000000
  0.250000  0.125000  0.000000      2.000000
  0.375000  0.125000  0.000000      2.000000
  0.500000  0.125000  0.000000      2.000000
 -0.375000  0.125000  0.000000      2.000000
 -0.250000  0.125000  0.000000      2.000000
 -0.125000  0.125000  0.000000      2.000000
  0.000000  0.250000  0.000000      2.000000
  0.125000  0.250000  0.000000      2.000000
  0.250000  0.250000  0.000000      2.000000
  0.375000  0.250000  0.000000      2.000000
  0.500000  0.250000  0.000000      2.000000
 -0.375000  0.250000  0.000000      2.000000
 -0.250000  0.250000  0.000000      2.000000
 -0.125000  0.250000  0.000000      2.000000
 -0.000000  0.375000  0.000000      2.000000
  0.125000  0.375000  0.000000      2.000000
  0.250000  0.375000  0.000000      2.000000
  0.375000  0.375000  0.000000      2.000000
  0.500000  0.375000  0.000000      2.000000
 -0.375000  0.375000  0.000000      2.000000
 -0.250000  0.375000  0.000000      2.000000
 -0.125000  0.375000  0.000000      2.000000
  0.000000  0.500000  0.000000      1.000000
  0.125000  0.500000  0.000000      2.000000
  0.250000  0.500000  0.000000      2.000000
  0.375000  0.500000  0.000000      2.000000
  0.500000  0.500000  0.000000      1.000000
 
 Following cartesian coordinates:
            Coordinates               Weight
  0.000000  0.000000  0.000000      1.000000
  0.007209  0.012401  0.000000      2.000000
  0.014418  0.024802  0.000000      2.000000
  0.021626  0.037202  0.000000      2.000000
  0.028835  0.049603  0.000000      1.000000
 -0.007209  0.012401  0.000000      2.000000
  0.000000  0.024802  0.000000      2.000000
  0.007209  0.037202  0.000000      2.000000
  0.014418  0.049603  0.000000      2.000000
  0.021626  0.062004  0.000000      2.000000
 -0.028835 -0.024802  0.000000      2.000000
 -0.021626 -0.012401  0.000000      2.000000
 -0.014418  0.000000  0.000000      2.000000
 -0.014418  0.024802  0.000000      2.000000
 -0.007209  0.037202  0.000000      2.000000
  0.000000  0.049603  0.000000      2.000000
  0.007209  0.062004  0.000000      2.000000
  0.014418  0.074405  0.000000      2.000000
 -0.036044 -0.012401  0.000000      2.000000
 -0.028835  0.000000  0.000000      2.000000
 -0.021626  0.012401  0.000000      2.000000
 -0.021626  0.037202  0.000000      2.000000
 -0.014418  0.049603  0.000000      2.000000
 -0.007209  0.062004  0.000000      2.000000
  0.000000  0.074405  0.000000      2.000000
  0.007209  0.086806  0.000000      2.000000
 -0.043253  0.000000  0.000000      2.000000
 -0.036044  0.012401  0.000000      2.000000
 -0.028835  0.024802  0.000000      2.000000
 -0.028835  0.049603  0.000000      1.000000
 -0.021626  0.062004  0.000000      2.000000
 -0.014418  0.074405  0.000000      2.000000
 -0.007209  0.086806  0.000000      2.000000
  0.000000  0.099206  0.000000      1.000000
 


--------------------------------------------------------------------------------------------------------




 Dimension of arrays:
   k-points           NKPTS =     34   k-points in BZ     NKDIM =     34   number of bands    NBANDS=    120
   number of dos      NEDOS =    301   number of ions     NIONS =     27
   non local maximal  LDIM  =      6   non local SUM 2l+1 LMDIM =     18
   total plane-waves  NPLWV = 222264
   max r-space proj   IRMAX =      1   max aug-charges    IRDMAX=   5642
   dimension x,y,z NGX =    42 NGY =   42 NGZ =  126
   dimension x,y,z NGXF=    84 NGYF=   84 NGZF=  252
   support grid    NGXF=    84 NGYF=   84 NGZF=  252
   ions per type =               3   3   3  18
 NGX,Y,Z   is equivalent  to a cutoff of   6.96,  6.96,  6.98 a.u.
 NGXF,Y,Z  is equivalent  to a cutoff of  13.92, 13.92, 13.96 a.u.


 I would recommend the setting:
   dimension x,y,z NGX =    41 NGY =   41 NGZ =  123
 SYSTEM =  unknown system                          
 POSCAR =  crystal structure from VMoWS2 with Hexag

 Startparameter for this run:
   NWRITE =      2    write-flag & timer
   PREC   = normal    normal or accurate (medium, high low for compatibility)
   ISTART =      0    job   : 0-new  1-cont  2-samecut
   ICHARG =      2    charge: 1-file 2-atom 10-const
   ISPIN  =      1    spin polarized calculation?
   LNONCOLLINEAR =      F non collinear calculations
   LSORBIT =      F    spin-orbit coupling
   INIWAV =      1    electr: 0-lowe 1-rand  2-diag
   LASPH  =      F    aspherical Exc in radial PAW
   METAGGA=      F    non-selfconsistent MetaGGA calc.

 Electronic Relaxation 1
   ENCUT  =  280.0 eV  20.58 Ry    4.54 a.u.  13.68 13.68 40.93*2*pi/ulx,y,z
   ENINI  =  280.0     initial cutoff
   ENAUG  =  373.4 eV  augmentation charge cutoff
   NELM   =     60;   NELMIN=  2; NELMDL= -5     # of ELM steps 
   EDIFF  = 0.1E-03   stopping-criterion for ELM
   LREAL  =      F    real-space projection
   NLSPLINE    = F    spline interpolate recip. space projectors
   LCOMPAT=      F    compatible to vasp.4.4
   GGA_COMPAT  = T    GGA compatible to vasp.4.4-vasp.4.6
   LMAXPAW     = -100 max onsite density
   LMAXMIX     =    2 max onsite mixed and CHGCAR
   VOSKOWN=      0    Vosko Wilk Nusair interpolation
   ROPT   =    0.00000   0.00000   0.00000   0.00000
 Ionic relaxation
   EDIFFG = 0.1E-02   stopping-criterion for IOM
   NSW    =    100    number of steps for IOM
   NBLOCK =      1;   KBLOCK =    100    inner block; outer block 
   IBRION =      1    ionic relax: 0-MD 1-quasi-New 2-CG
   NFREE  =      0    steps in history (QN), initial steepest desc. (CG)
   ISIF   =      3    stress and relaxation
   IWAVPR =     11    prediction:  0-non 1-charg 2-wave 3-comb
   ISYM   =      0    0-nonsym 1-usesym 2-fastsym
   LCORR  =      T    Harris-Foulkes like correction to forces

   POTIM  = 0.5000    time-step for ionic-motion
   TEIN   =    0.0    initial temperature
   TEBEG  =    0.0;   TEEND  =   0.0 temperature during run
   SMASS  =  -3.00    Nose mass-parameter (am)
   estimated Nose-frequenzy (Omega)   =  0.10E-29 period in steps =****** mass=  -0.230E-26a.u.
   SCALEE = 1.0000    scale energy and forces
   NPACO  =    256;   APACO  = 16.0  distance and # of slots for P.C.
   PSTRESS=    0.0 pullay stress

  Mass of Ions in am
   POMASS =  50.94 95.94183.85 32.07
  Ionic Valenz
   ZVAL   =   5.00  6.00  6.00  6.00
  Atomic Wigner-Seitz radii
   RWIGS  =  -1.00 -1.00 -1.00 -1.00
  virtual crystal weights 
   VCA    =   1.00  1.00  1.00  1.00
   NELECT =     159.0000    total number of electrons
   NUPDOWN=      -1.0000    fix difference up-down

 DOS related values:
   EMIN   =  10.00;   EMAX   =-10.00  energy-range for DOS
   EFERMI =   0.00
   ISMEAR =     0;   SIGMA  =   0.20  broadening in eV -4-tet -1-fermi 0-gaus

 Electronic relaxation 2 (details)
   IALGO  =     38    algorithm
   LDIAG  =      T    sub-space diagonalisation (order eigenvalues)
   LSUBROT=      F    optimize rotation matrix (better conditioning)
   TURBO    =      0    0=normal 1=particle mesh
   IRESTART =      0    0=no restart 2=restart with 2 vectors
   NREBOOT  =      0    no. of reboots
   NMIN     =      0    reboot dimension
   EREF     =   0.00    reference energy to select bands
   IMIX   =      4    mixing-type and parameters
     AMIX     =   0.40;   BMIX     =  1.00
     AMIX_MAG =   1.60;   BMIX_MAG =  1.00
     AMIN     =   0.10
     WC   =   100.;   INIMIX=   1;  MIXPRE=   1;  MAXMIX= -45

 Intra band minimization:
   WEIMIN = 0.0010     energy-eigenvalue tresh-hold
   EBREAK =  0.21E-06  absolut break condition
   DEPER  =   0.30     relativ break condition  

   TIME   =   0.40     timestep for ELM

  volume/ion in A,a.u.               =      97.10       655.29
  Fermi-wavevector in a.u.,A,eV,Ry     =   0.643191  1.215456  5.628665  0.413695
  Thomas-Fermi vector in A             =   1.710110
 
 Write flags
   LWAVE  =      F    write WAVECAR
   LCHARG =      F    write CHGCAR
   LVTOT  =      F    write LOCPOT, total local potential
   LVHAR  =      F    write LOCPOT, Hartree potential only
   LELF   =      F    write electronic localiz. function (ELF)
   LORBIT =      0    0 simple, 1 ext, 2 COOP (PROOUT)


 Dipole corrections
   LMONO  =      F    monopole corrections only (constant potential shift)
   LDIPOL =      F    correct potential (dipole corrections)
   IDIPOL =      0    1-x, 2-y, 3-z, 4-all directions 
   EPSILON=  1.0000000 bulk dielectric constant

 Exchange correlation treatment:
   GGA     =    --    GGA type
   LEXCH   =     8    internal setting for exchange type
   VOSKOWN=      0    Vosko Wilk Nusair interpolation
   LHFCALC =     F    Hartree Fock is set to
   LHFONE  =     F    Hartree Fock one center treatment
   AEXX    =    0.0000 exact exchange contribution

 Linear response parameters
   LEPSILON=     F    determine dielectric tensor
   LRPA    =     F    only Hartree local field effects (RPA)
   LNABLA  =     F    use nabla operator in PAW spheres
   LVEL    =     F    velocity operator in full k-point grid
   LINTERFAST=   F  fast interpolation
   KINTER  =     0    interpolate to denser k-point grid
   CSHIFT  =0.1000    complex shift for real part using Kramers Kronig
   OMEGAMAX=  -1.0    maximum frequency
   DEG_THRESHOLD= 0.2000000E-02 threshold for treating states as degnerate
   RTIME   =    0.100 relaxation time in fs

 Orbital magnetization related:
   ORBITALMAG=     F  switch on orbital magnetization
   LCHIMAG   =     F  perturbation theory with respect to B field
   DQ        =  0.001000  dq finite difference perturbation B field



--------------------------------------------------------------------------------------------------------


 quasi-Newton-method for relaxation of ions
 charge density and potential will be updated during run
 non-spin polarized calculation
 Variant of blocked Davidson
 Davidson routine will perform the subspace rotation
 perform sub-space diagonalisation
    after iterative eigenvector-optimisation
 modified Broyden-mixing scheme, WC =      100.0
 initial mixing is a Kerker type mixing with AMIX =  0.4000 and BMIX =      1.0000
 Hartree-type preconditioning will be used
 using additional bands           40
 reciprocal scheme for non local part
 use partial core corrections
 calculate Harris-corrections to forces 
   (improved forces if not selfconsistent)
 use gradient corrections 
 use of overlap-Matrix (Vanderbilt PP)
 Gauss-broadening in eV      SIGMA  =   0.20


--------------------------------------------------------------------------------------------------------


  energy-cutoff  :      280.00
  volume of cell :     2621.81
      direct lattice vectors                 reciprocal lattice vectors
     8.669999960  5.039999894  0.000000000     0.057670129  0.099206348  0.000000000
    -8.669999821  5.040000133  0.000000000    -0.057670126  0.099206350  0.000000000
     0.000000000  0.000000000 30.000000000     0.000000000  0.000000000  0.033333333

  length of vectors
    10.028484344 10.028484344 30.000000000     0.114750788  0.114750788  0.033333333


 
 k-points in units of 2pi/SCALE and weight: K-POINTS 	#supercell of CrS2 in hexagona
   0.00000000  0.00000000  0.00000000       0.016
   0.00720877  0.01240079  0.00000000       0.031
   0.01441753  0.02480159  0.00000000       0.031
   0.02162630  0.03720238  0.00000000       0.031
   0.02883506  0.04960317  0.00000000       0.016
  -0.00720877  0.01240079  0.00000000       0.031
   0.00000000  0.02480159  0.00000000       0.031
   0.00720877  0.03720238  0.00000000       0.031
   0.01441753  0.04960317  0.00000000       0.031
   0.02162630  0.06200397  0.00000000       0.031
  -0.02883506 -0.02480159  0.00000000       0.031
  -0.02162630 -0.01240079  0.00000000       0.031
  -0.01441753  0.00000000  0.00000000       0.031
  -0.01441753  0.02480159  0.00000000       0.031
  -0.00720877  0.03720238  0.00000000       0.031
   0.00000000  0.04960317  0.00000000       0.031
   0.00720877  0.06200397  0.00000000       0.031
   0.01441753  0.07440476  0.00000000       0.031
  -0.03604383 -0.01240079  0.00000000       0.031
  -0.02883506  0.00000000  0.00000000       0.031
  -0.02162630  0.01240079  0.00000000       0.031
  -0.02162630  0.03720238  0.00000000       0.031
  -0.01441753  0.04960317  0.00000000       0.031
  -0.00720877  0.06200397  0.00000000       0.031
   0.00000000  0.07440476  0.00000000       0.031
   0.00720877  0.08680556  0.00000000       0.031
  -0.04325260  0.00000000  0.00000000       0.031
  -0.03604383  0.01240079  0.00000000       0.031
  -0.02883506  0.02480159  0.00000000       0.031
  -0.02883506  0.04960317  0.00000000       0.016
  -0.02162630  0.06200397  0.00000000       0.031
  -0.01441753  0.07440476  0.00000000       0.031
  -0.00720876  0.08680556  0.00000000       0.031
   0.00000000  0.09920635  0.00000000       0.016
 
 k-points in reciprocal lattice and weights: K-POINTS 	#supercell of CrS2 in hexagona
   0.00000000  0.00000000  0.00000000       0.016
   0.12500000  0.00000000  0.00000000       0.031
   0.25000000  0.00000000  0.00000000       0.031
   0.37500000  0.00000000  0.00000000       0.031
   0.50000000  0.00000000  0.00000000       0.016
   0.00000000  0.12500000  0.00000000       0.031
   0.12500000  0.12500000  0.00000000       0.031
   0.25000000  0.12500000  0.00000000       0.031
   0.37500000  0.12500000  0.00000000       0.031
   0.50000000  0.12500000  0.00000000       0.031
  -0.37500000  0.12500000  0.00000000       0.031
  -0.25000000  0.12500000  0.00000000       0.031
  -0.12500000  0.12500000  0.00000000       0.031
   0.00000000  0.25000000  0.00000000       0.031
   0.12500000  0.25000000  0.00000000       0.031
   0.25000000  0.25000000  0.00000000       0.031
   0.37500000  0.25000000  0.00000000       0.031
   0.50000000  0.25000000  0.00000000       0.031
  -0.37500000  0.25000000  0.00000000       0.031
  -0.25000000  0.25000000  0.00000000       0.031
  -0.12500000  0.25000000  0.00000000       0.031
  -0.00000000  0.37500000  0.00000000       0.031
   0.12500000  0.37500000  0.00000000       0.031
   0.25000000  0.37500000  0.00000000       0.031
   0.37500000  0.37500000  0.00000000       0.031
   0.50000000  0.37500000  0.00000000       0.031
  -0.37500000  0.37500000  0.00000000       0.031
  -0.25000000  0.37500000  0.00000000       0.031
  -0.12500000  0.37500000  0.00000000       0.031
   0.00000000  0.50000000  0.00000000       0.016
   0.12500000  0.50000000  0.00000000       0.031
   0.25000000  0.50000000  0.00000000       0.031
   0.37500000  0.50000000  0.00000000       0.031
   0.50000000  0.50000000  0.00000000       0.016
 
 position of ions in fractional coordinates (direct lattice) 
   0.00000000  0.00000000  0.00000000
   0.33333334  0.00000000  0.00000000
   0.00000000  0.66666669  0.00000000
   0.66666669  0.33333334  0.00000000
   0.66666669  0.66666669  0.00000000
   0.66666669  0.00000000  0.00000000
   1.00000000  0.33333334  0.00000000
   0.33333334  0.33333334  0.00000000
   0.33333334  0.66666669  0.00000000
   0.11068511  0.22244981  0.95539999
   0.22244981  0.11068511  0.04460000
   0.11068511  0.55578315  0.95539999
   0.22244981  0.44401845  0.04460000
   0.11068511  0.88911647  0.95539999
   0.22244981  0.77735180  0.04460000
   0.44401845  0.22244981  0.95539999
   0.55578315  0.11068511  0.04460000
   0.44401845  0.55578315  0.95539999
   0.55578315  0.44401845  0.04460000
   0.44401845  0.88911647  0.95539999
   0.55578315  0.77735180  0.04460000
   0.77735180  0.22244981  0.95539999
   0.88911647  0.11068511  0.04460000
   0.77735180  0.55578315  0.95539999
   0.88911647  0.44401845  0.04460000
   0.77735180  0.88911647  0.95539999
   0.88911647  0.77735180  0.04460000
 
 position of ions in cartesian coordinates  (Angst):
   0.00000000  0.00000000  0.00000000
   2.89000007  1.68000002  0.00000000
  -5.78000005  3.36000019  0.00000000
   2.89000012  5.04000012  0.00000000
   0.00000009  6.72000022  0.00000000
   5.78000015  3.36000003  0.00000000
   5.77999993  6.71999999  0.00000000
   0.00000005  3.36000011  0.00000000
  -2.88999998  5.04000020  0.00000000
  -0.96899991  1.67900001 28.66199970
   0.96899995  1.67899998  1.33799996
  -3.85899993  3.35900011 28.66199970
  -1.92100007  3.35900008  1.33799996
  -6.74899970  5.03900005 28.66199970
  -4.81100010  5.03900017  1.33799996
   1.92100017  3.35900003 28.66199970
   3.85900003  3.35900000  1.33799996
  -0.96899986  5.03900012 28.66199970
   0.96900000  5.03900009  1.33799996
  -3.85899963  6.71900006 28.66199970
  -1.92100003  6.71900019  1.33799996
   4.81100024  5.03900004 28.66199970
   6.74899984  5.03899987  1.33799996
   1.92100021  6.71900014 28.66199970
   3.85899981  6.71899996  1.33799996
  -0.96899956  8.39900008 28.66199970
   0.96899979  8.39900005  1.33799996
 


--------------------------------------------------------------------------------------------------------


 k-point  1 :   0.0000 0.0000 0.0000  plane waves:   27959
 k-point  2 :   0.1250 0.0000 0.0000  plane waves:   27889
 k-point  3 :   0.2500 0.0000 0.0000  plane waves:   27875
 k-point  4 :   0.3750 0.0000 0.0000  plane waves:   27893
 k-point  5 :   0.5000 0.0000 0.0000  plane waves:   27932
 k-point  6 :   0.0000 0.1250 0.0000  plane waves:   27889
 k-point  7 :   0.1250 0.1250 0.0000  plane waves:   27906
 k-point  8 :   0.2500 0.1250 0.0000  plane waves:   27898
 k-point  9 :   0.3750 0.1250 0.0000  plane waves:   27888
 k-point 10 :   0.5000 0.1250 0.0000  plane waves:   27873
 k-point 11 :  -0.3750 0.1250 0.0000  plane waves:   27874
 k-point 12 :  -0.2500 0.1250 0.0000  plane waves:   27895
 k-point 13 :  -0.1250 0.1250 0.0000  plane waves:   27879
 k-point 14 :   0.0000 0.2500 0.0000  plane waves:   27875
 k-point 15 :   0.1250 0.2500 0.0000  plane waves:   27898
 k-point 16 :   0.2500 0.2500 0.0000  plane waves:   27920
 k-point 17 :   0.3750 0.2500 0.0000  plane waves:   27901
 k-point 18 :   0.5000 0.2500 0.0000  plane waves:   27875
 k-point 19 :  -0.3750 0.2500 0.0000  plane waves:   27894
 k-point 20 :  -0.2500 0.2500 0.0000  plane waves:   27870
 k-point 21 :  -0.1250 0.2500 0.0000  plane waves:   27895
 k-point 22 :  -0.0000 0.3750 0.0000  plane waves:   27893
 k-point 23 :   0.1250 0.3750 0.0000  plane waves:   27888
 k-point 24 :   0.2500 0.3750 0.0000  plane waves:   27901
 k-point 25 :   0.3750 0.3750 0.0000  plane waves:   27860
 k-point 26 :   0.5000 0.3750 0.0000  plane waves:   27895
 k-point 27 :  -0.3750 0.3750 0.0000  plane waves:   27858
 k-point 28 :  -0.2500 0.3750 0.0000  plane waves:   27894
 k-point 29 :  -0.1250 0.3750 0.0000  plane waves:   27874
 k-point 30 :   0.0000 0.5000 0.0000  plane waves:   27932
 k-point 31 :   0.1250 0.5000 0.0000  plane waves:   27873
 k-point 32 :   0.2500 0.5000 0.0000  plane waves:   27875
 k-point 33 :   0.3750 0.5000 0.0000  plane waves:   27895
 k-point 34 :   0.5000 0.5000 0.0000  plane waves:   27910

 maximum and minimum number of plane-waves per node :     27959    27858

 maximum number of plane-waves:     27959
 maximum index in each direction: 
   IXMAX=   14   IYMAX=   13   IZMAX=   40
   IXMIN=  -14   IYMIN=  -14   IZMIN=  -40

 WARNING: aliasing errors must be expected set NGX to  58 to avoid them
 WARNING: aliasing errors must be expected set NGY to  56 to avoid them
 WARNING: aliasing errors must be expected set NGZ to 162 to avoid them
 aliasing errors are usually negligible using standard VASP settings
 and one can safely disregard these warnings

 serial   3D FFT for wavefunctions

 total amount of memory used by VASP on root node   650782. kBytes
========================================================================

   base      :      30000. kBytes
   nonl-proj :     559647. kBytes
   fftplans  :       2414. kBytes
   grid      :      12150. kBytes
   one-center:        419. kBytes
   wavefun   :      46152. kBytes
 
     INWAV:  cpu time    0.0000: real time    0.0000
 Broyden mixing: mesh for mixing (old mesh)
   NGX = 27   NGY = 27   NGZ = 81
  (NGX  = 84   NGY  = 84   NGZ  =252)
  gives a total of  59049 points

 initial charge density was supplied:
 charge density of overlapping atoms calculated
 number of electron     159.0000000 magnetization 
 keeping initial charge density in first step


--------------------------------------------------------------------------------------------------------


 Maximum index for augmentation-charges          146 (set IRDMAX)


--------------------------------------------------------------------------------------------------------


 First call to EWALD:  gamma=   0.129
 Maximum number of real-space cells 4x 4x 2
 Maximum number of reciprocal cells 2x 2x 5

 FEWALD executed in parallel
    FEWALD:  cpu time    0.0015: real time    0.0016


----------------------------------------- Iteration    1(   1)  ---------------------------------------


    POTLOK:  cpu time    0.0369: real time    0.0370
    SETDIJ:  cpu time    0.0032: real time    0.0032
     EDDAV:  cpu time   21.5907: real time   21.6459
       DOS:  cpu time    0.0015: real time    0.0016
    --------------------------------------------
      LOOP:  cpu time   21.6371: real time   21.6945

 eigenvalue-minimisations  :  8160
 total energy-change (2. order) : 0.1125633E+04  (-0.3598157E+04)
 number of electron     159.0000000 magnetization 
 augmentation part      159.0000000 magnetization 

 Free energy of the ion-electron system (eV)
  ---------------------------------------------------
  alpha Z        PSCENC =        81.65567618
  Ewald energy   TEWEN  =     41891.17177387
  -Hartree energ DENC   =    -47723.81767266
  -exchange      EXHF   =         0.00000000
  -V(xc)+E(xc)   XCENC  =      -242.92468744
  PAW double counting   =      3467.42045192    -2871.19716117
  entropy T*S    EENTRO =        -0.53969932
  eigenvalues    EBANDS =      -237.57828690
  atomic energy  EATOM  =      6761.44252427
  Solvation  Ediel_sol  =         0.00000000
  ---------------------------------------------------
  free energy    TOTEN  =      1125.63291875 eV

  energy without entropy =     1126.17261807  energy(sigma->0) =     1125.90276841


--------------------------------------------------------------------------------------------------------




----------------------------------------- Iteration    1(   2)  ---------------------------------------


     EDDAV:  cpu time   28.4539: real time   28.5229
       DOS:  cpu time    0.0010: real time    0.0010
    --------------------------------------------
      LOOP:  cpu time   28.4562: real time   28.5320

 eigenvalue-minimisations  : 11400
 total energy-change (2. order) :-0.1128466E+04  (-0.1086271E+04)
 number of electron     159.0000000 magnetization 
 augmentation part      159.0000000 magnetization 

 Free energy of the ion-electron system (eV)
  ---------------------------------------------------
  alpha Z        PSCENC =        81.65567618
  Ewald energy   TEWEN  =     41891.17177387
  -Hartree energ DENC   =    -47723.81767266
  -exchange      EXHF   =         0.00000000
  -V(xc)+E(xc)   XCENC  =      -242.92468744
  PAW double counting   =      3467.42045192    -2871.19716117
  entropy T*S    EENTRO =        -0.21644352
  eigenvalues    EBANDS =     -1366.36761703
  atomic energy  EATOM  =      6761.44252427
  Solvation  Ediel_sol  =         0.00000000
  ---------------------------------------------------
  free energy    TOTEN  =        -2.83315558 eV

  energy without entropy =       -2.61671206  energy(sigma->0) =       -2.72493382


--------------------------------------------------------------------------------------------------------




----------------------------------------- Iteration    1(   3)  ---------------------------------------


     EDDAV:  cpu time   27.3314: real time   27.3985
       DOS:  cpu time    0.0010: real time    0.0010
    --------------------------------------------
      LOOP:  cpu time   27.3346: real time   27.4058

 eigenvalue-minimisations  : 10880
 total energy-change (2. order) :-0.1970466E+03  (-0.1895724E+03)
 number of electron     159.0000000 magnetization 
 augmentation part      159.0000000 magnetization 

 Free energy of the ion-electron system (eV)
  ---------------------------------------------------
  alpha Z        PSCENC =        81.65567618
  Ewald energy   TEWEN  =     41891.17177387
  -Hartree energ DENC   =    -47723.81767266
  -exchange      EXHF   =         0.00000000
  -V(xc)+E(xc)   XCENC  =      -242.92468744
  PAW double counting   =      3467.42045192    -2871.19716117
  entropy T*S    EENTRO =        -0.26074393
  eigenvalues    EBANDS =     -1563.36993702
  atomic energy  EATOM  =      6761.44252427
  Solvation  Ediel_sol  =         0.00000000
  ---------------------------------------------------
  free energy    TOTEN  =      -199.87977598 eV

  energy without entropy =     -199.61903205  energy(sigma->0) =     -199.74940402


--------------------------------------------------------------------------------------------------------




----------------------------------------- Iteration    1(   4)  ---------------------------------------


     EDDAV:  cpu time   29.8851: real time   29.9571
       DOS:  cpu time    0.0010: real time    0.0010
    --------------------------------------------
      LOOP:  cpu time   29.8870: real time   29.9650

 eigenvalue-minimisations  : 12120
 total energy-change (2. order) :-0.9117453E+01  (-0.8872023E+01)
 number of electron     159.0000000 magnetization 
 augmentation part      159.0000000 magnetization 

 Free energy of the ion-electron system (eV)
  ---------------------------------------------------
  alpha Z        PSCENC =        81.65567618
  Ewald energy   TEWEN  =     41891.17177387
  -Hartree energ DENC   =    -47723.81767266
  -exchange      EXHF   =         0.00000000
  -V(xc)+E(xc)   XCENC  =      -242.92468744
  PAW double counting   =      3467.42045192    -2871.19716117
  entropy T*S    EENTRO =        -0.29069775
  eigenvalues    EBANDS =     -1572.45743602
  atomic energy  EATOM  =      6761.44252427
  Solvation  Ediel_sol  =         0.00000000
  ---------------------------------------------------
  free energy    TOTEN  =      -208.99722880 eV

  energy without entropy =     -208.70653105  energy(sigma->0) =     -208.85187993


--------------------------------------------------------------------------------------------------------




----------------------------------------- Iteration    1(   5)  ---------------------------------------


     EDDAV:  cpu time   28.4004: real time   28.4685
       DOS:  cpu time    0.0009: real time    0.0009
    CHARGE:  cpu time    0.4644: real time    0.4655
    MIXING:  cpu time    0.0017: real time    0.0017
    --------------------------------------------
      LOOP:  cpu time   28.8686: real time   28.9447

 eigenvalue-minimisations  : 11440
 total energy-change (2. order) :-0.3071560E+00  (-0.3063060E+00)
 number of electron     159.0000110 magnetization 
 augmentation part       -9.8031139 magnetization 

 Broyden mixing:
  rms(total) = 0.27508E+01    rms(broyden)= 0.27504E+01
  rms(prec ) = 0.29367E+01
  weight for this iteration     100.00

 Free energy of the ion-electron system (eV)
  ---------------------------------------------------
  alpha Z        PSCENC =        81.65567618
  Ewald energy   TEWEN  =     41891.17177387
  -Hartree energ DENC   =    -47723.81767266
  -exchange      EXHF   =         0.00000000
  -V(xc)+E(xc)   XCENC  =      -242.92468744
  PAW double counting   =      3467.42045192    -2871.19716117
  entropy T*S    EENTRO =        -0.28808345
  eigenvalues    EBANDS =     -1572.76720631
  atomic energy  EATOM  =      6761.44252427
  Solvation  Ediel_sol  =         0.00000000
  ---------------------------------------------------
  free energy    TOTEN  =      -209.30438479 eV

  energy without entropy =     -209.01630134  energy(sigma->0) =     -209.16034306


--------------------------------------------------------------------------------------------------------




----------------------------------------- Iteration    1(   6)  ---------------------------------------


    POTLOK:  cpu time    0.0333: real time    0.0334
    SETDIJ:  cpu time    0.0025: real time    0.0026
     EDDAV:  cpu time   30.5193: real time   30.5929
       DOS:  cpu time    0.0011: real time    0.0011
    CHARGE:  cpu time    0.4596: real time    0.4607
    MIXING:  cpu time    0.0015: real time    0.0018
    --------------------------------------------
      LOOP:  cpu time   31.0184: real time   31.1001

 eigenvalue-minimisations  : 12480
 total energy-change (2. order) :-0.2856588E+02  (-0.1078921E+02)
 number of electron     159.0000107 magnetization 
 augmentation part        7.0793775 magnetization 

 Broyden mixing:
  rms(total) = 0.59491E+01    rms(broyden)= 0.59484E+01
  rms(prec ) = 0.65604E+01
  weight for this iteration     100.00

 eigenvalues of (default mixing * dielectric matrix)
  average eigenvalue GAMMA=   0.2937
  0.2937

 Free energy of the ion-electron system (eV)
  ---------------------------------------------------
  alpha Z        PSCENC =        81.65567618
  Ewald energy   TEWEN  =     41891.17177387
  -Hartree energ DENC   =    -47702.20618741
  -exchange      EXHF   =         0.00000000
  -V(xc)+E(xc)   XCENC  =      -233.61804840
  PAW double counting   =      3676.55108964    -3082.64227080
  entropy T*S    EENTRO =        -0.25233925
  eigenvalues    EBANDS =     -1629.97248761
  atomic energy  EATOM  =      6761.44252427
  Solvation  Ediel_sol  =         0.00000000
  ---------------------------------------------------
  free energy    TOTEN  =      -237.87026950 eV

  energy without entropy =     -237.61793025  energy(sigma->0) =     -237.74409988


--------------------------------------------------------------------------------------------------------




----------------------------------------- Iteration    1(   7)  ---------------------------------------


    POTLOK:  cpu time    0.0317: real time    0.0318
    SETDIJ:  cpu time    0.0025: real time    0.0025
     EDDAV:  cpu time   32.6646: real time   32.7427
       DOS:  cpu time    0.0010: real time    0.0010
    CHARGE:  cpu time    0.4669: real time    0.4680
    MIXING:  cpu time    0.0012: real time    0.0012
    --------------------------------------------
      LOOP:  cpu time   33.1687: real time   33.2555

 eigenvalue-minimisations  : 13480
 total energy-change (2. order) : 0.4129994E+02  (-0.1752422E+02)
 number of electron     159.0000088 magnetization 
 augmentation part       -6.2617706 magnetization 

 Broyden mixing:
  rms(total) = 0.20020E+01    rms(broyden)= 0.20000E+01
  rms(prec ) = 0.22236E+01
  weight for this iteration     100.00

 eigenvalues of (default mixing * dielectric matrix)
  average eigenvalue GAMMA=   0.5521
  0.8931  0.2112

 Free energy of the ion-electron system (eV)
  ---------------------------------------------------
  alpha Z        PSCENC =        81.65567618
  Ewald energy   TEWEN  =     41891.17177387
  -Hartree energ DENC   =    -47739.20616348
  -exchange      EXHF   =         0.00000000
  -V(xc)+E(xc)   XCENC  =      -234.98894064
  PAW double counting   =      3763.80438316    -3177.83923455
  entropy T*S    EENTRO =        -0.35579765
  eigenvalues    EBANDS =     -1542.25455373
  atomic energy  EATOM  =      6761.44252427
  Solvation  Ediel_sol  =         0.00000000
  ---------------------------------------------------
  free energy    TOTEN  =      -196.57033258 eV

  energy without entropy =     -196.21453493  energy(sigma->0) =     -196.39243375


--------------------------------------------------------------------------------------------------------




----------------------------------------- Iteration    1(   8)  ---------------------------------------


    POTLOK:  cpu time    0.0308: real time    0.0309
    SETDIJ:  cpu time    0.0024: real time    0.0024
     EDDAV:  cpu time   29.5735: real time   29.6448
       DOS:  cpu time    0.0011: real time    0.0011
    CHARGE:  cpu time    0.4762: real time    0.4773
    MIXING:  cpu time    0.0011: real time    0.0012
    --------------------------------------------
      LOOP:  cpu time   30.0862: real time   30.1653

 eigenvalue-minimisations  : 12000
 total energy-change (2. order) : 0.7097980E+01  (-0.1763385E+01)
 number of electron     159.0000095 magnetization 
 augmentation part       -6.3737086 magnetization 

 Broyden mixing:
  rms(total) = 0.12524E+01    rms(broyden)= 0.12522E+01
  rms(prec ) = 0.13529E+01
  weight for this iteration     100.00

 eigenvalues of (default mixing * dielectric matrix)
  average eigenvalue GAMMA=   0.5862
  1.1357  0.2312  0.3918

 Free energy of the ion-electron system (eV)
  ---------------------------------------------------
  alpha Z        PSCENC =        81.65567618
  Ewald energy   TEWEN  =     41891.17177387
  -Hartree energ DENC   =    -47762.33443638
  -exchange      EXHF   =         0.00000000
  -V(xc)+E(xc)   XCENC  =      -235.00460421
  PAW double counting   =      3907.14709076    -3322.81325747
  entropy T*S    EENTRO =        -0.31147519
  eigenvalues    EBANDS =     -1510.42564485
  atomic energy  EATOM  =      6761.44252427
  Solvation  Ediel_sol  =         0.00000000
  ---------------------------------------------------
  free energy    TOTEN  =      -189.47235303 eV

  energy without entropy =     -189.16087783  energy(sigma->0) =     -189.31661543


--------------------------------------------------------------------------------------------------------




----------------------------------------- Iteration    1(   9)  ---------------------------------------


    POTLOK:  cpu time    0.0356: real time    0.0357
    SETDIJ:  cpu time    0.0023: real time    0.0023
     EDDAV:  cpu time   32.8510: real time   32.9295
       DOS:  cpu time    0.0010: real time    0.0010
    CHARGE:  cpu time    0.4847: real time    0.4858
    MIXING:  cpu time    0.0012: real time    0.0012
    --------------------------------------------
      LOOP:  cpu time   33.3768: real time   33.4583

 eigenvalue-minimisations  : 13560
 total energy-change (2. order) : 0.1344552E+01  (-0.3030997E+00)
 number of electron     159.0000091 magnetization 
 augmentation part       -5.5500255 magnetization 

 Broyden mixing:
  rms(total) = 0.91168E+00    rms(broyden)= 0.91145E+00
  rms(prec ) = 0.98896E+00
  weight for this iteration     100.00

 eigenvalues of (default mixing * dielectric matrix)
  average eigenvalue GAMMA=   0.7414
  1.8137  0.6217  0.2201  0.3103

 Free energy of the ion-electron system (eV)
  ---------------------------------------------------
  alpha Z        PSCENC =        81.65567618
  Ewald energy   TEWEN  =     41891.17177387
  -Hartree energ DENC   =    -47766.98509278
  -exchange      EXHF   =         0.00000000
  -V(xc)+E(xc)   XCENC  =      -234.10945808
  PAW double counting   =      3977.21625298    -3393.75489160
  entropy T*S    EENTRO =        -0.32117053
  eigenvalues    EBANDS =     -1504.44341551
  atomic energy  EATOM  =      6761.44252427
  Solvation  Ediel_sol  =         0.00000000
  ---------------------------------------------------
  free energy    TOTEN  =      -188.12780119 eV

  energy without entropy =     -187.80663066  energy(sigma->0) =     -187.96721593


--------------------------------------------------------------------------------------------------------




----------------------------------------- Iteration    1(  10)  ---------------------------------------


    POTLOK:  cpu time    0.0311: real time    0.0314
    SETDIJ:  cpu time    0.0025: real time    0.0025
     EDDAV:  cpu time   32.6668: real time   32.7455
       DOS:  cpu time    0.0011: real time    0.0011
    CHARGE:  cpu time    0.4987: real time    0.4999
    MIXING:  cpu time    0.0013: real time    0.0013
    --------------------------------------------
      LOOP:  cpu time   33.2027: real time   33.2901

 eigenvalue-minimisations  : 13480
 total energy-change (2. order) : 0.1191585E+01  (-0.1726143E+00)
 number of electron     159.0000092 magnetization 
 augmentation part       -4.2541253 magnetization 

 Broyden mixing:
  rms(total) = 0.21531E+00    rms(broyden)= 0.21473E+00
  rms(prec ) = 0.22724E+00
  weight for this iteration     100.00

 eigenvalues of (default mixing * dielectric matrix)
  average eigenvalue GAMMA=   0.8378
  1.8535  1.1850  0.6411  0.2205  0.2889

 Free energy of the ion-electron system (eV)
  ---------------------------------------------------
  alpha Z        PSCENC =        81.65567618
  Ewald energy   TEWEN  =     41891.17177387
  -Hartree energ DENC   =    -47780.20422761
  -exchange      EXHF   =         0.00000000
  -V(xc)+E(xc)   XCENC  =      -232.57267706
  PAW double counting   =      4105.42861198    -3523.57225655
  entropy T*S    EENTRO =        -0.35108124
  eigenvalues    EBANDS =     -1489.93455979
  atomic energy  EATOM  =      6761.44252427
  Solvation  Ediel_sol  =         0.00000000
  ---------------------------------------------------
  free energy    TOTEN  =      -186.93621593 eV

  energy without entropy =     -186.58513470  energy(sigma->0) =     -186.76067531


--------------------------------------------------------------------------------------------------------




----------------------------------------- Iteration    1(  11)  ---------------------------------------


    POTLOK:  cpu time    0.0312: real time    0.0313
    SETDIJ:  cpu time    0.0024: real time    0.0024
     EDDAV:  cpu time   32.7312: real time   32.8094
       DOS:  cpu time    0.0010: real time    0.0010
    CHARGE:  cpu time    0.4997: real time    0.5010
    MIXING:  cpu time    0.0012: real time    0.0012
    --------------------------------------------
      LOOP:  cpu time   33.2681: real time   33.3550

 eigenvalue-minimisations  : 13520
 total energy-change (2. order) :-0.9013228E-01  (-0.5924984E-01)
 number of electron     159.0000090 magnetization 
 augmentation part       -4.4466197 magnetization 

 Broyden mixing:
  rms(total) = 0.37219E+00    rms(broyden)= 0.37197E+00
  rms(prec ) = 0.41189E+00
  weight for this iteration     100.00

 eigenvalues of (default mixing * dielectric matrix)
  average eigenvalue GAMMA=   0.8523
  1.8579  1.8579  0.6389  0.2184  0.2846  0.2560

 Free energy of the ion-electron system (eV)
  ---------------------------------------------------
  alpha Z        PSCENC =        81.65567618
  Ewald energy   TEWEN  =     41891.17177387
  -Hartree energ DENC   =    -47790.07232031
  -exchange      EXHF   =         0.00000000
  -V(xc)+E(xc)   XCENC  =      -232.24482979
  PAW double counting   =      4151.50224277    -3569.76218005
  entropy T*S    EENTRO =        -0.33806062
  eigenvalues    EBANDS =     -1480.38117453
  atomic energy  EATOM  =      6761.44252427
  Solvation  Ediel_sol  =         0.00000000
  ---------------------------------------------------
  free energy    TOTEN  =      -187.02634821 eV

  energy without entropy =     -186.68828759  energy(sigma->0) =     -186.85731790


--------------------------------------------------------------------------------------------------------




----------------------------------------- Iteration    1(  12)  ---------------------------------------


    POTLOK:  cpu time    0.0307: real time    0.0308
    SETDIJ:  cpu time    0.0025: real time    0.0025
     EDDAV:  cpu time   31.1762: real time   31.2513
       DOS:  cpu time    0.0011: real time    0.0011
    CHARGE:  cpu time    0.4962: real time    0.4974
    MIXING:  cpu time    0.0014: real time    0.0014
    --------------------------------------------
      LOOP:  cpu time   31.7091: real time   31.7925

 eigenvalue-minimisations  : 12760
 total energy-change (2. order) : 0.7584939E-01  (-0.7122927E-01)
 number of electron     159.0000088 magnetization 
 augmentation part       -4.4530824 magnetization 

 Broyden mixing:
  rms(total) = 0.32867E+00    rms(broyden)= 0.32846E+00
  rms(prec ) = 0.36424E+00
  weight for this iteration     100.00

 eigenvalues of (default mixing * dielectric matrix)
  average eigenvalue GAMMA=   0.8064
  1.9639  1.9639  0.6385  0.3963  0.2984  0.2197  0.1639

 Free energy of the ion-electron system (eV)
  ---------------------------------------------------
  alpha Z        PSCENC =        81.65567618
  Ewald energy   TEWEN  =     41891.17177387
  -Hartree energ DENC   =    -47797.27543076
  -exchange      EXHF   =         0.00000000
  -V(xc)+E(xc)   XCENC  =      -232.04324191
  PAW double counting   =      4179.29435754    -3597.53659762
  entropy T*S    EENTRO =        -0.33238065
  eigenvalues    EBANDS =     -1473.32717975
  atomic energy  EATOM  =      6761.44252427
  Solvation  Ediel_sol  =         0.00000000
  ---------------------------------------------------
  free energy    TOTEN  =      -186.95049883 eV

  energy without entropy =     -186.61811818  energy(sigma->0) =     -186.78430850


--------------------------------------------------------------------------------------------------------




----------------------------------------- Iteration    1(  13)  ---------------------------------------


    POTLOK:  cpu time    0.0305: real time    0.0306
    SETDIJ:  cpu time    0.0023: real time    0.0024
     EDDAV:  cpu time   32.0599: real time   32.1371
       DOS:  cpu time    0.0011: real time    0.0011
    CHARGE:  cpu time    0.5003: real time    0.5015
    MIXING:  cpu time    0.0014: real time    0.0014
    --------------------------------------------
      LOOP:  cpu time   32.5965: real time   32.6828

 eigenvalue-minimisations  : 13200
 total energy-change (2. order) : 0.8511933E-01  (-0.2458881E-01)
 number of electron     159.0000088 magnetization 
 augmentation part       -4.3747173 magnetization 

 Broyden mixing:
  rms(total) = 0.18156E+00    rms(broyden)= 0.18142E+00
  rms(prec ) = 0.20374E+00
  weight for this iteration     100.00

 eigenvalues of (default mixing * dielectric matrix)
  average eigenvalue GAMMA=   0.7914
  2.2288  1.7367  0.8112  0.6356  0.2994  0.2200  0.2564  0.1432

 Free energy of the ion-electron system (eV)
  ---------------------------------------------------
  alpha Z        PSCENC =        81.65567618
  Ewald energy   TEWEN  =     41891.17177387
  -Hartree energ DENC   =    -47800.42244490
  -exchange      EXHF   =         0.00000000
  -V(xc)+E(xc)   XCENC  =      -231.95977414
  PAW double counting   =      4187.92552480    -3606.13727878
  entropy T*S    EENTRO =        -0.33534702
  eigenvalues    EBANDS =     -1470.20603378
  atomic energy  EATOM  =      6761.44252427
  Solvation  Ediel_sol  =         0.00000000
  ---------------------------------------------------
  free energy    TOTEN  =      -186.86537950 eV

  energy without entropy =     -186.53003248  energy(sigma->0) =     -186.69770599


--------------------------------------------------------------------------------------------------------




----------------------------------------- Iteration    1(  14)  ---------------------------------------


    POTLOK:  cpu time    0.0300: real time    0.0302
    SETDIJ:  cpu time    0.0024: real time    0.0024
     EDDAV:  cpu time   31.7187: real time   31.7945
       DOS:  cpu time    0.0011: real time    0.0011
    CHARGE:  cpu time    0.4994: real time    0.5006
    MIXING:  cpu time    0.0015: real time    0.0015
    --------------------------------------------
      LOOP:  cpu time   32.2543: real time   32.3392

 eigenvalue-minimisations  : 13040
 total energy-change (2. order) : 0.3815296E-01  (-0.9083192E-02)
 number of electron     159.0000089 magnetization 
 augmentation part       -4.1394436 magnetization 

 Broyden mixing:
  rms(total) = 0.60784E-01    rms(broyden)= 0.60591E-01
  rms(prec ) = 0.68577E-01
  weight for this iteration     100.00

 eigenvalues of (default mixing * dielectric matrix)
  average eigenvalue GAMMA=   0.7796
  2.2360  1.7974  0.9576  0.5849  0.5289  0.2982  0.2203  0.2521  0.1414

 Free energy of the ion-electron system (eV)
  ---------------------------------------------------
  alpha Z        PSCENC =        81.65567618
  Ewald energy   TEWEN  =     41891.17177387
  -Hartree energ DENC   =    -47804.05599891
  -exchange      EXHF   =         0.00000000
  -V(xc)+E(xc)   XCENC  =      -231.87464237
  PAW double counting   =      4191.92872380    -3610.08253599
  entropy T*S    EENTRO =        -0.34340259
  eigenvalues    EBANDS =     -1466.66934481
  atomic energy  EATOM  =      6761.44252427
  Solvation  Ediel_sol  =         0.00000000
  ---------------------------------------------------
  free energy    TOTEN  =      -186.82722654 eV

  energy without entropy =     -186.48382395  energy(sigma->0) =     -186.65552525


--------------------------------------------------------------------------------------------------------




----------------------------------------- Iteration    1(  15)  ---------------------------------------


    POTLOK:  cpu time    0.0302: real time    0.0306
    SETDIJ:  cpu time    0.0025: real time    0.0025
     EDDAV:  cpu time   28.8416: real time   28.9112
       DOS:  cpu time    0.0010: real time    0.0010
    CHARGE:  cpu time    0.4987: real time    0.4999
    MIXING:  cpu time    0.0016: real time    0.0016
    --------------------------------------------
      LOOP:  cpu time   29.3779: real time   29.4559

 eigenvalue-minimisations  : 11640
 total energy-change (2. order) : 0.3792819E-02  (-0.1046558E-02)
 number of electron     159.0000089 magnetization 
 augmentation part       -4.1624932 magnetization 

 Broyden mixing:
  rms(total) = 0.31836E-01    rms(broyden)= 0.31817E-01
  rms(prec ) = 0.36788E-01
  weight for this iteration     100.00

 eigenvalues of (default mixing * dielectric matrix)
  average eigenvalue GAMMA=   0.8184
  2.2913  2.0008  1.2551  0.6813  0.6813  0.3646  0.2983  0.2203  0.2500  0.1415

 Free energy of the ion-electron system (eV)
  ---------------------------------------------------
  alpha Z        PSCENC =        81.65567618
  Ewald energy   TEWEN  =     41891.17177387
  -Hartree energ DENC   =    -47806.92053705
  -exchange      EXHF   =         0.00000000
  -V(xc)+E(xc)   XCENC  =      -231.83219286
  PAW double counting   =      4193.05748761    -3611.17059091
  entropy T*S    EENTRO =        -0.34228082
  eigenvalues    EBANDS =     -1463.88529401
  atomic energy  EATOM  =      6761.44252427
  Solvation  Ediel_sol  =         0.00000000
  ---------------------------------------------------
  free energy    TOTEN  =      -186.82343372 eV

  energy without entropy =     -186.48115290  energy(sigma->0) =     -186.65229331


--------------------------------------------------------------------------------------------------------




----------------------------------------- Iteration    1(  16)  ---------------------------------------


    POTLOK:  cpu time    0.0306: real time    0.0309
    SETDIJ:  cpu time    0.0024: real time    0.0024
     EDDAV:  cpu time   31.2536: real time   31.3289
       DOS:  cpu time    0.0012: real time    0.0012
    CHARGE:  cpu time    0.5008: real time    0.5020
    MIXING:  cpu time    0.0018: real time    0.0018
    --------------------------------------------
      LOOP:  cpu time   31.7906: real time   31.8757

 eigenvalue-minimisations  : 12840
 total energy-change (2. order) :-0.1183319E-02  (-0.1026674E-02)
 number of electron     159.0000089 magnetization 
 augmentation part       -4.2025115 magnetization 

 Broyden mixing:
  rms(total) = 0.60406E-01    rms(broyden)= 0.60382E-01
  rms(prec ) = 0.67156E-01
  weight for this iteration     100.00

 eigenvalues of (default mixing * dielectric matrix)
  average eigenvalue GAMMA=   0.8006
  2.4125  2.1306  1.3936  0.7629  0.6554  0.4019  0.2986  0.2203  0.2506  0.1414
  0.1393

 Free energy of the ion-electron system (eV)
  ---------------------------------------------------
  alpha Z        PSCENC =        81.65567618
  Ewald energy   TEWEN  =     41891.17177387
  -Hartree energ DENC   =    -47811.56318240
  -exchange      EXHF   =         0.00000000
  -V(xc)+E(xc)   XCENC  =      -231.77104762
  PAW double counting   =      4194.53857267    -3612.60131127
  entropy T*S    EENTRO =        -0.34118662
  eigenvalues    EBANDS =     -1459.35643613
  atomic energy  EATOM  =      6761.44252427
  Solvation  Ediel_sol  =         0.00000000
  ---------------------------------------------------
  free energy    TOTEN  =      -186.82461704 eV

  energy without entropy =     -186.48343042  energy(sigma->0) =     -186.65402373


--------------------------------------------------------------------------------------------------------




----------------------------------------- Iteration    1(  17)  ---------------------------------------


    POTLOK:  cpu time    0.0306: real time    0.0307
    SETDIJ:  cpu time    0.0024: real time    0.0024
     EDDAV:  cpu time   31.8241: real time   31.9001
       DOS:  cpu time    0.0011: real time    0.0011
    CHARGE:  cpu time    0.5005: real time    0.5017
    MIXING:  cpu time    0.0018: real time    0.0018
    --------------------------------------------
      LOOP:  cpu time   32.3615: real time   32.4469

 eigenvalue-minimisations  : 13080
 total energy-change (2. order) : 0.2990732E-02  (-0.7679760E-03)
 number of electron     159.0000089 magnetization 
 augmentation part       -4.2149356 magnetization 

 Broyden mixing:
  rms(total) = 0.20784E-01    rms(broyden)= 0.20739E-01
  rms(prec ) = 0.24172E-01
  weight for this iteration     100.00

 eigenvalues of (default mixing * dielectric matrix)
  average eigenvalue GAMMA=   0.8202
  2.3047  2.3047  1.3522  1.1515  0.6590  0.6590  0.3770  0.2976  0.2202  0.2505
  0.1415  0.1245

 Free energy of the ion-electron system (eV)
  ---------------------------------------------------
  alpha Z        PSCENC =        81.65567618
  Ewald energy   TEWEN  =     41891.17177387
  -Hartree energ DENC   =    -47813.88654526
  -exchange      EXHF   =         0.00000000
  -V(xc)+E(xc)   XCENC  =      -231.74213446
  PAW double counting   =      4195.06666807    -3613.10712738
  entropy T*S    EENTRO =        -0.34092594
  eigenvalues    EBANDS =     -1457.08153565
  atomic energy  EATOM  =      6761.44252427
  Solvation  Ediel_sol  =         0.00000000
  ---------------------------------------------------
  free energy    TOTEN  =      -186.82162631 eV

  energy without entropy =     -186.48070037  energy(sigma->0) =     -186.65116334


--------------------------------------------------------------------------------------------------------




----------------------------------------- Iteration    1(  18)  ---------------------------------------


    POTLOK:  cpu time    0.0308: real time    0.0309
    SETDIJ:  cpu time    0.0024: real time    0.0024
     EDDAV:  cpu time   28.8667: real time   28.9362
       DOS:  cpu time    0.0011: real time    0.0011
    CHARGE:  cpu time    0.5013: real time    0.5026
    MIXING:  cpu time    0.0018: real time    0.0019
    --------------------------------------------
      LOOP:  cpu time   29.4051: real time   29.4834

 eigenvalue-minimisations  : 11680
 total energy-change (2. order) : 0.4143444E-03  (-0.1331746E-03)
 number of electron     159.0000089 magnetization 
 augmentation part       -4.1862908 magnetization 

 Broyden mixing:
  rms(total) = 0.65815E-02    rms(broyden)= 0.65674E-02
  rms(prec ) = 0.94635E-02
  weight for this iteration     100.00

 eigenvalues of (default mixing * dielectric matrix)
  average eigenvalue GAMMA=   0.8695
  2.4600  2.4600  1.5057  1.2556  0.9381  0.6378  0.6378  0.3748  0.2977  0.2202
  0.2505  0.1415  0.1242

 Free energy of the ion-electron system (eV)
  ---------------------------------------------------
  alpha Z        PSCENC =        81.65567618
  Ewald energy   TEWEN  =     41891.17177387
  -Hartree energ DENC   =    -47817.22454310
  -exchange      EXHF   =         0.00000000
  -V(xc)+E(xc)   XCENC  =      -231.71043365
  PAW double counting   =      4194.68629798    -3612.70628599
  entropy T*S    EENTRO =        -0.34157276
  eigenvalues    EBANDS =     -1453.79464877
  atomic energy  EATOM  =      6761.44252427
  Solvation  Ediel_sol  =         0.00000000
  ---------------------------------------------------
  free energy    TOTEN  =      -186.82121196 eV

  energy without entropy =     -186.47963920  energy(sigma->0) =     -186.65042558


--------------------------------------------------------------------------------------------------------




----------------------------------------- Iteration    1(  19)  ---------------------------------------


    POTLOK:  cpu time    0.0324: real time    0.0325
    SETDIJ:  cpu time    0.0023: real time    0.0023
     EDDAV:  cpu time   26.9774: real time   27.0419
       DOS:  cpu time    0.0011: real time    0.0011
    CHARGE:  cpu time    0.4993: real time    0.5005
    MIXING:  cpu time    0.0018: real time    0.0018
    --------------------------------------------
      LOOP:  cpu time   27.5152: real time   27.5887

 eigenvalue-minimisations  : 10800
 total energy-change (2. order) :-0.5361102E-03  (-0.7832555E-04)
 number of electron     159.0000089 magnetization 
 augmentation part       -4.1950310 magnetization 

 Broyden mixing:
  rms(total) = 0.92292E-02    rms(broyden)= 0.92218E-02
  rms(prec ) = 0.11401E-01
  weight for this iteration     100.00

 eigenvalues of (default mixing * dielectric matrix)
  average eigenvalue GAMMA=   0.8731
  2.6268  2.6268  1.6453  1.3274  1.0144  0.6460  0.6460  0.3753  0.2202  0.2977
  0.2505  0.2805  0.1415  0.1242

 Free energy of the ion-electron system (eV)
  ---------------------------------------------------
  alpha Z        PSCENC =        81.65567618
  Ewald energy   TEWEN  =     41891.17177387
  -Hartree energ DENC   =    -47821.64855221
  -exchange      EXHF   =         0.00000000
  -V(xc)+E(xc)   XCENC  =      -231.67373771
  PAW double counting   =      4193.67826069    -3611.68107218
  entropy T*S    EENTRO =        -0.34121931
  eigenvalues    EBANDS =     -1449.42540168
  atomic energy  EATOM  =      6761.44252427
  Solvation  Ediel_sol  =         0.00000000
  ---------------------------------------------------
  free energy    TOTEN  =      -186.82174807 eV

  energy without entropy =     -186.48052876  energy(sigma->0) =     -186.65113842


--------------------------------------------------------------------------------------------------------




----------------------------------------- Iteration    1(  20)  ---------------------------------------


    POTLOK:  cpu time    0.0311: real time    0.0312
    SETDIJ:  cpu time    0.0025: real time    0.0025
     EDDAV:  cpu time   21.4163: real time   21.4679
       DOS:  cpu time    0.0001: real time    0.0010
    CHARGE:  cpu time    0.5007: real time    0.5019
    MIXING:  cpu time    0.0021: real time    0.0021
    --------------------------------------------
      LOOP:  cpu time   21.9546: real time   22.0143

 eigenvalue-minimisations  :  8040
 total energy-change (2. order) :-0.3067520E-03  (-0.4277685E-04)
 number of electron     159.0000089 magnetization 
 augmentation part       -4.1978830 magnetization 

 Broyden mixing:
  rms(total) = 0.55240E-02    rms(broyden)= 0.55158E-02
  rms(prec ) = 0.69866E-02
  weight for this iteration     100.00

 eigenvalues of (default mixing * dielectric matrix)
  average eigenvalue GAMMA=   0.9530
  3.2806  2.5164  1.8198  1.7186  1.0048  1.0048  0.6437  0.6437  0.3753  0.2977
  0.2202  0.1415  0.2505  0.2532  0.1242

 Free energy of the ion-electron system (eV)
  ---------------------------------------------------
  alpha Z        PSCENC =        81.65567618
  Ewald energy   TEWEN  =     41891.17177387
  -Hartree energ DENC   =    -47824.30125242
  -exchange      EXHF   =         0.00000000
  -V(xc)+E(xc)   XCENC  =      -231.65279199
  PAW double counting   =      4193.11110163    -3611.10604292
  entropy T*S    EENTRO =        -0.34106306
  eigenvalues    EBANDS =     -1446.80198037
  atomic energy  EATOM  =      6761.44252427
  Solvation  Ediel_sol  =         0.00000000
  ---------------------------------------------------
  free energy    TOTEN  =      -186.82205483 eV

  energy without entropy =     -186.48099176  energy(sigma->0) =     -186.65152329


--------------------------------------------------------------------------------------------------------




----------------------------------------- Iteration    1(  21)  ---------------------------------------


    POTLOK:  cpu time    0.0305: real time    0.0307
    SETDIJ:  cpu time    0.0023: real time    0.0023
     EDDAV:  cpu time   22.9782: real time   23.0331
       DOS:  cpu time    0.0011: real time    0.0011
    CHARGE:  cpu time    0.4986: real time    0.4998
    MIXING:  cpu time    0.0019: real time    0.0019
    --------------------------------------------
      LOOP:  cpu time   23.5137: real time   23.5775

 eigenvalue-minimisations  :  8800
 total energy-change (2. order) :-0.1224714E-02  (-0.3212565E-04)
 number of electron     159.0000089 magnetization 
 augmentation part       -4.1891798 magnetization 

 Broyden mixing:
  rms(total) = 0.25619E-02    rms(broyden)= 0.25578E-02
  rms(prec ) = 0.34135E-02
  weight for this iteration     100.00

 eigenvalues of (default mixing * dielectric matrix)
  average eigenvalue GAMMA=   0.9933
  3.7512  2.4894  2.1331  1.6724  1.0826  1.0826  0.7497  0.6351  0.6351  0.3753
  0.2977  0.2202  0.1415  0.2505  0.2527  0.1242

 Free energy of the ion-electron system (eV)
  ---------------------------------------------------
  alpha Z        PSCENC =        81.65567618
  Ewald energy   TEWEN  =     41891.17177387
  -Hartree energ DENC   =    -47828.42062558
  -exchange      EXHF   =         0.00000000
  -V(xc)+E(xc)   XCENC  =      -231.62457720
  PAW double counting   =      4192.47554652    -3610.46832401
  entropy T*S    EENTRO =        -0.34117557
  eigenvalues    EBANDS =     -1442.71409802
  atomic energy  EATOM  =      6761.44252427
  Solvation  Ediel_sol  =         0.00000000
  ---------------------------------------------------
  free energy    TOTEN  =      -186.82327954 eV

  energy without entropy =     -186.48210397  energy(sigma->0) =     -186.65269175


--------------------------------------------------------------------------------------------------------




----------------------------------------- Iteration    1(  22)  ---------------------------------------


    POTLOK:  cpu time    0.0306: real time    0.0307
    SETDIJ:  cpu time    0.0023: real time    0.0023
     EDDAV:  cpu time   18.4342: real time   18.4786
       DOS:  cpu time    0.0002: real time    0.0011
    CHARGE:  cpu time    0.4997: real time    0.5009
    MIXING:  cpu time    0.0011: real time    0.0021
    --------------------------------------------
      LOOP:  cpu time   18.9710: real time   19.0245

 eigenvalue-minimisations  :  6560
 total energy-change (2. order) :-0.7920416E-03  (-0.7625050E-05)
 number of electron     159.0000089 magnetization 
 augmentation part       -4.1897070 magnetization 

 Broyden mixing:
  rms(total) = 0.24447E-02    rms(broyden)= 0.24428E-02
  rms(prec ) = 0.30496E-02
  weight for this iteration     100.00

 eigenvalues of (default mixing * dielectric matrix)
  average eigenvalue GAMMA=   1.0672
  4.7657  2.4837  2.4837  1.6608  1.3763  1.0564  0.9819  0.6402  0.6402  0.3753
  0.3905  0.2977  0.2202  0.2505  0.2526  0.1415  0.1242

 Free energy of the ion-electron system (eV)
  ---------------------------------------------------
  alpha Z        PSCENC =        81.65567618
  Ewald energy   TEWEN  =     41891.17177387
  -Hartree energ DENC   =    -47830.22094201
[...]
    104      -0.5599      0.00000
    105      -0.4805      0.00000
    106      -0.4050      0.00000
    107      -0.3456      0.00000
    108      -0.1122      0.00000
    109       0.0116      0.00000
    110       0.1350      0.00000
    111       0.3550      0.00000
    112       0.5858      0.00000
    113       0.7498      0.00000
    114       0.9842      0.00000
    115       1.1782      0.00000
    116       1.3063      0.00000
    117       1.5713      0.00000
    118       2.1624      0.00000
    119       2.3106      0.00000
    120       2.4210      0.00000

 k-point    34 :       0.5000    0.5000    0.0000
  band No.  band energies     occupation 
      1     -17.5053      2.00000
      2     -17.3492      2.00000
      3     -16.7442      2.00000
      4     -16.7168      2.00000
      5     -16.5815      2.00000
      6     -16.5541      2.00000
      7     -16.2775      2.00000
      8     -16.1979      2.00000
      9     -16.1194      2.00000
     10     -16.0822      2.00000
     11     -15.8785      2.00000
     12     -15.8365      2.00000
     13     -15.7710      2.00000
     14     -15.6973      2.00000
     15     -15.6411      2.00000
     16     -15.4311      2.00000
     17     -15.3391      2.00000
     18     -15.2104      2.00000
     19      -9.8138      2.00000
     20      -9.3526      2.00000
     21      -9.3033      2.00000
     22      -9.0064      2.00000
     23      -8.9386      2.00000
     24      -8.8308      2.00000
     25      -8.6806      2.00000
     26      -8.6631      2.00000
     27      -8.4391      2.00000
     28      -8.2916      2.00000
     29      -8.2272      2.00000
     30      -8.1316      2.00000
     31      -8.0825      2.00000
     32      -8.0106      2.00000
     33      -7.9208      2.00000
     34      -7.8465      2.00000
     35      -7.7483      2.00000
     36      -7.6823      2.00000
     37      -7.6432      2.00000
     38      -7.6002      2.00000
     39      -7.4693      2.00000
     40      -7.3377      2.00000
     41      -7.0909      2.00000
     42      -7.0748      2.00000
     43      -7.0000      2.00000
     44      -6.8546      2.00000
     45      -6.8234      2.00000
     46      -6.7145      2.00000
     47      -6.6530      2.00000
     48      -6.5902      2.00000
     49      -6.5234      2.00000
     50      -6.4619      2.00000
     51      -6.4131      2.00000
     52      -6.3456      2.00000
     53      -6.2712      2.00000
     54      -6.1834      2.00000
     55      -6.1106      2.00000
     56      -6.0949      2.00000
     57      -6.0104      2.00000
     58      -5.8477      2.00000
     59      -5.8181      2.00000
     60      -5.7927      2.00000
     61      -5.6292      2.00000
     62      -5.5969      2.00000
     63      -5.5326      2.00000
     64      -5.4083      2.00000
     65      -5.2234      2.00000
     66      -5.0707      2.00000
     67      -4.9990      2.00000
     68      -4.9527      2.00000
     69      -4.8322      2.00000
     70      -4.6312      2.00000
     71      -4.5818      2.00000
     72      -4.4533      2.00000
     73      -4.3325      2.00000
     74      -4.1785      2.00000
     75      -4.0350      2.00000
     76      -4.0131      2.00000
     77      -3.8576      1.99998
     78      -3.6856      1.99802
     79      -3.4850      1.90610
     80      -3.3274      1.42497
     81      -2.9890      0.06696
     82      -2.9556      0.03864
     83      -2.6595      0.00003
     84      -2.6111      0.00001
     85      -2.4607      0.00000
     86      -2.3360      0.00000
     87      -2.1897      0.00000
     88      -2.1021      0.00000
     89      -1.9237      0.00000
     90      -1.8465      0.00000
     91      -1.6623      0.00000
     92      -1.5718      0.00000
     93      -1.3914      0.00000
     94      -1.3627      0.00000
     95      -1.1988      0.00000
     96      -1.0933      0.00000
     97      -1.0717      0.00000
     98      -0.9992      0.00000
     99      -0.9302      0.00000
    100      -0.8948      0.00000
    101      -0.8247      0.00000
    102      -0.7104      0.00000
    103      -0.6348      0.00000
    104      -0.6028      0.00000
    105      -0.4835      0.00000
    106      -0.4073      0.00000
    107      -0.2949      0.00000
    108      -0.1238      0.00000
    109       0.0212      0.00000
    110       0.1956      0.00000
    111       0.2739      0.00000
    112       0.5855      0.00000
    113       0.7706      0.00000
    114       1.0417      0.00000
    115       1.1395      0.00000
    116       1.3264      0.00000
    117       1.5674      0.00000
    118       2.2519      0.00000
    119       2.2660      0.00000
    120       2.4056      0.00000


--------------------------------------------------------------------------------------------------------


 soft charge-density along one line, spin component           1
         0         1         2         3         4         5         6         7         8         9
 total charge-density along one line
 
 pseudopotential strength for first ion, spin component:           1
 -7.220  -0.012  -0.024   0.010   0.001   0.674   0.003   0.007
 -0.012  -7.130   0.004   0.018  -0.011   0.003   0.646  -0.001
 -0.024   0.004  -7.079  -0.005  -0.006   0.007  -0.001   0.633
  0.010   0.018  -0.005  -7.120   0.003  -0.003  -0.005   0.001
  0.001  -0.011  -0.006   0.003  -7.219  -0.000   0.003   0.002
  0.674   0.003   0.007  -0.003  -0.000   0.333  -0.000  -0.002
  0.003   0.646  -0.001  -0.005   0.003  -0.000   0.341   0.001
  0.007  -0.001   0.633   0.001   0.002  -0.002   0.001   0.344
 -0.003  -0.005   0.001   0.644  -0.000   0.001   0.001  -0.000
 -0.000   0.003   0.002  -0.000   0.674   0.000  -0.001  -0.001
 -0.007  -0.003  -0.021   0.002  -0.002   0.002   0.001   0.005
 -0.002  -0.001  -0.007   0.001  -0.000   0.001   0.000   0.002
 -0.004  -0.004   0.001  -0.003   0.005  -0.000   0.001   0.001
 -0.003  -0.009  -0.002  -0.006   0.001   0.000   0.000   0.001
 -0.006  -0.003   0.001  -0.001  -0.004  -0.000   0.000   0.000
 -0.003  -0.002  -0.000  -0.003   0.003   0.001   0.000   0.000
 -0.003  -0.007  -0.000  -0.005   0.001   0.000   0.001   0.000
 -0.003  -0.003   0.001   0.000  -0.003   0.000   0.000  -0.000
 total augmentation occupancy for first ion, spin component:           1
  0.806   0.156  -0.050  -0.002   0.034   0.436   0.225  -0.004  -0.001   0.008   0.032  -0.001   0.012  -0.063  -0.003   0.002
  0.156   1.070   0.036  -0.013  -0.021   0.222   0.637   0.036  -0.007  -0.005   0.008   0.004  -0.046  -0.079  -0.060  -0.002
 -0.050   0.036   0.855  -0.001  -0.013  -0.002   0.036   0.344   0.021  -0.001   0.149   0.005  -0.073  -0.001  -0.037  -0.003
 -0.002  -0.013  -0.001   1.074  -0.149  -0.001  -0.007   0.021   0.653  -0.202   0.016   0.002  -0.071  -0.030   0.009  -0.002
  0.034  -0.021  -0.013  -0.149   0.829   0.008  -0.006  -0.002  -0.205   0.442  -0.015   0.002  -0.020   0.025   0.008  -0.002
  0.436   0.222  -0.002  -0.001   0.008   0.375   0.225   0.004   0.001  -0.005  -0.011  -0.001  -0.014  -0.066  -0.026   0.001
  0.225   0.637   0.036  -0.007  -0.006   0.225   0.574   0.024  -0.000  -0.008   0.026   0.004  -0.047  -0.090  -0.065  -0.004
 -0.004   0.036   0.344   0.021  -0.002   0.004   0.024   0.275   0.014  -0.005   0.041   0.009  -0.020  -0.005  -0.012  -0.004
 -0.001  -0.007   0.021   0.653  -0.205   0.001  -0.000   0.014   0.579  -0.209   0.033   0.004  -0.062  -0.048   0.023  -0.005
  0.008  -0.005  -0.001  -0.202   0.442  -0.005  -0.008  -0.005  -0.209   0.364   0.010   0.001   0.027   0.038  -0.010  -0.000
  0.032   0.008   0.149   0.016  -0.015  -0.011   0.026   0.041   0.033   0.010   1.390   0.138  -0.045  -0.022  -0.007  -0.002
 -0.001   0.004   0.005   0.002   0.002  -0.001   0.004   0.009   0.004   0.001   0.138   0.026  -0.009  -0.001  -0.005  -0.001
  0.012  -0.046  -0.073  -0.071  -0.020  -0.014  -0.047  -0.020  -0.062   0.027  -0.045  -0.009   0.356   0.006   0.007   0.026
 -0.063  -0.079  -0.001  -0.030   0.025  -0.066  -0.090  -0.005  -0.048   0.038  -0.022  -0.001   0.006   0.421   0.009  -0.000
 -0.003  -0.060  -0.037   0.009   0.008  -0.026  -0.065  -0.012   0.023  -0.010  -0.007  -0.005   0.007   0.009   0.352  -0.000
  0.002  -0.002  -0.003  -0.002  -0.002   0.001  -0.004  -0.004  -0.005  -0.000  -0.002  -0.001   0.026  -0.000  -0.000   0.003
 -0.003   0.001  -0.000   0.001   0.001  -0.005  -0.005  -0.000  -0.002   0.003  -0.001  -0.000  -0.000   0.029   0.000   0.000
  0.003  -0.002  -0.002   0.000   0.002   0.001  -0.005  -0.003   0.002   0.001  -0.001  -0.000  -0.000   0.000   0.027  -0.000


------------------------ aborting loop because EDIFF is reached ----------------------------------------


    CHARGE:  cpu time    0.4570: real time    0.4581
    FORLOC:  cpu time    0.0063: real time    0.0063
    FORNL :  cpu time    5.3157: real time    5.3284
    STRESS:  cpu time   32.0982: real time   32.1749
    FORCOR:  cpu time    0.0332: real time    0.0336
    FORHAR:  cpu time    0.0123: real time    0.0124
    MIXING:  cpu time    0.0011: real time    0.0011
    OFIELD:  cpu time    0.0000: real time    0.0000

  FORCE on cell =-STRESS in cart. coord.  units (eV):
  Direction    XX          YY          ZZ          XY          YZ          ZX
  --------------------------------------------------------------------------------------
  Alpha Z    89.47683    89.47683    89.47683
  Ewald   49339.55735 49292.94209-54255.37373   -39.46548    21.72467    12.14018
  Hartree 50045.16793 50015.52299-49676.13725   -25.27250    12.14439     6.93260
  E(xc)    -609.57131  -610.63354  -617.85607    -0.92249    -0.95716    -0.54121
  Local  ************************101368.99256    57.87286   -42.03329   -23.73128
  n-local  1213.53129  1215.42978  1248.74032     1.65253    -2.30445    -1.42895
  augment  -213.33714  -212.84525  -214.64879     0.46822     1.00141     0.57161
  Kinetic  2008.23038  2014.84534  2054.80001     5.65727    10.23547     5.94753
  Fock        0.00000     0.00000     0.00000     0.00000     0.00000     0.00000
  -------------------------------------------------------------------------------------
  Total      -0.21137    -0.19440    -2.00611    -0.00959    -0.18897    -0.10953
  in kB      -0.14154    -0.13018    -1.34335    -0.00642    -0.12654    -0.07334
  external pressure =       -0.54 kB  Pullay stress =        0.00 kB


 VOLUME and BASIS-vectors are now :
 -----------------------------------------------------------------------------
  energy-cutoff  :      280.00
  volume of cell :     2392.64
      direct lattice vectors                 reciprocal lattice vectors
     8.308872143  4.822578237  0.000000000     0.060031698  0.103928701  0.000000000
    -8.288785449  4.787800297  0.000000000    -0.060467761  0.104180558  0.000000000
     0.000000000  0.000000000 30.000000000     0.000000000  0.000000000  0.033333333

  length of vectors
     9.607008751  9.572199116 30.000000000     0.120020747  0.120457207  0.033333333


 FORCES acting on ions
    electron-ion (+dipol)            ewald-force                    non-local-force                 convergence-correction
 -----------------------------------------------------------------------------------------------
   -.128E+02 -.204E+02 -.161E+02   0.139E+02 0.216E+02 0.159E+02   -.104E+01 -.118E+01 0.232E+00   0.323E-01 -.161E-02 0.269E-01
   0.131E+02 0.230E+02 0.141E+02   -.139E+02 -.243E+02 -.138E+02   0.760E+00 0.133E+01 -.273E+00   0.194E-02 -.241E-01 -.277E-01
   -.113E+02 -.220E+02 -.164E+02   0.118E+02 0.234E+02 0.161E+02   -.498E+00 -.147E+01 0.222E+00   0.901E-02 0.259E-01 0.294E-01
   0.554E+01 -.233E+01 -.198E+01   -.532E+01 0.224E+01 0.199E+01   -.245E+00 0.932E-01 -.257E-01   -.163E-02 0.105E-01 0.154E-03
   -.497E+01 -.122E+02 -.327E+01   0.488E+01 0.120E+02 0.325E+01   0.101E+00 0.179E+00 0.133E-01   0.235E-01 0.719E-02 0.499E-02
   -.636E+01 0.450E+01 -.212E+01   0.616E+01 -.432E+01 0.214E+01   0.215E+00 -.156E+00 -.293E-01   -.242E-01 -.184E-01 -.472E-02
   -.175E+02 -.298E+02 -.197E+02   0.179E+02 0.305E+02 0.196E+02   -.384E+00 -.657E+00 0.167E+00   -.182E-01 0.288E-01 0.794E-02
   0.145E+02 0.300E+02 0.236E+02   -.149E+02 -.309E+02 -.234E+02   0.318E+00 0.835E+00 -.213E+00   0.887E-02 -.209E-01 -.628E-02
   0.185E+02 0.268E+02 0.240E+02   -.190E+02 -.275E+02 -.238E+02   0.591E+00 0.716E+00 -.225E+00   -.421E-01 -.468E-02 -.102E-01
   -.750E+01 -.555E+01 0.496E+03   0.737E+01 0.493E+01 -.501E+03   0.123E+00 0.597E+00 0.505E+01   0.130E-02 0.121E-01 -.165E-01
   0.570E+01 0.130E+02 -.488E+03   -.550E+01 -.133E+02 0.493E+03   -.241E+00 0.256E+00 -.487E+01   0.501E-01 -.116E-01 -.785E-02
   -.151E+01 -.963E+01 0.496E+03   0.107E+01 0.921E+01 -.501E+03   0.469E+00 0.398E+00 0.505E+01   -.370E-01 0.133E-01 0.219E-01
   0.639E+01 0.107E+02 -.505E+03   -.619E+01 -.104E+02 0.510E+03   -.186E+00 -.297E+00 -.524E+01   -.234E-01 -.302E-02 0.108E-01
   -.367E+01 -.656E+01 0.479E+03   0.349E+01 0.633E+01 -.484E+03   0.112E+00 0.214E+00 0.457E+01   0.599E-01 0.104E-01 0.294E-01
   0.803E+01 0.110E+02 -.487E+03   -.835E+01 -.109E+02 0.492E+03   0.355E+00 -.942E-01 -.486E+01   -.390E-01 -.636E-02 -.376E-01
   0.106E+02 0.216E+02 0.606E+03   -.109E+02 -.224E+02 -.610E+03   0.279E+00 0.823E+00 0.366E+01   0.273E-01 -.607E-01 0.192E-01
   0.854E+01 0.151E+02 -.606E+03   -.919E+01 -.163E+02 0.609E+03   0.658E+00 0.124E+01 -.318E+01   -.189E-01 -.464E-01 -.332E-02
   0.113E+02 0.185E+02 0.633E+03   -.115E+02 -.189E+02 -.637E+03   0.206E+00 0.357E+00 0.404E+01   -.150E-01 0.308E-02 -.564E-02
   0.313E+01 0.989E+01 -.614E+03   -.405E+01 -.109E+02 0.617E+03   0.916E+00 0.101E+01 -.349E+01   0.433E-02 0.162E-01 0.215E-01
   0.128E+02 0.201E+02 0.606E+03   -.133E+02 -.207E+02 -.610E+03   0.570E+00 0.640E+00 0.367E+01   -.578E-01 -.206E-01 0.325E-01
   0.673E+01 0.677E+01 -.611E+03   -.721E+01 -.809E+01 0.614E+03   0.491E+00 0.132E+01 -.350E+01   -.658E-02 -.603E-02 0.169E-01
   -.758E+01 -.128E+02 0.620E+03   0.830E+01 0.139E+02 -.624E+03   -.715E+00 -.113E+01 0.347E+01   -.195E-02 0.177E-02 -.176E-01
   -.176E+02 -.178E+02 -.610E+03   0.180E+02 0.185E+02 0.614E+03   -.493E+00 -.656E+00 -.366E+01   0.112E-02 0.139E-01 0.992E-02
   -.542E+01 -.152E+02 0.591E+03   0.622E+01 0.169E+02 -.594E+03   -.822E+00 -.168E+01 0.310E+01   0.191E-01 0.400E-01 0.222E-01
   -.736E+01 -.239E+02 -.611E+03   0.769E+01 0.247E+02 0.614E+03   -.322E+00 -.766E+00 -.364E+01   -.144E-01 0.517E-01 -.288E-01
   -.981E+01 -.114E+02 0.588E+03   0.109E+02 0.131E+02 -.591E+03   -.104E+01 -.163E+01 0.309E+01   0.234E-02 -.124E-01 -.256E-01
   -.111E+02 -.206E+02 -.587E+03   0.116E+02 0.216E+02 0.590E+03   -.591E+00 -.101E+01 -.323E+01   0.587E-01 0.532E-02 -.296E-01
 -----------------------------------------------------------------------------------------------
   0.410E+00 0.728E+00 0.735E-01   0.178E-13 -.391E-13 -.341E-12   -.413E+00 -.736E+00 -.109E+00   -.305E-03 0.317E-02 0.324E-01
 
 
 POSITION                                       TOTAL-FORCE (eV/Angst)
 -----------------------------------------------------------------------------------
     -0.14964     -0.24849      0.05787         0.002989     -0.001817      0.029005
      2.90428      1.84129     -0.05368         0.000440      0.007012     -0.027567
     -5.66338      2.93663      0.05953         0.000997      0.017171      0.027316
      2.81877      4.78858      0.00597        -0.033584      0.011301     -0.007249
     -0.01113      6.33456      0.00962         0.027679     -0.035663     -0.002297
      5.48590      3.24707      0.00626        -0.003909      0.007044     -0.006504
      5.37816      6.13030      0.06342         0.003335      0.001679      0.016159
      0.15315      3.49396     -0.07237        -0.000347     -0.006314     -0.014009
     -2.57558      5.07292     -0.07332         0.002600     -0.000441     -0.017992
     -0.91163      1.58753     28.69253        -0.000599     -0.014207      0.009926
      0.93498      1.59858      1.28085         0.009289     -0.000962     -0.007984
     -3.69578      3.19642     28.69146        -0.007796     -0.004639      0.005529
     -1.84140      3.19345      1.32865        -0.002172      0.000419     -0.007283
     -6.45059      4.77924     28.74495        -0.006886     -0.003230      0.011797
     -4.60860      4.80106      1.27884         0.002181      0.014925     -0.010116
      1.88883      3.19424     28.34192         0.006325      0.017721     -0.015659
      3.67440      3.17752      1.62355        -0.009175     -0.007727     -0.027635
     -0.87724      4.86008     28.25602         0.006344     -0.000702     -0.013190
      0.96213      4.83648      1.64997        -0.007605     -0.021439      0.007013
     -3.70455      6.42690     28.34206         0.013468      0.017716     -0.013321
     -1.81607      6.44664      1.64196        -0.001840     -0.008933     -0.016917
      4.59847      4.77868     28.33536         0.001044      0.012255      0.003349
      6.47633      4.78194      1.66869        -0.006848     -0.004648      0.018354
      1.87078      6.42629     28.42216         0.001135      0.021594     -0.006904
      3.66354      6.40747      1.67047        -0.001268     -0.005888      0.020680
     -0.89921      8.02278     28.42933         0.017453      0.006945      0.018345
      0.94495      8.01784      1.59792        -0.013250     -0.019173      0.027151
 -----------------------------------------------------------------------------------
    total drift:                               -0.003100     -0.004297     -0.003137


--------------------------------------------------------------------------------------------------------



  FREE ENERGIE OF THE ION-ELECTRON SYSTEM (eV)
  ---------------------------------------------------
  free  energy   TOTEN  =      -192.33818674 eV

  energy  without entropy=     -192.20524044  energy(sigma->0) =     -192.27171359
 
 d Force = 0.9080748E-03[ 0.831E-03, 0.985E-03]  d Energy = 0.8357294E-03 0.723E-04
 d Force =-0.2824735E+01[-0.282E+01,-0.283E+01]  d Ewald  =-0.5262728E+01 0.244E+01


--------------------------------------------------------------------------------------------------------


    POTLOK:  cpu time    0.0344: real time    0.0345


--------------------------------------------------------------------------------------------------------


 Quasi-Newton relaxation of ions (Broydens 2nd method)
  g(Force)  = 0.724E-03   g(Stress)= 0.148E-03

 retain information from N=  1 steps
 eigenvalues of (default step * inverse Hessian matrix)
  average eigenvalue of G=   0.0979
 eigenvalue spectrum of G is  0.0979


--------------------------------------------------------------------------------------------------------


  
 reached required accuracy - stopping structural energy minimisation
     LOOP+:  cpu time  133.7560: real time  134.0897
    4ORBIT:  cpu time    0.0000: real time    0.0000

 total amount of memory used by VASP on root node   650782. kBytes
========================================================================

   base      :      30000. kBytes
   nonl-proj :     559647. kBytes
   fftplans  :       2414. kBytes
   grid      :      12150. kBytes
   one-center:        419. kBytes
   wavefun   :      46152. kBytes
 
  
  
 General timing and accounting informations for this job:
 ========================================================
  
                  Total CPU time used (sec):     6052.901
                            User time (sec):     6031.980
                          System time (sec):       20.922
                         Elapsed time (sec):     6069.253
  
                   Maximum memory used (kb):      736952.
                   Average memory used (kb):           0.
  
                          Minor page faults:      1051172
                          Major page faults:            2
                 Voluntary context switches:         4876
