   27   27  100    1
  0.9710400E+02  0.1002848E-08  0.1002848E-08  0.3000000E-08  0.5000000E-15
  1.000000000000000E-004
  CAR 
 unknown system                          
    159     34    120
 
  0.0000000E+00  0.0000000E+00  0.0000000E+00  0.1562500E-01
    1      -17.811100   1.000000
    2      -16.706034   1.000000
    3      -16.645114   1.000000
    4      -16.581685   1.000000
    5      -16.522996   1.000000
    6      -16.473658   1.000000
    7      -16.395322   1.000000
    8      -16.252394   1.000000
    9      -16.128394   1.000000
   10      -16.086571   1.000000
   11      -16.079004   1.000000
   12      -15.941076   1.000000
   13      -15.916575   1.000000
   14      -15.756087   1.000000
   15      -15.576104   1.000000
   16      -15.557363   1.000000
   17      -15.407820   1.000000
   18      -15.330804   1.000000
   19       -9.304835   1.000000
   20       -8.973477   1.000000
   21       -8.941635   1.000000
   22       -8.828447   1.000000
   23       -8.757197   1.000000
   24       -8.675004   1.000000
   25       -8.653848   1.000000
   26       -8.603144   1.000000
   27       -8.496466   1.000000
   28       -8.493261   1.000000
   29       -8.431929   1.000000
   30       -8.400620   1.000000
   31       -8.256224   1.000000
   32       -8.120210   1.000000
   33       -8.074953   1.000000
   34       -7.954645   1.000000
   35       -7.816022   1.000000
   36       -7.783662   1.000000
   37       -7.720041   1.000000
   38       -7.511944   1.000000
   39       -7.503651   1.000000
   40       -7.404757   1.000000
   41       -7.356065   1.000000
   42       -7.320567   1.000000
   43       -7.113368   1.000000
   44       -6.879400   1.000000
   45       -6.839040   1.000000
   46       -6.782146   1.000000
   47       -6.768120   1.000000
   48       -6.557926   1.000000
   49       -6.510407   1.000000
   50       -6.445840   1.000000
   51       -6.420728   1.000000
   52       -6.375133   1.000000
   53       -6.349692   1.000000
   54       -6.334458   1.000000
   55       -6.237363   1.000000
   56       -6.169149   1.000000
   57       -6.117395   1.000000
   58       -5.970662   1.000000
   59       -5.777418   1.000000
   60       -5.621657   1.000000
   61       -5.351218   1.000000
   62       -5.327020   1.000000
   63       -5.272197   1.000000
   64       -5.186548   1.000000
   65       -5.041988   1.000000
   66       -4.993131   1.000000
   67       -4.943209   1.000000
   68       -4.870257   1.000000
   69       -4.822410   1.000000
   70       -4.707442   1.000000
   71       -4.679085   1.000000
   72       -4.590986   1.000000
   73       -4.564123   1.000000
   74       -4.331011   1.000000
   75       -4.112927   1.000000
   76       -3.926243   1.000000
   77       -3.711415   0.999881
   78       -3.576355   0.996741
   79       -3.421251   0.947792
   80       -3.391167   0.920890
   81       -3.222874   0.587483
   82       -2.904241   0.021076
   83       -2.885936   0.015331
   84       -2.684892   0.000170
   85       -2.560407   0.000004
   86       -2.463576   0.000000
   87       -2.418911   0.000000
   88       -2.273497   0.000000
   89       -2.152506   0.000000
   90       -2.102241   0.000000
   91       -1.819307   0.000000
   92       -1.702588   0.000000
   93       -1.560764   0.000000
   94       -1.405220   0.000000
   95       -1.196654   0.000000
   96       -0.975536   0.000000
   97       -0.867575   0.000000
   98       -0.857754   0.000000
   99       -0.750842   0.000000
  100       -0.561628   0.000000
  101       -0.515361   0.000000
  102       -0.473878   0.000000
  103       -0.391946   0.000000
  104       -0.359607   0.000000
  105       -0.199497   0.000000
  106       -0.152729   0.000000
  107       -0.094345   0.000000
  108        0.034737   0.000000
  109        0.220438   0.000000
  110        0.259849   0.000000
  111        0.275506   0.000000
  112        0.432481   0.000000
  113        0.822091   0.000000
  114        0.882826   0.000000
  115        0.916029   0.000000
  116        1.083467   0.000000
  117        1.205130   0.000000
  118        1.648433   0.000000
  119        1.833419   0.000000
  120        2.158582   0.000000
 
  0.1250000E+00  0.2775558E-16  0.0000000E+00  0.3125000E-01
    1      -17.786606   1.000000
    2      -16.767826   1.000000
    3      -16.698224   1.000000
    4      -16.617267   1.000000
    5      -16.545009   1.000000
    6      -16.434586   1.000000
    7      -16.367284   1.000000
    8      -16.248073   1.000000
    9      -16.120470   1.000000
   10      -16.064631   1.000000
   11      -16.023680   1.000000
   12      -15.947669   1.000000
   13      -15.882788   1.000000
   14      -15.745576   1.000000
   15      -15.591761   1.000000
   16      -15.555405   1.000000
   17      -15.424712   1.000000
   18      -15.335089   1.000000
   19       -9.305032   1.000000
   20       -9.117576   1.000000
   21       -9.020541   1.000000
   22       -8.928887   1.000000
   23       -8.795162   1.000000
   24       -8.698281   1.000000
   25       -8.672095   1.000000
   26       -8.611667   1.000000
   27       -8.512697   1.000000
   28       -8.500834   1.000000
   29       -8.384943   1.000000
   30       -8.256776   1.000000
   31       -8.164648   1.000000
   32       -8.052627   1.000000
   33       -7.980354   1.000000
   34       -7.892050   1.000000
   35       -7.809532   1.000000
   36       -7.716621   1.000000
   37       -7.684849   1.000000
   38       -7.552993   1.000000
   39       -7.500578   1.000000
   40       -7.434155   1.000000
   41       -7.327431   1.000000
   42       -7.259709   1.000000
   43       -7.165990   1.000000
   44       -6.939326   1.000000
   45       -6.832783   1.000000
   46       -6.805023   1.000000
   47       -6.720061   1.000000
   48       -6.626629   1.000000
   49       -6.513448   1.000000
   50       -6.460162   1.000000
   51       -6.453236   1.000000
   52       -6.384547   1.000000
   53       -6.335990   1.000000
   54       -6.298056   1.000000
   55       -6.226883   1.000000
   56       -6.159631   1.000000
   57       -6.081467   1.000000
   58       -5.971170   1.000000
   59       -5.737323   1.000000
   60       -5.579882   1.000000
   61       -5.424039   1.000000
   62       -5.324261   1.000000
   63       -5.270096   1.000000
   64       -5.227473   1.000000
   65       -5.164034   1.000000
   66       -5.047727   1.000000
   67       -4.982658   1.000000
   68       -4.937891   1.000000
   69       -4.828728   1.000000
   70       -4.688205   1.000000
   71       -4.651201   1.000000
   72       -4.553874   1.000000
   73       -4.485111   1.000000
   74       -4.220107   1.000000
   75       -4.093568   1.000000
   76       -3.871802   0.999999
   77       -3.770527   0.999979
   78       -3.665751   0.999600
   79       -3.584163   0.997246
   80       -3.321453   0.820724
   81       -3.075986   0.206798
   82       -2.892825   0.017312
   83       -2.877006   0.013055
   84       -2.683676   0.000164
   85       -2.570355   0.000006
   86       -2.466789   0.000000
   87       -2.402398   0.000000
   88       -2.273558   0.000000
   89       -2.149550   0.000000
   90       -2.107676   0.000000
   91       -1.811773   0.000000
   92       -1.698078   0.000000
   93       -1.551086   0.000000
   94       -1.393016   0.000000
   95       -1.186581   0.000000
   96       -0.972258   0.000000
   97       -0.887770   0.000000
   98       -0.855040   0.000000
   99       -0.760706   0.000000
  100       -0.607181   0.000000
  101       -0.582582   0.000000
  102       -0.538884   0.000000
  103       -0.488307   0.000000
  104       -0.384859   0.000000
  105       -0.292960   0.000000
  106       -0.193480   0.000000
  107       -0.120796   0.000000
  108        0.128585   0.000000
  109        0.210863   0.000000
  110        0.265616   0.000000
  111        0.324598   0.000000
  112        0.401404   0.000000
  113        0.677364   0.000000
  114        0.868534   0.000000
  115        1.066086   0.000000
  116        1.169860   0.000000
  117        1.226518   0.000000
  118        1.692510   0.000000
  119        1.873418   0.000000
  120        2.193647   0.000000
 
  0.2500000E+00  0.5551115E-16  0.0000000E+00  0.3125000E-01
    1      -17.715047   1.000000
    2      -16.969161   1.000000
    3      -16.716548   1.000000
    4      -16.661151   1.000000
    5      -16.592071   1.000000
    6      -16.382332   1.000000
    7      -16.361206   1.000000
    8      -16.187221   1.000000
    9      -16.094357   1.000000
   10      -16.031184   1.000000
   11      -16.003745   1.000000
   12      -15.894120   1.000000
   13      -15.809310   1.000000
   14      -15.727985   1.000000
   15      -15.612888   1.000000
   16      -15.561385   1.000000
   17      -15.456281   1.000000
   18      -15.352743   1.000000
   19       -9.479402   1.000000
   20       -9.229429   1.000000
   21       -9.128482   1.000000
   22       -9.017725   1.000000
   23       -8.923962   1.000000
   24       -8.796843   1.000000
   25       -8.628431   1.000000
   26       -8.562179   1.000000
   27       -8.484866   1.000000
   28       -8.410824   1.000000
   29       -8.313311   1.000000
   30       -8.185586   1.000000
   31       -8.112155   1.000000
   32       -8.049210   1.000000
   33       -7.891093   1.000000
   34       -7.775353   1.000000
   35       -7.743734   1.000000
   36       -7.636269   1.000000
   37       -7.604995   1.000000
   38       -7.529653   1.000000
   39       -7.433468   1.000000
   40       -7.368375   1.000000
   41       -7.312078   1.000000
   42       -7.229760   1.000000
   43       -7.132004   1.000000
   44       -6.985910   1.000000
   45       -6.863152   1.000000
   46       -6.774768   1.000000
   47       -6.713953   1.000000
   48       -6.641332   1.000000
   49       -6.573438   1.000000
   50       -6.528250   1.000000
   51       -6.465194   1.000000
   52       -6.407178   1.000000
   53       -6.317413   1.000000
   54       -6.254070   1.000000
   55       -6.169409   1.000000
   56       -6.099692   1.000000
   57       -6.011384   1.000000
   58       -5.928825   1.000000
   59       -5.691388   1.000000
   60       -5.647393   1.000000
   61       -5.563622   1.000000
   62       -5.558074   1.000000
   63       -5.399120   1.000000
   64       -5.321804   1.000000
   65       -5.216526   1.000000
   66       -5.084244   1.000000
   67       -5.025518   1.000000
   68       -4.918052   1.000000
   69       -4.784317   1.000000
   70       -4.682865   1.000000
   71       -4.553742   1.000000
   72       -4.471764   1.000000
   73       -4.366824   1.000000
   74       -4.244078   1.000000
   75       -4.075594   1.000000
   76       -3.980333   1.000000
   77       -3.879418   0.999999
   78       -3.680580   0.999727
   79       -3.489799   0.982507
   80       -3.256461   0.676728
   81       -2.983434   0.070507
   82       -2.873116   0.012158
   83       -2.836051   0.005966
   84       -2.681107   0.000153
   85       -2.589214   0.000010
   86       -2.485233   0.000000
   87       -2.365073   0.000000
   88       -2.260453   0.000000
   89       -2.161934   0.000000
   90       -2.082775   0.000000
   91       -1.790310   0.000000
   92       -1.690331   0.000000
   93       -1.531243   0.000000
   94       -1.361630   0.000000
   95       -1.163914   0.000000
   96       -1.006135   0.000000
   97       -0.935495   0.000000
   98       -0.885961   0.000000
   99       -0.827672   0.000000
  100       -0.727410   0.000000
  101       -0.689468   0.000000
  102       -0.652318   0.000000
  103       -0.595472   0.000000
  104       -0.491132   0.000000
  105       -0.378505   0.000000
  106       -0.245941   0.000000
  107       -0.171761   0.000000
  108        0.060277   0.000000
  109        0.110149   0.000000
  110        0.280663   0.000000
  111        0.360633   0.000000
  112        0.447927   0.000000
  113        0.614764   0.000000
  114        0.897988   0.000000
  115        1.207975   0.000000
  116        1.273991   0.000000
  117        1.343510   0.000000
  118        1.815528   0.000000
  119        1.987628   0.000000
  120        2.297623   0.000000
 
  0.3750000E+00  0.0000000E+00  0.0000000E+00  0.3125000E-01
    1      -17.605827   1.000000
    2      -17.173801   1.000000
    3      -16.753282   1.000000
    4      -16.663321   1.000000
    5      -16.623039   1.000000
    6      -16.404534   1.000000
    7      -16.326025   1.000000
    8      -16.124301   1.000000
    9      -16.071036   1.000000
   10      -16.014769   1.000000
   11      -15.948832   1.000000
   12      -15.867797   1.000000
   13      -15.777932   1.000000
   14      -15.712418   1.000000
   15      -15.626897   1.000000
   16      -15.565470   1.000000
   17      -15.457307   1.000000
   18      -15.383472   1.000000
   19       -9.691626   1.000000
   20       -9.298813   1.000000
   21       -9.177795   1.000000
   22       -9.045445   1.000000
   23       -8.969478   1.000000
   24       -8.875762   1.000000
   25       -8.581240   1.000000
   26       -8.492230   1.000000
   27       -8.420476   1.000000
   28       -8.318253   1.000000
   29       -8.311372   1.000000
   30       -8.201482   1.000000
   31       -8.121898   1.000000
   32       -8.010288   1.000000
   33       -7.941664   1.000000
   34       -7.814391   1.000000
   35       -7.734678   1.000000
   36       -7.648376   1.000000
   37       -7.572776   1.000000
   38       -7.459415   1.000000
   39       -7.354971   1.000000
   40       -7.266116   1.000000
   41       -7.182681   1.000000
   42       -7.143229   1.000000
   43       -7.039851   1.000000
   44       -6.962329   1.000000
   45       -6.855286   1.000000
   46       -6.769511   1.000000
   47       -6.671309   1.000000
   48       -6.624950   1.000000
   49       -6.605765   1.000000
   50       -6.554309   1.000000
   51       -6.387280   1.000000
   52       -6.345211   1.000000
   53       -6.297759   1.000000
   54       -6.197425   1.000000
   55       -6.110923   1.000000
   56       -6.062262   1.000000
   57       -5.972135   1.000000
   58       -5.952049   1.000000
   59       -5.888955   1.000000
   60       -5.775387   1.000000
   61       -5.748133   1.000000
   62       -5.660317   1.000000
   63       -5.592630   1.000000
   64       -5.351939   1.000000
   65       -5.250730   1.000000
   66       -5.027890   1.000000
   67       -4.983290   1.000000
   68       -4.867367   1.000000
   69       -4.808417   1.000000
   70       -4.704020   1.000000
   71       -4.606700   1.000000
   72       -4.450015   1.000000
   73       -4.359502   1.000000
   74       -4.274625   1.000000
   75       -4.188441   1.000000
   76       -3.880997   0.999999
   77       -3.844404   0.999998
   78       -3.686796   0.999769
   79       -3.296002   0.769794
   80       -3.227020   0.598856
   81       -2.967162   0.056247
   82       -2.856916   0.008975
   83       -2.816080   0.003961
   84       -2.692188   0.000207
   85       -2.612122   0.000021
   86       -2.490129   0.000000
   87       -2.336637   0.000000
   88       -2.225848   0.000000
   89       -2.170770   0.000000
   90       -2.037982   0.000000
   91       -1.755837   0.000000
   92       -1.688686   0.000000
   93       -1.514218   0.000000
   94       -1.333792   0.000000
   95       -1.178526   0.000000
   96       -1.082031   0.000000
   97       -1.030451   0.000000
   98       -0.970531   0.000000
   99       -0.871002   0.000000
  100       -0.802626   0.000000
  101       -0.781478   0.000000
  102       -0.703671   0.000000
  103       -0.642436   0.000000
  104       -0.548465   0.000000
  105       -0.442086   0.000000
  106       -0.322495   0.000000
  107       -0.221720   0.000000
  108       -0.076588   0.000000
  109        0.002505   0.000000
  110        0.277182   0.000000
  111        0.366157   0.000000
  112        0.472859   0.000000
  113        0.652657   0.000000
  114        0.966647   0.000000
  115        1.308898   0.000000
  116        1.330991   0.000000
  117        1.473695   0.000000
  118        1.998758   0.000000
  119        2.163341   0.000000
  120        2.464691   0.000000
 
  0.5000000E+00  0.1110223E-15  0.0000000E+00  0.1562500E-01
    1      -17.521049   1.000000
    2      -17.292511   1.000000
    3      -16.768039   1.000000
    4      -16.664423   1.000000
    5      -16.629901   1.000000
    6      -16.416212   1.000000
    7      -16.313859   1.000000
    8      -16.119477   1.000000
    9      -16.040271   1.000000
   10      -15.996097   1.000000
   11      -15.931202   1.000000
   12      -15.856197   1.000000
   13      -15.761245   1.000000
   14      -15.745796   1.000000
   15      -15.618379   1.000000
   16      -15.570375   1.000000
   17      -15.431379   1.000000
   18      -15.411570   1.000000
   19       -9.769871   1.000000
   20       -9.333203   1.000000
   21       -9.199033   1.000000
   22       -9.069600   1.000000
   23       -8.948525   1.000000
   24       -8.884836   1.000000
   25       -8.556835   1.000000
   26       -8.501498   1.000000
   27       -8.415572   1.000000
   28       -8.287288   1.000000
   29       -8.267206   1.000000
   30       -8.192553   1.000000
   31       -8.120839   1.000000
   32       -7.993606   1.000000
   33       -7.971350   1.000000
   34       -7.852523   1.000000
   35       -7.763643   1.000000
   36       -7.717860   1.000000
   37       -7.553432   1.000000
   38       -7.427955   1.000000
   39       -7.348320   1.000000
   40       -7.237010   1.000000
   41       -7.141843   1.000000
   42       -7.058201   1.000000
   43       -6.995045   1.000000
   44       -6.896840   1.000000
   45       -6.777685   1.000000
   46       -6.730638   1.000000
   47       -6.690115   1.000000
   48       -6.637381   1.000000
   49       -6.567458   1.000000
   50       -6.481745   1.000000
   51       -6.430848   1.000000
   52       -6.358192   1.000000
   53       -6.286575   1.000000
   54       -6.257888   1.000000
   55       -6.162203   1.000000
   56       -6.096169   1.000000
   57       -5.971637   1.000000
   58       -5.936202   1.000000
   59       -5.871713   1.000000
   60       -5.759191   1.000000
   61       -5.718250   1.000000
   62       -5.681193   1.000000
   63       -5.606590   1.000000
   64       -5.469227   1.000000
   65       -5.362954   1.000000
   66       -5.071454   1.000000
   67       -4.993351   1.000000
   68       -4.895398   1.000000
   69       -4.834205   1.000000
   70       -4.655055   1.000000
   71       -4.595160   1.000000
   72       -4.426720   1.000000
   73       -4.334530   1.000000
   74       -4.300181   1.000000
   75       -4.240900   1.000000
   76       -3.833098   0.999997
   77       -3.758654   0.999970
   78       -3.731231   0.999932
   79       -3.253541   0.669277
   80       -3.163848   0.422185
   81       -2.966881   0.056022
   82       -2.867044   0.010866
   83       -2.812493   0.003673
   84       -2.720209   0.000429
   85       -2.607056   0.000018
   86       -2.487910   0.000000
   87       -2.326301   0.000000
   88       -2.206000   0.000000
   89       -2.171686   0.000000
   90       -2.016553   0.000000
   91       -1.734262   0.000000
   92       -1.690637   0.000000
   93       -1.506649   0.000000
   94       -1.324507   0.000000
   95       -1.216881   0.000000
   96       -1.121203   0.000000
   97       -1.069368   0.000000
   98       -1.011636   0.000000
   99       -0.866000   0.000000
  100       -0.835593   0.000000
  101       -0.814623   0.000000
  102       -0.712159   0.000000
  103       -0.648446   0.000000
  104       -0.558269   0.000000
  105       -0.496887   0.000000
  106       -0.340855   0.000000
  107       -0.248448   0.000000
  108       -0.139953   0.000000
  109       -0.031756   0.000000
  110        0.273241   0.000000
  111        0.376021   0.000000
  112        0.466553   0.000000
  113        0.677403   0.000000
  114        0.995453   0.000000
  115        1.346491   0.000000
  116        1.354319   0.000000
  117        1.521778   0.000000
  118        2.211236   0.000000
  119        2.250317   0.000000
  120        2.379189   0.000000
 
  0.0000000E+00  0.1250000E+00  0.0000000E+00  0.3125000E-01
    1      -17.785553   1.000000
    2      -16.776971   1.000000
    3      -16.693747   1.000000
    4      -16.624226   1.000000
    5      -16.537152   1.000000
    6      -16.407323   1.000000
    7      -16.370038   1.000000
    8      -16.269535   1.000000
    9      -16.141262   1.000000
   10      -16.078356   1.000000
   11      -16.016550   1.000000
   12      -15.930242   1.000000
   13      -15.868759   1.000000
   14      -15.747258   1.000000
   15      -15.595494   1.000000
   16      -15.551943   1.000000
   17      -15.420481   1.000000
   18      -15.340823   1.000000
   19       -9.289981   1.000000
   20       -9.174351   1.000000
   21       -9.042674   1.000000
   22       -8.914388   1.000000
   23       -8.768796   1.000000
   24       -8.700830   1.000000
   25       -8.662861   1.000000
   26       -8.591656   1.000000
   27       -8.528610   1.000000
   28       -8.403284   1.000000
   29       -8.376735   1.000000
   30       -8.297316   1.000000
   31       -8.248349   1.000000
   32       -8.008921   1.000000
   33       -7.988565   1.000000
   34       -7.914623   1.000000
   35       -7.824116   1.000000
   36       -7.712795   1.000000
   37       -7.688441   1.000000
   38       -7.539717   1.000000
   39       -7.486507   1.000000
   40       -7.406648   1.000000
   41       -7.344404   1.000000
   42       -7.286638   1.000000
   43       -7.120036   1.000000
   44       -6.931143   1.000000
   45       -6.876962   1.000000
   46       -6.803803   1.000000
   47       -6.710891   1.000000
   48       -6.646510   1.000000
   49       -6.524031   1.000000
   50       -6.454106   1.000000
   51       -6.419545   1.000000
   52       -6.388313   1.000000
   53       -6.331044   1.000000
   54       -6.297390   1.000000
   55       -6.239912   1.000000
   56       -6.156816   1.000000
   57       -6.082060   1.000000
   58       -5.954414   1.000000
   59       -5.730732   1.000000
   60       -5.614937   1.000000
   61       -5.432170   1.000000
   62       -5.365267   1.000000
   63       -5.276039   1.000000
   64       -5.186804   1.000000
   65       -5.137535   1.000000
   66       -5.016703   1.000000
   67       -4.991544   1.000000
   68       -4.844652   1.000000
   69       -4.835947   1.000000
   70       -4.734600   1.000000
   71       -4.627001   1.000000
   72       -4.568463   1.000000
   73       -4.548180   1.000000
   74       -4.307256   1.000000
   75       -4.031476   1.000000
   76       -3.859625   0.999999
   77       -3.789143   0.999988
   78       -3.661801   0.999558
   79       -3.587508   0.997440
   80       -3.301235   0.780880
   81       -3.104231   0.268334
   82       -2.896971   0.018607
   83       -2.858281   0.009212
   84       -2.682521   0.000159
   85       -2.571884   0.000006
   86       -2.460934   0.000000
   87       -2.415301   0.000000
   88       -2.266742   0.000000
   89       -2.154714   0.000000
   90       -2.078802   0.000000
   91       -1.822495   0.000000
   92       -1.700387   0.000000
   93       -1.555142   0.000000
   94       -1.385910   0.000000
   95       -1.184647   0.000000
   96       -0.973535   0.000000
   97       -0.883299   0.000000
   98       -0.838150   0.000000
   99       -0.759734   0.000000
  100       -0.641086   0.000000
  101       -0.554698   0.000000
  102       -0.515278   0.000000
  103       -0.472606   0.000000
  104       -0.373257   0.000000
  105       -0.325134   0.000000
  106       -0.200226   0.000000
  107       -0.178328   0.000000
  108        0.134376   0.000000
  109        0.186269   0.000000
  110        0.288369   0.000000
  111        0.354331   0.000000
  112        0.434321   0.000000
  113        0.813745   0.000000
  114        0.884089   0.000000
  115        0.956240   0.000000
  116        1.133459   0.000000
  117        1.180300   0.000000
  118        1.692986   0.000000
  119        1.872556   0.000000
  120        2.194000   0.000000
 
  0.1250000E+00  0.1250000E+00  0.0000000E+00  0.3125000E-01
    1      -17.736580   1.000000
    2      -16.898272   1.000000
    3      -16.754037   1.000000
    4      -16.671686   1.000000
    5      -16.505429   1.000000
    6      -16.402065   1.000000
    7      -16.361761   1.000000
    8      -16.224779   1.000000
    9      -16.124402   1.000000
   10      -16.048350   1.000000
   11      -16.033473   1.000000
   12      -15.858002   1.000000
   13      -15.825411   1.000000
   14      -15.720669   1.000000
   15      -15.620674   1.000000
   16      -15.538606   1.000000
   17      -15.450580   1.000000
   18      -15.360312   1.000000
   19       -9.383860   1.000000
   20       -9.287703   1.000000
   21       -9.156849   1.000000
   22       -8.982822   1.000000
   23       -8.835597   1.000000
   24       -8.751939   1.000000
   25       -8.620366   1.000000
   26       -8.560432   1.000000
   27       -8.485182   1.000000
   28       -8.433700   1.000000
   29       -8.343454   1.000000
   30       -8.246400   1.000000
   31       -8.115579   1.000000
   32       -8.062123   1.000000
   33       -7.923884   1.000000
   34       -7.829874   1.000000
   35       -7.741252   1.000000
   36       -7.668899   1.000000
   37       -7.583042   1.000000
   38       -7.513425   1.000000
   39       -7.443906   1.000000
   40       -7.386351   1.000000
   41       -7.270524   1.000000
   42       -7.254397   1.000000
   43       -7.174647   1.000000
   44       -6.973497   1.000000
   45       -6.889310   1.000000
   46       -6.791892   1.000000
   47       -6.752254   1.000000
   48       -6.639308   1.000000
   49       -6.550892   1.000000
   50       -6.502848   1.000000
   51       -6.437640   1.000000
   52       -6.415326   1.000000
   53       -6.354573   1.000000
   54       -6.241475   1.000000
   55       -6.173953   1.000000
   56       -6.150806   1.000000
   57       -6.008343   1.000000
   58       -5.919566   1.000000
   59       -5.681515   1.000000
   60       -5.613693   1.000000
   61       -5.553933   1.000000
   62       -5.401585   1.000000
   63       -5.344605   1.000000
   64       -5.319754   1.000000
   65       -5.200894   1.000000
   66       -5.104442   1.000000
   67       -5.042467   1.000000
   68       -4.899322   1.000000
   69       -4.797801   1.000000
   70       -4.687078   1.000000
   71       -4.588662   1.000000
   72       -4.497161   1.000000
   73       -4.446803   1.000000
   74       -4.188740   1.000000
   75       -4.094694   1.000000
   76       -3.989688   1.000000
   77       -3.868476   0.999999
   78       -3.647591   0.999369
   79       -3.534236   0.992298
   80       -3.255442   0.674137
   81       -3.039598   0.141213
   82       -2.872631   0.012050
   83       -2.823733   0.004644
   84       -2.676386   0.000135
   85       -2.600446   0.000015
   86       -2.477818   0.000000
   87       -2.391393   0.000000
   88       -2.258693   0.000000
   89       -2.157324   0.000000
   90       -2.075307   0.000000
   91       -1.816048   0.000000
   92       -1.686874   0.000000
   93       -1.541750   0.000000
   94       -1.363508   0.000000
   95       -1.160614   0.000000
   96       -0.982432   0.000000
   97       -0.935953   0.000000
   98       -0.845840   0.000000
   99       -0.793759   0.000000
  100       -0.702755   0.000000
  101       -0.647317   0.000000
  102       -0.601760   0.000000
  103       -0.546000   0.000000
  104       -0.443034   0.000000
  105       -0.404854   0.000000
  106       -0.239635   0.000000
  107       -0.198075   0.000000
  108        0.100925   0.000000
  109        0.122734   0.000000
  110        0.290504   0.000000
  111        0.361651   0.000000
  112        0.467501   0.000000
  113        0.706460   0.000000
  114        0.901976   0.000000
  115        1.099710   0.000000
  116        1.227646   0.000000
  117        1.260509   0.000000
  118        1.777925   0.000000
  119        1.948322   0.000000
  120        2.264184   0.000000
 
  0.2500000E+00  0.1250000E+00  0.0000000E+00  0.3125000E-01
    1      -17.643972   1.000000
    2      -17.075181   1.000000
    3      -16.865998   1.000000
    4      -16.652632   1.000000
    5      -16.503259   1.000000
    6      -16.389416   1.000000
    7      -16.333880   1.000000
    8      -16.177345   1.000000
    9      -16.091338   1.000000
   10      -16.039086   1.000000
   11      -15.998513   1.000000
   12      -15.854253   1.000000
   13      -15.766743   1.000000
   14      -15.684515   1.000000
   15      -15.642728   1.000000
   16      -15.530264   1.000000
   17      -15.468012   1.000000
   18      -15.389328   1.000000
   19       -9.593176   1.000000
   20       -9.419455   1.000000
   21       -9.198376   1.000000
   22       -9.031983   1.000000
   23       -8.859950   1.000000
   24       -8.770591   1.000000
   25       -8.569118   1.000000
   26       -8.497922   1.000000
   27       -8.450937   1.000000
   28       -8.356616   1.000000
   29       -8.307041   1.000000
   30       -8.224381   1.000000
   31       -8.112756   1.000000
   32       -8.068632   1.000000
   33       -7.949094   1.000000
   34       -7.873205   1.000000
   35       -7.779280   1.000000
   36       -7.653208   1.000000
   37       -7.528958   1.000000
   38       -7.401014   1.000000
   39       -7.319690   1.000000
   40       -7.255588   1.000000
   41       -7.211305   1.000000
   42       -7.183326   1.000000
   43       -7.149661   1.000000
   44       -6.944706   1.000000
   45       -6.877713   1.000000
   46       -6.780249   1.000000
   47       -6.694993   1.000000