   27   27  100    1
  0.9710400E+02  0.1002848E-08  0.1002848E-08  0.3000000E-08  0.5000000E-15
  1.000000000000000E-004
  CAR 
 unknown system                          
    159     34    120
 
  0.0000000E+00  0.0000000E+00  0.0000000E+00  0.1562500E-01
    1      -17.802677   1.000000
    2      -16.622554   1.000000
    3      -16.570036   1.000000
    4      -16.499162   1.000000
    5      -16.483168   1.000000
    6      -16.458076   1.000000
    7      -16.392195   1.000000
    8      -16.326105   1.000000
    9      -16.125719   1.000000
   10      -16.077359   1.000000
   11      -16.059064   1.000000
   12      -15.936621   1.000000
   13      -15.890634   1.000000
   14      -15.828652   1.000000
   15      -15.627775   1.000000
   16      -15.564624   1.000000
   17      -15.483109   1.000000
   18      -15.352101   1.000000
   19       -9.251830   1.000000
   20       -8.909834   1.000000
   21       -8.871096   1.000000
   22       -8.815315   1.000000
   23       -8.711227   1.000000
   24       -8.612938   1.000000
   25       -8.582244   1.000000
   26       -8.521180   1.000000
   27       -8.488769   1.000000
   28       -8.415781   1.000000
   29       -8.358843   1.000000
   30       -8.349354   1.000000
   31       -8.200568   1.000000
   32       -8.190194   1.000000
   33       -8.147748   1.000000
   34       -8.087512   1.000000
   35       -7.891236   1.000000
   36       -7.873529   1.000000
   37       -7.775538   1.000000
   38       -7.565530   1.000000
   39       -7.546310   1.000000
   40       -7.439075   1.000000
   41       -7.311833   1.000000
   42       -7.229096   1.000000
   43       -7.150905   1.000000
   44       -6.900499   1.000000
   45       -6.837481   1.000000
   46       -6.753530   1.000000
   47       -6.714590   1.000000
   48       -6.657245   1.000000
   49       -6.576282   1.000000
   50       -6.502916   1.000000
   51       -6.448613   1.000000
   52       -6.403918   1.000000
   53       -6.376953   1.000000
   54       -6.273630   1.000000
   55       -6.200456   1.000000
   56       -6.184185   1.000000
   57       -6.005373   1.000000
   58       -5.840178   1.000000
   59       -5.686629   1.000000
   60       -5.579755   1.000000
   61       -5.488684   1.000000
   62       -5.410940   1.000000
   63       -5.284479   1.000000
   64       -5.150915   1.000000
   65       -4.974157   1.000000
   66       -4.954534   1.000000
   67       -4.886955   1.000000
   68       -4.811649   1.000000
   69       -4.770471   1.000000
   70       -4.673297   1.000000
   71       -4.595367   1.000000
   72       -4.483455   1.000000
   73       -4.421767   1.000000
   74       -4.340354   1.000000
   75       -4.094172   1.000000
   76       -4.062525   1.000000
   77       -3.628832   0.999680
   78       -3.543455   0.997526
   79       -3.500613   0.993920
   80       -3.211138   0.677445
   81       -3.159620   0.538349
   82       -2.727503   0.001542
   83       -2.686824   0.000583
   84       -2.618365   0.000095
   85       -2.585532   0.000037
   86       -2.500730   0.000003
   87       -2.415408   0.000000
   88       -2.316376   0.000000
   89       -2.201111   0.000000
   90       -2.049103   0.000000
   91       -1.886364   0.000000
   92       -1.598375   0.000000
   93       -1.474504   0.000000
   94       -1.389380   0.000000
   95       -1.269091   0.000000
   96       -1.204457   0.000000
   97       -1.087616   0.000000
   98       -1.013611   0.000000
   99       -0.964951   0.000000
  100       -0.511551   0.000000
  101       -0.459190   0.000000
  102       -0.441250   0.000000
  103       -0.360174   0.000000
  104       -0.312163   0.000000
  105       -0.087831   0.000000
  106       -0.001021   0.000000
  107        0.063616   0.000000
  108        0.181405   0.000000
  109        0.290717   0.000000
  110        0.317482   0.000000
  111        0.445840   0.000000
  112        0.748904   0.000000
  113        0.763042   0.000000
  114        0.789083   0.000000
  115        0.903851   0.000000
  116        0.939177   0.000000
  117        1.083535   0.000000
  118        1.663987   0.000000
  119        1.834762   0.000000
  120        2.166401   0.000000
 
  0.1250000E+00  0.2775558E-16  0.0000000E+00  0.3125000E-01
    1      -17.777392   1.000000
    2      -16.734370   1.000000
    3      -16.609244   1.000000
    4      -16.539647   1.000000
    5      -16.524802   1.000000
    6      -16.382634   1.000000
    7      -16.323177   1.000000
    8      -16.284923   1.000000
    9      -16.201785   1.000000
   10      -16.070133   1.000000
   11      -15.965342   1.000000
   12      -15.930150   1.000000
   13      -15.884993   1.000000
   14      -15.787667   1.000000
   15      -15.639022   1.000000
   16      -15.580241   1.000000
   17      -15.489062   1.000000
   18      -15.361952   1.000000
   19       -9.245762   1.000000
   20       -9.108648   1.000000
   21       -8.966749   1.000000
   22       -8.912028   1.000000
   23       -8.731819   1.000000
   24       -8.676374   1.000000
   25       -8.606696   1.000000
   26       -8.527096   1.000000
   27       -8.483590   1.000000
   28       -8.367992   1.000000
   29       -8.342636   1.000000
   30       -8.252644   1.000000
   31       -8.174594   1.000000
   32       -8.149245   1.000000
   33       -8.046931   1.000000
   34       -7.893416   1.000000
   35       -7.816576   1.000000
   36       -7.777693   1.000000
   37       -7.732838   1.000000
   38       -7.612483   1.000000
   39       -7.543272   1.000000
   40       -7.464902   1.000000
   41       -7.270633   1.000000
   42       -7.202832   1.000000
   43       -7.151502   1.000000
   44       -6.985302   1.000000
   45       -6.894802   1.000000
   46       -6.788882   1.000000
   47       -6.696275   1.000000
   48       -6.647456   1.000000
   49       -6.603017   1.000000
   50       -6.487176   1.000000
   51       -6.457125   1.000000
   52       -6.397876   1.000000
   53       -6.319483   1.000000
   54       -6.275933   1.000000
   55       -6.206408   1.000000
   56       -6.194075   1.000000
   57       -6.062728   1.000000
   58       -5.810345   1.000000
   59       -5.646861   1.000000
   60       -5.588359   1.000000
   61       -5.481878   1.000000
   62       -5.351183   1.000000
   63       -5.265403   1.000000
   64       -5.165899   1.000000
   65       -5.117948   1.000000
   66       -5.067894   1.000000
   67       -4.993934   1.000000
   68       -4.935046   1.000000
   69       -4.745528   1.000000
   70       -4.657024   1.000000
   71       -4.583205   1.000000
   72       -4.439536   1.000000
   73       -4.327745   1.000000
   74       -4.267434   1.000000
   75       -3.988789   1.000000
   76       -3.912093   1.000000
   77       -3.764579   0.999994
   78       -3.666760   0.999884
   79       -3.597456   0.999294
   80       -3.148655   0.507477
   81       -3.050387   0.249484
   82       -2.737760   0.001946
   83       -2.692976   0.000679
   84       -2.612818   0.000082
   85       -2.594726   0.000048
   86       -2.511263   0.000004
   87       -2.381619   0.000000
   88       -2.316837   0.000000
   89       -2.210127   0.000000
   90       -2.070715   0.000000
   91       -1.876154   0.000000
   92       -1.572724   0.000000
   93       -1.461592   0.000000
   94       -1.389083   0.000000
   95       -1.252419   0.000000
   96       -1.186614   0.000000
   97       -1.075846   0.000000
   98       -0.986924   0.000000
   99       -0.955352   0.000000
  100       -0.609663   0.000000
  101       -0.523969   0.000000
  102       -0.476736   0.000000
  103       -0.398174   0.000000
  104       -0.331028   0.000000
  105       -0.244825   0.000000
  106       -0.120279   0.000000
  107        0.061131   0.000000
  108        0.183748   0.000000
  109        0.264788   0.000000
  110        0.358258   0.000000
  111        0.495242   0.000000
  112        0.680443   0.000000
  113        0.790683   0.000000
  114        0.836559   0.000000
  115        0.940277   0.000000
  116        1.017070   0.000000
  117        1.106319   0.000000
  118        1.707044   0.000000
  119        1.872711   0.000000
  120        2.201541   0.000000
 
  0.2500000E+00  0.5551115E-16  0.0000000E+00  0.3125000E-01
    1      -17.703011   1.000000
    2      -16.955633   1.000000
    3      -16.641430   1.000000
    4      -16.604859   1.000000
    5      -16.537615   1.000000
    6      -16.322499   1.000000
    7      -16.290072   1.000000
    8      -16.240729   1.000000
    9      -16.176454   1.000000
   10      -16.067708   1.000000
   11      -15.957578   1.000000
   12      -15.867052   1.000000
   13      -15.816968   1.000000
   14      -15.698991   1.000000
   15      -15.663241   1.000000
   16      -15.611372   1.000000
   17      -15.511146   1.000000
   18      -15.388181   1.000000
   19       -9.476165   1.000000
   20       -9.193498   1.000000
   21       -9.100576   1.000000
   22       -9.009833   1.000000
   23       -8.842454   1.000000
   24       -8.768624   1.000000
   25       -8.602701   1.000000
   26       -8.500299   1.000000
   27       -8.444525   1.000000
   28       -8.359863   1.000000
   29       -8.284098   1.000000
   30       -8.212374   1.000000
   31       -8.128632   1.000000
   32       -8.049283   1.000000
   33       -7.887577   1.000000
   34       -7.813951   1.000000
   35       -7.726911   1.000000
   36       -7.685239   1.000000
   37       -7.587902   1.000000
   38       -7.516580   1.000000
   39       -7.458388   1.000000
   40       -7.354610   1.000000
   41       -7.268505   1.000000
   42       -7.160564   1.000000
   43       -7.129461   1.000000
   44       -7.022456   1.000000
   45       -6.922451   1.000000
   46       -6.822306   1.000000
   47       -6.739294   1.000000
   48       -6.684502   1.000000
   49       -6.631683   1.000000
   50       -6.526841   1.000000
   51       -6.466095   1.000000
   52       -6.396636   1.000000
   53       -6.259180   1.000000
   54       -6.231656   1.000000
   55       -6.169951   1.000000
   56       -6.120219   1.000000
   57       -6.081039   1.000000
   58       -5.802306   1.000000
   59       -5.650687   1.000000
   60       -5.614290   1.000000
   61       -5.561192   1.000000
   62       -5.504266   1.000000
   63       -5.439560   1.000000
   64       -5.340782   1.000000
   65       -5.232338   1.000000
   66       -5.111424   1.000000
   67       -5.043572   1.000000
   68       -4.826135   1.000000
   69       -4.725028   1.000000
   70       -4.664733   1.000000
   71       -4.610898   1.000000
   72       -4.323833   1.000000
   73       -4.263321   1.000000
   74       -4.137044   1.000000
   75       -4.074461   1.000000
   76       -3.920700   1.000000
   77       -3.778136   0.999996
   78       -3.681814   0.999924
   79       -3.544239   0.997568
   80       -3.110742   0.401549
   81       -2.997572   0.146956
   82       -2.728530   0.001579
   83       -2.688397   0.000607
   84       -2.637454   0.000162
   85       -2.585176   0.000037
   86       -2.513075   0.000004
   87       -2.356704   0.000000
   88       -2.301736   0.000000
   89       -2.213073   0.000000
   90       -2.089367   0.000000
   91       -1.865031   0.000000
   92       -1.538646   0.000000
   93       -1.420420   0.000000
   94       -1.402240   0.000000
   95       -1.198187   0.000000
   96       -1.139078   0.000000
   97       -1.047807   0.000000
   98       -0.981202   0.000000
   99       -0.914476   0.000000
  100       -0.760801   0.000000
  101       -0.645113   0.000000
  102       -0.601450   0.000000
  103       -0.519969   0.000000
  104       -0.455259   0.000000
  105       -0.385400   0.000000
  106       -0.257674   0.000000
  107       -0.075388   0.000000
  108        0.047456   0.000000
  109        0.299969   0.000000
  110        0.353660   0.000000
  111        0.519690   0.000000
  112        0.614767   0.000000
  113        0.834459   0.000000
  114        0.962853   0.000000
  115        1.020535   0.000000
  116        1.110682   0.000000
  117        1.240568   0.000000
  118        1.828669   0.000000
  119        1.982524   0.000000
  120        2.306008   0.000000
 
  0.3750000E+00  0.0000000E+00  0.0000000E+00  0.3125000E-01
    1      -17.586437   1.000000
    2      -17.173831   1.000000
    3      -16.683454   1.000000
    4      -16.642152   1.000000
    5      -16.506706   1.000000
    6      -16.388017   1.000000
    7      -16.254255   1.000000
    8      -16.190427   1.000000
    9      -16.111188   1.000000
   10      -16.039707   1.000000
   11      -15.949975   1.000000
   12      -15.840662   1.000000
   13      -15.771990   1.000000
   14      -15.695049   1.000000
   15      -15.639093   1.000000
   16      -15.599958   1.000000
   17      -15.528193   1.000000
   18      -15.420597   1.000000
   19       -9.706269   1.000000
   20       -9.266542   1.000000
   21       -9.206061   1.000000
   22       -8.966461   1.000000
   23       -8.901735   1.000000
   24       -8.826279   1.000000
   25       -8.580420   1.000000
   26       -8.514855   1.000000
   27       -8.432366   1.000000
   28       -8.328773   1.000000
   29       -8.237312   1.000000
   30       -8.207553   1.000000
   31       -8.081557   1.000000
   32       -8.004940   1.000000
   33       -7.879791   1.000000
   34       -7.802602   1.000000
   35       -7.711031   1.000000
   36       -7.647599   1.000000
   37       -7.574979   1.000000
   38       -7.519348   1.000000
   39       -7.298201   1.000000
   40       -7.267127   1.000000
   41       -7.160845   1.000000
   42       -7.078469   1.000000
   43       -7.038150   1.000000
   44       -6.958833   1.000000
   45       -6.841232   1.000000
   46       -6.769408   1.000000
   47       -6.719044   1.000000
   48       -6.706155   1.000000
   49       -6.633268   1.000000
   50       -6.557470   1.000000
   51       -6.417017   1.000000
   52       -6.319204   1.000000
   53       -6.251407   1.000000
   54       -6.206828   1.000000
   55       -6.170966   1.000000
   56       -6.031952   1.000000
   57       -5.935451   1.000000
   58       -5.918982   1.000000
   59       -5.874815   1.000000
   60       -5.763236   1.000000
   61       -5.712768   1.000000
   62       -5.677362   1.000000
   63       -5.607396   1.000000
   64       -5.570640   1.000000
   65       -5.182204   1.000000
   66       -5.020644   1.000000
   67       -4.939912   1.000000
   68       -4.816893   1.000000
   69       -4.723790   1.000000
   70       -4.688242   1.000000
   71       -4.617918   1.000000
   72       -4.571783   1.000000
   73       -4.217304   1.000000
   74       -4.148167   1.000000
   75       -4.009413   1.000000
   76       -3.899738   1.000000
   77       -3.692215   0.999944
   78       -3.546773   0.997701
   79       -3.431418   0.978214
   80       -3.113455   0.408984
   81       -3.021577   0.189474
   82       -2.764968   0.003526
   83       -2.701371   0.000833
   84       -2.621454   0.000104
   85       -2.542796   0.000010
   86       -2.537250   0.000008
   87       -2.344920   0.000000
   88       -2.279335   0.000000
   89       -2.183100   0.000000
   90       -2.079731   0.000000
   91       -1.863015   0.000000
   92       -1.523128   0.000000
   93       -1.433897   0.000000
   94       -1.361250   0.000000
   95       -1.173861   0.000000
   96       -1.106128   0.000000
   97       -1.055449   0.000000
   98       -0.992692   0.000000
   99       -0.910229   0.000000
  100       -0.804042   0.000000
  101       -0.735014   0.000000
  102       -0.700085   0.000000
  103       -0.649792   0.000000
  104       -0.556987   0.000000
  105       -0.494378   0.000000
  106       -0.372765   0.000000
  107       -0.216203   0.000000
  108       -0.042169   0.000000
  109        0.236991   0.000000
  110        0.305899   0.000000
  111        0.556270   0.000000
  112        0.585039   0.000000
  113        0.871087   0.000000
  114        1.037395   0.000000
  115        1.101801   0.000000
  116        1.230500   0.000000
  117        1.360607   0.000000
  118        2.013333   0.000000
  119        2.155972   0.000000
  120        2.477529   0.000000
 
  0.5000000E+00  0.1110223E-15  0.0000000E+00  0.1562500E-01
    1      -17.485303   1.000000
    2      -17.310582   1.000000
    3      -16.699342   1.000000
    4      -16.654867   1.000000
    5      -16.469160   1.000000
    6      -16.436820   1.000000
    7      -16.251443   1.000000
    8      -16.163314   1.000000
    9      -16.092355   1.000000
   10      -16.023150   1.000000
   11      -15.932134   1.000000
   12      -15.825917   1.000000
   13      -15.787197   1.000000
   14      -15.694435   1.000000
   15      -15.630376   1.000000
   16      -15.603338   1.000000
   17      -15.511265   1.000000
   18      -15.436844   1.000000
   19       -9.788986   1.000000
   20       -9.301608   1.000000
   21       -9.247910   1.000000
   22       -8.962667   1.000000
   23       -8.902951   1.000000
   24       -8.778761   1.000000
   25       -8.612193   1.000000
   26       -8.564642   1.000000
   27       -8.405797   1.000000
   28       -8.373576   1.000000
   29       -8.167650   1.000000
   30       -8.127764   1.000000
   31       -8.110117   1.000000
   32       -7.977709   1.000000
   33       -7.885701   1.000000
   34       -7.805819   1.000000
   35       -7.703985   1.000000
   36       -7.681293   1.000000
   37       -7.608140   1.000000
   38       -7.570197   1.000000
   39       -7.276117   1.000000
   40       -7.265084   1.000000
   41       -7.098812   1.000000
   42       -7.010640   1.000000
   43       -6.944137   1.000000
   44       -6.826974   1.000000
   45       -6.799796   1.000000
   46       -6.750945   1.000000
   47       -6.675945   1.000000
   48       -6.626279   1.000000
   49       -6.603372   1.000000
   50       -6.533431   1.000000
   51       -6.435896   1.000000
   52       -6.396468   1.000000
   53       -6.330205   1.000000
   54       -6.174662   1.000000
   55       -6.147450   1.000000
   56       -6.133922   1.000000
   57       -5.930006   1.000000
   58       -5.898795   1.000000
   59       -5.868763   1.000000
   60       -5.794030   1.000000
   61       -5.754675   1.000000
   62       -5.675522   1.000000
   63       -5.665162   1.000000
   64       -5.522276   1.000000
   65       -5.470357   1.000000
   66       -5.008804   1.000000
   67       -4.930775   1.000000
   68       -4.897598   1.000000
   69       -4.707431   1.000000
   70       -4.669977   1.000000
   71       -4.625358   1.000000
   72       -4.501707   1.000000
   73       -4.304003   1.000000
   74       -4.165705   1.000000
   75       -3.950368   1.000000
   76       -3.814690   0.999999
   77       -3.691940   0.999943
   78       -3.488723   0.992312
   79       -3.387683   0.956268
   80       -3.110782   0.401656
   81       -3.032047   0.210180
   82       -2.779939   0.004820
   83       -2.737706   0.001944
   84       -2.593947   0.000047
   85       -2.567279   0.000021
   86       -2.518211   0.000005
   87       -2.331313   0.000000
   88       -2.271812   0.000000
   89       -2.164219   0.000000
   90       -2.068252   0.000000
   91       -1.863611   0.000000
   92       -1.521311   0.000000
   93       -1.433140   0.000000
   94       -1.354025   0.000000
   95       -1.184783   0.000000
   96       -1.117579   0.000000
   97       -1.064128   0.000000
   98       -0.987096   0.000000
   99       -0.924446   0.000000
  100       -0.801256   0.000000
  101       -0.741156   0.000000
  102       -0.700548   0.000000
  103       -0.689410   0.000000
  104       -0.635664   0.000000
  105       -0.558870   0.000000
  106       -0.390925   0.000000
  107       -0.285535   0.000000
  108       -0.070695   0.000000
  109        0.193118   0.000000
  110        0.296063   0.000000
  111        0.570287   0.000000
  112        0.575199   0.000000
  113        0.880313   0.000000
  114        1.063509   0.000000
  115        1.139021   0.000000
  116        1.277018   0.000000
  117        1.403177   0.000000
  118        2.247372   0.000000
  119        2.252269   0.000000
  120        2.354558   0.000000
 
  0.0000000E+00  0.1250000E+00  0.0000000E+00  0.3125000E-01
    1      -17.777515   1.000000
    2      -16.713641   1.000000
    3      -16.624972   1.000000
    4      -16.548543   1.000000
    5      -16.538032   1.000000
    6      -16.392771   1.000000
    7      -16.307921   1.000000
    8      -16.278262   1.000000
    9      -16.142578   1.000000
   10      -16.096044   1.000000
   11      -16.036316   1.000000
   12      -15.905452   1.000000
   13      -15.854965   1.000000
   14      -15.800381   1.000000
   15      -15.634090   1.000000
   16      -15.583316   1.000000
   17      -15.495150   1.000000
   18      -15.356731   1.000000
   19       -9.248281   1.000000
   20       -9.067617   1.000000
   21       -8.986564   1.000000
   22       -8.869856   1.000000
   23       -8.754090   1.000000
   24       -8.701805   1.000000
   25       -8.622516   1.000000
   26       -8.562856   1.000000
   27       -8.465644   1.000000
   28       -8.432165   1.000000
   29       -8.329522   1.000000
   30       -8.217989   1.000000
   31       -8.175672   1.000000
   32       -8.115415   1.000000
   33       -8.004867   1.000000
   34       -7.936014   1.000000
   35       -7.834769   1.000000
   36       -7.788520   1.000000
   37       -7.700867   1.000000
   38       -7.620034   1.000000
   39       -7.520519   1.000000
   40       -7.452211   1.000000
   41       -7.286978   1.000000
   42       -7.222225   1.000000
   43       -7.131048   1.000000
   44       -7.003610   1.000000
   45       -6.880777   1.000000
   46       -6.772934   1.000000
   47       -6.707406   1.000000
   48       -6.661065   1.000000
   49       -6.612504   1.000000
   50       -6.504249   1.000000
   51       -6.454609   1.000000
   52       -6.397244   1.000000
   53       -6.334435   1.000000
   54       -6.276633   1.000000
   55       -6.195107   1.000000
   56       -6.175027   1.000000
   57       -6.033215   1.000000
   58       -5.807431   1.000000
   59       -5.664311   1.000000
   60       -5.607886   1.000000
   61       -5.433264   1.000000
   62       -5.365714   1.000000
   63       -5.268352   1.000000
   64       -5.195270   1.000000
   65       -5.152242   1.000000
   66       -5.042663   1.000000
   67       -4.942939   1.000000
   68       -4.909588   1.000000
   69       -4.791683   1.000000
   70       -4.711970   1.000000
   71       -4.618549   1.000000
   72       -4.447296   1.000000
   73       -4.248837   1.000000
   74       -4.187281   1.000000
   75       -4.055975   1.000000
   76       -3.892689   1.000000
   77       -3.778830   0.999996
   78       -3.661961   0.999868
   79       -3.572072   0.998706
   80       -3.146273   0.500758
   81       -3.067694   0.289878
   82       -2.733676   0.001775
   83       -2.723837   0.001417
   84       -2.602726   0.000061
   85       -2.567537   0.000022
   86       -2.509516   0.000003
   87       -2.416716   0.000000
   88       -2.328203   0.000000
   89       -2.195118   0.000000
   90       -2.077819   0.000000
   91       -1.860738   0.000000
   92       -1.590521   0.000000
   93       -1.450356   0.000000
   94       -1.385279   0.000000
   95       -1.254903   0.000000
   96       -1.189269   0.000000
   97       -1.086474   0.000000
   98       -0.980968   0.000000
   99       -0.960910   0.000000
  100       -0.553855   0.000000
  101       -0.519924   0.000000
  102       -0.514762   0.000000
  103       -0.426225   0.000000
  104       -0.330414   0.000000
  105       -0.175758   0.000000
  106       -0.070871   0.000000
  107        0.026498   0.000000
  108        0.074609   0.000000
  109        0.175834   0.000000
  110        0.372384   0.000000
  111        0.501559   0.000000
  112        0.636879   0.000000
  113        0.817629   0.000000
  114        0.842840   0.000000
  115        0.950001   0.000000
  116        1.048845   0.000000
  117        1.183572   0.000000
  118        1.707302   0.000000
  119        1.874328   0.000000
  120        2.201636   0.000000
 
  0.1250000E+00  0.1250000E+00  0.0000000E+00  0.3125000E-01
    1      -17.728339   1.000000
    2      -16.829388   1.000000
    3      -16.779090   1.000000
    4      -16.555176   1.000000
    5      -16.448105   1.000000
    6      -16.380514   1.000000
    7      -16.281338   1.000000
    8      -16.248433   1.000000
    9      -16.195966   1.000000
   10      -16.062339   1.000000
   11      -15.965713   1.000000
   12      -15.902305   1.000000
   13      -15.794611   1.000000
   14      -15.756220   1.000000
   15      -15.639917   1.000000
   16      -15.611177   1.000000
   17      -15.519485   1.000000
   18      -15.366039   1.000000
   19       -9.337737   1.000000
   20       -9.252795   1.000000
   21       -9.096194   1.000000
   22       -8.988640   1.000000
   23       -8.794283   1.000000
   24       -8.732977   1.000000
   25       -8.575823   1.000000
   26       -8.535799   1.000000
   27       -8.423743   1.000000
   28       -8.336337   1.000000
   29       -8.279153   1.000000
   30       -8.251830   1.000000
   31       -8.171524   1.000000
   32       -8.108458   1.000000
   33       -7.934008   1.000000
   34       -7.825820   1.000000
   35       -7.772251   1.000000
   36       -7.702797   1.000000
   37       -7.638144   1.000000
   38       -7.504599   1.000000
   39       -7.422748   1.000000
   40       -7.331778   1.000000
   41       -7.263966   1.000000
   42       -7.214703   1.000000
   43       -7.173165   1.000000
   44       -7.063627   1.000000
   45       -6.925292   1.000000
   46       -6.821089   1.000000
   47       -6.726123   1.000000
   48       -6.695372   1.000000
   49       -6.625076   1.000000
   50       -6.514242   1.000000
   51       -6.459861   1.000000
   52       -6.386854   1.000000
   53       -6.267835   1.000000
   54       -6.245014   1.000000
   55       -6.176738   1.000000
   56       -6.151288   1.000000
   57       -6.067854   1.000000
   58       -5.797421   1.000000
   59       -5.682260   1.000000
   60       -5.576857   1.000000
   61       -5.485885   1.000000
   62       -5.442601   1.000000
   63       -5.346825   1.000000
   64       -5.313427   1.000000
   65       -5.222720   1.000000
   66       -5.066455   1.000000
   67       -5.007757   1.000000
   68       -4.948465   1.000000
   69       -4.846492   1.000000
   70       -4.727399   1.000000
   71       -4.474841   1.000000
   72       -4.393805   1.000000
   73       -4.157932   1.000000
   74       -4.098142   1.000000
   75       -4.057743   1.000000
   76       -3.919934   1.000000
   77       -3.863683   1.000000
   78       -3.690049   0.999940
   79       -3.536490   0.997120
   80       -3.112640   0.406747
   81       -3.005782   0.160716
   82       -2.757855   0.003029
   83       -2.711895   0.001072
   84       -2.605180   0.000066
   85       -2.579610   0.000031
   86       -2.505635   0.000003
   87       -2.386663   0.000000
   88       -2.334098   0.000000
   89       -2.200484   0.000000
   90       -2.102990   0.000000
   91       -1.842606   0.000000
   92       -1.565113   0.000000
   93       -1.415549   0.000000
   94       -1.381803   0.000000
   95       -1.219277   0.000000
   96       -1.146811   0.000000
   97       -1.077494   0.000000
   98       -0.977603   0.000000
   99       -0.936278   0.000000
  100       -0.661201   0.000000
  101       -0.611285   0.000000
  102       -0.595784   0.000000
  103       -0.490076   0.000000
  104       -0.404991   0.000000
  105       -0.315008   0.000000
  106       -0.212515   0.000000
  107       -0.073148   0.000000
  108        0.013126   0.000000
  109        0.169794   0.000000
  110        0.358477   0.000000
  111        0.507417   0.000000
  112        0.630208   0.000000
  113        0.823639   0.000000
  114        0.989231   0.000000
  115        1.060231   0.000000
  116        1.139739   0.000000
  117        1.190677   0.000000
  118        1.789308   0.000000
  119        1.947712   0.000000
  120        2.271392   0.000000
 
  0.2500000E+00  0.1250000E+00  0.0000000E+00  0.3125000E-01
    1      -17.632832   1.000000
    2      -17.047339   1.000000
    3      -16.857676   1.000000
    4      -16.525459   1.000000
    5      -16.443209   1.000000
    6      -16.344290   1.000000
    7      -16.287432   1.000000
    8      -16.241580   1.000000
    9      -16.141332   1.000000
   10      -16.039525   1.000000
   11      -15.943761   1.000000
   12      -15.876573   1.000000
   13      -15.770387   1.000000
   14      -15.675858   1.000000
   15      -15.671971   1.000000
   16      -15.607158   1.000000
   17      -15.537216   1.000000
   18      -15.387769   1.000000
   19       -9.586003   1.000000
   20       -9.387466   1.000000
   21       -9.182923   1.000000
   22       -9.007299   1.000000
   23       -8.823225   1.000000
   24       -8.710718   1.000000
   25       -8.531756   1.000000
   26       -8.504570   1.000000
   27       -8.376635   1.000000
   28       -8.337676   1.000000
   29       -8.253948   1.000000
   30       -8.237284   1.000000
   31       -8.126363   1.000000
   32       -8.046669   1.000000
   33       -7.986568   1.000000
   34       -7.942329   1.000000
   35       -7.786576   1.000000
   36       -7.512470   1.000000
   37       -7.449380   1.000000
   38       -7.435978   1.000000
   39       -7.336498   1.000000
   40       -7.298894   1.000000
   41       -7.231810   1.000000
   42       -7.136308   1.000000
   43       -7.094382   1.000000
   44       -6.992317   1.000000
   45       -6.855795   1.000000
   46       -6.806291   1.000000
   47       -6.735702   1.000000