 vasp.5.4.1 05Feb16 (build Jul 05 2020 17:13:04) complex                        
  
 executed on           IFC91_ompi date 2024.07.06  23:58:45
 running on   40 total cores
 distrk:  each k-point on   40 cores,    1 groups
 distr:  one band on NCORES_PER_BAND=   1 cores,   40 groups


--------------------------------------------------------------------------------------------------------


 INCAR:
 POTCAR:   PAW_PBE V 08Apr2002                    
 POTCAR:   PAW_PBE Mo 08Apr2002                   
 POTCAR:   PAW_PBE W 08Apr2002                    
 POTCAR:    PAW_PBE S 17Jan2003                   

 ----------------------------------------------------------------------------- 
|                                                                             |
|           W    W    AA    RRRRR   N    N  II  N    N   GGGG   !!!           |
|           W    W   A  A   R    R  NN   N  II  NN   N  G    G  !!!           |
|           W    W  A    A  R    R  N N  N  II  N N  N  G       !!!           |
|           W WW W  AAAAAA  RRRRR   N  N N  II  N  N N  G  GGG   !            |
|           WW  WW  A    A  R   R   N   NN  II  N   NN  G    G                |
|           W    W  A    A  R    R  N    N  II  N    N   GGGG   !!!           |
|                                                                             |
|      For optimal performance we recommend to set                            |
|        NCORE= 4 - approx SQRT( number of cores)                             |
|      NCORE specifies how many cores store one orbital (NPAR=cpu/NCORE).     |
|      This setting can  greatly improve the performance of VASP for DFT.     |
|      The default, NPAR=number of cores might be grossly inefficient         |
|      on modern multi-core architectures or massively parallel machines.     |
|      Do your own testing !!!!                                               |
|      Unfortunately you need to use the default for GW and RPA calculations. |
|      (for HF NCORE is supported but not extensively tested yet)             |
|                                                                             |
 ----------------------------------------------------------------------------- 

 POTCAR:   PAW_PBE V 08Apr2002                    
   VRHFIN =V: p6 d4 s1                                                          
   LEXCH  = PE                                                                  
   EATOM  =   170.8679 eV,   12.5584 Ry                                         
                                                                                
   TITEL  = PAW_PBE V 08Apr2002                                                 
   LULTRA =        F    use ultrasoft PP ?                                      
   IUNSCR =        1    unscreen: 0-lin 1-nonlin 2-no                           
   RPACOR =    2.000    partial core radius                                     
   POMASS =   50.941; ZVAL   =    5.000    mass and valenz                      
   RCORE  =    2.700    outmost cutoff radius                                   
   RWIGS  =    2.500; RWIGS  =    1.323    wigner-seitz radius (au A)           
   ENMAX  =  192.543; ENMIN  =  144.408 eV                                      
   RCLOC  =    1.779    cutoff for local pot                                    
   LCOR   =        T    correct aug charges                                     
   LPAW   =        T    paw PP                                                  
   EAUG   =  358.662                                                            
   DEXC   =    -.034                                                            
   RMAX   =    3.323    core radius for proj-oper                               
   RAUG   =    1.300    factor for augmentation sphere                          
   RDEP   =    2.762    radius for radial grids                                 
   QCUT   =   -3.762; QGAM   =    7.524    optimization parameters              
                                                                                
   Description                                                                  
     l     E      TYP  RCUT    TYP  RCUT                                        
     2   .000     23  2.700                                                     
     2   .000     23  2.700                                                     
     0   .000     23  2.700                                                     
     0  2.000     23  2.700                                                     
     1   .000     23  2.700                                                     
     1  2.000     23  2.700                                                     
     3   .000      7   .000                                                     
  local pseudopotential read in
  partial core-charges read in
  atomic valenz-charges read in
  non local Contribution for L=           2  read in
    real space projection operators read in
  non local Contribution for L=           2  read in
    real space projection operators read in
  non local Contribution for L=           0  read in
    real space projection operators read in
  non local Contribution for L=           0  read in
    real space projection operators read in
  non local Contribution for L=           1  read in
    real space projection operators read in
  non local Contribution for L=           1  read in
    real space projection operators read in
    PAW grid and wavefunctions read in
 
   number of l-projection  operators is LMAX  =           6
   number of lm-projection operators is LMMAX =          18
 
 POTCAR:   PAW_PBE Mo 08Apr2002                   
   VRHFIN =Mo: 4p5s4d                                                           
   LEXCH  = PE                                                                  
   EATOM  =   217.5180 eV,   15.9871 Ry                                         
                                                                                
   TITEL  = PAW_PBE Mo 08Apr2002                                                
   LULTRA =        F    use ultrasoft PP ?                                      
   IUNSCR =        1    unscreen: 0-lin 1-nonlin 2-no                           
   RPACOR =    2.200    partial core radius                                     
   POMASS =   95.940; ZVAL   =    6.000    mass and valenz                      
   RCORE  =    2.750    outmost cutoff radius                                   
   RWIGS  =    2.750; RWIGS  =    1.455    wigner-seitz radius (au A)           
   ENMAX  =  224.584; ENMIN  =  168.438 eV                                      
   RCLOC  =    2.111    cutoff for local pot                                    
   LCOR   =        T    correct aug charges                                     
   LPAW   =        T    paw PP                                                  
   EAUG   =  345.278                                                            
   DEXC   =    -.088                                                            
   RMAX   =    3.077    core radius for proj-oper                               
   RAUG   =    1.300    factor for augmentation sphere                          
   RDEP   =    2.815    radius for radial grids                                 
   QCUT   =   -4.063; QGAM   =    8.126    optimization parameters              
                                                                                
   Description                                                                  
     l     E      TYP  RCUT    TYP  RCUT                                        
     2   .000     23  2.500                                                     
     2   .000     23  2.500                                                     
     0   .000     23  2.600                                                     
     0  1.000     23  2.600                                                     
     1   .400     23  2.750                                                     
     1  2.000     23  2.750                                                     
     3   .000      7   .000                                                     
  local pseudopotential read in
  partial core-charges read in
  atomic valenz-charges read in
  non local Contribution for L=           2  read in
    real space projection operators read in
  non local Contribution for L=           2  read in
    real space projection operators read in
  non local Contribution for L=           0  read in
    real space projection operators read in
  non local Contribution for L=           0  read in
    real space projection operators read in
  non local Contribution for L=           1  read in
    real space projection operators read in
  non local Contribution for L=           1  read in
    real space projection operators read in
    PAW grid and wavefunctions read in
 
   number of l-projection  operators is LMAX  =           6
   number of lm-projection operators is LMMAX =          18
 
 POTCAR:   PAW_PBE W 08Apr2002                    
   VRHFIN =W : 6s5d                                                             
   LEXCH  = PE                                                                  
   EATOM  =   204.6100 eV,   15.0384 Ry                                         
                                                                                
   TITEL  = PAW_PBE W 08Apr2002                                                 
   LULTRA =        F    use ultrasoft PP ?                                      
   IUNSCR =        1    unscreen: 0-lin 1-nonlin 2-no                           
   RPACOR =    2.330    partial core radius                                     
   POMASS =  183.850; ZVAL   =    6.000    mass and valenz                      
   RCORE  =    2.750    outmost cutoff radius                                   
   RWIGS  =    2.750; RWIGS  =    1.455    wigner-seitz radius (au A)           
   ENMAX  =  223.057; ENMIN  =  167.293 eV                                      
   RCLOC  =    2.147    cutoff for local pot                                    
   LCOR   =        T    correct aug charges                                     
   LPAW   =        T    paw PP                                                  
   EAUG   =  373.438                                                            
   DEXC   =    -.060                                                            
   RMAX   =    3.087    core radius for proj-oper                               
   RAUG   =    1.300    factor for augmentation sphere                          
   RDEP   =    2.886    radius for radial grids                                 
   QCUT   =   -4.049; QGAM   =    8.098    optimization parameters              
                                                                                
   Description                                                                  
     l     E      TYP  RCUT    TYP  RCUT                                        
     2   .000     23  2.500                                                     
     2   .000     23  2.500                                                     
     0   .000     23  2.500                                                     
     0   .000     23  2.500                                                     
     1   .200     23  2.750                                                     
     1  2.000     23  2.750                                                     
     3   .000      7   .000                                                     
  local pseudopotential read in
  partial core-charges read in
  atomic valenz-charges read in
  non local Contribution for L=           2  read in
    real space projection operators read in
  non local Contribution for L=           2  read in
    real space projection operators read in
  non local Contribution for L=           0  read in
    real space projection operators read in
  non local Contribution for L=           0  read in
    real space projection operators read in
  non local Contribution for L=           1  read in
    real space projection operators read in
  non local Contribution for L=           1  read in
    real space projection operators read in
    PAW grid and wavefunctions read in
 
   number of l-projection  operators is LMAX  =           6
   number of lm-projection operators is LMMAX =          18
 
 POTCAR:    PAW_PBE S 17Jan2003                   
   VRHFIN =S : s2p4                                                             
   LEXCH  = PE                                                                  
   EATOM  =   276.8230 eV,   20.3459 Ry                                         
                                                                                
   TITEL  = PAW_PBE S 17Jan2003                                                 
   LULTRA =        F    use ultrasoft PP ?                                      
   IUNSCR =        1    unscreen: 0-lin 1-nonlin 2-no                           
   RPACOR =    1.500    partial core radius                                     
   POMASS =   32.066; ZVAL   =    6.000    mass and valenz                      
   RCORE  =    1.900    outmost cutoff radius                                   
   RWIGS  =    2.200; RWIGS  =    1.164    wigner-seitz radius (au A)           
   ENMAX  =  280.000; ENMIN  =  194.016 eV                                      
   ICORE  =        2    local potential                                         
   LCOR   =        T    correct aug charges                                     
   LPAW   =        T    paw PP                                                  
   EAUG   =  335.092                                                            
   DEXC   =     .000                                                            
   RMAX   =    2.867    core radius for proj-oper                               
   RAUG   =    1.300    factor for augmentation sphere                          
   RDEP   =    1.954    radius for radial grids                                 
   QCUT   =   -4.360; QGAM   =    8.721    optimization parameters              
                                                                                
   Description                                                                  
     l     E      TYP  RCUT    TYP  RCUT                                        
     0   .000     23  1.900                                                     
     0   .000     23  1.900                                                     
     1   .000     23  1.900                                                     
     1   .000     23  1.900                                                     
     2   .000     23  1.900                                                     
  local pseudopotential read in
  partial core-charges read in
  atomic valenz-charges read in
  non local Contribution for L=           0  read in
    real space projection operators read in
  non local Contribution for L=           0  read in
    real space projection operators read in
  non local Contribution for L=           1  read in
    real space projection operators read in
  non local Contribution for L=           1  read in
    real space projection operators read in
    PAW grid and wavefunctions read in
 
   number of l-projection  operators is LMAX  =           4
   number of lm-projection operators is LMMAX =           8
 

 ----------------------------------------------------------------------------- 
|                                                                             |
|  ADVICE TO THIS USER RUNNING 'VASP/VAMP'   (HEAR YOUR MASTER'S VOICE ...):  |
|                                                                             |
|      You have a (more or less) 'large supercell' and for larger cells       |
|      it might be more efficient to use real space projection operators      |
|      So try LREAL= Auto  in the INCAR   file.                               |
|      Mind: If you want to do a very accurate calculations keep the          |
|      reciprocal projection scheme          (i.e. LREAL=.FALSE.)             |
|                                                                             |
 ----------------------------------------------------------------------------- 

 PAW_PBE V 08Apr2002                    :
 energy of atom  1       EATOM= -170.8679
 kinetic energy error for atom=    0.0047 (will be added to EATOM!!)
 PAW_PBE Mo 08Apr2002                   :
 energy of atom  2       EATOM= -217.5180
 kinetic energy error for atom=    0.0215 (will be added to EATOM!!)
 PAW_PBE W 08Apr2002                    :
 energy of atom  3       EATOM= -204.6100
 kinetic energy error for atom=    0.0205 (will be added to EATOM!!)
  PAW_PBE S 17Jan2003                   :
 energy of atom  4       EATOM= -276.8230
 kinetic energy error for atom=    0.0122 (will be added to EATOM!!)
 
 
 POSCAR: crystal structure from VMoWS2 with Hexag
  positions in cartesian coordinates
  No initial velocities read in
 exchange correlation table for  LEXCH =        8
   RHO(1)=    0.500       N(1)  =     2000
   RHO(2)=  100.500       N(2)  =     4000
 


--------------------------------------------------------------------------------------------------------


 ion  position               nearest neighbor table
   1  0.667  0.667  0.000-  21 2.34  24 2.34  27 2.36  26 2.36  19 2.36  18 2.36
   2  0.000  0.000  0.000-  23 2.34  14 2.34  11 2.36  10 2.36  27 2.36  26 2.36
   3  0.000  0.667  0.000-  27 2.34  12 2.34  14 2.36  15 2.36  24 2.36  25 2.36
   4  0.667  0.333  0.000-  19 2.34  22 2.34  25 2.36  24 2.36  17 2.36  16 2.36   7 3.34   6 3.34
                             8 3.34   5 3.36
   5  0.333  0.000  0.000-  11 2.34  20 2.34  17 2.36  16 2.36  15 2.36  14 2.36   9 3.34   8 3.34
                             6 3.34   4 3.36
   6  0.667  0.000  0.000-  17 2.34  26 2.34  23 2.36  22 2.36  21 2.36  20 2.36   4 3.34   5 3.34
                             7 3.36   9 3.36
   7  1.000  0.333  0.000-  25 2.34  10 2.34  13 2.36  12 2.36  22 2.36  23 2.36   4 3.34   8 3.34
                             6 3.36   9 3.36
   8  0.333  0.333  0.000-  13 2.34  16 2.34  19 2.36  18 2.36  11 2.36  10 2.36   9 3.34   5 3.34
                             7 3.34   4 3.34
   9  0.333  0.667  0.000-  15 2.34  18 2.34  20 2.36  21 2.36  13 2.36  12 2.36   5 3.34   8 3.34
                             6 3.36   7 3.36
  10  0.111  0.222  0.955-   7 2.34   2 2.36   8 2.36
  11  0.222  0.111  0.045-   5 2.34   2 2.36   8 2.36
  12  0.111  0.556  0.955-   3 2.34   7 2.36   9 2.36
  13  0.222  0.444  0.045-   8 2.34   7 2.36   9 2.36
  14  0.111  0.889  0.955-   2 2.34   3 2.36   5 2.36
  15  0.222  0.777  0.045-   9 2.34   3 2.36   5 2.36
  16  0.444  0.222  0.955-   8 2.34   5 2.36   4 2.36
  17  0.556  0.111  0.045-   6 2.34   5 2.36   4 2.36
  18  0.444  0.556  0.955-   9 2.34   8 2.36   1 2.36
  19  0.556  0.444  0.045-   4 2.34   8 2.36   1 2.36
  20  0.444  0.889  0.955-   5 2.34   9 2.36   6 2.36
  21  0.556  0.777  0.045-   1 2.34   9 2.36   6 2.36
  22  0.777  0.222  0.955-   4 2.34   6 2.36   7 2.36
  23  0.889  0.111  0.045-   2 2.34   6 2.36   7 2.36
  24  0.777  0.556  0.955-   1 2.34   4 2.36   3 2.36
  25  0.889  0.444  0.045-   7 2.34   4 2.36   3 2.36
  26  0.777  0.889  0.955-   6 2.34   1 2.36   2 2.36
  27  0.889  0.777  0.045-   3 2.34   1 2.36   2 2.36
 

IMPORTANT INFORMATION: All symmetrisations will be switched off!
NOSYMM: (Re-)initialisation of all symmetry stuff for point group C_1.

 
 
 KPOINTS: K-POINTS 	#supercell of CrS2 in hexagona

Automatic generation of k-mesh.
Space group operators:
 irot       det(A)        alpha          n_x          n_y          n_z        tau_x        tau_y        tau_z
    1     1.000000     0.000000     1.000000     0.000000     0.000000     0.000000     0.000000     0.000000
 
 Subroutine IBZKPT returns following result:
 ===========================================
 
 Found     34 irreducible k-points:
 
 Following reciprocal coordinates:
            Coordinates               Weight
  0.000000  0.000000  0.000000      1.000000
  0.125000  0.000000  0.000000      2.000000
  0.250000  0.000000  0.000000      2.000000
  0.375000  0.000000  0.000000      2.000000
  0.500000  0.000000  0.000000      1.000000
  0.000000  0.125000  0.000000      2.000000
  0.125000  0.125000  0.000000      2.000000
  0.250000  0.125000  0.000000      2.000000
  0.375000  0.125000  0.000000      2.000000
  0.500000  0.125000  0.000000      2.000000
 -0.375000  0.125000  0.000000      2.000000
 -0.250000  0.125000  0.000000      2.000000
 -0.125000  0.125000  0.000000      2.000000
  0.000000  0.250000  0.000000      2.000000
  0.125000  0.250000  0.000000      2.000000
  0.250000  0.250000  0.000000      2.000000
  0.375000  0.250000  0.000000      2.000000
  0.500000  0.250000  0.000000      2.000000
 -0.375000  0.250000  0.000000      2.000000
 -0.250000  0.250000  0.000000      2.000000
 -0.125000  0.250000  0.000000      2.000000
 -0.000000  0.375000  0.000000      2.000000
  0.125000  0.375000  0.000000      2.000000
  0.250000  0.375000  0.000000      2.000000
  0.375000  0.375000  0.000000      2.000000
  0.500000  0.375000  0.000000      2.000000
 -0.375000  0.375000  0.000000      2.000000
 -0.250000  0.375000  0.000000      2.000000
 -0.125000  0.375000  0.000000      2.000000
  0.000000  0.500000  0.000000      1.000000
  0.125000  0.500000  0.000000      2.000000
  0.250000  0.500000  0.000000      2.000000
  0.375000  0.500000  0.000000      2.000000
  0.500000  0.500000  0.000000      1.000000
 
 Following cartesian coordinates:
            Coordinates               Weight
  0.000000  0.000000  0.000000      1.000000
  0.007209  0.012401  0.000000      2.000000
  0.014418  0.024802  0.000000      2.000000
  0.021626  0.037202  0.000000      2.000000
  0.028835  0.049603  0.000000      1.000000
 -0.007209  0.012401  0.000000      2.000000
  0.000000  0.024802  0.000000      2.000000
  0.007209  0.037202  0.000000      2.000000
  0.014418  0.049603  0.000000      2.000000
  0.021626  0.062004  0.000000      2.000000
 -0.028835 -0.024802  0.000000      2.000000
 -0.021626 -0.012401  0.000000      2.000000
 -0.014418  0.000000  0.000000      2.000000
 -0.014418  0.024802  0.000000      2.000000
 -0.007209  0.037202  0.000000      2.000000
  0.000000  0.049603  0.000000      2.000000
  0.007209  0.062004  0.000000      2.000000
  0.014418  0.074405  0.000000      2.000000
 -0.036044 -0.012401  0.000000      2.000000
 -0.028835  0.000000  0.000000      2.000000
 -0.021626  0.012401  0.000000      2.000000
 -0.021626  0.037202  0.000000      2.000000
 -0.014418  0.049603  0.000000      2.000000
 -0.007209  0.062004  0.000000      2.000000
  0.000000  0.074405  0.000000      2.000000
  0.007209  0.086806  0.000000      2.000000
 -0.043253  0.000000  0.000000      2.000000
 -0.036044  0.012401  0.000000      2.000000
 -0.028835  0.024802  0.000000      2.000000
 -0.028835  0.049603  0.000000      1.000000
 -0.021626  0.062004  0.000000      2.000000
 -0.014418  0.074405  0.000000      2.000000
 -0.007209  0.086806  0.000000      2.000000
  0.000000  0.099206  0.000000      1.000000
 


--------------------------------------------------------------------------------------------------------




 Dimension of arrays:
   k-points           NKPTS =     34   k-points in BZ     NKDIM =     34   number of bands    NBANDS=    120
   number of dos      NEDOS =    301   number of ions     NIONS =     27
   non local maximal  LDIM  =      6   non local SUM 2l+1 LMDIM =     18
   total plane-waves  NPLWV = 222264
   max r-space proj   IRMAX =      1   max aug-charges    IRDMAX=   5642
   dimension x,y,z NGX =    42 NGY =   42 NGZ =  126
   dimension x,y,z NGXF=    84 NGYF=   84 NGZF=  252
   support grid    NGXF=    84 NGYF=   84 NGZF=  252
   ions per type =               3   3   3  18
 NGX,Y,Z   is equivalent  to a cutoff of   6.96,  6.96,  6.98 a.u.
 NGXF,Y,Z  is equivalent  to a cutoff of  13.92, 13.92, 13.96 a.u.


 I would recommend the setting:
   dimension x,y,z NGX =    41 NGY =   41 NGZ =  123
 SYSTEM =  unknown system                          
 POSCAR =  crystal structure from VMoWS2 with Hexag

 Startparameter for this run:
   NWRITE =      2    write-flag & timer
   PREC   = normal    normal or accurate (medium, high low for compatibility)
   ISTART =      0    job   : 0-new  1-cont  2-samecut
   ICHARG =      2    charge: 1-file 2-atom 10-const
   ISPIN  =      1    spin polarized calculation?
   LNONCOLLINEAR =      F non collinear calculations
   LSORBIT =      F    spin-orbit coupling
   INIWAV =      1    electr: 0-lowe 1-rand  2-diag
   LASPH  =      F    aspherical Exc in radial PAW
   METAGGA=      F    non-selfconsistent MetaGGA calc.

 Electronic Relaxation 1
   ENCUT  =  280.0 eV  20.58 Ry    4.54 a.u.  13.68 13.68 40.93*2*pi/ulx,y,z
   ENINI  =  280.0     initial cutoff
   ENAUG  =  373.4 eV  augmentation charge cutoff
   NELM   =     60;   NELMIN=  2; NELMDL= -5     # of ELM steps 
   EDIFF  = 0.1E-03   stopping-criterion for ELM
   LREAL  =      F    real-space projection
   NLSPLINE    = F    spline interpolate recip. space projectors
   LCOMPAT=      F    compatible to vasp.4.4
   GGA_COMPAT  = T    GGA compatible to vasp.4.4-vasp.4.6
   LMAXPAW     = -100 max onsite density
   LMAXMIX     =    2 max onsite mixed and CHGCAR
   VOSKOWN=      0    Vosko Wilk Nusair interpolation
   ROPT   =    0.00000   0.00000   0.00000   0.00000
 Ionic relaxation
   EDIFFG = 0.1E-02   stopping-criterion for IOM
   NSW    =    100    number of steps for IOM
   NBLOCK =      1;   KBLOCK =    100    inner block; outer block 
   IBRION =      1    ionic relax: 0-MD 1-quasi-New 2-CG
   NFREE  =      0    steps in history (QN), initial steepest desc. (CG)
   ISIF   =      3    stress and relaxation
   IWAVPR =     11    prediction:  0-non 1-charg 2-wave 3-comb
   ISYM   =      0    0-nonsym 1-usesym 2-fastsym
   LCORR  =      T    Harris-Foulkes like correction to forces

   POTIM  = 0.5000    time-step for ionic-motion
   TEIN   =    0.0    initial temperature
   TEBEG  =    0.0;   TEEND  =   0.0 temperature during run
   SMASS  =  -3.00    Nose mass-parameter (am)
   estimated Nose-frequenzy (Omega)   =  0.10E-29 period in steps =****** mass=  -0.230E-26a.u.
   SCALEE = 1.0000    scale energy and forces
   NPACO  =    256;   APACO  = 16.0  distance and # of slots for P.C.
   PSTRESS=    0.0 pullay stress

  Mass of Ions in am
   POMASS =  50.94 95.94183.85 32.07
  Ionic Valenz
   ZVAL   =   5.00  6.00  6.00  6.00
  Atomic Wigner-Seitz radii
   RWIGS  =  -1.00 -1.00 -1.00 -1.00
  virtual crystal weights 
   VCA    =   1.00  1.00  1.00  1.00
   NELECT =     159.0000    total number of electrons
   NUPDOWN=      -1.0000    fix difference up-down

 DOS related values:
   EMIN   =  10.00;   EMAX   =-10.00  energy-range for DOS
   EFERMI =   0.00
   ISMEAR =     0;   SIGMA  =   0.20  broadening in eV -4-tet -1-fermi 0-gaus

 Electronic relaxation 2 (details)
   IALGO  =     38    algorithm
   LDIAG  =      T    sub-space diagonalisation (order eigenvalues)
   LSUBROT=      F    optimize rotation matrix (better conditioning)
   TURBO    =      0    0=normal 1=particle mesh
   IRESTART =      0    0=no restart 2=restart with 2 vectors
   NREBOOT  =      0    no. of reboots
   NMIN     =      0    reboot dimension
   EREF     =   0.00    reference energy to select bands
   IMIX   =      4    mixing-type and parameters
     AMIX     =   0.40;   BMIX     =  1.00
     AMIX_MAG =   1.60;   BMIX_MAG =  1.00
     AMIN     =   0.10
     WC   =   100.;   INIMIX=   1;  MIXPRE=   1;  MAXMIX= -45

 Intra band minimization:
   WEIMIN = 0.0010     energy-eigenvalue tresh-hold
   EBREAK =  0.21E-06  absolut break condition
   DEPER  =   0.30     relativ break condition  

   TIME   =   0.40     timestep for ELM

  volume/ion in A,a.u.               =      97.10       655.29
  Fermi-wavevector in a.u.,A,eV,Ry     =   0.643191  1.215456  5.628665  0.413695
  Thomas-Fermi vector in A             =   1.710110
 
 Write flags
   LWAVE  =      F    write WAVECAR
   LCHARG =      F    write CHGCAR
   LVTOT  =      F    write LOCPOT, total local potential
   LVHAR  =      F    write LOCPOT, Hartree potential only
   LELF   =      F    write electronic localiz. function (ELF)
   LORBIT =      0    0 simple, 1 ext, 2 COOP (PROOUT)


 Dipole corrections
   LMONO  =      F    monopole corrections only (constant potential shift)
   LDIPOL =      F    correct potential (dipole corrections)
   IDIPOL =      0    1-x, 2-y, 3-z, 4-all directions 
   EPSILON=  1.0000000 bulk dielectric constant

 Exchange correlation treatment:
   GGA     =    --    GGA type
   LEXCH   =     8    internal setting for exchange type
   VOSKOWN=      0    Vosko Wilk Nusair interpolation
   LHFCALC =     F    Hartree Fock is set to
   LHFONE  =     F    Hartree Fock one center treatment
   AEXX    =    0.0000 exact exchange contribution

 Linear response parameters
   LEPSILON=     F    determine dielectric tensor
   LRPA    =     F    only Hartree local field effects (RPA)
   LNABLA  =     F    use nabla operator in PAW spheres
   LVEL    =     F    velocity operator in full k-point grid
   LINTERFAST=   F  fast interpolation
   KINTER  =     0    interpolate to denser k-point grid
   CSHIFT  =0.1000    complex shift for real part using Kramers Kronig
   OMEGAMAX=  -1.0    maximum frequency
   DEG_THRESHOLD= 0.2000000E-02 threshold for treating states as degnerate
   RTIME   =    0.100 relaxation time in fs

 Orbital magnetization related:
   ORBITALMAG=     F  switch on orbital magnetization
   LCHIMAG   =     F  perturbation theory with respect to B field
   DQ        =  0.001000  dq finite difference perturbation B field



--------------------------------------------------------------------------------------------------------


 quasi-Newton-method for relaxation of ions
 charge density and potential will be updated during run
 non-spin polarized calculation
 Variant of blocked Davidson
 Davidson routine will perform the subspace rotation
 perform sub-space diagonalisation
    after iterative eigenvector-optimisation
 modified Broyden-mixing scheme, WC =      100.0
 initial mixing is a Kerker type mixing with AMIX =  0.4000 and BMIX =      1.0000
 Hartree-type preconditioning will be used
 using additional bands           40
 reciprocal scheme for non local part
 use partial core corrections
 calculate Harris-corrections to forces 
   (improved forces if not selfconsistent)
 use gradient corrections 
 use of overlap-Matrix (Vanderbilt PP)
 Gauss-broadening in eV      SIGMA  =   0.20


--------------------------------------------------------------------------------------------------------


  energy-cutoff  :      280.00
  volume of cell :     2621.81
      direct lattice vectors                 reciprocal lattice vectors
     8.669999960  5.039999894  0.000000000     0.057670129  0.099206348  0.000000000
    -8.669999821  5.040000133  0.000000000    -0.057670126  0.099206350  0.000000000
     0.000000000  0.000000000 30.000000000     0.000000000  0.000000000  0.033333333

  length of vectors
    10.028484344 10.028484344 30.000000000     0.114750788  0.114750788  0.033333333


 
 k-points in units of 2pi/SCALE and weight: K-POINTS 	#supercell of CrS2 in hexagona
   0.00000000  0.00000000  0.00000000       0.016
   0.00720877  0.01240079  0.00000000       0.031
   0.01441753  0.02480159  0.00000000       0.031
   0.02162630  0.03720238  0.00000000       0.031
   0.02883506  0.04960317  0.00000000       0.016
  -0.00720877  0.01240079  0.00000000       0.031
   0.00000000  0.02480159  0.00000000       0.031
   0.00720877  0.03720238  0.00000000       0.031
   0.01441753  0.04960317  0.00000000       0.031
   0.02162630  0.06200397  0.00000000       0.031
  -0.02883506 -0.02480159  0.00000000       0.031
  -0.02162630 -0.01240079  0.00000000       0.031
  -0.01441753  0.00000000  0.00000000       0.031
  -0.01441753  0.02480159  0.00000000       0.031
  -0.00720877  0.03720238  0.00000000       0.031
   0.00000000  0.04960317  0.00000000       0.031
   0.00720877  0.06200397  0.00000000       0.031
   0.01441753  0.07440476  0.00000000       0.031
  -0.03604383 -0.01240079  0.00000000       0.031
  -0.02883506  0.00000000  0.00000000       0.031
  -0.02162630  0.01240079  0.00000000       0.031
  -0.02162630  0.03720238  0.00000000       0.031
  -0.01441753  0.04960317  0.00000000       0.031
  -0.00720877  0.06200397  0.00000000       0.031
   0.00000000  0.07440476  0.00000000       0.031
   0.00720877  0.08680556  0.00000000       0.031
  -0.04325260  0.00000000  0.00000000       0.031
  -0.03604383  0.01240079  0.00000000       0.031
  -0.02883506  0.02480159  0.00000000       0.031
  -0.02883506  0.04960317  0.00000000       0.016
  -0.02162630  0.06200397  0.00000000       0.031
  -0.01441753  0.07440476  0.00000000       0.031
  -0.00720876  0.08680556  0.00000000       0.031
   0.00000000  0.09920635  0.00000000       0.016
 
 k-points in reciprocal lattice and weights: K-POINTS 	#supercell of CrS2 in hexagona
   0.00000000  0.00000000  0.00000000       0.016
   0.12500000  0.00000000  0.00000000       0.031
   0.25000000  0.00000000  0.00000000       0.031
   0.37500000  0.00000000  0.00000000       0.031
   0.50000000  0.00000000  0.00000000       0.016
   0.00000000  0.12500000  0.00000000       0.031
   0.12500000  0.12500000  0.00000000       0.031
   0.25000000  0.12500000  0.00000000       0.031
   0.37500000  0.12500000  0.00000000       0.031
   0.50000000  0.12500000  0.00000000       0.031
  -0.37500000  0.12500000  0.00000000       0.031
  -0.25000000  0.12500000  0.00000000       0.031
  -0.12500000  0.12500000  0.00000000       0.031
   0.00000000  0.25000000  0.00000000       0.031
   0.12500000  0.25000000  0.00000000       0.031
   0.25000000  0.25000000  0.00000000       0.031
   0.37500000  0.25000000  0.00000000       0.031
   0.50000000  0.25000000  0.00000000       0.031
  -0.37500000  0.25000000  0.00000000       0.031
  -0.25000000  0.25000000  0.00000000       0.031
  -0.12500000  0.25000000  0.00000000       0.031
  -0.00000000  0.37500000  0.00000000       0.031
   0.12500000  0.37500000  0.00000000       0.031
   0.25000000  0.37500000  0.00000000       0.031
   0.37500000  0.37500000  0.00000000       0.031
   0.50000000  0.37500000  0.00000000       0.031
  -0.37500000  0.37500000  0.00000000       0.031
  -0.25000000  0.37500000  0.00000000       0.031
  -0.12500000  0.37500000  0.00000000       0.031
   0.00000000  0.50000000  0.00000000       0.016
   0.12500000  0.50000000  0.00000000       0.031
   0.25000000  0.50000000  0.00000000       0.031
   0.37500000  0.50000000  0.00000000       0.031
   0.50000000  0.50000000  0.00000000       0.016
 
 position of ions in fractional coordinates (direct lattice) 
   0.66666669  0.66666669  0.00000000
   0.00000000  0.00000000  0.00000000
   0.00000000  0.66666669  0.00000000
   0.66666669  0.33333334  0.00000000
   0.33333334  0.00000000  0.00000000
   0.66666669  0.00000000  0.00000000
   1.00000000  0.33333334  0.00000000
   0.33333334  0.33333334  0.00000000
   0.33333334  0.66666669  0.00000000
   0.11068511  0.22244981  0.95539999
   0.22244981  0.11068511  0.04460000
   0.11068511  0.55578315  0.95539999
   0.22244981  0.44401845  0.04460000
   0.11068511  0.88911647  0.95539999
   0.22244981  0.77735180  0.04460000
   0.44401845  0.22244981  0.95539999
   0.55578315  0.11068511  0.04460000
   0.44401845  0.55578315  0.95539999
   0.55578315  0.44401845  0.04460000
   0.44401845  0.88911647  0.95539999
   0.55578315  0.77735180  0.04460000
   0.77735180  0.22244981  0.95539999
   0.88911647  0.11068511  0.04460000
   0.77735180  0.55578315  0.95539999
   0.88911647  0.44401845  0.04460000
   0.77735180  0.88911647  0.95539999
   0.88911647  0.77735180  0.04460000
 
 position of ions in cartesian coordinates  (Angst):
   0.00000009  6.72000022  0.00000000
   0.00000000  0.00000000  0.00000000
  -5.78000005  3.36000019  0.00000000
   2.89000012  5.04000012  0.00000000
   2.89000007  1.68000002  0.00000000
   5.78000015  3.36000003  0.00000000
   5.77999993  6.71999999  0.00000000
   0.00000005  3.36000011  0.00000000
  -2.88999998  5.04000020  0.00000000
  -0.96899991  1.67900001 28.66199970
   0.96899995  1.67899998  1.33799996
  -3.85899993  3.35900011 28.66199970
  -1.92100007  3.35900008  1.33799996
  -6.74899970  5.03900005 28.66199970
  -4.81100010  5.03900017  1.33799996
   1.92100017  3.35900003 28.66199970
   3.85900003  3.35900000  1.33799996
  -0.96899986  5.03900012 28.66199970
   0.96900000  5.03900009  1.33799996
  -3.85899963  6.71900006 28.66199970
  -1.92100003  6.71900019  1.33799996
   4.81100024  5.03900004 28.66199970
   6.74899984  5.03899987  1.33799996
   1.92100021  6.71900014 28.66199970
   3.85899981  6.71899996  1.33799996
  -0.96899956  8.39900008 28.66199970
   0.96899979  8.39900005  1.33799996
 


--------------------------------------------------------------------------------------------------------


 k-point  1 :   0.0000 0.0000 0.0000  plane waves:   27959
 k-point  2 :   0.1250 0.0000 0.0000  plane waves:   27889
 k-point  3 :   0.2500 0.0000 0.0000  plane waves:   27875
 k-point  4 :   0.3750 0.0000 0.0000  plane waves:   27893
 k-point  5 :   0.5000 0.0000 0.0000  plane waves:   27932
 k-point  6 :   0.0000 0.1250 0.0000  plane waves:   27889
 k-point  7 :   0.1250 0.1250 0.0000  plane waves:   27906
 k-point  8 :   0.2500 0.1250 0.0000  plane waves:   27898
 k-point  9 :   0.3750 0.1250 0.0000  plane waves:   27888
 k-point 10 :   0.5000 0.1250 0.0000  plane waves:   27873
 k-point 11 :  -0.3750 0.1250 0.0000  plane waves:   27874
 k-point 12 :  -0.2500 0.1250 0.0000  plane waves:   27895
 k-point 13 :  -0.1250 0.1250 0.0000  plane waves:   27879
 k-point 14 :   0.0000 0.2500 0.0000  plane waves:   27875
 k-point 15 :   0.1250 0.2500 0.0000  plane waves:   27898
 k-point 16 :   0.2500 0.2500 0.0000  plane waves:   27920
 k-point 17 :   0.3750 0.2500 0.0000  plane waves:   27901
 k-point 18 :   0.5000 0.2500 0.0000  plane waves:   27875
 k-point 19 :  -0.3750 0.2500 0.0000  plane waves:   27894
 k-point 20 :  -0.2500 0.2500 0.0000  plane waves:   27870
 k-point 21 :  -0.1250 0.2500 0.0000  plane waves:   27895
 k-point 22 :  -0.0000 0.3750 0.0000  plane waves:   27893
 k-point 23 :   0.1250 0.3750 0.0000  plane waves:   27888
 k-point 24 :   0.2500 0.3750 0.0000  plane waves:   27901
 k-point 25 :   0.3750 0.3750 0.0000  plane waves:   27860
 k-point 26 :   0.5000 0.3750 0.0000  plane waves:   27895
 k-point 27 :  -0.3750 0.3750 0.0000  plane waves:   27858
 k-point 28 :  -0.2500 0.3750 0.0000  plane waves:   27894
 k-point 29 :  -0.1250 0.3750 0.0000  plane waves:   27874
 k-point 30 :   0.0000 0.5000 0.0000  plane waves:   27932
 k-point 31 :   0.1250 0.5000 0.0000  plane waves:   27873
 k-point 32 :   0.2500 0.5000 0.0000  plane waves:   27875
 k-point 33 :   0.3750 0.5000 0.0000  plane waves:   27895
 k-point 34 :   0.5000 0.5000 0.0000  plane waves:   27910

 maximum and minimum number of plane-waves per node :     27959    27858

 maximum number of plane-waves:     27959
 maximum index in each direction: 
   IXMAX=   14   IYMAX=   13   IZMAX=   40
   IXMIN=  -14   IYMIN=  -14   IZMIN=  -40

 WARNING: aliasing errors must be expected set NGX to  58 to avoid them
 WARNING: aliasing errors must be expected set NGY to  56 to avoid them
 WARNING: aliasing errors must be expected set NGZ to 162 to avoid them
 aliasing errors are usually negligible using standard VASP settings
 and one can safely disregard these warnings

 serial   3D FFT for wavefunctions

 total amount of memory used by VASP on root node   650782. kBytes
========================================================================

   base      :      30000. kBytes
   nonl-proj :     559647. kBytes
   fftplans  :       2414. kBytes
   grid      :      12150. kBytes
   one-center:        419. kBytes
   wavefun   :      46152. kBytes
 
     INWAV:  cpu time    0.0000: real time    0.0000
 Broyden mixing: mesh for mixing (old mesh)
   NGX = 27   NGY = 27   NGZ = 81
  (NGX  = 84   NGY  = 84   NGZ  =252)
  gives a total of  59049 points

 initial charge density was supplied:
 charge density of overlapping atoms calculated
 number of electron     159.0000000 magnetization 
 keeping initial charge density in first step


--------------------------------------------------------------------------------------------------------


 Maximum index for augmentation-charges          146 (set IRDMAX)


--------------------------------------------------------------------------------------------------------


 First call to EWALD:  gamma=   0.129
 Maximum number of real-space cells 4x 4x 2
 Maximum number of reciprocal cells 2x 2x 5

 FEWALD executed in parallel
    FEWALD:  cpu time    0.0017: real time    0.0017


----------------------------------------- Iteration    1(   1)  ---------------------------------------


    POTLOK:  cpu time    0.0396: real time    0.0398
    SETDIJ:  cpu time    0.0036: real time    0.0037
     EDDAV:  cpu time   22.6339: real time   22.6922
       DOS:  cpu time    0.0015: real time    0.0015
    --------------------------------------------
      LOOP:  cpu time   22.6819: real time   22.7452

 eigenvalue-minimisations  :  8160
 total energy-change (2. order) : 0.1125508E+04  (-0.3598296E+04)
 number of electron     159.0000000 magnetization 
 augmentation part      159.0000000 magnetization 

 Free energy of the ion-electron system (eV)
  ---------------------------------------------------
  alpha Z        PSCENC =        81.65567618
  Ewald energy   TEWEN  =     41891.17176702
  -Hartree energ DENC   =    -47723.81764716
  -exchange      EXHF   =         0.00000000
  -V(xc)+E(xc)   XCENC  =      -242.92463175
  PAW double counting   =      3467.42045192    -2871.19716117
  entropy T*S    EENTRO =        -0.54760352
  eigenvalues    EBANDS =      -237.69535819
  atomic energy  EATOM  =      6761.44252427
  Solvation  Ediel_sol  =         0.00000000
  ---------------------------------------------------
  free energy    TOTEN  =      1125.50801760 eV

  energy without entropy =     1126.05562112  energy(sigma->0) =     1125.78181936


--------------------------------------------------------------------------------------------------------




----------------------------------------- Iteration    1(   2)  ---------------------------------------


     EDDAV:  cpu time   29.8639: real time   29.9354
       DOS:  cpu time    0.0009: real time    0.0009
    --------------------------------------------
      LOOP:  cpu time   29.8660: real time   29.9430

 eigenvalue-minimisations  : 11440
 total energy-change (2. order) :-0.1130690E+04  (-0.1091047E+04)
 number of electron     159.0000000 magnetization 
 augmentation part      159.0000000 magnetization 

 Free energy of the ion-electron system (eV)
  ---------------------------------------------------
  alpha Z        PSCENC =        81.65567618
  Ewald energy   TEWEN  =     41891.17176702
  -Hartree energ DENC   =    -47723.81764716
  -exchange      EXHF   =         0.00000000
  -V(xc)+E(xc)   XCENC  =      -242.92463175
  PAW double counting   =      3467.42045192    -2871.19716117
  entropy T*S    EENTRO =        -0.20049329
  eigenvalues    EBANDS =     -1368.73200691
  atomic energy  EATOM  =      6761.44252427
  Solvation  Ediel_sol  =         0.00000000
  ---------------------------------------------------
  free energy    TOTEN  =        -5.18152088 eV

  energy without entropy =       -4.98102759  energy(sigma->0) =       -5.08127424


--------------------------------------------------------------------------------------------------------




----------------------------------------- Iteration    1(   3)  ---------------------------------------


     EDDAV:  cpu time   28.6139: real time   28.6832
       DOS:  cpu time    0.0003: real time    0.0011
    --------------------------------------------
      LOOP:  cpu time   28.6162: real time   28.6913

 eigenvalue-minimisations  : 10880
 total energy-change (2. order) :-0.1947302E+03  (-0.1874904E+03)
 number of electron     159.0000000 magnetization 
 augmentation part      159.0000000 magnetization 

 Free energy of the ion-electron system (eV)
  ---------------------------------------------------
  alpha Z        PSCENC =        81.65567618
  Ewald energy   TEWEN  =     41891.17176702
  -Hartree energ DENC   =    -47723.81764716
  -exchange      EXHF   =         0.00000000
  -V(xc)+E(xc)   XCENC  =      -242.92463175
  PAW double counting   =      3467.42045192    -2871.19716117
  entropy T*S    EENTRO =        -0.28662272
  eigenvalues    EBANDS =     -1563.37610444
  atomic energy  EATOM  =      6761.44252427
  Solvation  Ediel_sol  =         0.00000000
  ---------------------------------------------------
  free energy    TOTEN  =      -199.91174784 eV

  energy without entropy =     -199.62512512  energy(sigma->0) =     -199.76843648


--------------------------------------------------------------------------------------------------------




----------------------------------------- Iteration    1(   4)  ---------------------------------------


     EDDAV:  cpu time   32.2227: real time   32.3000
       DOS:  cpu time    0.0011: real time    0.0011
    --------------------------------------------
      LOOP:  cpu time   32.2249: real time   32.3078

 eigenvalue-minimisations  : 12560
 total energy-change (2. order) :-0.9048587E+01  (-0.8786788E+01)
 number of electron     159.0000000 magnetization 
 augmentation part      159.0000000 magnetization 

 Free energy of the ion-electron system (eV)
  ---------------------------------------------------
  alpha Z        PSCENC =        81.65567618
  Ewald energy   TEWEN  =     41891.17176702
  -Hartree energ DENC   =    -47723.81764716
  -exchange      EXHF   =         0.00000000
  -V(xc)+E(xc)   XCENC  =      -242.92463175
  PAW double counting   =      3467.42045192    -2871.19716117
  entropy T*S    EENTRO =        -0.32057260
  eigenvalues    EBANDS =     -1572.39074198
  atomic energy  EATOM  =      6761.44252427
  Solvation  Ediel_sol  =         0.00000000
  ---------------------------------------------------
  free energy    TOTEN  =      -208.96033526 eV

  energy without entropy =     -208.63976266  energy(sigma->0) =     -208.80004896


--------------------------------------------------------------------------------------------------------




----------------------------------------- Iteration    1(   5)  ---------------------------------------


     EDDAV:  cpu time   29.4025: real time   29.4738
       DOS:  cpu time    0.0011: real time    0.0011
    CHARGE:  cpu time    0.4610: real time    0.4623
    MIXING:  cpu time    0.0019: real time    0.0020
    --------------------------------------------
      LOOP:  cpu time   29.8677: real time   29.9459

 eigenvalue-minimisations  : 11280
 total energy-change (2. order) :-0.2669436E+00  (-0.2660099E+00)
 number of electron     159.0000110 magnetization 
 augmentation part       -9.8122400 magnetization 

 Broyden mixing:
  rms(total) = 0.27437E+01    rms(broyden)= 0.27433E+01
  rms(prec ) = 0.29282E+01
  weight for this iteration     100.00

 Free energy of the ion-electron system (eV)
  ---------------------------------------------------
  alpha Z        PSCENC =        81.65567618
  Ewald energy   TEWEN  =     41891.17176702
  -Hartree energ DENC   =    -47723.81764716
  -exchange      EXHF   =         0.00000000
  -V(xc)+E(xc)   XCENC  =      -242.92463175
  PAW double counting   =      3467.42045192    -2871.19716117
  entropy T*S    EENTRO =        -0.31751183
  eigenvalues    EBANDS =     -1572.66074630
  atomic energy  EATOM  =      6761.44252427
  Solvation  Ediel_sol  =         0.00000000
  ---------------------------------------------------
  free energy    TOTEN  =      -209.22727881 eV

  energy without entropy =     -208.90976698  energy(sigma->0) =     -209.06852290


--------------------------------------------------------------------------------------------------------




----------------------------------------- Iteration    1(   6)  ---------------------------------------


    POTLOK:  cpu time    0.0346: real time    0.0360
    SETDIJ:  cpu time    0.0028: real time    0.0028
     EDDAV:  cpu time   31.9096: real time   31.9866
       DOS:  cpu time    0.0010: real time    0.0010
    CHARGE:  cpu time    0.4625: real time    0.4636
    MIXING:  cpu time    0.0018: real time    0.0022
    --------------------------------------------
      LOOP:  cpu time   32.4147: real time   32.5018

 eigenvalue-minimisations  : 12480
 total energy-change (2. order) :-0.2748966E+02  (-0.1124061E+02)
 number of electron     159.0000105 magnetization 
 augmentation part        7.0940766 magnetization 

 Broyden mixing:
  rms(total) = 0.59217E+01    rms(broyden)= 0.59211E+01
  rms(prec ) = 0.65291E+01
  weight for this iteration     100.00

 eigenvalues of (default mixing * dielectric matrix)
  average eigenvalue GAMMA=   0.2940
  0.2940

 Free energy of the ion-electron system (eV)
  ---------------------------------------------------
  alpha Z        PSCENC =        81.65567618
  Ewald energy   TEWEN  =     41891.17176702
  -Hartree energ DENC   =    -47701.74958319
  -exchange      EXHF   =         0.00000000
  -V(xc)+E(xc)   XCENC  =      -233.61333559
  PAW double counting   =      3675.68672835    -3081.79194165
  entropy T*S    EENTRO =        -0.25629216
  eigenvalues    EBANDS =     -1629.26248015
  atomic energy  EATOM  =      6761.44252427
  Solvation  Ediel_sol  =         0.00000000
  ---------------------------------------------------
  free energy    TOTEN  =      -236.71693692 eV

  energy without entropy =     -236.46064476  energy(sigma->0) =     -236.58879084


--------------------------------------------------------------------------------------------------------




----------------------------------------- Iteration    1(   7)  ---------------------------------------


    POTLOK:  cpu time    0.0327: real time    0.0330
    SETDIJ:  cpu time    0.0036: real time    0.0036
     EDDAV:  cpu time   34.2978: real time   34.3797
       DOS:  cpu time    0.0010: real time    0.0010
    CHARGE:  cpu time    0.5560: real time    0.5573
    MIXING:  cpu time    0.0014: real time    0.0013
    --------------------------------------------
      LOOP:  cpu time   34.8937: real time   34.9834

 eigenvalue-minimisations  : 13520
 total energy-change (2. order) : 0.3986234E+02  (-0.1768223E+02)
 number of electron     159.0000086 magnetization 
 augmentation part       -6.2254484 magnetization 

 Broyden mixing:
  rms(total) = 0.20365E+01    rms(broyden)= 0.20345E+01
  rms(prec ) = 0.22637E+01
  weight for this iteration     100.00

 eigenvalues of (default mixing * dielectric matrix)
  average eigenvalue GAMMA=   0.5418
  0.8735  0.2101

 Free energy of the ion-electron system (eV)
  ---------------------------------------------------
  alpha Z        PSCENC =        81.65567618
  Ewald energy   TEWEN  =     41891.17176702
  -Hartree energ DENC   =    -47739.03449842
  -exchange      EXHF   =         0.00000000
  -V(xc)+E(xc)   XCENC  =      -234.99388279
  PAW double counting   =      3763.49304380    -3177.52963673
  entropy T*S    EENTRO =        -0.32029174
  eigenvalues    EBANDS =     -1542.73930052
  atomic energy  EATOM  =      6761.44252427
  Solvation  Ediel_sol  =         0.00000000
  ---------------------------------------------------
  free energy    TOTEN  =      -196.85459893 eV

  energy without entropy =     -196.53430719  energy(sigma->0) =     -196.69445306


--------------------------------------------------------------------------------------------------------




----------------------------------------- Iteration    1(   8)  ---------------------------------------


    POTLOK:  cpu time    0.0320: real time    0.0321
    SETDIJ:  cpu time    0.0033: real time    0.0033
     EDDAV:  cpu time   31.0970: real time   31.1720
       DOS:  cpu time    0.0003: real time    0.0011
    CHARGE:  cpu time    0.5571: real time    0.5585
    MIXING:  cpu time    0.0013: real time    0.0013
    --------------------------------------------
      LOOP:  cpu time   31.6929: real time   31.7769

 eigenvalue-minimisations  : 12040
 total energy-change (2. order) : 0.6881074E+01  (-0.1783564E+01)
 number of electron     159.0000095 magnetization 
 augmentation part       -6.4893736 magnetization 

 Broyden mixing:
  rms(total) = 0.13449E+01    rms(broyden)= 0.13445E+01
  rms(prec ) = 0.14643E+01
  weight for this iteration     100.00

 eigenvalues of (default mixing * dielectric matrix)
  average eigenvalue GAMMA=   0.5408
  1.0695  0.2413  0.3114

 Free energy of the ion-electron system (eV)
  ---------------------------------------------------
  alpha Z        PSCENC =        81.65567618
  Ewald energy   TEWEN  =     41891.17176702
  -Hartree energ DENC   =    -47762.25779919
  -exchange      EXHF   =         0.00000000
  -V(xc)+E(xc)   XCENC  =      -235.03268726
  PAW double counting   =      3904.45731869    -3320.11322726
  entropy T*S    EENTRO =        -0.31031809
  eigenvalues    EBANDS =     -1510.98677881
  atomic energy  EATOM  =      6761.44252427
  Solvation  Ediel_sol  =         0.00000000
  ---------------------------------------------------
  free energy    TOTEN  =      -189.97352444 eV

  energy without entropy =     -189.66320635  energy(sigma->0) =     -189.81836539


--------------------------------------------------------------------------------------------------------




----------------------------------------- Iteration    1(   9)  ---------------------------------------


    POTLOK:  cpu time    0.0339: real time    0.0340
    SETDIJ:  cpu time    0.0033: real time    0.0033
     EDDAV:  cpu time   31.9421: real time   32.0185
       DOS:  cpu time    0.0011: real time    0.0011
    CHARGE:  cpu time    0.5633: real time    0.5646
    MIXING:  cpu time    0.0034: real time    0.0034
    --------------------------------------------
      LOOP:  cpu time   32.5480: real time   32.6340

 eigenvalue-minimisations  : 12440
 total energy-change (2. order) : 0.1728891E+01  (-0.3376654E+00)
 number of electron     159.0000091 magnetization 
 augmentation part       -5.7128854 magnetization 

 Broyden mixing:
  rms(total) = 0.95047E+00    rms(broyden)= 0.95022E+00
  rms(prec ) = 0.10243E+01
  weight for this iteration     100.00

 eigenvalues of (default mixing * dielectric matrix)
  average eigenvalue GAMMA=   0.7351
  1.8022  0.6139  0.2201  0.3043

 Free energy of the ion-electron system (eV)
  ---------------------------------------------------
  alpha Z        PSCENC =        81.65567618
  Ewald energy   TEWEN  =     41891.17176702
  -Hartree energ DENC   =    -47766.11061767
  -exchange      EXHF   =         0.00000000
  -V(xc)+E(xc)   XCENC  =      -234.30820089
  PAW double counting   =      3963.22936330    -3379.59451692
  entropy T*S    EENTRO =        -0.34655782
  eigenvalues    EBANDS =     -1505.38407138
  atomic energy  EATOM  =      6761.44252427
  Solvation  Ediel_sol  =         0.00000000
  ---------------------------------------------------
  free energy    TOTEN  =      -188.24463391 eV

  energy without entropy =     -187.89807609  energy(sigma->0) =     -188.07135500


--------------------------------------------------------------------------------------------------------




----------------------------------------- Iteration    1(  10)  ---------------------------------------


    POTLOK:  cpu time    0.0331: real time    0.0331
    SETDIJ:  cpu time    0.0035: real time    0.0035
     EDDAV:  cpu time   34.1139: real time   34.1963
       DOS:  cpu time    0.0010: real time    0.0010
    CHARGE:  cpu time    0.5721: real time    0.5735
    MIXING:  cpu time    0.0015: real time    0.0015
    --------------------------------------------
      LOOP:  cpu time   34.7261: real time   34.8184

 eigenvalue-minimisations  : 13440
 total energy-change (2. order) : 0.1331235E+01  (-0.1714132E+00)
 number of electron     159.0000092 magnetization 
 augmentation part       -4.2723916 magnetization 

 Broyden mixing:
  rms(total) = 0.19931E+00    rms(broyden)= 0.19887E+00
  rms(prec ) = 0.20631E+00
  weight for this iteration     100.00

 eigenvalues of (default mixing * dielectric matrix)
  average eigenvalue GAMMA=   0.9531
  1.8062  1.8062  0.6378  0.2210  0.2944

 Free energy of the ion-electron system (eV)
  ---------------------------------------------------
  alpha Z        PSCENC =        81.65567618
  Ewald energy   TEWEN  =     41891.17176702
  -Hartree energ DENC   =    -47780.45286185
  -exchange      EXHF   =         0.00000000
  -V(xc)+E(xc)   XCENC  =      -232.58385112
  PAW double counting   =      4105.16228770    -3523.30207097
  entropy T*S    EENTRO =        -0.35259532
  eigenvalues    EBANDS =     -1489.65427488
  atomic energy  EATOM  =      6761.44252427
  Solvation  Ediel_sol  =         0.00000000
  ---------------------------------------------------
  free energy    TOTEN  =      -186.91339898 eV

  energy without entropy =     -186.56080365  energy(sigma->0) =     -186.73710132


--------------------------------------------------------------------------------------------------------




----------------------------------------- Iteration    1(  11)  ---------------------------------------


    POTLOK:  cpu time    0.0317: real time    0.0321
    SETDIJ:  cpu time    0.0043: real time    0.0043
     EDDAV:  cpu time   34.4388: real time   34.5210
       DOS:  cpu time    0.0011: real time    0.0011
    CHARGE:  cpu time    0.5770: real time    0.5784
    MIXING:  cpu time    0.0015: real time    0.0015
    --------------------------------------------
      LOOP:  cpu time   35.0557: real time   35.1477

 eigenvalue-minimisations  : 13560
 total energy-change (2. order) :-0.9521573E-02  (-0.4049326E-01)
 number of electron     159.0000087 magnetization 
 augmentation part       -4.6281820 magnetization 

 Broyden mixing:
  rms(total) = 0.30162E+00    rms(broyden)= 0.30157E+00
  rms(prec ) = 0.33393E+00
  weight for this iteration     100.00

 eigenvalues of (default mixing * dielectric matrix)
  average eigenvalue GAMMA=   0.9381
  2.1135  1.7693  0.6139  0.6139  0.2206  0.2976

 Free energy of the ion-electron system (eV)
  ---------------------------------------------------
  alpha Z        PSCENC =        81.65567618
  Ewald energy   TEWEN  =     41891.17176702
  -Hartree energ DENC   =    -47795.11199778
  -exchange      EXHF   =         0.00000000
  -V(xc)+E(xc)   XCENC  =      -232.12049867
  PAW double counting   =      4172.46236075    -3590.71629981
  entropy T*S    EENTRO =        -0.33460379
  eigenvalues    EBANDS =     -1475.37184873
  atomic energy  EATOM  =      6761.44252427
  Solvation  Ediel_sol  =         0.00000000
  ---------------------------------------------------
  free energy    TOTEN  =      -186.92292055 eV

  energy without entropy =     -186.58831676  energy(sigma->0) =     -186.75561866


--------------------------------------------------------------------------------------------------------




----------------------------------------- Iteration    1(  12)  ---------------------------------------


    POTLOK:  cpu time    0.0332: real time    0.0333
    SETDIJ:  cpu time    0.0035: real time    0.0035
     EDDAV:  cpu time   30.6349: real time   30.7090
       DOS:  cpu time    0.0011: real time    0.0011
    CHARGE:  cpu time    0.5735: real time    0.5749
    MIXING:  cpu time    0.0015: real time    0.0015
    --------------------------------------------
      LOOP:  cpu time   31.2487: real time   31.3327

 eigenvalue-minimisations  : 11840
 total energy-change (2. order) :-0.6282854E-02  (-0.3733621E-01)
 number of electron     159.0000089 magnetization 
 augmentation part       -4.2195256 magnetization 

 Broyden mixing:
  rms(total) = 0.38215E+00    rms(broyden)= 0.38197E+00
  rms(prec ) = 0.42095E+00
  weight for this iteration     100.00

 eigenvalues of (default mixing * dielectric matrix)
  average eigenvalue GAMMA=   0.8628
  2.2690  1.6930  0.7888  0.6431  0.2207  0.2968  0.1282

 Free energy of the ion-electron system (eV)
  ---------------------------------------------------
  alpha Z        PSCENC =        81.65567618
  Ewald energy   TEWEN  =     41891.17176702
  -Hartree energ DENC   =    -47800.36999169
  -exchange      EXHF   =         0.00000000
  -V(xc)+E(xc)   XCENC  =      -231.95220010
  PAW double counting   =      4187.14784584    -3605.35366229
  entropy T*S    EENTRO =        -0.34081796
  eigenvalues    EBANDS =     -1470.33034467
  atomic energy  EATOM  =      6761.44252427
  Solvation  Ediel_sol  =         0.00000000
  ---------------------------------------------------
  free energy    TOTEN  =      -186.92920341 eV

  energy without entropy =     -186.58838544  energy(sigma->0) =     -186.75879442


--------------------------------------------------------------------------------------------------------




----------------------------------------- Iteration    1(  13)  ---------------------------------------


    POTLOK:  cpu time    0.0332: real time    0.0333
    SETDIJ:  cpu time    0.0032: real time    0.0032
     EDDAV:  cpu time   32.1963: real time   32.2732
       DOS:  cpu time    0.0003: real time    0.0011
    CHARGE:  cpu time    0.5739: real time    0.5752
    MIXING:  cpu time    0.0015: real time    0.0015
    --------------------------------------------
      LOOP:  cpu time   32.8102: real time   32.8972

 eigenvalue-minimisations  : 12560
 total energy-change (2. order) : 0.1058087E+00  (-0.2565371E-01)
 number of electron     159.0000089 magnetization 
 augmentation part       -4.1130461 magnetization 

 Broyden mixing:
  rms(total) = 0.87272E-01    rms(broyden)= 0.86842E-01
  rms(prec ) = 0.97697E-01
  weight for this iteration     100.00

 eigenvalues of (default mixing * dielectric matrix)
  average eigenvalue GAMMA=   0.8113
  2.2735  1.7185  0.8581  0.6277  0.2206  0.2975  0.3771  0.1177

 Free energy of the ion-electron system (eV)
  ---------------------------------------------------
  alpha Z        PSCENC =        81.65567618
  Ewald energy   TEWEN  =     41891.17176702
  -Hartree energ DENC   =    -47802.86890347
  -exchange      EXHF   =         0.00000000
  -V(xc)+E(xc)   XCENC  =      -231.88366623
  PAW double counting   =      4191.68812943    -3609.86292071
  entropy T*S    EENTRO =        -0.34550343
  eigenvalues    EBANDS =     -1467.82049783
  atomic energy  EATOM  =      6761.44252427
  Solvation  Ediel_sol  =         0.00000000
  ---------------------------------------------------
  free energy    TOTEN  =      -186.82339475 eV

  energy without entropy =     -186.47789133  energy(sigma->0) =     -186.65064304


--------------------------------------------------------------------------------------------------------




----------------------------------------- Iteration    1(  14)  ---------------------------------------


    POTLOK:  cpu time    0.0330: real time    0.0330
    SETDIJ:  cpu time    0.0034: real time    0.0034
     EDDAV:  cpu time   32.1101: real time   32.1875
       DOS:  cpu time    0.0010: real time    0.0010
    CHARGE:  cpu time    0.5605: real time    0.5618
    MIXING:  cpu time    0.0017: real time    0.0017
    --------------------------------------------
      LOOP:  cpu time   32.7105: real time   32.7980

 eigenvalue-minimisations  : 12520
 total energy-change (2. order) : 0.7080274E-02  (-0.1530874E-02)
 number of electron     159.0000089 magnetization 
 augmentation part       -4.1439350 magnetization 

 Broyden mixing:
  rms(total) = 0.46399E-01    rms(broyden)= 0.46353E-01
  rms(prec ) = 0.52721E-01
  weight for this iteration     100.00

 eigenvalues of (default mixing * dielectric matrix)
  average eigenvalue GAMMA=   0.8587
  2.2498  1.9840  1.2427  0.6743  0.6743  0.2206  0.2966  0.2684  0.1178

 Free energy of the ion-electron system (eV)
  ---------------------------------------------------
  alpha Z        PSCENC =        81.65567618
  Ewald energy   TEWEN  =     41891.17176702
  -Hartree energ DENC   =    -47804.89499523
  -exchange      EXHF   =         0.00000000
  -V(xc)+E(xc)   XCENC  =      -231.85691555
  PAW double counting   =      4192.46509588    -3610.61049969
  entropy T*S    EENTRO =        -0.34534831
  eigenvalues    EBANDS =     -1465.84361905
  atomic energy  EATOM  =      6761.44252427
  Solvation  Ediel_sol  =         0.00000000
  ---------------------------------------------------
  free energy    TOTEN  =      -186.81631448 eV

  energy without entropy =     -186.47096617  energy(sigma->0) =     -186.64364032


--------------------------------------------------------------------------------------------------------




----------------------------------------- Iteration    1(  15)  ---------------------------------------


    POTLOK:  cpu time    0.0326: real time    0.0329
    SETDIJ:  cpu time    0.0027: real time    0.0027
     EDDAV:  cpu time   33.3098: real time   33.3902
       DOS:  cpu time    0.0011: real time    0.0011
    CHARGE:  cpu time    0.5634: real time    0.5648
    MIXING:  cpu time    0.0018: real time    0.0018
    --------------------------------------------
      LOOP:  cpu time   33.9128: real time   34.0024

 eigenvalue-minimisations  : 13080
 total energy-change (2. order) : 0.2966860E-02  (-0.8083229E-03)
 number of electron     159.0000089 magnetization 
 augmentation part       -4.2200391 magnetization 

 Broyden mixing:
  rms(total) = 0.21515E-01    rms(broyden)= 0.21463E-01
  rms(prec ) = 0.25420E-01
  weight for this iteration     100.00

 eigenvalues of (default mixing * dielectric matrix)
  average eigenvalue GAMMA=   0.9083
  2.3072  2.3072  1.3597  0.9450  0.6369  0.6369  0.2971  0.2206  0.2547  0.1178

 Free energy of the ion-electron system (eV)
  ---------------------------------------------------
  alpha Z        PSCENC =        81.65567618
  Ewald energy   TEWEN  =     41891.17176702
  -Hartree energ DENC   =    -47810.06885135
  -exchange      EXHF   =         0.00000000
  -V(xc)+E(xc)   XCENC  =      -231.79135926
  PAW double counting   =      4193.79934166    -3611.87631129
  entropy T*S    EENTRO =        -0.34401384
  eigenvalues    EBANDS =     -1460.80212102
  atomic energy  EATOM  =      6761.44252427
  Solvation  Ediel_sol  =         0.00000000
  ---------------------------------------------------
  free energy    TOTEN  =      -186.81334762 eV

  energy without entropy =     -186.46933378  energy(sigma->0) =     -186.64134070


--------------------------------------------------------------------------------------------------------




----------------------------------------- Iteration    1(  16)  ---------------------------------------


    POTLOK:  cpu time    0.0326: real time    0.0326
    SETDIJ:  cpu time    0.0027: real time    0.0027
     EDDAV:  cpu time   32.8602: real time   32.9395
       DOS:  cpu time    0.0011: real time    0.0011
    CHARGE:  cpu time    0.5625: real time    0.5638
    MIXING:  cpu time    0.0018: real time    0.0018
    --------------------------------------------
      LOOP:  cpu time   33.4617: real time   33.5507

 eigenvalue-minimisations  : 12880
 total energy-change (2. order) : 0.2779223E-03  (-0.3363712E-03)
 number of electron     159.0000089 magnetization 
 augmentation part       -4.1972949 magnetization 

 Broyden mixing:
  rms(total) = 0.26632E-01    rms(broyden)= 0.26622E-01
  rms(prec ) = 0.30316E-01
  weight for this iteration     100.00

 eigenvalues of (default mixing * dielectric matrix)
  average eigenvalue GAMMA=   0.8560
  2.3374  2.3374  1.3690  1.0079  0.6455  0.6455  0.2971  0.2206  0.2571  0.1178
  0.1807

 Free energy of the ion-electron system (eV)
  ---------------------------------------------------
  alpha Z        PSCENC =        81.65567618
  Ewald energy   TEWEN  =     41891.17176702
  -Hartree energ DENC   =    -47814.81261865
  -exchange      EXHF   =         0.00000000
  -V(xc)+E(xc)   XCENC  =      -231.73515995
  PAW double counting   =      4194.48246767    -3612.51265233
  entropy T*S    EENTRO =        -0.34438475
  eigenvalues    EBANDS =     -1456.16068916
  atomic energy  EATOM  =      6761.44252427
  Solvation  Ediel_sol  =         0.00000000
  ---------------------------------------------------
  free energy    TOTEN  =      -186.81306970 eV

  energy without entropy =     -186.46868495  energy(sigma->0) =     -186.64087732


--------------------------------------------------------------------------------------------------------




----------------------------------------- Iteration    1(  17)  ---------------------------------------


    POTLOK:  cpu time    0.0323: real time    0.0324
    SETDIJ:  cpu time    0.0026: real time    0.0027
     EDDAV:  cpu time   31.5392: real time   31.6146
       DOS:  cpu time    0.0010: real time    0.0010
    CHARGE:  cpu time    0.5647: real time    0.5660
    MIXING:  cpu time    0.0020: real time    0.0020
    --------------------------------------------
      LOOP:  cpu time   32.1428: real time   32.2276

 eigenvalue-minimisations  : 12240
 total energy-change (2. order) : 0.4604954E-03  (-0.2679318E-03)
 number of electron     159.0000089 magnetization 
 augmentation part       -4.1920300 magnetization 

 Broyden mixing:
  rms(total) = 0.18344E-01    rms(broyden)= 0.18327E-01
  rms(prec ) = 0.21319E-01
  weight for this iteration     100.00

 eigenvalues of (default mixing * dielectric matrix)
  average eigenvalue GAMMA=   0.8359
  2.3642  2.3642  1.3619  1.1204  0.6652  0.6652  0.4756  0.2970  0.2206  0.2537
  0.1178  0.1253

 Free energy of the ion-electron system (eV)
  ---------------------------------------------------
  alpha Z        PSCENC =        81.65567618
  Ewald energy   TEWEN  =     41891.17176702
  -Hartree energ DENC   =    -47815.99056905
  -exchange      EXHF   =         0.00000000
  -V(xc)+E(xc)   XCENC  =      -231.72279728
  PAW double counting   =      4194.48258192    -3612.50524863
  entropy T*S    EENTRO =        -0.34445828
  eigenvalues    EBANDS =     -1455.00208536
  atomic energy  EATOM  =      6761.44252427
  Solvation  Ediel_sol  =         0.00000000
  ---------------------------------------------------
  free energy    TOTEN  =      -186.81260920 eV

  energy without entropy =     -186.46815093  energy(sigma->0) =     -186.64038006


--------------------------------------------------------------------------------------------------------




----------------------------------------- Iteration    1(  18)  ---------------------------------------


    POTLOK:  cpu time    0.0320: real time    0.0320
    SETDIJ:  cpu time    0.0026: real time    0.0026
     EDDAV:  cpu time   27.2684: real time   27.3351
       DOS:  cpu time    0.0010: real time    0.0010
    CHARGE:  cpu time    0.5620: real time    0.5634
    MIXING:  cpu time    0.0020: real time    0.0020
    --------------------------------------------
      LOOP:  cpu time   27.8690: real time   27.9444

 eigenvalue-minimisations  : 10280
 total energy-change (2. order) : 0.1961242E-03  (-0.8989519E-04)
 number of electron     159.0000089 magnetization 
 augmentation part       -4.1882514 magnetization 

 Broyden mixing:
  rms(total) = 0.65134E-02    rms(broyden)= 0.65004E-02
  rms(prec ) = 0.93345E-02
  weight for this iteration     100.00

 eigenvalues of (default mixing * dielectric matrix)
  average eigenvalue GAMMA=   0.8952
  2.5301  2.5301  1.5827  1.3205  0.9946  0.6439  0.6439  0.3789  0.2970  0.2206
  0.2538  0.1178  0.1233

 Free energy of the ion-electron system (eV)
  ---------------------------------------------------
  alpha Z        PSCENC =        81.65567618
  Ewald energy   TEWEN  =     41891.17176702
  -Hartree energ DENC   =    -47817.83034761
  -exchange      EXHF   =         0.00000000
  -V(xc)+E(xc)   XCENC  =      -231.70573510
  PAW double counting   =      4194.28494221    -3612.30007465
  entropy T*S    EENTRO =        -0.34446776
  eigenvalues    EBANDS =     -1453.18669763
  atomic energy  EATOM  =      6761.44252427
  Solvation  Ediel_sol  =         0.00000000
  ---------------------------------------------------
  free energy    TOTEN  =      -186.81241308 eV

  energy without entropy =     -186.46794532  energy(sigma->0) =     -186.64017920


--------------------------------------------------------------------------------------------------------




----------------------------------------- Iteration    1(  19)  ---------------------------------------


    POTLOK:  cpu time    0.0319: real time    0.0320
    SETDIJ:  cpu time    0.0026: real time    0.0026
     EDDAV:  cpu time   25.6708: real time   25.7328
       DOS:  cpu time    0.0011: real time    0.0011
    CHARGE:  cpu time    0.5647: real time    0.5660
    MIXING:  cpu time    0.0021: real time    0.0022
    --------------------------------------------
      LOOP:  cpu time   26.2741: real time   26.3456

 eigenvalue-minimisations  :  9600
 total energy-change (2. order) :-0.5373956E-03  (-0.6989399E-04)
 number of electron     159.0000089 magnetization 
 augmentation part       -4.1989080 magnetization 

 Broyden mixing:
  rms(total) = 0.62488E-02    rms(broyden)= 0.62461E-02
  rms(prec ) = 0.79489E-02
  weight for this iteration     100.00

 eigenvalues of (default mixing * dielectric matrix)
  average eigenvalue GAMMA=   1.0004
  3.2927  2.5045  1.9694  1.5500  1.0087  1.0087  0.6415  0.6415  0.3753  0.2970
  0.2206  0.2538  0.1178  0.1233

 Free energy of the ion-electron system (eV)
  ---------------------------------------------------
  alpha Z        PSCENC =        81.65567618
  Ewald energy   TEWEN  =     41891.17176702
  -Hartree energ DENC   =    -47822.90280760
  -exchange      EXHF   =         0.00000000
  -V(xc)+E(xc)   XCENC  =      -231.66309462
  PAW double counting   =      4193.45262689    -3611.45314653
  entropy T*S    EENTRO =        -0.34404877
  eigenvalues    EBANDS =     -1448.17244732
  atomic energy  EATOM  =      6761.44252427
  Solvation  Ediel_sol  =         0.00000000
  ---------------------------------------------------
  free energy    TOTEN  =      -186.81295047 eV

  energy without entropy =     -186.46890170  energy(sigma->0) =     -186.64092609


--------------------------------------------------------------------------------------------------------




----------------------------------------- Iteration    1(  20)  ---------------------------------------


    POTLOK:  cpu time    0.0331: real time    0.0332
    SETDIJ:  cpu time    0.0027: real time    0.0027
     EDDAV:  cpu time   25.1801: real time   25.2403
       DOS:  cpu time    0.0011: real time    0.0011
    CHARGE:  cpu time    0.5612: real time    0.5626
    MIXING:  cpu time    0.0021: real time    0.0022
    --------------------------------------------
      LOOP:  cpu time   25.7813: real time   25.8504

 eigenvalue-minimisations  :  9360
 total energy-change (2. order) :-0.1355706E-02  (-0.5572111E-04)
 number of electron     159.0000089 magnetization 
 augmentation part       -4.1869208 magnetization 

 Broyden mixing:
  rms(total) = 0.36285E-02    rms(broyden)= 0.36242E-02
  rms(prec ) = 0.44803E-02
  weight for this iteration     100.00

 eigenvalues of (default mixing * dielectric matrix)
  average eigenvalue GAMMA=   1.0079
  3.5742  2.4773  2.0818  1.5796  1.0403  1.0403  0.6694  0.6340  0.6340  0.3750
  0.2970  0.2206  0.2538  0.1178  0.1233

 Free energy of the ion-electron system (eV)
  ---------------------------------------------------
  alpha Z        PSCENC =        81.65567618
  Ewald energy   TEWEN  =     41891.17176702
  -Hartree energ DENC   =    -47828.21684346
  -exchange      EXHF   =         0.00000000
  -V(xc)+E(xc)   XCENC  =      -231.62511935
  PAW double counting   =      4192.59481339    -3610.58856148
  entropy T*S    EENTRO =        -0.34414347
  eigenvalues    EBANDS =     -1442.90441929
  atomic energy  EATOM  =      6761.44252427
  Solvation  Ediel_sol  =         0.00000000
  ---------------------------------------------------
  free energy    TOTEN  =      -186.81430618 eV

  energy without entropy =     -186.47016271  energy(sigma->0) =     -186.64223444


--------------------------------------------------------------------------------------------------------




----------------------------------------- Iteration    1(  21)  ---------------------------------------


    POTLOK:  cpu time    0.0341: real time    0.0341
    SETDIJ:  cpu time    0.0026: real time    0.0026
     EDDAV:  cpu time   20.5579: real time   20.6076
       DOS:  cpu time    0.0011: real time    0.0011
    CHARGE:  cpu time    0.5630: real time    0.5644
    MIXING:  cpu time    0.0021: real time    0.0021
    --------------------------------------------
      LOOP:  cpu time   21.1618: real time   21.2213

 eigenvalue-minimisations  :  7080
 total energy-change (2. order) :-0.5977096E-03  (-0.9524470E-05)
 number of electron     159.0000089 magnetization 
 augmentation part       -4.1886694 magnetization 

 Broyden mixing:
  rms(total) = 0.38459E-02    rms(broyden)= 0.38429E-02
  rms(prec ) = 0.46198E-02
  weight for this iteration     100.00

 eigenvalues of (default mixing * dielectric matrix)
  average eigenvalue GAMMA=   1.0743
  4.3155  2.4376  2.4376  1.7118  1.2728  1.1239  0.9685  0.6377  0.6377  0.3752
  0.2970  0.2206  0.2537  0.2585  0.1178  0.1233

 Free energy of the ion-electron system (eV)
  ---------------------------------------------------
  alpha Z        PSCENC =        81.65567618
  Ewald energy   TEWEN  =     41891.17176702
  -Hartree energ DENC   =    -47829.53882039
  -exchange      EXHF   =         0.00000000
  -V(xc)+E(xc)   XCENC  =      -231.61868541
  PAW double counting   =      4192.37750820    -3610.37275210
  entropy T*S    EENTRO =        -0.34411786
  eigenvalues    EBANDS =     -1441.58800380
  atomic energy  EATOM  =      6761.44252427
  Solvation  Ediel_sol  =         0.00000000
  ---------------------------------------------------
  free energy    TOTEN  =      -186.81490389 eV

  energy without entropy =     -186.47078603  energy(sigma->0) =     -186.64284496


--------------------------------------------------------------------------------------------------------




----------------------------------------- Iteration    1(  22)  ---------------------------------------


    POTLOK:  cpu time    0.0319: real time    0.0322
    SETDIJ:  cpu time    0.0026: real time    0.0026
     EDDAV:  cpu time   21.0772: real time   21.1276
       DOS:  cpu time    0.0010: real time    0.0010
    CHARGE:  cpu time    0.5612: real time    0.5626
    MIXING:  cpu time    0.0023: real time    0.0023
    --------------------------------------------
      LOOP:  cpu time   21.6774: real time   21.7362

 eigenvalue-minimisations  :  7400
 total energy-change (2. order) :-0.8889166E-03  (-0.1010590E-04)
 number of electron     159.0000089 magnetization 
 augmentation part       -4.1918972 magnetization 

 Broyden mixing:
  rms(total) = 0.10752E-02    rms(broyden)= 0.10701E-02
  rms(prec ) = 0.14783E-02
  weight for this iteration     100.00

 eigenvalues of (default mixing * dielectric matrix)
  average eigenvalue GAMMA=   1.1711
  5.4444  2.6754  2.5365  1.8913  1.4245  1.0706  0.9742  0.9742  0.6379  0.6379
  0.3752  0.2970  0.2206  0.2538  0.2543  0.1178  0.1233

 Free energy of the ion-electron system (eV)
  ---------------------------------------------------
  alpha Z        PSCENC =        81.65567618
  Ewald energy   TEWEN  =     41891.17176702
  -Hartree energ DENC   =    -47831.44271362
[...]
    104      -0.5751      0.00000
    105      -0.5089      0.00000
    106      -0.4633      0.00000
    107      -0.2841      0.00000
    108      -0.2635      0.00000
    109      -0.0526      0.00000
    110       0.1634      0.00000
    111       0.5466      0.00000
    112       0.6703      0.00000
    113       0.9092      0.00000
    114       0.9690      0.00000
    115       1.0721      0.00000
    116       1.1902      0.00000
    117       1.3680      0.00000
    118       2.1284      0.00000
    119       2.2795      0.00000
    120       2.3893      0.00000

 k-point    34 :       0.5000    0.5000    0.0000
  band No.  band energies     occupation 
      1     -17.4304      2.00000
      2     -17.3387      2.00000
      3     -16.7295      2.00000
      4     -16.6935      2.00000
      5     -16.5212      2.00000
      6     -16.3487      2.00000
      7     -16.2437      2.00000
      8     -16.1986      2.00000
      9     -16.0331      2.00000
     10     -16.0071      2.00000
     11     -15.9183      2.00000
     12     -15.9046      2.00000
     13     -15.7812      2.00000
     14     -15.7249      2.00000
     15     -15.6032      2.00000
     16     -15.5941      2.00000
     17     -15.5128      2.00000
     18     -15.4806      2.00000
     19      -9.7613      2.00000
     20      -9.2854      2.00000
     21      -9.1422      2.00000
     22      -9.0454      2.00000
     23      -8.8981      2.00000
     24      -8.7767      2.00000
     25      -8.5557      2.00000
     26      -8.5333      2.00000
     27      -8.4027      2.00000
     28      -8.3173      2.00000
     29      -8.2810      2.00000
     30      -8.1796      2.00000
     31      -8.0927      2.00000
     32      -8.0183      2.00000
     33      -7.8902      2.00000
     34      -7.8678      2.00000
     35      -7.7538      2.00000
     36      -7.6197      2.00000
     37      -7.4792      2.00000
     38      -7.4337      2.00000
     39      -7.4302      2.00000
     40      -7.1965      2.00000
     41      -7.1306      2.00000
     42      -7.0842      2.00000
     43      -6.9887      2.00000
     44      -6.9329      2.00000
     45      -6.7637      2.00000
     46      -6.7209      2.00000
     47      -6.6984      2.00000
     48      -6.6265      2.00000
     49      -6.5252      2.00000
     50      -6.4227      2.00000
     51      -6.3872      2.00000
     52      -6.3626      2.00000
     53      -6.3405      2.00000
     54      -6.2694      2.00000
     55      -6.1763      2.00000
     56      -6.0375      2.00000
     57      -6.0312      2.00000
     58      -6.0189      2.00000
     59      -5.9488      2.00000
     60      -5.8770      2.00000
     61      -5.7741      2.00000
     62      -5.6829      2.00000
     63      -5.6409      2.00000
     64      -5.4906      2.00000
     65      -5.3286      2.00000
     66      -5.0798      2.00000
     67      -4.9912      2.00000
     68      -4.9652      2.00000
     69      -4.8103      2.00000
     70      -4.6909      2.00000
     71      -4.6483      2.00000
     72      -4.4034      2.00000
     73      -4.3790      2.00000
     74      -4.2961      2.00000
     75      -4.2880      2.00000
     76      -4.1022      2.00000
     77      -3.6689      1.99987
     78      -3.5279      1.99541
     79      -3.2670      1.67724
     80      -3.0963      0.82740
     81      -2.8748      0.07433
     82      -2.7737      0.01244
     83      -2.7569      0.00885
     84      -2.6946      0.00223
     85      -2.6210      0.00035
     86      -2.5543      0.00005
     87      -2.3953      0.00000
     88      -2.0931      0.00000
     89      -1.9764      0.00000
     90      -1.9635      0.00000
     91      -1.8109      0.00000
     92      -1.7502      0.00000
     93      -1.5973      0.00000
     94      -1.4949      0.00000
     95      -1.1934      0.00000
     96      -1.1280      0.00000
     97      -1.0404      0.00000
     98      -0.9423      0.00000
     99      -0.9354      0.00000
    100      -0.7676      0.00000
    101      -0.7585      0.00000
    102      -0.7501      0.00000
    103      -0.6533      0.00000
    104      -0.5762      0.00000
    105      -0.5694      0.00000
    106      -0.5094      0.00000
    107      -0.2521      0.00000
    108      -0.2013      0.00000
    109      -0.0894      0.00000
    110       0.2850      0.00000
    111       0.4205      0.00000
    112       0.6594      0.00000
    113       0.9191      0.00000
    114       0.9900      0.00000
    115       1.0799      0.00000
    116       1.2084      0.00000
    117       1.3964      0.00000
    118       2.2086      0.00000
    119       2.2409      0.00000
    120       2.3569      0.00000


--------------------------------------------------------------------------------------------------------


 soft charge-density along one line, spin component           1
         0         1         2         3         4         5         6         7         8         9
 total charge-density along one line
 
 pseudopotential strength for first ion, spin component:           1
 -7.292   0.009  -0.016   0.034   0.002   0.696  -0.004   0.005
  0.009  -7.214   0.021   0.009  -0.034  -0.004   0.672  -0.006
 -0.016   0.021  -7.190   0.012   0.011   0.005  -0.006   0.667
  0.034   0.009   0.012  -7.228   0.029  -0.010  -0.003  -0.004
  0.002  -0.034   0.011   0.029  -7.291  -0.000   0.010  -0.003
  0.696  -0.004   0.005  -0.010  -0.000   0.326   0.002  -0.001
 -0.004   0.672  -0.006  -0.003   0.010   0.002   0.334   0.002
  0.005  -0.006   0.667  -0.004  -0.003  -0.001   0.002   0.334
 -0.010  -0.003  -0.004   0.676  -0.008   0.003   0.001   0.001
 -0.000   0.010  -0.003  -0.008   0.695   0.000  -0.003   0.001
 -0.004  -0.012  -0.016  -0.007   0.003   0.001   0.003   0.003
 -0.001  -0.004  -0.006  -0.002   0.001   0.000   0.001   0.001
 -0.003  -0.002  -0.000  -0.000  -0.000   0.000   0.000   0.000
 -0.000  -0.000   0.000  -0.000  -0.000  -0.000  -0.001  -0.000
  0.000  -0.000   0.000  -0.002   0.002  -0.001  -0.000   0.000
 -0.003  -0.000   0.000  -0.000   0.001   0.001  -0.000   0.000
 -0.000  -0.001   0.002  -0.001  -0.000   0.000   0.000  -0.001
 -0.001  -0.000   0.000  -0.001   0.002   0.000   0.000  -0.000
 total augmentation occupancy for first ion, spin component:           1
  0.801   0.175  -0.053   0.037   0.026   0.412   0.260  -0.015   0.013   0.004  -0.002   0.004  -0.054   0.001   0.012  -0.000
  0.175   1.085   0.039  -0.017  -0.039   0.259   0.625  -0.002   0.015  -0.015   0.023   0.004  -0.047   0.001  -0.002  -0.002
 -0.053   0.039   0.717   0.023   0.034  -0.012  -0.005   0.264  -0.003   0.007   0.167  -0.001  -0.006   0.021   0.000  -0.000
  0.037  -0.017   0.023   1.106  -0.133   0.015   0.015  -0.001   0.610  -0.242   0.013   0.002  -0.001   0.004  -0.052  -0.000
  0.026  -0.039   0.034  -0.133   0.824   0.004  -0.013   0.008  -0.245   0.417   0.001  -0.002  -0.010  -0.004   0.065  -0.001
  0.412   0.259  -0.012   0.015   0.004   0.378   0.236  -0.006   0.014  -0.001   0.030   0.003  -0.023  -0.008  -0.005  -0.002
  0.260   0.625  -0.005   0.015  -0.013   0.236   0.561  -0.005   0.014  -0.014   0.011   0.005  -0.052  -0.005  -0.008  -0.004
 -0.015  -0.002   0.264  -0.001   0.008  -0.006  -0.005   0.239  -0.003   0.003   0.005   0.003   0.002   0.007   0.001  -0.000
  0.013   0.015  -0.003   0.610  -0.245   0.014   0.014  -0.003   0.546  -0.220   0.006   0.003  -0.009   0.001  -0.048  -0.001
  0.004  -0.015   0.007  -0.242   0.417  -0.001  -0.014   0.003  -0.220   0.376  -0.016  -0.002   0.005   0.002   0.022  -0.000
 -0.002   0.023   0.167   0.013   0.001   0.030   0.011   0.005   0.006  -0.016   1.381   0.130   0.007  -0.073   0.007   0.000
  0.004   0.004  -0.001   0.002  -0.002   0.003   0.005   0.003   0.003  -0.002   0.130   0.025  -0.001  -0.004  -0.000  -0.000
 -0.054  -0.047  -0.006  -0.001  -0.010  -0.023  -0.052   0.002  -0.009   0.005   0.007  -0.001   0.351   0.013   0.003   0.026
  0.001   0.001   0.021   0.004  -0.004  -0.008  -0.005   0.007   0.001   0.002  -0.073  -0.004   0.013   0.404   0.008   0.001
  0.012  -0.002   0.000  -0.052   0.065  -0.005  -0.008   0.001  -0.048   0.022   0.007  -0.000   0.003   0.008   0.347   0.001
 -0.000  -0.002  -0.000  -0.000  -0.001  -0.002  -0.004  -0.000  -0.001  -0.000   0.000  -0.000   0.026   0.001   0.001   0.003
 -0.000   0.001   0.000   0.001  -0.000  -0.000   0.000   0.001   0.000   0.000  -0.003  -0.001   0.001   0.028   0.000   0.000
  0.001  -0.000  -0.000  -0.002   0.001   0.000  -0.000  -0.000  -0.004   0.003   0.000   0.000   0.001   0.000   0.026   0.000


------------------------ aborting loop because EDIFF is reached ----------------------------------------


    CHARGE:  cpu time    0.4712: real time    0.4723
    FORLOC:  cpu time    0.0090: real time    0.0090
    FORNL :  cpu time    6.7582: real time    6.7743
    STRESS:  cpu time   32.5616: real time   32.6394
    FORCOR:  cpu time    0.0375: real time    0.0377
    FORHAR:  cpu time    0.0149: real time    0.0150
    MIXING:  cpu time    0.0012: real time    0.0012
    OFIELD:  cpu time    0.0000: real time    0.0000

  FORCE on cell =-STRESS in cart. coord.  units (eV):
  Direction    XX          YY          ZZ          XY          YZ          ZX
  --------------------------------------------------------------------------------------
  Alpha Z    88.21069    88.21069    88.21069
  Ewald   48754.46997 48754.83179-53692.04752     0.04780    -0.08434    -0.32267
  Hartree 49469.23842 49469.64144-49116.18061     0.04754    -0.02054    -0.07232
  E(xc)    -609.95517  -609.97451  -617.05178    -0.00352     0.00499     0.01478
  Local  ************************100250.09137    -0.13092     0.12683     0.44372
  n-local  1215.01378  1214.77822  1250.49695    -0.03654     0.00241    -0.01852
  augment  -212.50837  -212.40587  -215.27379     0.01550    -0.00635    -0.01360
  Kinetic  2012.80981  2013.14535  2049.56052     0.07104    -0.03113    -0.08492
  Fock        0.00000     0.00000     0.00000     0.00000     0.00000     0.00000
  -------------------------------------------------------------------------------------
  Total       0.11553     0.14491    -2.19415     0.01089    -0.00814    -0.05352
  in kB       0.07627     0.09566    -1.44847     0.00719    -0.00537    -0.03533
  external pressure =       -0.43 kB  Pullay stress =        0.00 kB


 VOLUME and BASIS-vectors are now :
 -----------------------------------------------------------------------------
  energy-cutoff  :      280.00
  volume of cell :     2426.98
      direct lattice vectors                 reciprocal lattice vectors
     8.369230879  4.833920173  0.000000000     0.059737819  0.103444076  0.000000000
    -8.368553625  4.832747885  0.000000000    -0.059752309  0.103452447  0.000000000
     0.000000000  0.000000000 30.000000000     0.000000000  0.000000000  0.033333333

  length of vectors
     9.664926784  9.663754028 30.000000000     0.119454107  0.119468604  0.033333333


 FORCES acting on ions
    electron-ion (+dipol)            ewald-force                    non-local-force                 convergence-correction
 -----------------------------------------------------------------------------------------------
   0.822E+00 -.196E-01 0.942E+01   -.584E+00 0.500E+00 -.977E+01   -.221E+00 -.505E+00 0.338E+00   0.234E-01 0.120E-01 -.437E-02
   0.126E+01 0.875E-01 0.909E+01   -.105E+01 -.578E+00 -.943E+01   -.180E+00 0.516E+00 0.333E+00   0.339E-01 -.269E-02 -.730E-03
   -.666E+00 0.433E+00 0.863E+01   0.146E+00 -.461E+00 -.896E+01   0.519E+00 0.412E-01 0.332E+00   -.211E-01 0.149E-01 0.224E-02
   0.160E+02 -.279E+02 -.142E+01   -.157E+02 0.274E+02 0.159E+01   -.302E+00 0.491E+00 -.170E+00   -.189E-02 0.871E-02 -.320E-02
   0.159E+02 0.277E+02 -.154E+01   -.156E+02 -.271E+02 0.172E+01   -.312E+00 -.519E+00 -.174E+00   -.141E-01 -.208E-01 -.271E-02
   -.327E+02 -.727E-01 -.124E+01   0.321E+02 0.735E-01 0.141E+01   0.527E+00 -.571E-02 -.162E+00   0.184E-02 0.462E-02 -.346E-02
   -.176E+02 -.300E+02 -.825E+01   0.178E+02 0.305E+02 0.862E+01   -.254E+00 -.433E+00 -.361E+00   -.310E-02 -.622E-02 -.160E-02
   0.348E+02 0.214E-01 -.810E+01   -.353E+02 -.666E-02 0.847E+01   0.506E+00 -.797E-02 -.359E+00   0.913E-02 -.133E-01 -.175E-02
   -.176E+02 0.300E+02 -.824E+01   0.178E+02 -.305E+02 0.860E+01   -.260E+00 0.429E+00 -.360E+00   -.154E-01 0.100E-02 -.148E-02
   0.807E+01 -.128E+02 0.530E+03   -.756E+01 0.120E+02 -.534E+03   -.515E+00 0.898E+00 0.449E+01   0.171E-01 -.309E-01 0.132E-01
   0.186E+02 0.172E+02 -.572E+03   -.194E+02 -.168E+02 0.575E+03   0.813E+00 -.376E+00 -.376E+01   -.135E-01 -.291E-01 -.281E-01
   -.153E+02 0.212E+00 0.530E+03   0.143E+02 -.213E+00 -.534E+03   0.102E+01 0.226E-02 0.450E+01   -.297E-01 0.499E-03 0.113E-01
   0.118E+00 0.911E-01 -.465E+03   -.110E+00 -.834E-01 0.470E+03   -.649E-02 -.218E-02 -.512E+01   -.313E-02 -.594E-02 0.134E-01
   0.411E+01 0.739E+01 0.534E+03   -.451E+01 -.805E+01 -.537E+03   0.420E+00 0.680E+00 0.338E+01   -.200E-01 -.260E-01 0.425E-01
   0.561E+01 0.246E+02 -.571E+03   -.483E+01 -.251E+02 0.575E+03   -.755E+00 0.487E+00 -.375E+01   -.163E-01 -.239E-01 -.238E-01
   0.188E+02 -.864E-01 0.621E+03   -.199E+02 0.107E+00 -.624E+03   0.113E+01 -.168E-01 0.355E+01   -.692E-02 -.444E-02 0.699E-03
   -.917E-01 -.361E-01 -.634E+03   0.127E+00 0.510E-01 0.638E+03   -.474E-01 -.198E-01 -.347E+01   0.191E-02 0.523E-03 -.713E-03
   0.790E+01 0.130E+02 0.530E+03   -.738E+01 -.121E+02 -.534E+03   -.528E+00 -.915E+00 0.447E+01   0.345E-02 0.826E-02 -.500E-02
   0.184E+02 -.175E+02 -.571E+03   -.193E+02 0.171E+02 0.575E+03   0.822E+00 0.394E+00 -.375E+01   -.232E-02 0.989E-02 -.776E-02
   -.974E+01 0.163E+02 0.621E+03   0.103E+02 -.173E+02 -.624E+03   -.595E+00 0.950E+00 0.355E+01   0.606E-03 -.806E-02 0.524E-03
   -.247E+02 0.684E+01 -.570E+03   0.247E+02 -.776E+01 0.574E+03   -.206E-01 0.923E+00 -.377E+01   0.108E-01 0.151E-02 -.298E-02
   -.973E+01 -.165E+02 0.621E+03   0.103E+02 0.174E+02 -.624E+03   -.579E+00 -.953E+00 0.355E+01   0.569E-02 0.800E-02 0.227E-02
   -.247E+02 -.689E+01 -.570E+03   0.247E+02 0.779E+01 0.573E+03   0.447E-02 -.920E+00 -.377E+01   0.302E-01 0.524E-02 -.174E-01
   0.387E+01 -.741E+01 0.532E+03   -.429E+01 0.803E+01 -.536E+03   0.431E+00 -.653E+00 0.341E+01   0.193E-02 0.325E-01 0.178E-01
   0.592E+01 -.247E+02 -.570E+03   -.513E+01 0.251E+02 0.574E+03   -.786E+00 -.462E+00 -.375E+01   -.900E-02 0.246E-01 -.177E-01
   -.825E+01 -.202E+00 0.530E+03   0.896E+01 0.162E+00 -.533E+03   -.744E+00 0.209E-01 0.347E+01   0.305E-01 0.228E-01 0.129E-01
   0.709E+00 0.248E+00 -.521E+03   -.694E+00 -.260E+00 0.526E+03   -.222E-01 -.857E-02 -.404E+01   0.733E-02 0.208E-01 -.412E-01
 -----------------------------------------------------------------------------------------------
   -.894E-01 -.370E-01 0.142E+01   0.160E-13 -.252E-13 0.114E-12   0.711E-01 0.323E-01 -.139E+01   0.213E-01 0.453E-02 -.471E-01
 
 
 POSITION                                       TOTAL-FORCE (eV/Angst)
 -----------------------------------------------------------------------------------
     -0.00790      6.41430     -0.05060         0.040458     -0.012888     -0.010499
     -0.00383      0.03038     -0.04909         0.066143      0.023308     -0.006521
     -5.55147      3.22612     -0.04717        -0.022081      0.028307      0.006115
      2.88335      4.66898      0.00967        -0.006174      0.000954      0.001585
      2.88156      1.77078      0.01004        -0.016828     -0.020453      0.005365
      5.38506      3.22154      0.00908        -0.028341     -0.000256     -0.002221
      5.41753      6.16413      0.02990        -0.003124     -0.010743      0.006448
      0.32332      3.22193      0.02895         0.005662     -0.006500      0.002183
     -2.95111      5.11260      0.02965        -0.007008      0.005294      0.005982
     -0.92951      1.61111     28.56751         0.005965     -0.004624      0.017416
      0.95286      1.56685      1.55334        -0.003008      0.004457      0.004433
     -3.71953      3.22156     28.56774        -0.005786      0.001760      0.014008
     -1.85972      3.22138      1.22849        -0.001733     -0.000501     -0.041162
     -6.51323      4.82263     28.57048         0.002584     -0.000214     -0.012598
     -4.69928      4.83074      1.55186         0.000219      0.004090     -0.001814
      1.89900      3.22142     28.31159         0.009361     -0.000907     -0.010934
      3.71794      3.22098      1.72477        -0.010735     -0.004334      0.018812
     -0.92956      4.83188     28.56788         0.002232      0.001651      0.010402
      0.95362      4.87641      1.55182         0.001385     -0.001029      0.005124
     -3.73897      6.47688     28.31168        -0.006311      0.006107     -0.010070
     -1.83365      6.48743      1.54838        -0.004921      0.009145     -0.013975
      4.63014      4.79972     28.31157        -0.005657     -0.006452     -0.007242
      6.53493      4.78876      1.54759        -0.005340     -0.011499     -0.022690
      1.85636      6.45333     28.57518         0.009045     -0.001831      0.007111
      3.66898      6.44473      1.54945        -0.006727     -0.007630     -0.010221
     -0.92020      8.05518     28.58138        -0.009268      0.003804      0.046289
      0.93068      8.05493      1.40887        -0.000012      0.000982     -0.001326
 -----------------------------------------------------------------------------------
    total drift:                                0.002992     -0.000177     -0.010603


--------------------------------------------------------------------------------------------------------



  FREE ENERGIE OF THE ION-ELECTRON SYSTEM (eV)
  ---------------------------------------------------
  free  energy   TOTEN  =      -192.21214291 eV

  energy  without entropy=     -191.99892233  energy(sigma->0) =     -192.10553262
 
 d Force = 0.2297696E-03[ 0.227E-03, 0.233E-03]  d Energy = 0.1529732E-03 0.768E-04
 d Force =-0.9764012E+00[-0.977E+00,-0.976E+00]  d Ewald  =-0.4542652E+01 0.357E+01


--------------------------------------------------------------------------------------------------------


    POTLOK:  cpu time    0.0368: real time    0.0368


--------------------------------------------------------------------------------------------------------


 Quasi-Newton relaxation of ions (Broydens 2nd method)
  g(Force)  = 0.838E-03   g(Stress)= 0.618E-04

 retain information from N=  1 steps
 eigenvalues of (default step * inverse Hessian matrix)
  average eigenvalue of G=   0.1322
 eigenvalue spectrum of G is  0.1322


--------------------------------------------------------------------------------------------------------


  
 reached required accuracy - stopping structural energy minimisation
     LOOP+:  cpu time  138.3331: real time  138.6782
    4ORBIT:  cpu time    0.0000: real time    0.0000

 total amount of memory used by VASP on root node   650782. kBytes
========================================================================

   base      :      30000. kBytes
   nonl-proj :     559647. kBytes
   fftplans  :       2414. kBytes
   grid      :      12150. kBytes
   one-center:        419. kBytes
   wavefun   :      46152. kBytes
 
  
  
 General timing and accounting informations for this job:
 ========================================================
  
                  Total CPU time used (sec):     5377.730
                            User time (sec):     5329.997
                          System time (sec):       47.734
                         Elapsed time (sec):     5392.318
  
                   Maximum memory used (kb):      739448.
                   Average memory used (kb):           0.
  
                          Minor page faults:       653495
                          Major page faults:            3
                 Voluntary context switches:         4418
