   27   27  100    1
  0.9710400E+02  0.1002848E-08  0.1002848E-08  0.3000000E-08  0.5000000E-15
  1.000000000000000E-004
  CAR 
 unknown system                          
    159     34    120
 
  0.0000000E+00  0.0000000E+00  0.0000000E+00  0.1562500E-01
    1      -17.862771   1.000000
    2      -16.799342   1.000000
    3      -16.688897   1.000000
    4      -16.606785   1.000000
    5      -16.579545   1.000000
    6      -16.430300   1.000000
    7      -16.356877   1.000000
    8      -16.341905   1.000000
    9      -16.241251   1.000000
   10      -16.138256   1.000000
   11      -16.081823   1.000000
   12      -15.983011   1.000000
   13      -15.870329   1.000000
   14      -15.631513   1.000000
   15      -15.580915   1.000000
   16      -15.464338   1.000000
   17      -15.225489   1.000000
   18      -15.182960   1.000000
   19       -9.477035   1.000000
   20       -9.058777   1.000000
   21       -9.029376   1.000000
   22       -8.928323   1.000000
   23       -8.762351   1.000000
   24       -8.710712   1.000000
   25       -8.643935   1.000000
   26       -8.572578   1.000000
   27       -8.486512   1.000000
   28       -8.457502   1.000000
   29       -8.409932   1.000000
   30       -8.363349   1.000000
   31       -8.231538   1.000000
   32       -8.200302   1.000000
   33       -8.154677   1.000000
   34       -8.058367   1.000000
   35       -7.815061   1.000000
   36       -7.770111   1.000000
   37       -7.637768   1.000000
   38       -7.616864   1.000000
   39       -7.503838   1.000000
   40       -7.368579   1.000000
   41       -7.305047   1.000000
   42       -7.208831   1.000000
   43       -7.085641   1.000000
   44       -6.965013   1.000000
   45       -6.829405   1.000000
   46       -6.827792   1.000000
   47       -6.752769   1.000000
   48       -6.718164   1.000000
   49       -6.643050   1.000000
   50       -6.510648   1.000000
   51       -6.398681   1.000000
   52       -6.253411   1.000000
   53       -6.209064   1.000000
   54       -6.176380   1.000000
   55       -6.119665   1.000000
   56       -6.036089   1.000000
   57       -5.978114   1.000000
   58       -5.873414   1.000000
   59       -5.851508   1.000000
   60       -5.724573   1.000000
   61       -5.614741   1.000000
   62       -5.338049   1.000000
   63       -5.291851   1.000000
   64       -5.044755   1.000000
   65       -4.985103   1.000000
   66       -4.896276   1.000000
   67       -4.851463   1.000000
   68       -4.782308   1.000000
   69       -4.749854   1.000000
   70       -4.716852   1.000000
   71       -4.653490   1.000000
   72       -4.617596   1.000000
   73       -4.406472   1.000000
   74       -4.358187   1.000000
   75       -4.285588   1.000000
   76       -3.987059   1.000000
   77       -3.752414   0.999922
   78       -3.576842   0.994469
   79       -3.513100   0.981692
   80       -3.183335   0.404482
   81       -3.134922   0.279578
   82       -2.849851   0.004663
   83       -2.686614   0.000087
   84       -2.663346   0.000045
   85       -2.514523   0.000000
   86       -2.507923   0.000000
   87       -2.280051   0.000000
   88       -2.222590   0.000000
   89       -2.189782   0.000000
   90       -1.923585   0.000000
   91       -1.743297   0.000000
   92       -1.614969   0.000000
   93       -1.501213   0.000000
   94       -1.179610   0.000000
   95       -1.127052   0.000000
   96       -1.016379   0.000000
   97       -0.956074   0.000000
   98       -0.876724   0.000000
   99       -0.809675   0.000000
  100       -0.628908   0.000000
  101       -0.542805   0.000000
  102       -0.493465   0.000000
  103       -0.376074   0.000000
  104       -0.230131   0.000000
  105       -0.126139   0.000000
  106       -0.066125   0.000000
  107       -0.024456   0.000000
  108        0.023210   0.000000
  109        0.134310   0.000000
  110        0.188147   0.000000
  111        0.438773   0.000000
  112        0.549272   0.000000
  113        0.619684   0.000000
  114        0.895763   0.000000
  115        0.983344   0.000000
  116        1.020719   0.000000
  117        1.145516   0.000000
  118        1.650783   0.000000
  119        1.843421   0.000000
  120        2.172185   0.000000
 
  0.1250000E+00  0.2775558E-16  0.0000000E+00  0.3125000E-01
    1      -17.840042   1.000000
    2      -16.836688   1.000000
    3      -16.721591   1.000000
    4      -16.657968   1.000000
    5      -16.597772   1.000000
    6      -16.431488   1.000000
    7      -16.350333   1.000000
    8      -16.313108   1.000000
    9      -16.240880   1.000000
   10      -16.112199   1.000000
   11      -16.003228   1.000000
   12      -15.966792   1.000000
   13      -15.865362   1.000000
   14      -15.644158   1.000000
   15      -15.578465   1.000000
   16      -15.482017   1.000000
   17      -15.226661   1.000000
   18      -15.186601   1.000000
   19       -9.470634   1.000000
   20       -9.203916   1.000000
   21       -9.062881   1.000000
   22       -9.014474   1.000000
   23       -8.834813   1.000000
   24       -8.754016   1.000000
   25       -8.667792   1.000000
   26       -8.577799   1.000000
   27       -8.490876   1.000000
   28       -8.449579   1.000000
   29       -8.362104   1.000000
   30       -8.243434   1.000000
   31       -8.148409   1.000000
   32       -8.108568   1.000000
   33       -8.052545   1.000000
   34       -8.027658   1.000000
   35       -7.750797   1.000000
   36       -7.725864   1.000000
   37       -7.662736   1.000000
   38       -7.586464   1.000000
   39       -7.489099   1.000000
   40       -7.479764   1.000000
   41       -7.262825   1.000000
   42       -7.218502   1.000000
   43       -7.120906   1.000000
   44       -7.013405   1.000000
   45       -6.907328   1.000000
   46       -6.799251   1.000000
   47       -6.732555   1.000000
   48       -6.667437   1.000000
   49       -6.568837   1.000000
   50       -6.458774   1.000000
   51       -6.419788   1.000000
   52       -6.308813   1.000000
   53       -6.209478   1.000000
   54       -6.157718   1.000000
   55       -6.123666   1.000000
   56       -6.063035   1.000000
   57       -5.995444   1.000000
   58       -5.930009   1.000000
   59       -5.765942   1.000000
   60       -5.680967   1.000000
   61       -5.581455   1.000000
   62       -5.451703   1.000000
   63       -5.376085   1.000000
   64       -5.136133   1.000000
   65       -5.060052   1.000000
   66       -4.925339   1.000000
   67       -4.844365   1.000000
   68       -4.790841   1.000000
   69       -4.747558   1.000000
   70       -4.646955   1.000000
   71       -4.604535   1.000000
   72       -4.535221   1.000000
   73       -4.411196   1.000000
   74       -4.298775   1.000000
   75       -4.256448   1.000000
   76       -4.052839   1.000000
   77       -3.759374   0.999936
   78       -3.651029   0.998913
   79       -3.574909   0.994249
   80       -3.146609   0.308024
   81       -3.097941   0.198892
   82       -2.811364   0.002039
   83       -2.666621   0.000049
   84       -2.639663   0.000022
   85       -2.511258   0.000000
   86       -2.492342   0.000000
   87       -2.260649   0.000000
   88       -2.198526   0.000000
   89       -2.139735   0.000000
   90       -1.928343   0.000000
   91       -1.760539   0.000000
   92       -1.605271   0.000000
   93       -1.479941   0.000000
   94       -1.189797   0.000000
   95       -1.140627   0.000000
   96       -1.032607   0.000000
   97       -0.946953   0.000000
   98       -0.885585   0.000000
   99       -0.815578   0.000000
  100       -0.706348   0.000000
  101       -0.641238   0.000000
  102       -0.543669   0.000000
  103       -0.477120   0.000000
  104       -0.309605   0.000000
  105       -0.177971   0.000000
  106       -0.071507   0.000000
  107        0.006242   0.000000
  108        0.045695   0.000000
  109        0.144261   0.000000
  110        0.241650   0.000000
  111        0.485431   0.000000
  112        0.554564   0.000000
  113        0.598269   0.000000
  114        0.935375   0.000000
  115        0.977132   0.000000
  116        1.042277   0.000000
  117        1.108065   0.000000
  118        1.692581   0.000000
  119        1.884383   0.000000
  120        2.206791   0.000000
 
  0.2500000E+00  0.5551115E-16  0.0000000E+00  0.3125000E-01
    1      -17.774982   1.000000
    2      -16.992466   1.000000
    3      -16.742186   1.000000
    4      -16.704368   1.000000
    5      -16.649032   1.000000
    6      -16.426171   1.000000
    7      -16.339490   1.000000
    8      -16.299495   1.000000
    9      -16.199620   1.000000
   10      -16.045782   1.000000
   11      -15.956659   1.000000
   12      -15.869196   1.000000
   13      -15.825351   1.000000
   14      -15.675223   1.000000
   15      -15.573154   1.000000
   16      -15.528570   1.000000
   17      -15.230412   1.000000
   18      -15.196514   1.000000
   19       -9.546509   1.000000
   20       -9.365528   1.000000
   21       -9.192534   1.000000
   22       -9.094346   1.000000
   23       -8.983759   1.000000
   24       -8.809430   1.000000
   25       -8.607571   1.000000
   26       -8.550847   1.000000
   27       -8.469818   1.000000
   28       -8.402124   1.000000
   29       -8.268758   1.000000
   30       -8.238366   1.000000
   31       -8.121808   1.000000
   32       -8.049574   1.000000
   33       -7.852865   1.000000
   34       -7.821472   1.000000
   35       -7.759474   1.000000
   36       -7.704782   1.000000
   37       -7.616629   1.000000
   38       -7.584356   1.000000
   39       -7.500669   1.000000
   40       -7.365521   1.000000
   41       -7.271106   1.000000
   42       -7.186062   1.000000
   43       -7.134546   1.000000
   44       -7.055735   1.000000
   45       -6.913858   1.000000
   46       -6.797429   1.000000
   47       -6.712712   1.000000
   48       -6.655087   1.000000
   49       -6.468809   1.000000
   50       -6.409310   1.000000
   51       -6.365476   1.000000
   52       -6.320986   1.000000
   53       -6.271991   1.000000
   54       -6.200630   1.000000
   55       -6.138392   1.000000
   56       -6.057990   1.000000
   57       -6.029412   1.000000
   58       -5.889304   1.000000
   59       -5.733286   1.000000
   60       -5.689282   1.000000
   61       -5.663062   1.000000
   62       -5.512078   1.000000
   63       -5.458243   1.000000
   64       -5.363082   1.000000
   65       -5.272196   1.000000
   66       -4.962438   1.000000
   67       -4.868014   1.000000
   68       -4.745898   1.000000
   69       -4.689126   1.000000
   70       -4.601403   1.000000
   71       -4.488230   1.000000
   72       -4.403352   1.000000
   73       -4.373700   1.000000
   74       -4.297880   1.000000
   75       -4.222245   1.000000
   76       -4.177970   1.000000
   77       -3.806202   0.999984
   78       -3.749405   0.999915
   79       -3.625563   0.998045
   80       -3.097917   0.198844
   81       -3.032723   0.095649
   82       -2.743544   0.000402
   83       -2.656937   0.000037
   84       -2.573163   0.000003
   85       -2.485888   0.000000
   86       -2.445747   0.000000
   87       -2.211417   0.000000
   88       -2.128297   0.000000
   89       -2.010813   0.000000
   90       -1.919908   0.000000
   91       -1.772419   0.000000
   92       -1.587573   0.000000
   93       -1.454746   0.000000
   94       -1.235359   0.000000
   95       -1.199000   0.000000
   96       -1.098334   0.000000
   97       -0.953751   0.000000
   98       -0.920940   0.000000
   99       -0.893452   0.000000
  100       -0.818163   0.000000
  101       -0.768994   0.000000
  102       -0.651299   0.000000
  103       -0.588865   0.000000
  104       -0.477244   0.000000
  105       -0.259855   0.000000
  106       -0.143354   0.000000
  107        0.004093   0.000000
  108        0.066127   0.000000
  109        0.167246   0.000000
  110        0.312998   0.000000
  111        0.417265   0.000000
  112        0.593731   0.000000
  113        0.635147   0.000000
  114        0.912348   0.000000
  115        1.023754   0.000000
  116        1.050009   0.000000
  117        1.180687   0.000000
  118        1.809355   0.000000
  119        2.001087   0.000000
  120        2.309052   0.000000
 
  0.3750000E+00  0.0000000E+00  0.0000000E+00  0.3125000E-01
    1      -17.682531   1.000000
    2      -17.171620   1.000000
    3      -16.751212   1.000000
    4      -16.725756   1.000000
    5      -16.685905   1.000000
    6      -16.429300   1.000000
    7      -16.332945   1.000000
    8      -16.309938   1.000000
    9      -16.125264   1.000000
   10      -15.987042   1.000000
   11      -15.931140   1.000000
   12      -15.839358   1.000000
   13      -15.750854   1.000000
   14      -15.680525   1.000000
   15      -15.596134   1.000000
   16      -15.558288   1.000000
   17      -15.235387   1.000000
   18      -15.208230   1.000000
   19       -9.726437   1.000000
   20       -9.375387   1.000000
   21       -9.289693   1.000000
   22       -9.143482   1.000000
   23       -9.073379   1.000000
   24       -8.852782   1.000000
   25       -8.536046   1.000000
   26       -8.473393   1.000000
   27       -8.429640   1.000000
   28       -8.311329   1.000000
   29       -8.272945   1.000000
   30       -8.209793   1.000000
   31       -8.136924   1.000000
   32       -8.100560   1.000000
   33       -7.892568   1.000000
   34       -7.830892   1.000000
   35       -7.766027   1.000000
   36       -7.741545   1.000000
   37       -7.550500   1.000000
   38       -7.415174   1.000000
   39       -7.388403   1.000000
   40       -7.306873   1.000000
   41       -7.228489   1.000000
   42       -7.134136   1.000000
   43       -7.072369   1.000000
   44       -7.008603   1.000000
   45       -6.826630   1.000000
   46       -6.754356   1.000000
   47       -6.678023   1.000000
   48       -6.587373   1.000000
   49       -6.506719   1.000000
   50       -6.422933   1.000000
   51       -6.383838   1.000000
   52       -6.319455   1.000000
   53       -6.281444   1.000000
   54       -6.216961   1.000000
   55       -6.113720   1.000000
   56       -6.063118   1.000000
   57       -6.027970   1.000000
   58       -5.874095   1.000000
   59       -5.833223   1.000000
   60       -5.762639   1.000000
   61       -5.691671   1.000000
   62       -5.595141   1.000000
   63       -5.566190   1.000000
   64       -5.442749   1.000000
   65       -5.340841   1.000000
   66       -5.010697   1.000000
   67       -4.878626   1.000000
   68       -4.794392   1.000000
   69       -4.692360   1.000000
   70       -4.644355   1.000000
   71       -4.528048   1.000000
   72       -4.379682   1.000000
   73       -4.330728   1.000000
   74       -4.273053   1.000000
   75       -4.162422   1.000000
   76       -4.100582   1.000000
   77       -3.931104   1.000000
   78       -3.724373   0.999831
   79       -3.618423   0.997707
   80       -3.073648   0.154488
   81       -2.981578   0.047618
   82       -2.700948   0.000130
   83       -2.664190   0.000046
   84       -2.550456   0.000001
   85       -2.413124   0.000000
   86       -2.389133   0.000000
   87       -2.148906   0.000000
   88       -2.028544   0.000000
   89       -1.891785   0.000000
   90       -1.870770   0.000000
   91       -1.733469   0.000000
   92       -1.578535   0.000000
   93       -1.495459   0.000000
   94       -1.350939   0.000000
   95       -1.268048   0.000000
   96       -1.189536   0.000000
   97       -1.040225   0.000000
   98       -0.981678   0.000000
   99       -0.942153   0.000000
  100       -0.894026   0.000000
  101       -0.847040   0.000000
  102       -0.724050   0.000000
  103       -0.624152   0.000000
  104       -0.545587   0.000000
  105       -0.316359   0.000000
  106       -0.216609   0.000000
  107       -0.058703   0.000000
  108        0.015278   0.000000
  109        0.144124   0.000000
  110        0.307616   0.000000
  111        0.402095   0.000000
  112        0.618193   0.000000
  113        0.661446   0.000000
  114        0.886991   0.000000
  115        0.990420   0.000000
  116        1.146394   0.000000
  117        1.309692   0.000000
  118        1.984157   0.000000
  119        2.179404   0.000000
  120        2.422278   0.000000
 
  0.5000000E+00  0.1110223E-15  0.0000000E+00  0.1562500E-01
    1      -17.623801   1.000000
    2      -17.262343   1.000000
    3      -16.759018   1.000000
    4      -16.728519   1.000000
    5      -16.697713   1.000000
    6      -16.432097   1.000000
    7      -16.328029   1.000000
    8      -16.318374   1.000000
    9      -16.083402   1.000000
   10      -15.977821   1.000000
   11      -15.918262   1.000000
   12      -15.814519   1.000000
   13      -15.747809   1.000000
   14      -15.683999   1.000000
   15      -15.601017   1.000000
   16      -15.561736   1.000000
   17      -15.237831   1.000000
   18      -15.213702   1.000000
   19       -9.797681   1.000000
   20       -9.389087   1.000000
   21       -9.312282   1.000000
   22       -9.164523   1.000000
   23       -9.091077   1.000000
   24       -8.866835   1.000000
   25       -8.517710   1.000000
   26       -8.426336   1.000000
   27       -8.382075   1.000000
   28       -8.298155   1.000000
   29       -8.248007   1.000000
   30       -8.219129   1.000000
   31       -8.158507   1.000000
   32       -8.093712   1.000000
   33       -7.938571   1.000000
   34       -7.880944   1.000000
   35       -7.845336   1.000000
   36       -7.761666   1.000000
   37       -7.490216   1.000000
   38       -7.352028   1.000000
   39       -7.335626   1.000000
   40       -7.260812   1.000000
   41       -7.135293   1.000000
   42       -7.100888   1.000000
   43       -7.055641   1.000000
   44       -7.013634   1.000000
   45       -6.807039   1.000000
   46       -6.696207   1.000000
   47       -6.599742   1.000000
   48       -6.546348   1.000000
   49       -6.537650   1.000000
   50       -6.483788   1.000000
   51       -6.418136   1.000000
   52       -6.302792   1.000000
   53       -6.249699   1.000000
   54       -6.228482   1.000000
   55       -6.154956   1.000000
   56       -6.087644   1.000000
   57       -6.060912   1.000000
   58       -5.894630   1.000000
   59       -5.818234   1.000000
   60       -5.768431   1.000000
   61       -5.742113   1.000000
   62       -5.669912   1.000000
   63       -5.489083   1.000000
   64       -5.364552   1.000000
   65       -5.290357   1.000000
   66       -5.277277   1.000000
   67       -4.921481   1.000000
   68       -4.872029   1.000000
   69       -4.703294   1.000000
   70       -4.635498   1.000000
   71       -4.504081   1.000000
   72       -4.329392   1.000000
   73       -4.316899   1.000000
   74       -4.263021   1.000000
   75       -4.146378   1.000000
   76       -4.059374   1.000000
   77       -3.979126   1.000000
   78       -3.710516   0.999755
   79       -3.601076   0.996657
   80       -3.068587   0.146136
   81       -2.962425   0.035629
   82       -2.690352   0.000097
   83       -2.664319   0.000046
   84       -2.550515   0.000001
   85       -2.400549   0.000000
   86       -2.338733   0.000000
   87       -2.117231   0.000000
   88       -1.966058   0.000000
   89       -1.854395   0.000000
   90       -1.832676   0.000000
   91       -1.685205   0.000000
   92       -1.588580   0.000000
   93       -1.574188   0.000000
   94       -1.383724   0.000000
   95       -1.282003   0.000000
   96       -1.257126   0.000000
   97       -1.088018   0.000000
   98       -1.003586   0.000000
   99       -0.974524   0.000000
  100       -0.923026   0.000000
  101       -0.870541   0.000000
  102       -0.742255   0.000000
  103       -0.641016   0.000000
  104       -0.531004   0.000000
  105       -0.339978   0.000000
  106       -0.246858   0.000000
  107       -0.095271   0.000000
  108       -0.017860   0.000000
  109        0.118875   0.000000
  110        0.289764   0.000000
  111        0.417026   0.000000
  112        0.624891   0.000000
  113        0.666590   0.000000
  114        0.880242   0.000000
  115        0.984623   0.000000
  116        1.187512   0.000000
  117        1.360896   0.000000
  118        2.159491   0.000000
  119        2.261509   0.000000
  120        2.400047   0.000000
 
  0.0000000E+00  0.1250000E+00  0.0000000E+00  0.3125000E-01
    1      -17.838107   1.000000
    2      -16.819688   1.000000
    3      -16.795718   1.000000
    4      -16.629470   1.000000
    5      -16.513028   1.000000
    6      -16.447423   1.000000
    7      -16.377906   1.000000
    8      -16.316556   1.000000
    9      -16.293585   1.000000
   10      -16.065677   1.000000
   11      -16.029711   1.000000
   12      -15.970197   1.000000
   13      -15.848902   1.000000
   14      -15.627334   1.000000
   15      -15.574543   1.000000
   16      -15.474434   1.000000
   17      -15.248959   1.000000
   18      -15.183130   1.000000
   19       -9.480967   1.000000
   20       -9.174736   1.000000
   21       -9.115463   1.000000
   22       -9.047205   1.000000
   23       -8.762303   1.000000
   24       -8.728483   1.000000
   25       -8.617281   1.000000
   26       -8.576579   1.000000
   27       -8.522921   1.000000
   28       -8.421599   1.000000
   29       -8.398064   1.000000
   30       -8.295121   1.000000
   31       -8.253138   1.000000
   32       -8.082966   1.000000
   33       -7.989907   1.000000
   34       -7.944295   1.000000
   35       -7.838583   1.000000
   36       -7.774335   1.000000
   37       -7.705885   1.000000
   38       -7.524167   1.000000
   39       -7.422195   1.000000
   40       -7.395510   1.000000
   41       -7.319117   1.000000
   42       -7.238515   1.000000
   43       -7.118344   1.000000
   44       -6.983437   1.000000
   45       -6.911079   1.000000
   46       -6.812010   1.000000
   47       -6.762893   1.000000
   48       -6.698582   1.000000
   49       -6.603531   1.000000
   50       -6.516308   1.000000
   51       -6.381072   1.000000
   52       -6.284803   1.000000
   53       -6.231191   1.000000
   54       -6.170687   1.000000
   55       -6.138282   1.000000
   56       -6.038469   1.000000
   57       -5.955841   1.000000
   58       -5.881467   1.000000
   59       -5.785317   1.000000
   60       -5.653395   1.000000
   61       -5.568147   1.000000
   62       -5.355215   1.000000
   63       -5.326931   1.000000
   64       -5.212244   1.000000
   65       -5.048238   1.000000
   66       -5.010933   1.000000
   67       -4.901767   1.000000
   68       -4.857823   1.000000
   69       -4.752547   1.000000
   70       -4.619880   1.000000
   71       -4.583584   1.000000
   72       -4.490939   1.000000
   73       -4.416869   1.000000
   74       -4.299961   1.000000
   75       -4.249101   1.000000
   76       -3.901462   0.999999
   77       -3.790515   0.999975
   78       -3.703229   0.999703
   79       -3.486224   0.971283
   80       -3.386268   0.883602
   81       -2.950971   0.029727
   82       -2.857055   0.005403
   83       -2.700100   0.000127
   84       -2.647329   0.000028
   85       -2.512376   0.000000
   86       -2.495014   0.000000
   87       -2.282131   0.000000
   88       -2.186693   0.000000
   89       -2.160349   0.000000
   90       -1.916751   0.000000
   91       -1.761081   0.000000
   92       -1.595043   0.000000
   93       -1.473814   0.000000
   94       -1.188708   0.000000
   95       -1.125020   0.000000
   96       -1.008891   0.000000
   97       -0.967771   0.000000
   98       -0.881110   0.000000
   99       -0.809272   0.000000
  100       -0.675463   0.000000
  101       -0.602137   0.000000
  102       -0.520497   0.000000
  103       -0.451807   0.000000
  104       -0.311801   0.000000
  105       -0.178132   0.000000
  106       -0.137753   0.000000
  107       -0.109542   0.000000
  108        0.032631   0.000000
  109        0.165451   0.000000
  110        0.237655   0.000000
  111        0.507207   0.000000
  112        0.570784   0.000000
  113        0.639389   0.000000
  114        0.808109   0.000000
  115        0.972369   0.000000
  116        1.079743   0.000000
  117        1.217604   0.000000
  118        1.695761   0.000000
  119        1.881843   0.000000
  120        2.207641   0.000000
 
  0.1250000E+00  0.1250000E+00  0.0000000E+00  0.3125000E-01
    1      -17.793475   1.000000
    2      -16.917369   1.000000
    3      -16.834330   1.000000
    4      -16.698922   1.000000
    5      -16.520550   1.000000
    6      -16.426807   1.000000
    7      -16.360535   1.000000
    8      -16.307163   1.000000
    9      -16.265734   1.000000
   10      -16.043672   1.000000
   11      -15.966323   1.000000
   12      -15.890674   1.000000
   13      -15.848996   1.000000
   14      -15.643251   1.000000
   15      -15.569280   1.000000
   16      -15.509123   1.000000
   17      -15.254788   1.000000
   18      -15.184295   1.000000
   19       -9.503208   1.000000
   20       -9.324280   1.000000
   21       -9.262952   1.000000
   22       -9.111082   1.000000
   23       -8.813045   1.000000
   24       -8.762117   1.000000
   25       -8.619423   1.000000
   26       -8.544145   1.000000
   27       -8.510488   1.000000
   28       -8.361202   1.000000
   29       -8.317624   1.000000
   30       -8.290486   1.000000
   31       -8.104244   1.000000
   32       -8.062243   1.000000
   33       -7.964032   1.000000
   34       -7.904341   1.000000
   35       -7.756652   1.000000
   36       -7.695884   1.000000
   37       -7.617117   1.000000
   38       -7.548407   1.000000
   39       -7.496978   1.000000
   40       -7.388793   1.000000
   41       -7.268775   1.000000
   42       -7.226761   1.000000
   43       -7.126579   1.000000
   44       -7.053893   1.000000
   45       -6.896220   1.000000
   46       -6.793309   1.000000
   47       -6.760341   1.000000
   48       -6.680668   1.000000
   49       -6.518102   1.000000
   50       -6.408727   1.000000
   51       -6.358656   1.000000
   52       -6.314255   1.000000
   53       -6.282691   1.000000
   54       -6.197327   1.000000
   55       -6.125359   1.000000
   56       -6.052921   1.000000
   57       -6.011581   1.000000
   58       -5.892544   1.000000
   59       -5.751386   1.000000
   60       -5.643450   1.000000
   61       -5.573199   1.000000
   62       -5.472749   1.000000
   63       -5.454207   1.000000
   64       -5.252895   1.000000
   65       -5.200506   1.000000
   66       -5.074619   1.000000
   67       -4.894709   1.000000
   68       -4.811079   1.000000
   69       -4.694920   1.000000
   70       -4.593333   1.000000
   71       -4.471913   1.000000
   72       -4.432784   1.000000
   73       -4.418442   1.000000
   74       -4.261436   1.000000
   75       -4.175953   1.000000
   76       -4.096784   1.000000
   77       -3.893373   0.999999
   78       -3.700326   0.999680
   79       -3.548075   0.990289
   80       -3.282502   0.677046
   81       -2.925254   0.019382
   82       -2.804215   0.001736
   83       -2.655772   0.000036
   84       -2.630072   0.000016
   85       -2.511243   0.000000
   86       -2.457082   0.000000
   87       -2.238618   0.000000
   88       -2.131210   0.000000
   89       -2.086776   0.000000
   90       -1.912180   0.000000
   91       -1.772273   0.000000
   92       -1.588257   0.000000
   93       -1.440448   0.000000
   94       -1.221814   0.000000
   95       -1.155310   0.000000
   96       -1.055839   0.000000
   97       -0.966158   0.000000
   98       -0.903460   0.000000
   99       -0.837837   0.000000
  100       -0.780447   0.000000
  101       -0.717775   0.000000
  102       -0.609644   0.000000
  103       -0.551339   0.000000
  104       -0.407345   0.000000
  105       -0.272513   0.000000
  106       -0.172832   0.000000
  107       -0.084992   0.000000
  108        0.059493   0.000000
  109        0.188870   0.000000
  110        0.315863   0.000000
  111        0.472335   0.000000
  112        0.583561   0.000000
  113        0.661296   0.000000
  114        0.847547   0.000000
  115        1.006704   0.000000
  116        1.076689   0.000000
  117        1.187401   0.000000
  118        1.774950   0.000000
  119        1.960642   0.000000
  120        2.276254   0.000000
 
  0.2500000E+00  0.1250000E+00  0.0000000E+00  0.3125000E-01
    1      -17.712186   1.000000
    2      -17.078982   1.000000
    3      -16.899936   1.000000
    4      -16.718381   1.000000
    5      -16.529777   1.000000
    6      -16.428091   1.000000
    7      -16.334328   1.000000
    8      -16.308910   1.000000
    9      -16.182468   1.000000
   10      -16.031211   1.000000
   11      -15.927034   1.000000
   12      -15.850309   1.000000
   13      -15.774379   1.000000
   14      -15.664570   1.000000
   15      -15.568207   1.000000
   16      -15.546673   1.000000
   17      -15.264653   1.000000
   18      -15.187831   1.000000
   19       -9.640271   1.000000
   20       -9.462457   1.000000
   21       -9.330298   1.000000
   22       -9.174488   1.000000
   23       -8.888552   1.000000
   24       -8.754230   1.000000
   25       -8.536299   1.000000
   26       -8.496791   1.000000
   27       -8.435455   1.000000
   28       -8.370641   1.000000
   29       -8.276481   1.000000
   30       -8.234069   1.000000
   31       -8.138791   1.000000
   32       -8.074681   1.000000
   33       -7.987686   1.000000
   34       -7.832314   1.000000
   35       -7.732424   1.000000
   36       -7.673743   1.000000
   37       -7.600710   1.000000
   38       -7.500755   1.000000
   39       -7.432365   1.000000
   40       -7.330069   1.000000
   41       -7.216865   1.000000
   42       -7.167921   1.000000
   43       -7.106674   1.000000
   44       -6.981184   1.000000
   45       -6.889460   1.000000
   46       -6.758426   1.000000
   47       -6.686758   1.000000