       N       E                     dE             d eps       ncg     rms          rms(c)
DAV:   1     0.112424162211E+04    0.11242E+04   -0.35862E+04  8160   0.577E+02
DAV:   2    -0.979876102366E+00   -0.11252E+04   -0.10803E+04 11200   0.173E+02
DAV:   3    -0.199693828355E+03   -0.19871E+03   -0.19065E+03 10880   0.822E+01
DAV:   4    -0.208925282281E+03   -0.92315E+01   -0.89703E+01 11960   0.264E+01
DAV:   5    -0.209270928764E+03   -0.34565E+00   -0.34481E+00 11560   0.382E+00    0.274E+01
DAV:   6    -0.237419244809E+03   -0.28148E+02   -0.10874E+02 12760   0.604E+01    0.593E+01
DAV:   7    -0.196707866554E+03    0.40711E+02   -0.17843E+02 13320   0.151E+02    0.206E+01
DAV:   8    -0.190359059615E+03    0.63488E+01   -0.21155E+01 11440   0.134E+01    0.140E+01
DAV:   9    -0.188344541604E+03    0.20145E+01   -0.40761E+00 11880   0.633E+00    0.934E+00
DAV:  10    -0.187127398764E+03    0.12171E+01   -0.16168E+00 13280   0.759E+00    0.286E+00
DAV:  11    -0.187113534388E+03    0.13864E-01   -0.62959E-01 12160   0.228E+00    0.298E+00
DAV:  12    -0.187144721284E+03   -0.31187E-01   -0.76309E-01 12040   0.392E+00    0.413E+00
DAV:  13    -0.186990735691E+03    0.15399E+00   -0.36636E-01 13120   0.350E+00    0.176E+00
DAV:  14    -0.186957947684E+03    0.32788E-01   -0.76352E-02 12920   0.163E+00    0.602E-01
DAV:  15    -0.186956988370E+03    0.95931E-03   -0.16987E-02 13080   0.674E-01    0.748E-01
DAV:  16    -0.186953526924E+03    0.34614E-02   -0.11282E-02 13320   0.598E-01    0.394E-01
DAV:  17    -0.186951506730E+03    0.20202E-02   -0.57913E-03 12680   0.368E-01    0.195E-01
DAV:  18    -0.186951234231E+03    0.27250E-03   -0.12316E-03 11760   0.145E-01    0.861E-02
DAV:  19    -0.186951295507E+03   -0.61276E-04   -0.50723E-04  8760   0.667E-02
   1 F= -.18695130E+03 E0= -.18678040E+03  d E =-.186951E+03
       N       E                     dE             d eps       ncg     rms          rms(c)
DAV:   1    -0.187578316173E+03   -0.62708E+00   -0.26882E+02  8160   0.348E+01    0.474E+00
DAV:   2    -0.189801721215E+03   -0.22234E+01   -0.20544E+01 12040   0.164E+01    0.113E+01
DAV:   3    -0.189320067790E+03    0.48165E+00   -0.47602E+00 12240   0.131E+01    0.598E+00
DAV:   4    -0.188829990011E+03    0.49008E+00   -0.58352E-01 12480   0.399E+00    0.201E+00
DAV:   5    -0.188913731061E+03   -0.83741E-01   -0.42324E-01 11880   0.334E+00    0.470E+00
DAV:   6    -0.188840363146E+03    0.73368E-01   -0.71800E-01 12160   0.432E+00    0.308E+00
DAV:   7    -0.188742230774E+03    0.98132E-01   -0.22808E-01 12360   0.197E+00    0.102E+00
DAV:   8    -0.188741260281E+03    0.97049E-03   -0.74467E-02 11600   0.136E+00    0.143E+00
DAV:   9    -0.188727135574E+03    0.14125E-01   -0.38498E-02 11440   0.109E+00    0.592E-01
DAV:  10    -0.188724190830E+03    0.29447E-02   -0.72059E-03 11160   0.358E-01    0.243E-01
DAV:  11    -0.188723955240E+03    0.23559E-03   -0.25987E-03 12040   0.188E-01    0.122E-01
DAV:  12    -0.188723920427E+03    0.34813E-04   -0.11715E-03 10760   0.105E-01    0.768E-02
DAV:  13    -0.188724079187E+03   -0.15876E-03   -0.24209E-04  6200   0.587E-02    0.220E-02
DAV:  14    -0.188724247482E+03   -0.16830E-03   -0.82570E-05  6840   0.292E-02    0.342E-02
DAV:  15    -0.188724343562E+03   -0.96079E-04   -0.38090E-05  6320   0.210E-02
   2 F= -.18872434E+03 E0= -.18858599E+03  d E =-.177305E+01
       N       E                     dE             d eps       ncg     rms          rms(c)
DAV:   1    -0.190668162902E+03   -0.19439E+01   -0.31524E+01  9040   0.143E+01    0.445E+00
DAV:   2    -0.190596164181E+03    0.71999E-01   -0.27570E+00 11840   0.933E+00    0.714E+00
DAV:   3    -0.190154438068E+03    0.44173E+00   -0.13484E+00 12160   0.860E+00    0.435E+00
DAV:   4    -0.189933645563E+03    0.22079E+00   -0.73629E-01 12960   0.432E+00    0.251E+00
DAV:   5    -0.189893286538E+03    0.40359E-01   -0.36915E-01 12240   0.277E+00    0.250E+00
DAV:   6    -0.189835620322E+03    0.57666E-01   -0.12825E-01 12360   0.218E+00    0.776E-01
DAV:   7    -0.189828844009E+03    0.67763E-02   -0.14040E-02 11600   0.553E-01    0.209E-01
DAV:   8    -0.189828801692E+03    0.42317E-04   -0.26494E-03 11240   0.160E-01    0.150E-01
DAV:   9    -0.189829064355E+03   -0.26266E-03   -0.12147E-03 10760   0.185E-01    0.193E-01
DAV:  10    -0.189829403224E+03   -0.33887E-03   -0.17327E-03 10160   0.278E-01    0.243E-01
DAV:  11    -0.189828828676E+03    0.57455E-03   -0.85145E-04  8880   0.175E-01    0.205E-02
DAV:  12    -0.189828876370E+03   -0.47694E-04   -0.81172E-05  5960   0.303E-02
   3 F= -.18982888E+03 E0= -.18971181E+03  d E =-.110453E+01
       N       E                     dE             d eps       ncg     rms          rms(c)
DAV:   1    -0.191435950450E+03   -0.16071E+01   -0.78462E+01  8160   0.202E+01    0.465E+00
DAV:   2    -0.191219478604E+03    0.21647E+00   -0.54060E+00 13320   0.747E+00    0.441E+00
DAV:   3    -0.191439905681E+03   -0.22043E+00   -0.16251E+00 12040   0.911E+00    0.755E+00
DAV:   4    -0.191041870638E+03    0.39804E+00   -0.18837E+00 11680   0.860E+00    0.410E+00
DAV:   5    -0.191029196378E+03    0.12674E-01   -0.85855E-01 11600   0.578E+00    0.367E+00
DAV:   6    -0.190840124820E+03    0.18907E+00   -0.22126E-01 11280   0.310E+00    0.679E-01
DAV:   7    -0.190836831614E+03    0.32932E-02   -0.37324E-02 11560   0.696E-01    0.464E-01
DAV:   8    -0.190834104777E+03    0.27268E-02   -0.73516E-03 10600   0.430E-01    0.284E-01
DAV:   9    -0.190833849202E+03    0.25557E-03   -0.24468E-03 11600   0.329E-01    0.202E-01
DAV:  10    -0.190833951543E+03   -0.10234E-03   -0.13856E-03 11920   0.179E-01    0.103E-01
DAV:  11    -0.190833815775E+03    0.13577E-03   -0.51669E-04  9720   0.906E-02    0.425E-02
DAV:  12    -0.190833820743E+03   -0.49673E-05   -0.10439E-04  6640   0.403E-02
   4 F= -.19083382E+03 E0= -.19073196E+03  d E =-.100494E+01
       N       E                     dE             d eps       ncg     rms          rms(c)
DAV:   1    -0.192160842813E+03   -0.13270E+01   -0.15798E+02  8160   0.280E+01    0.555E+00
DAV:   2    -0.191900141719E+03    0.26070E+00   -0.89594E+00 10840   0.758E+00    0.365E+00
DAV:   3    -0.192183278042E+03   -0.28314E+00   -0.23478E+00 12360   0.920E+00    0.710E+00
DAV:   4    -0.191719812152E+03    0.46347E+00   -0.15495E+00 12360   0.916E+00    0.371E+00
DAV:   5    -0.191536977235E+03    0.18283E+00   -0.43076E-01 11560   0.388E+00    0.155E+00
DAV:   6    -0.191532208602E+03    0.47686E-02   -0.18565E-01 12720   0.297E+00    0.166E+00
DAV:   7    -0.191503946628E+03    0.28262E-01   -0.62055E-02 12520   0.173E+00    0.415E-01
DAV:   8    -0.191500796412E+03    0.31502E-02   -0.75185E-03 11200   0.435E-01    0.244E-01
DAV:   9    -0.191501199480E+03   -0.40307E-03   -0.40043E-03 11840   0.408E-01    0.298E-01
DAV:  10    -0.191500657500E+03    0.54198E-03   -0.27485E-03 11560   0.268E-01    0.713E-02
DAV:  11    -0.191500628474E+03    0.29026E-04   -0.38248E-04  9560   0.752E-02
   5 F= -.19150063E+03 E0= -.19139889E+03  d E =-.666808E+00
       N       E                     dE             d eps       ncg     rms          rms(c)
DAV:   1    -0.191565538457E+03   -0.64881E-01   -0.61841E+00  8160   0.523E+00    0.676E-01
DAV:   2    -0.191630644921E+03   -0.65106E-01   -0.28322E-01 12800   0.292E+00    0.219E+00
DAV:   3    -0.191577671683E+03    0.52973E-01   -0.98840E-02 12560   0.235E+00    0.382E-01
DAV:   4    -0.191578879520E+03   -0.12078E-02   -0.12289E-02 11680   0.616E-01    0.593E-01
DAV:   5    -0.191576079291E+03    0.28002E-02   -0.92100E-03 11720   0.597E-01    0.244E-01
DAV:   6    -0.191575758974E+03    0.32032E-03   -0.22880E-03 10560   0.231E-01    0.128E-01
DAV:   7    -0.191575735705E+03    0.23269E-04   -0.13600E-03 11040   0.193E-01    0.159E-01
DAV:   8    -0.191575511050E+03    0.22466E-03   -0.67526E-04  8920   0.167E-01    0.449E-02
DAV:   9    -0.191575523879E+03   -0.12829E-04   -0.75218E-05  6280   0.459E-02
   6 F= -.19157552E+03 E0= -.19147091E+03  d E =-.748954E-01
       N       E                     dE             d eps       ncg     rms          rms(c)
DAV:   1    -0.191652171684E+03   -0.76661E-01   -0.95743E+00  8160   0.649E+00    0.850E-01
DAV:   2    -0.191761085361E+03   -0.10891E+00   -0.39233E-01 13360   0.383E+00    0.303E+00
DAV:   3    -0.191664389674E+03    0.96696E-01   -0.18994E-01 12360   0.312E+00    0.551E-01
DAV:   4    -0.191669206861E+03   -0.48172E-02   -0.31887E-02 11440   0.103E+00    0.983E-01
DAV:   5    -0.191660904348E+03    0.83025E-02   -0.20017E-02 11600   0.842E-01    0.229E-01
DAV:   6    -0.191660575495E+03    0.32885E-03   -0.28463E-03 10080   0.216E-01    0.131E-01
DAV:   7    -0.191660270641E+03    0.30485E-03   -0.10876E-03 10400   0.112E-01    0.414E-02
DAV:   8    -0.191660289717E+03   -0.19076E-04   -0.19486E-04  7080   0.743E-02
   7 F= -.19166029E+03 E0= -.19155335E+03  d E =-.847658E-01
       N       E                     dE             d eps       ncg     rms          rms(c)
DAV:   1    -0.191694484740E+03   -0.34214E-01   -0.17154E+00  8160   0.276E+00    0.358E-01
DAV:   2    -0.191712063240E+03   -0.17578E-01   -0.68457E-02 13480   0.153E+00    0.120E+00
DAV:   3    -0.191696620622E+03    0.15443E-01   -0.29624E-02 11960   0.124E+00    0.252E-01
DAV:   4    -0.191697702696E+03   -0.10821E-02   -0.65803E-03 11160   0.469E-01    0.436E-01
DAV:   5    -0.191696021565E+03    0.16811E-02   -0.38894E-03 10320   0.379E-01    0.103E-01
DAV:   6    -0.191696151387E+03   -0.12982E-03   -0.94189E-04 10000   0.170E-01    0.148E-01
DAV:   7    -0.191696102523E+03    0.48864E-04   -0.11233E-03  8560   0.218E-01    0.126E-01
DAV:   8    -0.191695928948E+03    0.17358E-03   -0.30756E-04  6720   0.109E-01    0.126E-02
DAV:   9    -0.191695943479E+03   -0.14532E-04   -0.44279E-05  6680   0.228E-02
   8 F= -.19169594E+03 E0= -.19158859E+03  d E =-.356538E-01
       N       E                     dE             d eps       ncg     rms          rms(c)
DAV:   1    -0.191803175085E+03   -0.10725E+00   -0.25897E+01  8160   0.107E+01    0.129E+00
DAV:   2    -0.192020235850E+03   -0.21706E+00   -0.92329E-01 13200   0.541E+00    0.435E+00
DAV:   3    -0.191846883541E+03    0.17335E+00   -0.48708E-01 12280   0.453E+00    0.120E+00
DAV:   4    -0.191851739270E+03   -0.48557E-02   -0.10059E-01 12080   0.190E+00    0.155E+00
DAV:   5    -0.191829553274E+03    0.22186E-01   -0.50205E-02 12240   0.134E+00    0.365E-01
DAV:   6    -0.191828771159E+03    0.78212E-03   -0.92961E-03 11000   0.410E-01    0.288E-01
DAV:   7    -0.191831051129E+03   -0.22800E-02   -0.11372E-02 11600   0.697E-01    0.597E-01
DAV:   8    -0.191827486988E+03    0.35641E-02   -0.63382E-03 10840   0.531E-01    0.626E-02
DAV:   9    -0.191827505480E+03   -0.18492E-04   -0.34741E-04  8320   0.662E-02
   9 F= -.19182751E+03 E0= -.19172097E+03  d E =-.131562E+00
       N       E                     dE             d eps       ncg     rms          rms(c)
DAV:   1    -0.191896922070E+03   -0.69435E-01   -0.12023E+01  8160   0.740E+00    0.944E-01
DAV:   2    -0.191995326430E+03   -0.98404E-01   -0.49808E-01 13280   0.371E+00    0.298E+00
DAV:   3    -0.191921347078E+03    0.73979E-01   -0.23404E-01 12200   0.302E+00    0.977E-01
DAV:   4    -0.191924097669E+03   -0.27506E-02   -0.61559E-02 11200   0.155E+00    0.119E+00
DAV:   5    -0.191909706601E+03    0.14391E-01   -0.28123E-02 12240   0.107E+00    0.266E-01
DAV:   6    -0.191909629102E+03    0.77499E-04   -0.69402E-03 10360   0.366E-01    0.274E-01
DAV:   7    -0.191910471407E+03   -0.84230E-03   -0.70981E-03 11120   0.570E-01    0.428E-01
DAV:   8    -0.191908577713E+03    0.18937E-02   -0.31859E-03  9880   0.378E-01    0.459E-02
DAV:   9    -0.191908588155E+03   -0.10442E-04   -0.19884E-04  6400   0.495E-02
  10 F= -.19190859E+03 E0= -.19180306E+03  d E =-.810827E-01
       N       E                     dE             d eps       ncg     rms          rms(c)
DAV:   1    -0.191961282689E+03   -0.52705E-01   -0.18627E+01  8160   0.920E+00    0.103E+00
DAV:   2    -0.192060975160E+03   -0.99692E-01   -0.67869E-01 13120   0.362E+00    0.274E+00
DAV:   3    -0.192005996730E+03    0.54978E-01   -0.24639E-01 12080   0.300E+00    0.117E+00
DAV:   4    -0.192007341211E+03   -0.13445E-02   -0.68101E-02 11360   0.174E+00    0.128E+00
DAV:   5    -0.191989461141E+03    0.17880E-01   -0.29868E-02 11880   0.124E+00    0.305E-01
DAV:   6    -0.191989221738E+03    0.23940E-03   -0.82029E-03 11680   0.340E-01    0.203E-01
DAV:   7    -0.191988279032E+03    0.94271E-03   -0.25588E-03 10800   0.202E-01    0.914E-02
DAV:   8    -0.191988397016E+03   -0.11798E-03   -0.85617E-04 10520   0.185E-01    0.138E-01
DAV:   9    -0.191988201672E+03    0.19534E-03   -0.41051E-04  7880   0.136E-01    0.393E-02
DAV:  10    -0.191988178070E+03    0.23602E-04   -0.10369E-04  5720   0.399E-02
  11 F= -.19198818E+03 E0= -.19188507E+03  d E =-.795899E-01
       N       E                     dE             d eps       ncg     rms          rms(c)
DAV:   1    -0.191974861443E+03    0.13340E-01   -0.15139E+00  8160   0.260E+00    0.263E-01
DAV:   2    -0.191979413059E+03   -0.45516E-02   -0.40112E-02 11320   0.674E-01    0.547E-01
DAV:   3    -0.191977381807E+03    0.20313E-02   -0.11734E-02 11320   0.687E-01    0.387E-01
DAV:   4    -0.191976514956E+03    0.86685E-03   -0.40469E-03 11440   0.365E-01    0.224E-01
DAV:   5    -0.191976112998E+03    0.40196E-03   -0.14725E-03  9840   0.298E-01    0.129E-01
DAV:   6    -0.191975949391E+03    0.16361E-03   -0.71038E-04 10160   0.160E-01    0.643E-02
DAV:   7    -0.191975898151E+03    0.51240E-04   -0.23917E-04  8440   0.779E-02
  12 F= -.19197590E+03 E0= -.19187184E+03  d E =0.122799E-01
       N       E                     dE             d eps       ncg     rms          rms(c)
DAV:   1    -0.191998496564E+03   -0.22547E-01   -0.17809E+00  8160   0.285E+00    0.310E-01
DAV:   2    -0.192004490636E+03   -0.59941E-02   -0.61308E-02 12480   0.885E-01    0.532E-01
DAV:   3    -0.192002895250E+03    0.15954E-02   -0.11685E-02 12080   0.777E-01    0.386E-01
DAV:   4    -0.192002454837E+03    0.44041E-03   -0.53865E-03 10080   0.481E-01    0.356E-01
DAV:   5    -0.192001226576E+03    0.12283E-02   -0.26988E-03  9880   0.371E-01    0.123E-01
DAV:   6    -0.192001753930E+03   -0.52735E-03   -0.18364E-03 10120   0.271E-01    0.258E-01
DAV:   7    -0.192001136211E+03    0.61772E-03   -0.14232E-03  9640   0.263E-01    0.651E-02
DAV:   8    -0.192001086716E+03    0.49495E-04   -0.10997E-04  5640   0.593E-02
  13 F= -.19200109E+03 E0= -.19189824E+03  d E =-.251886E-01
       N       E                     dE             d eps       ncg     rms          rms(c)
DAV:   1    -0.192015623368E+03   -0.14487E-01   -0.61837E-01  8160   0.170E+00    0.205E-01
DAV:   2    -0.192017061015E+03   -0.14376E-02   -0.23441E-02 11200   0.463E-01    0.200E-01
DAV:   3    -0.192017410212E+03   -0.34920E-03   -0.29927E-03 12120   0.442E-01    0.271E-01
DAV:   4    -0.192016530821E+03    0.87939E-03   -0.15013E-03 10160   0.299E-01    0.108E-01
DAV:   5    -0.192016717914E+03   -0.18709E-03   -0.10085E-03  8680   0.219E-01    0.178E-01
DAV:   6    -0.192016443070E+03    0.27484E-03   -0.73239E-04  8240   0.176E-01    0.595E-02
DAV:   7    -0.192016469154E+03   -0.26084E-04   -0.25086E-04  5800   0.105E-01
  14 F= -.19201647E+03 E0= -.19191424E+03  d E =-.153824E-01
       N       E                     dE             d eps       ncg     rms          rms(c)
DAV:   1    -0.192043963474E+03   -0.27520E-01   -0.26929E+00  8160   0.354E+00    0.405E-01
DAV:   2    -0.192051269175E+03   -0.73057E-02   -0.97842E-02 11760   0.938E-01    0.529E-01
DAV:   3    -0.192053269694E+03   -0.20005E-02   -0.21068E-02 12240   0.977E-01    0.731E-01
DAV:   4    -0.192048641664E+03    0.46280E-02   -0.96872E-03 11080   0.629E-01    0.248E-01
DAV:   5    -0.192048457939E+03    0.18373E-03   -0.22541E-03 10200   0.410E-01    0.216E-01
DAV:   6    -0.192048198770E+03    0.25917E-03   -0.19911E-03 12000   0.280E-01    0.160E-01
DAV:   7    -0.192047991399E+03    0.20737E-03   -0.91888E-04  8920   0.212E-01    0.880E-02
DAV:   8    -0.192047900926E+03    0.90472E-04   -0.16740E-04  5840   0.852E-02
  15 F= -.19204790E+03 E0= -.19194803E+03  d E =-.314318E-01
       N       E                     dE             d eps       ncg     rms          rms(c)
DAV:   1    -0.192068656636E+03   -0.20665E-01   -0.13353E+00  8160   0.250E+00    0.300E-01
DAV:   2    -0.192072821874E+03   -0.41652E-02   -0.48884E-02 11280   0.689E-01    0.473E-01
DAV:   3    -0.192072515596E+03    0.30628E-03   -0.11700E-02 11960   0.730E-01    0.464E-01
DAV:   4    -0.192070451474E+03    0.20641E-02   -0.37996E-03 11040   0.387E-01    0.124E-01
DAV:   5    -0.192070780529E+03   -0.32905E-03   -0.15398E-03 10040   0.301E-01    0.212E-01
DAV:   6    -0.192070371372E+03    0.40916E-03   -0.11251E-03 10560   0.248E-01    0.949E-02
DAV:   7    -0.192070339899E+03    0.31474E-04   -0.48430E-04  8640   0.155E-01
  16 F= -.19207034E+03 E0= -.19197199E+03  d E =-.224390E-01
       N       E                     dE             d eps       ncg     rms          rms(c)
DAV:   1    -0.192077607128E+03   -0.72358E-02   -0.15154E-01  8160   0.841E-01    0.115E-01
DAV:   2    -0.192078744530E+03   -0.11374E-02   -0.68735E-03 11480   0.362E-01    0.311E-01
DAV:   3    -0.192077892793E+03    0.85174E-03   -0.23279E-03 11480   0.333E-01    0.106E-01
DAV:   4    -0.192077855311E+03    0.37482E-04   -0.33493E-04  8040   0.124E-01
  17 F= -.19207786E+03 E0= -.19198007E+03  d E =-.751541E-02
       N       E                     dE             d eps       ncg     rms          rms(c)
DAV:   1    -0.192040707482E+03    0.37185E-01   -0.32900E+00  8160   0.392E+00    0.511E-01
DAV:   2    -0.192063072326E+03   -0.22365E-01   -0.13084E-01 11240   0.154E+00    0.148E+00
DAV:   3    -0.192047115467E+03    0.15957E-01   -0.61160E-02 12000   0.152E+00    0.554E-01
DAV:   4    -0.192047280154E+03   -0.16469E-03   -0.12281E-02 10920   0.770E-01    0.552E-01
DAV:   5    -0.192043567240E+03    0.37129E-02   -0.56214E-03 10960   0.625E-01    0.150E-01
DAV:   6    -0.192043515731E+03    0.51509E-04   -0.17452E-03 12440   0.187E-01    0.129E-01
DAV:   7    -0.192043603079E+03   -0.87348E-04   -0.14858E-03 10920   0.260E-01    0.183E-01
DAV:   8    -0.192043254963E+03    0.34812E-03   -0.63656E-04  8520   0.177E-01    0.285E-02
DAV:   9    -0.192043260316E+03   -0.53530E-05   -0.45413E-05  5840   0.297E-02
  18 F= -.19204326E+03 E0= -.19194286E+03  d E =0.345950E-01
       N       E                     dE             d eps       ncg     rms          rms(c)
DAV:   1    -0.192028212246E+03    0.15043E-01   -0.95975E-01  8160   0.211E+00    0.285E-01
DAV:   2    -0.192038002312E+03   -0.97901E-02   -0.39828E-02 12080   0.103E+00    0.101E+00
DAV:   3    -0.192029516045E+03    0.84863E-02   -0.20952E-02 12040   0.926E-01    0.274E-01
DAV:   4    -0.192029799895E+03   -0.28385E-03   -0.39510E-03 10760   0.440E-01    0.311E-01
DAV:   5    -0.192028754737E+03    0.10452E-02   -0.19624E-03 10000   0.340E-01    0.106E-01
DAV:   6    -0.192028958465E+03   -0.20373E-03   -0.10722E-03  9720   0.221E-01    0.184E-01
DAV:   7    -0.192028672580E+03    0.28589E-03   -0.87770E-04  8880   0.214E-01    0.659E-02
DAV:   8    -0.192028614471E+03    0.58109E-04   -0.11567E-04  5720   0.640E-02
  19 F= -.19202861E+03 E0= -.19192630E+03  d E =0.146458E-01
       N       E                     dE             d eps       ncg     rms          rms(c)
DAV:   1    -0.191988903350E+03    0.39769E-01   -0.11768E+01  8160   0.744E+00    0.953E-01
DAV:   2    -0.192105051428E+03   -0.11615E+00   -0.49604E-01 12160   0.326E+00    0.394E+00
DAV:   3    -0.192010752757E+03    0.94299E-01   -0.31080E-01 12360   0.311E+00    0.968E-01
DAV:   4    -0.192012546377E+03   -0.17936E-02   -0.50276E-02 10640   0.150E+00    0.106E+00
DAV:   5    -0.191998943499E+03    0.13603E-01   -0.21267E-02 11560   0.117E+00    0.348E-01
DAV:   6    -0.192001834634E+03   -0.28911E-02   -0.13442E-02 12160   0.758E-01    0.669E-01
DAV:   7    -0.191998134501E+03    0.37001E-02   -0.11639E-02 11200   0.757E-01    0.238E-01
DAV:   8    -0.191997253832E+03    0.88067E-03   -0.16191E-03 10360   0.217E-01    0.418E-02
DAV:   9    -0.191997250163E+03    0.36687E-05   -0.19178E-04  7760   0.464E-02
  20 F= -.19199725E+03 E0= -.19189321E+03  d E =0.313643E-01
       N       E                     dE             d eps       ncg     rms          rms(c)
DAV:   1    -0.192014935240E+03   -0.17681E-01   -0.36557E+00  8160   0.417E+00    0.510E-01
DAV:   2    -0.192021174273E+03   -0.62390E-02   -0.11762E-01 10880   0.999E-01    0.527E-01
DAV:   3    -0.192025298312E+03   -0.41240E-02   -0.28892E-02 11800   0.116E+00    0.870E-01
DAV:   4    -0.192017701799E+03    0.75965E-02   -0.15780E-02 11760   0.872E-01    0.248E-01
DAV:   5    -0.192017922167E+03   -0.22037E-03   -0.48912E-03 10600   0.447E-01    0.357E-01
DAV:   6    -0.192017356655E+03    0.56551E-03   -0.55755E-03 11840   0.483E-01    0.282E-01
DAV:   7    -0.192017101023E+03    0.25563E-03   -0.27145E-03  9840   0.326E-01    0.215E-01
DAV:   8    -0.192016604341E+03    0.49668E-03   -0.71882E-04  8520   0.195E-01    0.292E-02
DAV:   9    -0.192016595630E+03    0.87107E-05   -0.63427E-05  6680   0.313E-02
  21 F= -.19201660E+03 E0= -.19191200E+03  d E =-.193455E-01
       N       E                     dE             d eps       ncg     rms          rms(c)
DAV:   1    -0.192025185563E+03   -0.85812E-02   -0.47536E-01  8160   0.147E+00    0.173E-01
DAV:   2    -0.192028185989E+03   -0.30004E-02   -0.21087E-02 11320   0.542E-01    0.487E-01
DAV:   3    -0.192026474719E+03    0.17113E-02   -0.66574E-03 11200   0.483E-01    0.191E-01
DAV:   4    -0.192026251542E+03    0.22318E-03   -0.92359E-04  8880   0.168E-01    0.109E-01
DAV:   5    -0.192026248783E+03    0.27586E-05   -0.68163E-04  9280   0.186E-01
  22 F= -.19202625E+03 E0= -.19192217E+03  d E =-.965315E-02
       N       E                     dE             d eps       ncg     rms          rms(c)
DAV:   1    -0.192030342171E+03   -0.40906E-02   -0.96127E-02  8160   0.683E-01    0.995E-02
DAV:   2    -0.192030779478E+03   -0.43731E-03   -0.38652E-03 12640   0.228E-01    0.178E-01
DAV:   3    -0.192030533122E+03    0.24636E-03   -0.13081E-03 11040   0.255E-01    0.123E-01
DAV:   4    -0.192030433539E+03    0.99583E-04   -0.45330E-04  8240   0.137E-01
  23 F= -.19203043E+03 E0= -.19192616E+03  d E =-.418476E-02
       N       E                     dE             d eps       ncg     rms          rms(c)
DAV:   1    -0.192032885331E+03   -0.23522E-02   -0.38710E-02  8160   0.437E-01    0.966E-02
DAV:   2    -0.192034217683E+03   -0.13324E-02   -0.37699E-03 12120   0.396E-01    0.368E-01
DAV:   3    -0.192032874488E+03    0.13432E-02   -0.25714E-03  9640   0.355E-01    0.897E-02
DAV:   4    -0.192032884835E+03   -0.10347E-04   -0.32539E-04  7440   0.126E-01
  24 F= -.19203288E+03 E0= -.19192970E+03  d E =-.245130E-02
       N       E                     dE             d eps       ncg     rms          rms(c)
DAV:   1    -0.192044810079E+03   -0.11936E-01   -0.78197E-01  8160   0.191E+00    0.224E-01
DAV:   2    -0.192046460170E+03   -0.16501E-02   -0.26575E-02 11200   0.446E-01    0.211E-01
DAV:   3    -0.192047946908E+03   -0.14867E-02   -0.59834E-03 12320   0.507E-01    0.465E-01
DAV:   4    -0.192045947104E+03    0.19998E-02   -0.34888E-03  9920   0.390E-01    0.106E-01
DAV:   5    -0.192046262807E+03   -0.31570E-03   -0.10547E-03  9960   0.247E-01    0.197E-01
DAV:   6    -0.192045925400E+03    0.33741E-03   -0.88100E-04  8680   0.212E-01    0.864E-02
DAV:   7    -0.192045859111E+03    0.66289E-04   -0.22183E-04  7160   0.110E-01
  25 F= -.19204586E+03 E0= -.19194268E+03  d E =-.129743E-01
       N       E                     dE             d eps       ncg     rms          rms(c)
DAV:   1    -0.192037973262E+03    0.79521E-02   -0.27821E-01  8160   0.114E+00    0.132E-01
DAV:   2    -0.192038963002E+03   -0.98974E-03   -0.10492E-02 10840   0.365E-01    0.216E-01
DAV:   3    -0.192038678832E+03    0.28417E-03   -0.18691E-03 11800   0.324E-01    0.150E-01
DAV:   4    -0.192038559012E+03    0.11982E-03   -0.78641E-04  8400   0.193E-01    0.129E-01
DAV:   5    -0.192038426044E+03    0.13297E-03   -0.47145E-04  8160   0.159E-01    0.691E-02
DAV:   6    -0.192038528739E+03   -0.10270E-03   -0.42311E-04  7240   0.133E-01    0.129E-01
DAV:   7    -0.192038378423E+03    0.15032E-03   -0.28289E-04  6560   0.117E-01    0.223E-02
DAV:   8    -0.192038380687E+03   -0.22636E-05   -0.33037E-05  5840   0.251E-02
  26 F= -.19203838E+03 E0= -.19193467E+03  d E =0.747842E-02
       N       E                     dE             d eps       ncg     rms          rms(c)
DAV:   1    -0.192041481686E+03   -0.31033E-02   -0.10630E-01  8160   0.701E-01    0.833E-02
DAV:   2    -0.192041987372E+03   -0.50569E-03   -0.43363E-03 11720   0.229E-01    0.190E-01
DAV:   3    -0.192041747530E+03    0.23984E-03   -0.12288E-03  9840   0.217E-01    0.106E-01
DAV:   4    -0.192041675585E+03    0.71946E-04   -0.22615E-04  5520   0.944E-02
  27 F= -.19204168E+03 E0= -.19193805E+03  d E =-.329490E-02
       N       E                     dE             d eps       ncg     rms          rms(c)
DAV:   1    -0.192048098842E+03   -0.63513E-02   -0.30500E-01  8160   0.120E+00    0.162E-01
DAV:   2    -0.192050748093E+03   -0.26493E-02   -0.13586E-02 12400   0.561E-01    0.468E-01
DAV:   3    -0.192048537452E+03    0.22106E-02   -0.49661E-03 11520   0.507E-01    0.120E-01
DAV:   4    -0.192048616598E+03   -0.79146E-04   -0.74839E-04  8720   0.187E-01
  28 F= -.19204862E+03 E0= -.19194504E+03  d E =-.694101E-02
       N       E                     dE             d eps       ncg     rms          rms(c)
DAV:   1    -0.192036149450E+03    0.12388E-01   -0.10174E+00  8160   0.220E+00    0.242E-01
DAV:   2    -0.192040273666E+03   -0.41242E-02   -0.31987E-02 11520   0.688E-01    0.523E-01
DAV:   3    -0.192037953298E+03    0.23204E-02   -0.88738E-03 12080   0.659E-01    0.264E-01
DAV:   4    -0.192038369951E+03   -0.41665E-03   -0.38762E-03  9920   0.394E-01    0.336E-01
DAV:   5    -0.192037248128E+03    0.11218E-02   -0.18848E-03  9680   0.310E-01    0.933E-02
DAV:   6    -0.192037533691E+03   -0.28556E-03   -0.10471E-03  9200   0.217E-01    0.193E-01
DAV:   7    -0.192037195467E+03    0.33822E-03   -0.84041E-04  8680   0.203E-01    0.535E-02
DAV:   8    -0.192037159975E+03    0.35492E-04   -0.10181E-04  5720   0.525E-02
  29 F= -.19203716E+03 E0= -.19193320E+03  d E =0.114566E-01
       N       E                     dE             d eps       ncg     rms          rms(c)
DAV:   1    -0.192039844863E+03   -0.26494E-02   -0.69144E-01  8160   0.182E+00    0.263E-01
DAV:   2    -0.192046340758E+03   -0.64959E-02   -0.27798E-02 12200   0.851E-01    0.912E-01
DAV:   3    -0.192039922045E+03    0.64187E-02   -0.16869E-02 11920   0.768E-01    0.239E-01
DAV:   4    -0.192040266753E+03   -0.34471E-03   -0.34635E-03 10880   0.412E-01    0.296E-01
DAV:   5    -0.192039331428E+03    0.93533E-03   -0.20491E-03 10240   0.353E-01    0.120E-01
DAV:   6    -0.192039325543E+03    0.58848E-05   -0.94856E-04 10120   0.194E-01
  30 F= -.19203933E+03 E0= -.19193523E+03  d E =-.216557E-02
       N       E                     dE             d eps       ncg     rms          rms(c)
DAV:   1    -0.192044054711E+03   -0.47233E-02   -0.17738E-01  8160   0.931E-01    0.146E-01
DAV:   2    -0.192047114468E+03   -0.30598E-02   -0.10063E-02 12280   0.546E-01    0.599E-01
DAV:   3    -0.192044110306E+03    0.30042E-02   -0.60692E-03 10960   0.487E-01    0.104E-01
DAV:   4    -0.192044420514E+03   -0.31021E-03   -0.10893E-03  9720   0.230E-01    0.199E-01
DAV:   5    -0.192044025104E+03    0.39541E-03   -0.70684E-04  8680   0.191E-01    0.561E-02
DAV:   6    -0.192044079547E+03   -0.54443E-04   -0.24933E-04  7560   0.126E-01
  31 F= -.19204408E+03 E0= -.19194029E+03  d E =-.475400E-02
       N       E                     dE             d eps       ncg     rms          rms(c)
DAV:   1    -0.192048330607E+03   -0.43055E-02   -0.27523E-01  8160   0.113E+00    0.132E-01
DAV:   2    -0.192049312167E+03   -0.98156E-03   -0.93472E-03 11800   0.343E-01    0.251E-01
DAV:   3    -0.192048957560E+03    0.35461E-03   -0.24328E-03 10640   0.329E-01    0.174E-01
DAV:   4    -0.192048904682E+03    0.52878E-04   -0.10033E-03  8920   0.201E-01    0.155E-01
DAV:   5    -0.192048676883E+03    0.22780E-03   -0.51047E-04  8280   0.169E-01    0.623E-02
DAV:   6    -0.192048767553E+03   -0.90670E-04   -0.35175E-04  8440   0.131E-01
  32 F= -.19204877E+03 E0= -.19194566E+03  d E =-.468801E-02
       N       E                     dE             d eps       ncg     rms          rms(c)
DAV:   1    -0.192059294981E+03   -0.10618E-01   -0.62308E-01  8160   0.171E+00    0.216E-01
DAV:   2    -0.192062986322E+03   -0.36913E-02   -0.25945E-02 12080   0.625E-01    0.558E-01
DAV:   3    -0.192060767130E+03    0.22192E-02   -0.90176E-03 11360   0.593E-01    0.257E-01
DAV:   4    -0.192060437408E+03    0.32972E-03   -0.17566E-03  9600   0.263E-01    0.174E-01
DAV:   5    -0.192060306548E+03    0.13086E-03   -0.12143E-03 10160   0.264E-01    0.148E-01
DAV:   6    -0.192060135809E+03    0.17074E-03   -0.71890E-04  8760   0.178E-01    0.827E-02
DAV:   7    -0.192060173473E+03   -0.37665E-04   -0.39259E-04  9040   0.156E-01
  33 F= -.19206017E+03 E0= -.19195685E+03  d E =-.114059E-01
       N       E                     dE             d eps       ncg     rms          rms(c)
DAV:   1    -0.192060880155E+03   -0.74435E-03   -0.32189E-03  8440   0.145E-01    0.253E-02
DAV:   2    -0.192060903830E+03   -0.23675E-04   -0.14757E-04  6480   0.637E-02
  34 F= -.19206090E+03 E0= -.19195776E+03  d E =-.730357E-03
       N       E                     dE             d eps       ncg     rms          rms(c)
DAV:   1    -0.192073873854E+03   -0.12994E-01   -0.86701E-01  8160   0.203E+00    0.260E-01
DAV:   2    -0.192076332890E+03   -0.24590E-02   -0.26050E-02 12200   0.589E-01    0.475E-01
DAV:   3    -0.192075177524E+03    0.11554E-02   -0.92759E-03 12360   0.624E-01    0.348E-01
DAV:   4    -0.192074580442E+03    0.59708E-03   -0.32896E-03 11000   0.367E-01    0.241E-01
DAV:   5    -0.192074346338E+03    0.23410E-03   -0.24738E-03  9800   0.362E-01    0.214E-01
DAV:   6    -0.192073974423E+03    0.37192E-03   -0.13721E-03  9840   0.239E-01    0.111E-01
DAV:   7    -0.192073956573E+03    0.17850E-04   -0.56572E-04  9120   0.190E-01
  35 F= -.19207396E+03 E0= -.19197243E+03  d E =-.130527E-01
       N       E                     dE             d eps       ncg     rms          rms(c)
DAV:   1    -0.192079239261E+03   -0.52648E-02   -0.19134E-01  8160   0.952E-01    0.141E-01
DAV:   2    -0.192082379003E+03   -0.31397E-02   -0.13110E-02 13480   0.574E-01    0.556E-01
DAV:   3    -0.192079769566E+03    0.26094E-02   -0.56145E-03 11120   0.496E-01    0.125E-01
DAV:   4    -0.192079809819E+03   -0.40253E-04   -0.75971E-04  8840   0.200E-01
  36 F= -.19207981E+03 E0= -.19197678E+03  d E =-.585325E-02
       N       E                     dE             d eps       ncg     rms          rms(c)
DAV:   1    -0.192086316249E+03   -0.65467E-02   -0.19189E-01  8160   0.966E-01    0.131E-01
DAV:   2    -0.192086904551E+03   -0.58830E-03   -0.66341E-03 11720   0.292E-01    0.199E-01
DAV:   3    -0.192086769400E+03    0.13515E-03   -0.18956E-03 11080   0.306E-01    0.184E-01
DAV:   4    -0.192086600524E+03    0.16888E-03   -0.87464E-04  8960   0.201E-01    0.131E-01
DAV:   5    -0.192086542269E+03    0.58254E-04   -0.58000E-04  8400   0.179E-01
  37 F= -.19208654E+03 E0= -.19198598E+03  d E =-.673245E-02
       N       E                     dE             d eps       ncg     rms          rms(c)
DAV:   1    -0.192099883352E+03   -0.13283E-01   -0.74948E-01  8160   0.189E+00    0.249E-01
DAV:   2    -0.192103958304E+03   -0.40750E-02   -0.29936E-02 12520   0.686E-01    0.601E-01
DAV:   3    -0.192101412749E+03    0.25456E-02   -0.95152E-03 11800   0.645E-01    0.269E-01
DAV:   4    -0.192101166747E+03    0.24600E-03   -0.21332E-03  9640   0.300E-01    0.225E-01
DAV:   5    -0.192100836849E+03    0.32990E-03   -0.17536E-03 10240   0.311E-01    0.152E-01
DAV:   6    -0.192100644059E+03    0.19279E-03   -0.79880E-04  9480   0.167E-01    0.595E-02
DAV:   7    -0.192100604953E+03    0.39106E-04   -0.18258E-04  6440   0.758E-02
  38 F= -.19210060E+03 E0= -.19200048E+03  d E =-.140627E-01
       N       E                     dE             d eps       ncg     rms          rms(c)
DAV:   1    -0.192102575110E+03   -0.19311E-02   -0.14127E-02  8160   0.283E-01    0.451E-02
DAV:   2    -0.192102647074E+03   -0.71964E-04   -0.71112E-04 11280   0.108E-01
  39 F= -.19210265E+03 E0= -.19200227E+03  d E =-.204212E-02
       N       E                     dE             d eps       ncg     rms          rms(c)
DAV:   1    -0.192113511817E+03   -0.10937E-01   -0.43360E-01  8160   0.144E+00    0.222E-01
DAV:   2    -0.192119338606E+03   -0.58268E-02   -0.23161E-02 12360   0.772E-01    0.793E-01
DAV:   3    -0.192114142815E+03    0.51958E-02   -0.10695E-02 11400   0.704E-01    0.177E-01
DAV:   4    -0.192114353473E+03   -0.21066E-03   -0.14783E-03  9840   0.298E-01    0.225E-01
DAV:   5    -0.192113793239E+03    0.56023E-03   -0.10671E-03 10080   0.268E-01    0.792E-02
DAV:   6    -0.192113898419E+03   -0.10518E-03   -0.58824E-04  9240   0.170E-01    0.126E-01
DAV:   7    -0.192113762905E+03    0.13551E-03   -0.44275E-04  8560   0.160E-01    0.520E-02
DAV:   8    -0.192113724519E+03    0.38386E-04   -0.76448E-05  5520   0.535E-02
  40 F= -.19211372E+03 E0= -.19201411E+03  d E =-.110774E-01
       N       E                     dE             d eps       ncg     rms          rms(c)
DAV:   1    -0.192118132395E+03   -0.43695E-02   -0.68095E-02  8160   0.568E-01    0.759E-02
DAV:   2    -0.192118519914E+03   -0.38752E-03   -0.27254E-03 12320   0.218E-01    0.179E-01
DAV:   3    -0.192118274687E+03    0.24523E-03   -0.81511E-04  8800   0.208E-01    0.903E-02
DAV:   4    -0.192118264584E+03    0.10103E-04   -0.24055E-04  7040   0.114E-01
  41 F= -.19211826E+03 E0= -.19201846E+03  d E =-.454006E-02
       N       E                     dE             d eps       ncg     rms          rms(c)
DAV:   1    -0.192122944662E+03   -0.46700E-02   -0.95116E-02  8160   0.686E-01    0.102E-01
DAV:   2    -0.192123269729E+03   -0.32507E-03   -0.39766E-03 11720   0.219E-01    0.161E-01
DAV:   3    -0.192123214064E+03    0.55665E-04   -0.12979E-03 10120   0.244E-01    0.163E-01
DAV:   4    -0.192122999008E+03    0.21506E-03   -0.46711E-04  8200   0.149E-01    0.614E-02
DAV:   5    -0.192123036512E+03   -0.37504E-04   -0.24403E-04  6880   0.117E-01
  42 F= -.19212304E+03 E0= -.19202463E+03  d E =-.477193E-02
       N       E                     dE             d eps       ncg     rms          rms(c)
DAV:   1    -0.192133533479E+03   -0.10534E-01   -0.32241E-01  8160   0.131E+00    0.226E-01
DAV:   2    -0.192133480332E+03    0.53147E-04   -0.12431E-02 11880   0.390E-01    0.276E-01
DAV:   3    -0.192133969704E+03   -0.48937E-03   -0.51697E-03 12240   0.515E-01    0.369E-01
DAV:   4    -0.192132742185E+03    0.12275E-02   -0.27153E-03 10400   0.371E-01    0.169E-01
DAV:   5    -0.192132806713E+03   -0.64528E-04   -0.15002E-03  9560   0.298E-01    0.192E-01
DAV:   6    -0.192132446216E+03    0.36050E-03   -0.86861E-04  8800   0.206E-01    0.759E-02
DAV:   7    -0.192132415768E+03    0.30448E-04   -0.23268E-04  7400   0.119E-01
  43 F= -.19213242E+03 E0= -.19203424E+03  d E =-.937926E-02
       N       E                     dE             d eps       ncg     rms          rms(c)
DAV:   1    -0.192145862013E+03   -0.13416E-01   -0.62725E-01  8160   0.172E+00    0.238E-01
DAV:   2    -0.192148866955E+03   -0.30049E-02   -0.24741E-02 11800   0.673E-01    0.475E-01
DAV:   3    -0.192147174693E+03    0.16923E-02   -0.66509E-03 12360   0.626E-01    0.286E-01
DAV:   4    -0.192146967039E+03    0.20765E-03   -0.24139E-03 10280   0.366E-01    0.254E-01
DAV:   5    -0.192146410704E+03    0.55633E-03   -0.13988E-03 10040   0.300E-01    0.113E-01
DAV:   6    -0.192146353709E+03    0.56995E-04   -0.75310E-04  9880   0.164E-01
  44 F= -.19214635E+03 E0= -.19204906E+03  d E =-.139379E-01
       N       E                     dE             d eps       ncg     rms          rms(c)
DAV:   1    -0.192153637911E+03   -0.72272E-02   -0.15848E-01  8160   0.897E-01    0.163E-01
DAV:   2    -0.192156642124E+03   -0.30042E-02   -0.10393E-02 12200   0.630E-01    0.517E-01
DAV:   3    -0.192153620311E+03    0.30218E-02   -0.51691E-03 10520   0.557E-01    0.101E-01
DAV:   4    -0.192153831746E+03   -0.21144E-03   -0.78529E-04  8760   0.209E-01    0.169E-01
DAV:   5    -0.192153539026E+03    0.29272E-03   -0.51330E-04  9320   0.181E-01    0.686E-02
DAV:   6    -0.192153574662E+03   -0.35636E-04   -0.24926E-04  7440   0.123E-01
  45 F= -.19215357E+03 E0= -.19205684E+03  d E =-.722095E-02
       N       E                     dE             d eps       ncg     rms          rms(c)
DAV:   1    -0.192154179276E+03   -0.64025E-03   -0.43762E-02  8160   0.470E-01    0.842E-02
DAV:   2    -0.192155419932E+03   -0.12407E-02   -0.43328E-03 12440   0.412E-01    0.338E-01
DAV:   3    -0.192154226685E+03    0.11932E-02   -0.18965E-03  9760   0.329E-01    0.437E-02
DAV:   4    -0.192154284913E+03   -0.58228E-04   -0.16264E-04  5960   0.945E-02
  46 F= -.19215428E+03 E0= -.19205714E+03  d E =-.710252E-03
       N       E                     dE             d eps       ncg     rms          rms(c)
DAV:   1    -0.192156669076E+03   -0.24424E-02   -0.62963E-02  8160   0.548E-01    0.794E-02
DAV:   2    -0.192157245178E+03   -0.57610E-03   -0.30598E-03 11000   0.279E-01    0.218E-01
DAV:   3    -0.192156772058E+03    0.47312E-03   -0.10059E-03  9960   0.240E-01    0.656E-02
DAV:   4    -0.192156811265E+03   -0.39208E-04   -0.21934E-04  7360   0.112E-01
  47 F= -.19215681E+03 E0= -.19205964E+03  d E =-.252635E-02
       N       E                     dE             d eps       ncg     rms          rms(c)
DAV:   1    -0.192169003843E+03   -0.12232E-01   -0.55064E-01  8160   0.162E+00    0.245E-01
DAV:   2    -0.192174204895E+03   -0.52011E-02   -0.25086E-02 12440   0.870E-01    0.694E-01
DAV:   3    -0.192169197590E+03    0.50073E-02   -0.10731E-02 12000   0.768E-01    0.162E-01
DAV:   4    -0.192169096821E+03    0.10077E-03   -0.12016E-03 10200   0.203E-01    0.161E-01
DAV:   5    -0.192169146740E+03   -0.49919E-04   -0.12511E-03 11520   0.270E-01    0.198E-01
DAV:   6    -0.192168793346E+03    0.35339E-03   -0.80361E-04  8440   0.189E-01    0.534E-02
DAV:   7    -0.192168786174E+03    0.71717E-05   -0.15906E-04  5800   0.783E-02
  48 F= -.19216879E+03 E0= -.19207330E+03  d E =-.119749E-01
       N       E                     dE             d eps       ncg     rms          rms(c)
DAV:   1    -0.192176499873E+03   -0.77065E-02   -0.17613E-01  8160   0.919E-01    0.122E-01
DAV:   2    -0.192177202997E+03   -0.70312E-03   -0.58073E-03 11320   0.321E-01    0.223E-01
DAV:   3    -0.192176783101E+03    0.41990E-03   -0.14553E-03 11160   0.317E-01    0.132E-01
DAV:   4    -0.192176806517E+03   -0.23416E-04   -0.62508E-04  9200   0.189E-01
  49 F= -.19217681E+03 E0= -.19208089E+03  d E =-.802034E-02
       N       E                     dE             d eps       ncg     rms          rms(c)
DAV:   1    -0.192183217271E+03   -0.64342E-02   -0.13821E-01  8160   0.825E-01    0.133E-01
DAV:   2    -0.192184340425E+03   -0.11232E-02   -0.64043E-03 12720   0.389E-01    0.333E-01
DAV:   3    -0.192183401847E+03    0.93858E-03   -0.24994E-03 11400   0.371E-01    0.140E-01
DAV:   4    -0.192183284684E+03    0.11716E-03   -0.53137E-04  8640   0.159E-01    0.918E-02
DAV:   5    -0.192183273541E+03    0.11143E-04   -0.36721E-04  8880   0.163E-01
  50 F= -.19218327E+03 E0= -.19208917E+03  d E =-.646702E-02
       N       E                     dE             d eps       ncg     rms          rms(c)
DAV:   1    -0.192207558546E+03   -0.24274E-01   -0.22308E+00  8160   0.325E+00    0.403E-01
DAV:   2    -0.192214583624E+03   -0.70251E-02   -0.76335E-02 11600   0.940E-01    0.655E-01
DAV:   3    -0.192213110561E+03    0.14731E-02   -0.16335E-02 12440   0.977E-01    0.533E-01
DAV:   4    -0.192210717884E+03    0.23927E-02   -0.51694E-03 11440   0.538E-01    0.270E-01
DAV:   5    -0.192210153990E+03    0.56389E-03   -0.22513E-03 11160   0.422E-01    0.181E-01
DAV:   6    -0.192209985749E+03    0.16824E-03   -0.17163E-03 12160   0.262E-01    0.114E-01
DAV:   7    -0.192209785130E+03    0.20062E-03   -0.57789E-04  8760   0.142E-01    0.758E-02
DAV:   8    -0.192209728398E+03    0.56732E-04   -0.16316E-04  5840   0.996E-02
  51 F= -.19220973E+03 E0= -.19211686E+03  d E =-.264549E-01
       N       E                     dE             d eps       ncg     rms          rms(c)
DAV:   1    -0.192196826951E+03    0.12958E-01   -0.60353E-01  8160   0.169E+00    0.232E-01
DAV:   2    -0.192199832154E+03   -0.30052E-02   -0.25780E-02 11280   0.699E-01    0.468E-01
DAV:   3    -0.192198064756E+03    0.17674E-02   -0.61180E-03 12240   0.620E-01    0.250E-01
DAV:   4    -0.192197932535E+03    0.13222E-03   -0.22116E-03 10880   0.354E-01    0.243E-01
DAV:   5    -0.192197356030E+03    0.57650E-03   -0.12092E-03 10000   0.281E-01    0.993E-02
DAV:   6    -0.192197334149E+03    0.21882E-04   -0.69883E-04  8840   0.161E-01
  52 F= -.19219733E+03 E0= -.19210353E+03  d E =0.123942E-01
       N       E                     dE             d eps       ncg     rms          rms(c)
DAV:   1    -0.192208467430E+03   -0.11111E-01   -0.42485E-01  8160   0.143E+00    0.178E-01
DAV:   2    -0.192209340049E+03   -0.87262E-03   -0.13319E-02 11440   0.350E-01    0.219E-01
DAV:   3    -0.192209410691E+03   -0.70642E-04   -0.33905E-03 12240   0.412E-01    0.268E-01
DAV:   4    -0.192208784082E+03    0.62661E-03   -0.14828E-03 10040   0.284E-01    0.113E-01
DAV:   5    -0.192208743264E+03    0.40818E-04   -0.57722E-04  8880   0.171E-01
  53 F= -.19220874E+03 E0= -.19211554E+03  d E =-.114091E-01
       N       E                     dE             d eps       ncg     rms          rms(c)
DAV:   1    -0.192208537159E+03    0.24692E-03   -0.13288E-02  8720   0.305E-01    0.893E-02
DAV:   2    -0.192210441376E+03   -0.19042E-02   -0.44167E-03 12120   0.474E-01    0.425E-01
DAV:   3    -0.192208489563E+03    0.19518E-02   -0.27223E-03 10000   0.408E-01    0.426E-02
DAV:   4    -0.192208507072E+03   -0.17509E-04   -0.84954E-05  5840   0.630E-02
  54 F= -.19220851E+03 E0= -.19211523E+03  d E =0.236192E-03
       N       E                     dE             d eps       ncg     rms          rms(c)
DAV:   1    -0.192208061129E+03    0.42843E-03   -0.48217E-02  8160   0.531E-01    0.142E-01
DAV:   2    -0.192208291061E+03   -0.22993E-03   -0.35974E-03 11280   0.346E-01    0.279E-01
DAV:   3    -0.192207619783E+03    0.67128E-03   -0.21419E-03 10720   0.358E-01    0.136E-01
DAV:   4    -0.192207613341E+03    0.64425E-05   -0.81315E-04  8520   0.225E-01
  55 F= -.19220761E+03 E0= -.19211431E+03  d E =0.893731E-03
       N       E                     dE             d eps       ncg     rms          rms(c)
DAV:   1    -0.192218046414E+03   -0.10427E-01   -0.16289E+00  8160   0.288E+00    0.599E-01
DAV:   2    -0.192233091235E+03   -0.15045E-01   -0.11458E-01 11880   0.190E+00    0.130E+00
DAV:   3    -0.192214449737E+03    0.18641E-01   -0.43558E-02 12160   0.164E+00    0.441E-01
DAV:   4    -0.192215685024E+03   -0.12353E-02   -0.13377E-02 10600   0.902E-01    0.647E-01
DAV:   5    -0.192211566839E+03    0.41182E-02   -0.93339E-03 10280   0.814E-01    0.280E-01
DAV:   6    -0.192211498433E+03    0.68406E-04   -0.38636E-03 11400   0.443E-01    0.305E-01
DAV:   7    -0.192210601429E+03    0.89700E-03   -0.19665E-03 10880   0.340E-01    0.858E-02
DAV:   8    -0.192210545644E+03    0.55785E-04   -0.26966E-04  7240   0.886E-02
  56 F= -.19221055E+03 E0= -.19211864E+03  d E =-.293230E-02
       N       E                     dE             d eps       ncg     rms          rms(c)
DAV:   1    -0.192234580695E+03   -0.23979E-01   -0.17600E+00  8160   0.303E+00    0.702E-01
DAV:   2    -0.192257806287E+03   -0.23226E-01   -0.14128E-01 12240   0.221E+00    0.177E+00
DAV:   3    -0.192226789506E+03    0.31017E-01   -0.77423E-02 12160   0.209E+00    0.472E-01
DAV:   4    -0.192226526512E+03    0.26299E-03   -0.15586E-02 12040   0.918E-01    0.580E-01
DAV:   5    -0.192222864950E+03    0.36616E-02   -0.95942E-03 11720   0.838E-01    0.276E-01
DAV:   6    -0.192221681845E+03    0.11831E-02   -0.32496E-03 10920   0.340E-01    0.681E-02
DAV:   7    -0.192221707278E+03   -0.25433E-04   -0.50886E-04 10800   0.116E-01
  57 F= -.19222171E+03 E0= -.19212939E+03  d E =-.111616E-01
       N       E                     dE             d eps       ncg     rms          rms(c)
DAV:   1    -0.192235942328E+03   -0.14260E-01   -0.77790E-01  8160   0.193E+00    0.237E-01
DAV:   2    -0.192237522841E+03   -0.15805E-02   -0.25394E-02 11080   0.463E-01    0.256E-01
DAV:   3    -0.192238335284E+03   -0.81244E-03   -0.51954E-03 12240   0.549E-01    0.408E-01
DAV:   4    -0.192236749120E+03    0.15862E-02   -0.24881E-03 11920   0.377E-01    0.112E-01
DAV:   5    -0.192236822083E+03   -0.72964E-04   -0.10619E-03 10120   0.228E-01    0.160E-01
DAV:   6    -0.192236670838E+03    0.15125E-03   -0.82066E-04  9520   0.222E-01    0.962E-02
DAV:   7    -0.192236551987E+03    0.11885E-03   -0.22737E-04  7560   0.107E-01    0.355E-02
DAV:   8    -0.192236542160E+03    0.98273E-05   -0.47726E-05  6800   0.558E-02
  58 F= -.19223654E+03 E0= -.19214481E+03  d E =-.148349E-01
       N       E                     dE             d eps       ncg     rms          rms(c)
DAV:   1    -0.192259014932E+03   -0.22463E-01   -0.24885E+00  8160   0.345E+00    0.421E-01
DAV:   2    -0.192262914998E+03   -0.39001E-02   -0.80062E-02 11040   0.744E-01    0.336E-01
DAV:   3    -0.192266553869E+03   -0.36389E-02   -0.12739E-02 12480   0.905E-01    0.715E-01
DAV:   4    -0.192261307763E+03    0.52461E-02   -0.78505E-03 11600   0.731E-01    0.218E-01
DAV:   5    -0.192261430621E+03   -0.12286E-03   -0.26432E-03 11200   0.414E-01    0.244E-01
DAV:   6    -0.192260955494E+03    0.47513E-03   -0.20113E-03 11840   0.332E-01    0.133E-01
DAV:   7    -0.192260766531E+03    0.18896E-03   -0.73917E-04  8720   0.186E-01    0.979E-02
DAV:   8    -0.192260673856E+03    0.92674E-04   -0.25305E-04  7800   0.120E-01
  59 F= -.19226067E+03 E0= -.19217005E+03  d E =-.241317E-01
       N       E                     dE             d eps       ncg     rms          rms(c)
DAV:   1    -0.192283396493E+03   -0.22630E-01   -0.80239E+00  8160   0.621E+00    0.712E-01
DAV:   2    -0.192299379765E+03   -0.15983E-01   -0.26495E-01 11080   0.139E+00    0.618E-01
DAV:   3    -0.192308705508E+03   -0.93257E-02   -0.36251E-02 12600   0.158E+00    0.117E+00
DAV:   4    -0.192294093391E+03    0.14612E-01   -0.19234E-02 12000   0.120E+00    0.335E-01
DAV:   5    -0.192294304821E+03   -0.21143E-03   -0.70081E-03 12200   0.653E-01    0.381E-01
DAV:   6    -0.192293198318E+03    0.11065E-02   -0.54763E-03 11960   0.570E-01    0.221E-01
DAV:   7    -0.192292306465E+03    0.89185E-03   -0.15121E-03 11720   0.218E-01    0.377E-02
DAV:   8    -0.192292359378E+03   -0.52912E-04   -0.23959E-04  8160   0.979E-02
  60 F= -.19229236E+03 E0= -.19220397E+03  d E =-.316855E-01
       N       E                     dE             d eps       ncg     rms          rms(c)
DAV:   1    -0.192296803702E+03   -0.44972E-02   -0.40540E-01  8160   0.135E+00    0.153E-01
DAV:   2    -0.192298950918E+03   -0.21472E-02   -0.19734E-02 12960   0.516E-01    0.300E-01
DAV:   3    -0.192298339586E+03    0.61133E-03   -0.28905E-03 11760   0.424E-01    0.181E-01
DAV:   4    -0.192297994677E+03    0.34491E-03   -0.55215E-04  8440   0.182E-01    0.673E-02
DAV:   5    -0.192297997464E+03   -0.27869E-05   -0.22948E-04  8440   0.129E-01
  61 F= -.19229800E+03 E0= -.19220951E+03  d E =-.563809E-02
       N       E                     dE             d eps       ncg     rms          rms(c)
DAV:   1    -0.192304425645E+03   -0.64310E-02   -0.10068E+00  8160   0.216E+00    0.261E-01
DAV:   2    -0.192306466013E+03   -0.20404E-02   -0.36094E-02 12440   0.566E-01    0.243E-01
DAV:   3    -0.192307363200E+03   -0.89719E-03   -0.56593E-03 12200   0.581E-01    0.383E-01
DAV:   4    -0.192305705791E+03    0.16574E-02   -0.30534E-03 11360   0.437E-01    0.138E-01
DAV:   5    -0.192305798741E+03   -0.92950E-04   -0.10834E-03  9560   0.271E-01    0.165E-01
DAV:   6    -0.192305502702E+03    0.29604E-03   -0.69540E-04 10440   0.209E-01    0.567E-02
DAV:   7    -0.192305478207E+03    0.24495E-04   -0.12905E-04  5960   0.908E-02
  62 F= -.19230548E+03 E0= -.19221804E+03  d E =-.748074E-02
       N       E                     dE             d eps       ncg     rms          rms(c)
DAV:   1    -0.192306861075E+03   -0.13584E-02   -0.68391E-02  8160   0.574E-01    0.942E-02
DAV:   2    -0.192307027118E+03   -0.16604E-03   -0.36726E-03 10960   0.224E-01    0.117E-01
DAV:   3    -0.192307035296E+03   -0.81782E-05   -0.87518E-04 10440   0.225E-01
  63 F= -.19230704E+03 E0= -.19221949E+03  d E =-.155709E-02
       N       E                     dE             d eps       ncg     rms          rms(c)
DAV:   1    -0.192309638572E+03   -0.26115E-02   -0.26077E-01  8160   0.110E+00    0.139E-01
DAV:   2    -0.192310443485E+03   -0.80491E-03   -0.10107E-02 12600   0.375E-01    0.199E-01
DAV:   3    -0.192310201507E+03    0.24198E-03   -0.18469E-03 11400   0.331E-01    0.148E-01
DAV:   4    -0.192310032381E+03    0.16913E-03   -0.74103E-04  8880   0.204E-01    0.104E-01
DAV:   5    -0.192309959188E+03    0.73192E-04   -0.39169E-04  8480   0.159E-01
  64 F= -.19230996E+03 E0= -.19222317E+03  d E =-.292389E-02
       N       E                     dE             d eps       ncg     rms          rms(c)
DAV:   1    -0.192311653592E+03   -0.16212E-02   -0.88641E-02  8160   0.648E-01    0.805E-02
DAV:   2    -0.192312050077E+03   -0.39648E-03   -0.38953E-03 13400   0.236E-01    0.140E-01
DAV:   3    -0.192311904287E+03    0.14579E-03   -0.77935E-04 10000   0.214E-01    0.912E-02
DAV:   4    -0.192311828775E+03    0.75512E-04   -0.17926E-04  6400   0.104E-01
  65 F= -.19231183E+03 E0= -.19222495E+03  d E =-.186959E-02
       N       E                     dE             d eps       ncg     rms          rms(c)
DAV:   1    -0.192312763205E+03   -0.85892E-03   -0.23993E-02  8160   0.343E-01    0.548E-02
DAV:   2    -0.192312922492E+03   -0.15929E-03   -0.11127E-03 13480   0.153E-01    0.114E-01
DAV:   3    -0.192312796776E+03    0.12572E-03   -0.29378E-04  9320   0.151E-01    0.518E-02
DAV:   4    -0.192312790475E+03    0.63005E-05   -0.81300E-05  5760   0.695E-02
  66 F= -.19231279E+03 E0= -.19222573E+03  d E =-.961700E-03
       N       E                     dE             d eps       ncg     rms          rms(c)
DAV:   1    -0.192314169428E+03   -0.13727E-02   -0.46598E-02  8160   0.477E-01    0.102E-01
DAV:   2    -0.192314442177E+03   -0.27275E-03   -0.29756E-03 11360   0.300E-01    0.190E-01
DAV:   3    -0.192314051749E+03    0.39043E-03   -0.96549E-04 10000   0.257E-01    0.734E-02
DAV:   4    -0.192314064397E+03   -0.12648E-04   -0.32848E-04  8560   0.139E-01
  67 F= -.19231406E+03 E0= -.19222705E+03  d E =-.127392E-02
       N       E                     dE             d eps       ncg     rms          rms(c)
DAV:   1    -0.192316391634E+03   -0.23399E-02   -0.23335E-01  8160   0.104E+00    0.131E-01
DAV:   2    -0.192316984208E+03   -0.59257E-03   -0.83341E-03 12240   0.275E-01    0.152E-01
DAV:   3    -0.192316951394E+03    0.32814E-04   -0.13941E-03 11360   0.307E-01    0.167E-01
DAV:   4    -0.192316700077E+03    0.25132E-03   -0.48899E-04  8520   0.193E-01    0.884E-02
DAV:   5    -0.192316658689E+03    0.41388E-04   -0.34408E-04  8760   0.148E-01
  68 F= -.19231666E+03 E0= -.19223020E+03  d E =-.259429E-02
       N       E                     dE             d eps       ncg     rms          rms(c)
DAV:   1    -0.192317644789E+03   -0.94471E-03   -0.51616E-02  8160   0.486E-01    0.696E-02
DAV:   2    -0.192318021401E+03   -0.37661E-03   -0.25054E-03 12560   0.246E-01    0.163E-01
DAV:   3    -0.192317759011E+03    0.26239E-03   -0.51331E-04  9480   0.204E-01    0.621E-02
DAV:   4    -0.192317739596E+03    0.19415E-04   -0.11541E-04  5760   0.875E-02
  69 F= -.19231774E+03 E0= -.19223116E+03  d E =-.108091E-02
       N       E                     dE             d eps       ncg     rms          rms(c)
DAV:   1    -0.192319043578E+03   -0.12846E-02   -0.81601E-02  8160   0.610E-01    0.784E-02
DAV:   2    -0.192319322354E+03   -0.27878E-03   -0.30266E-03 12680   0.223E-01    0.117E-01
DAV:   3    -0.192319185729E+03    0.13662E-03   -0.46774E-04  8920   0.186E-01    0.635E-02
DAV:   4    -0.192319134781E+03    0.50948E-04   -0.89049E-05  6000   0.742E-02
  70 F= -.19231913E+03 E0= -.19223278E+03  d E =-.139518E-02
       N       E                     dE             d eps       ncg     rms          rms(c)
DAV:   1    -0.192320003214E+03   -0.81748E-03   -0.34012E-02  8160   0.404E-01    0.857E-02
DAV:   2    -0.192321179982E+03   -0.11768E-02   -0.29447E-03 12240   0.382E-01    0.334E-01
DAV:   3    -0.192319980461E+03    0.11995E-02   -0.14646E-03 10080   0.333E-01    0.359E-02
DAV:   4    -0.192319984121E+03   -0.36594E-05   -0.53994E-05  5960   0.398E-02
  71 F= -.19231998E+03 E0= -.19223374E+03  d E =-.849340E-03
       N       E                     dE             d eps       ncg     rms          rms(c)
DAV:   1    -0.192322078426E+03   -0.20980E-02   -0.53083E-01  8160   0.155E+00    0.174E-01
DAV:   2    -0.192323557121E+03   -0.14787E-02   -0.19333E-02 12240   0.444E-01    0.211E-01
DAV:   3    -0.192323616342E+03   -0.59221E-04   -0.27397E-03 12320   0.416E-01    0.236E-01
DAV:   4    -0.192323037073E+03    0.57927E-03   -0.10674E-03  9840   0.261E-01    0.936E-02
DAV:   5    -0.192323027933E+03    0.91397E-05   -0.41541E-04  8440   0.177E-01
  72 F= -.19232303E+03 E0= -.19223693E+03  d E =-.304381E-02
       N       E                     dE             d eps       ncg     rms          rms(c)
DAV:   1    -0.192321289243E+03    0.17478E-02   -0.13733E-01  8160   0.799E-01    0.880E-02
DAV:   2    -0.192321820172E+03   -0.53093E-03   -0.55876E-03 12240   0.228E-01    0.122E-01
DAV:   3    -0.192321683779E+03    0.13639E-03   -0.90467E-04 10880   0.217E-01    0.111E-01
DAV:   4    -0.192321557225E+03    0.12655E-03   -0.24870E-04  7440   0.130E-01    0.452E-02
DAV:   5    -0.192321544347E+03    0.12878E-04   -0.83765E-05  5520   0.725E-02
  73 F= -.19232154E+03 E0= -.19223539E+03  d E =0.148359E-02
       N       E                     dE             d eps       ncg     rms          rms(c)
DAV:   1    -0.192322289416E+03   -0.73219E-03   -0.52894E-02  8160   0.491E-01    0.487E-02
DAV:   2    -0.192322452107E+03   -0.16269E-03   -0.19716E-03 12440   0.126E-01    0.505E-02
DAV:   3    -0.192322471546E+03   -0.19439E-04   -0.21438E-04  8960   0.115E-01
  74 F= -.19232247E+03 E0= -.19223677E+03  d E =-.927199E-03
