unknown system                          
           1
     8.853409    5.105081    0.000000
    -8.854851    5.107562    0.000000
     0.000000    0.000000   30.000000
   V    Mo   W    S 
   3   3   3  18
Direct configuration=     1
   0.66666669  0.33333334  0.00000000
   0.66666669  0.00000000  0.00000000
   0.33333334  0.00000000  0.00000000
   0.33333334  0.66666669  0.00000000
   0.00000000  0.66666669  0.00000000
   0.33333334  0.33333334  0.00000000
   0.00000000  0.00000000  0.00000000
   1.00000000  0.33333334  0.00000000
   0.66666669  0.66666669  0.00000000
   0.11068511  0.22244981  0.95539999
   0.22244981  0.11068511  0.04460000
   0.11068511  0.55578315  0.95539999
   0.22244981  0.44401845  0.04460000
   0.11068511  0.88911647  0.95539999
   0.22244981  0.77735180  0.04460000
   0.44401845  0.22244981  0.95539999
   0.55578315  0.11068511  0.04460000
   0.44401845  0.55578315  0.95539999
   0.55578315  0.44401845  0.04460000
   0.44401845  0.88911647  0.95539999
   0.55578315  0.77735180  0.04460000
   0.77735180  0.22244981  0.95539999
   0.88911647  0.11068511  0.04460000
   0.77735180  0.55578315  0.95539999
   0.88911647  0.44401845  0.04460000
   0.77735180  0.88911647  0.95539999
   0.88911647  0.77735180  0.04460000
unknown system                          
           1
     8.665486    4.999049    0.000000
    -8.666766    5.001249    0.000000
     0.000000    0.000000   30.000000
   V    Mo   W    S 
   3   3   3  18
Direct configuration=     2
   0.66608566  0.33352318 -0.00002204
   0.66508773 -0.00065740  0.00003286
   0.33319584 -0.00063688 -0.00001482
   0.33188245  0.66549719  0.00016767
   0.00153533  0.66668500 -0.00009690
   0.33339980  0.33450206  0.00003838
   0.00168397 -0.00006287 -0.00015399
   1.00237589  0.33623123  0.00017540
   0.66510791  0.66505189 -0.00017397
   0.11006863  0.22143044  0.95076775
   0.22361872  0.10823079  0.04801536
   0.11043531  0.55457758  0.95069126
   0.22110889  0.44381906  0.04937100
   0.11490106  0.89141666  0.95186555
   0.22440978  0.78211491  0.04806350
   0.44652843  0.21994462  0.95309992
   0.55559984  0.11083011  0.04585632
   0.44552660  0.55606820  0.95078045
   0.55825372  0.44281750  0.04803700
   0.44631959  0.89326822  0.95313316
   0.55797675  0.78168182  0.04805134
   0.77410984  0.22055316  0.95317525
   0.88511206  0.10935660  0.04801592
   0.77506759  0.55156669  0.95192407
   0.88474882  0.44156567  0.04805328
   0.77574795  0.89072174  0.95198234
   0.88832632  0.77811730  0.04916381
unknown system                          
           1
     8.483625    4.899633    0.000000
    -8.483826    4.899967    0.000000
     0.000000    0.000000   30.000000
   V    Mo   W    S 
   3   3   3  18
Direct configuration=     3
   0.66597500  0.33371983 -0.00007842
   0.66473250 -0.00093197  0.00002957
   0.33294807 -0.00089654 -0.00002508
   0.33108625  0.66447681  0.00019057
   0.00200177  0.66671917 -0.00006176
   0.33316680  0.33515981  0.00000844
   0.00211438 -0.00016088 -0.00011719
   1.00359238  0.33736058  0.00020288
   0.66465664  0.66460353 -0.00019226
   0.10979553  0.22132276  0.95077512
   0.22345340  0.10809360  0.04800172
   0.11031500  0.55435846  0.95056343
   0.22087652  0.44370676  0.04954940
   0.11492256  0.89161317  0.95181345
   0.22452476  0.78227758  0.04810565
   0.44657781  0.21990260  0.95319509
   0.55555779  0.11083797  0.04578118
   0.44575885  0.55622137  0.95070234
   0.55838493  0.44298588  0.04807152
   0.44636934  0.89335995  0.95318175
   0.55813766  0.78164016  0.04802238
   0.77427295  0.22062157  0.95331468
   0.88529713  0.10943392  0.04787090
   0.77487878  0.55158457  0.95193676
   0.88476725  0.44135994  0.04803184
   0.77583635  0.89061729  0.95204336
   0.88821403  0.77822657  0.04908258
unknown system                          
           1
     8.270496    4.780633    0.000000
    -8.272330    4.783793    0.000000
     0.000000    0.000000   30.000000
   V    Mo   W    S 
   3   3   3  18
Direct configuration=     4
   0.66588338  0.33501861 -0.00028481
   0.66388504 -0.00221906 -0.00001236
   0.33127022 -0.00217349 -0.00006873
   0.32765968  0.65958362  0.00019767
   0.00364332  0.66693908  0.00007885
   0.33187776  0.33813551 -0.00009298
   0.00329475 -0.00081311  0.00007969
   1.00876294  0.34170226  0.00020548
   0.66326928  0.66328501 -0.00016319
   0.10941146  0.22132306  0.94919328
   0.22424918  0.10779295  0.04939425
   0.11033515  0.55439827  0.94843581
   0.22092041  0.44375939  0.05196343
   0.11627686  0.89224733  0.95010218
   0.22547742  0.78369912  0.04970576
   0.44704997  0.21937513  0.95227532
   0.55538319  0.11093603  0.04672211
   0.44572819  0.55649106  0.94877284
   0.55876813  0.44236422  0.04965808
   0.44677947  0.89419744  0.95208811
   0.55856244  0.78250604  0.04934431
   0.77362907  0.22024608  0.95256748
   0.88462171  0.10916781  0.04873681
   0.77434378  0.55053910  0.95053523
   0.88363349  0.44060035  0.04941471
   0.77547012  0.89096675  0.95080405
   0.88802804  0.77814591  0.05034651
unknown system                          
           1
     8.267735    4.781343    0.000000
    -8.273186    4.790763    0.000000
     0.000000    0.000000   30.000000
   V    Mo   W    S 
   3   3   3  18
Direct configuration=     5
   0.66568615  0.33734209 -0.00056685
   0.66236667 -0.00478914 -0.00014073
   0.32776078 -0.00480614 -0.00015650
   0.32128800  0.64963101  0.00009082
   0.00680413  0.66776697  0.00028114
   0.32929866  0.34469953 -0.00017138
   0.00499969 -0.00292757  0.00039433
   1.01869342  0.34986174  0.00009878
   0.66066795  0.66113266  0.00001354
   0.10925951  0.22167282  0.94719310
   0.22601644  0.10845277  0.05109765
   0.11066623  0.55503661  0.94541766
   0.22147534  0.44416911  0.05581993
   0.11801489  0.89257692  0.94769174
   0.22685394  0.78476661  0.05189781
   0.44680779  0.21927192  0.95109172
   0.55494051  0.11106338  0.04819674
   0.44516979  0.55683539  0.94604819
   0.55837706  0.44130981  0.05168893
   0.44632628  0.89379340  0.95063166
   0.55783291  0.78266469  0.05106666
   0.77410851  0.22058060  0.95175883
   0.88452613  0.10984170  0.04963787
   0.77434389  0.54976882  0.94864756
   0.88297934  0.44004566  0.05118999
   0.77519115  0.89107827  0.94916930
   0.88775930  0.77737483  0.05191141
unknown system                          
           1
     8.263571    4.777413    0.000000
    -8.269641    4.787899    0.000000
     0.000000    0.000000   30.000000
   V    Mo   W    S 
   3   3   3  18
Direct configuration=     6
   0.66549048  0.33761466 -0.00058953
   0.66148916 -0.00558751 -0.00015106
   0.32689949 -0.00579383 -0.00011119
   0.32137486  0.64916446  0.00006400
   0.00754211  0.66861676  0.00024338
   0.32940161  0.34604995 -0.00004737
   0.00500242 -0.00444833  0.00041190
   1.01967985  0.35080260  0.00015929
   0.65989757  0.66084784 -0.00002196
   0.10933339  0.22192027  0.94720860
   0.22650368  0.10931998  0.05097900
   0.11078470  0.55547809  0.94506780
   0.22161701  0.44423685  0.05636541
   0.11793679  0.89233104  0.94747782
   0.22720780  0.78404008  0.05196845
   0.44585787  0.21991147  0.95122653
   0.55475355  0.11101801  0.04819495
   0.44487961  0.55705173  0.94580407
   0.55773144  0.44119290  0.05174801
   0.44541831  0.89240535  0.95063793
   0.55676995  0.78175838  0.05107344
   0.77560750  0.22144543  0.95200559
   0.88547157  0.11083667  0.04932115
   0.77469887  0.55035191  0.94865376
   0.88377657  0.44022853  0.05115624
   0.77545219  0.89070252  0.94918776
   0.88763610  0.77671867  0.05196594
unknown system                          
           1
     8.267825    4.779898    0.000000
    -8.275001    4.792299    0.000000
     0.000000    0.000000   30.000000
   V    Mo   W    S 
   3   3   3  18
Direct configuration=     7
   0.66517907  0.33788793 -0.00067406
   0.66013189 -0.00657452 -0.00015549
   0.32581597 -0.00718114 -0.00005559
   0.32088526  0.64784903  0.00004504
   0.00867759  0.66976453  0.00018027
   0.32971902  0.34816694 -0.00000991
   0.00502368 -0.00662466  0.00045651
   1.02166050  0.35294826  0.00015525
   0.65869821  0.66030192 -0.00008787
   0.10941706  0.22199935  0.94735406
   0.22689479  0.10994166  0.05083923
   0.11089050  0.55578424  0.94483958
   0.22174667  0.44449357  0.05682381
   0.11801373  0.89214311  0.94717723
   0.22752568  0.78360052  0.05208002
   0.44505599  0.22036847  0.95143620
   0.55457967  0.11095790  0.04815324
   0.44472492  0.55720908  0.94554782
   0.55734938  0.44121685  0.05186161
   0.44476612  0.89144322  0.95057827
   0.55608780  0.78115298  0.05115120
   0.77671183  0.22204300  0.95229516
   0.88623875  0.11147793  0.04893643
   0.77496311  0.55082087  0.94869258
   0.88438547  0.44057235  0.05113784
   0.77565735  0.89036935  0.94919564
   0.88741443  0.77608171  0.05204582
unknown system                          
           1
     8.271370    4.782335    0.000000
    -8.280176    4.797555    0.000000
     0.000000    0.000000   30.000000
   V    Mo   W    S 
   3   3   3  18
Direct configuration=     8
   0.66502025  0.33790367 -0.00070887
   0.65948211 -0.00693713 -0.00015394
   0.32546407 -0.00773466 -0.00003609
   0.32096632  0.64772980  0.00003773
   0.00909504  0.67029011  0.00017549
   0.33009130  0.34891513  0.00002114
   0.00492834 -0.00766729  0.00048129
   1.02207038  0.35361201  0.00018494
   0.65824843  0.66014503 -0.00010864
   0.10943150  0.22198323  0.94747790
   0.22698794  0.11009796  0.05073757
   0.11095508  0.55593789  0.94478806
   0.22179161  0.44457933  0.05690920
   0.11806555  0.89210452  0.94708423
   0.22761938  0.78347274  0.05209420
   0.44480038  0.22047527  0.95154759
   0.55452000  0.11091901  0.04810591
   0.44471197  0.55730452  0.94547889
   0.55727124  0.44125298  0.05187272
   0.44460865  0.89122512  0.95056147
   0.55594803  0.78099019  0.05116280
   0.77702024  0.22219497  0.95242666
   0.88648970  0.11161544  0.04873930
   0.77503064  0.55097985  0.94874799
   0.88458124  0.44071759  0.05109316
   0.77572170  0.89029085  0.94922915
   0.88729337  0.77581634  0.05205005
unknown system                          
           1
     8.271874    4.782401    0.000000
    -8.281597    4.799207    0.000000
     0.000000    0.000000   30.000000
   V    Mo   W    S 
   3   3   3  18
Direct configuration=     9
   0.66481515  0.33792927 -0.00075697
   0.65864250 -0.00741274 -0.00015384
   0.32500700 -0.00843521 -0.00001669
   0.32103052  0.64752232  0.00002527
   0.00964057  0.67094815  0.00017926
   0.33056117  0.34989843  0.00006002
   0.00480736 -0.00900063  0.00051630
   1.02261848  0.35448724  0.00022630
   0.65768070  0.65995261 -0.00012972
   0.10943987  0.22196249  0.94759804
   0.22711871  0.11026466  0.05064606
   0.11104672  0.55614411  0.94466657
   0.22186108  0.44468238  0.05706922
   0.11817478  0.89207738  0.94692685
   0.22775241  0.78336876  0.05215771
   0.44451948  0.22056718  0.95165239
   0.55444157  0.11086626  0.04808030
   0.44469714  0.55743562  0.94534312
   0.55719553  0.44127752  0.05192643
   0.44445981  0.89102856  0.95050463
   0.55581812  0.78084019  0.05121436
   0.77734172  0.22234313  0.95256151
   0.88675691  0.11175032  0.04851768
   0.77509805  0.55113616  0.94877919
   0.88477417  0.44087407  0.05107671
   0.77578035  0.89022624  0.94923824
   0.88713459  0.77547999  0.05209095
unknown system                          
           1
     8.265158    4.778581    0.000000
    -8.274890    4.795404    0.000000
     0.000000    0.000000   30.000000
   V    Mo   W    S 
   3   3   3  18
Direct configuration=    10
   0.66460990  0.33788368 -0.00080605
   0.65783958 -0.00782117 -0.00015063
   0.32464625 -0.00903862  0.00000123
   0.32112117  0.64738619  0.00001154
   0.01013861  0.67153835  0.00016437
   0.33106820  0.35077372  0.00007549
   0.00465019 -0.01023336  0.00053059
   1.02304612  0.35527957  0.00024437
   0.65717378  0.65981386 -0.00016689
   0.10945083  0.22193719  0.94777640
   0.22718233  0.11037356  0.05052596
   0.11111691  0.55628076  0.94463797
   0.22192327  0.44478962  0.05713135
   0.11824388  0.89204083  0.94683348
   0.22784390  0.78329160  0.05218425
   0.44429522  0.22062110  0.95176635
   0.55437190  0.11080553  0.04803593
   0.44470615  0.55753828  0.94528121
   0.55716375  0.44134510  0.05194383
   0.44438323  0.89092365  0.95046724
   0.55576520  0.78074462  0.05123594
   0.77758111  0.22243031  0.95269937
   0.88698727  0.11183335  0.04828936
   0.77515271  0.55128220  0.94885230
   0.88493604  0.44103184  0.05104007
   0.77583116  0.89017233  0.94928429
   0.88698580  0.77519038  0.05211060
unknown system                          
           1
     8.273381    4.782857    0.000000
    -8.285557    4.803905    0.000000
     0.000000    0.000000   30.000000
   V    Mo   W    S 
   3   3   3  18
Direct configuration=    11
   0.66460488  0.33792015 -0.00081884
   0.65774318 -0.00792501 -0.00015347
   0.32457137 -0.00917496  0.00000324
   0.32103506  0.64724820  0.00000420
   0.01026358  0.67162310  0.00014929
   0.33110360  0.35100193  0.00006653
   0.00463060 -0.01043797  0.00053316
   1.02324495  0.35552559  0.00023095
   0.65704875  0.65978000 -0.00018013
   0.10945481  0.22195170  0.94780598
   0.22718199  0.11039643  0.05050863
   0.11112142  0.55628351  0.94464348
   0.22192228  0.44481060  0.05715555
   0.11823523  0.89203446  0.94682065
   0.22785570  0.78325794  0.05219039
   0.44424573  0.22064622  0.95179210
   0.55437382  0.11080032  0.04802418
   0.44469371  0.55754876  0.94528011
   0.55714624  0.44135072  0.05195170
   0.44435552  0.89086872  0.95046853
   0.55573727  0.78071030  0.05123345
   0.77765207  0.22245352  0.95273403
   0.88703706  0.11186359  0.04824960
   0.77516002  0.55131640  0.94886595
   0.88498530  0.44105534  0.05103484
   0.77584627  0.89014889  0.94929897
   0.88696403  0.77515600  0.05210681
unknown system                          
           1
     8.277429    4.785038    0.000000
    -8.291489    4.809345    0.000000
     0.000000    0.000000   30.000000
   V    Mo   W    S 
   3   3   3  18
Direct configuration=    12
   0.66414194  0.33783679 -0.00090778
   0.65613320 -0.00853910 -0.00013704
   0.32386971 -0.01022934  0.00003648
   0.32135120  0.64724237 -0.00001336
   0.01118486  0.67268771  0.00015150
   0.33231911  0.35257947  0.00011848
   0.00432718 -0.01278961  0.00055515
   1.02376620  0.35687841  0.00030263
   0.65615412  0.65938608 -0.00023875
   0.10946198  0.22185801  0.94813465
   0.22730536  0.11053480  0.05029294
   0.11129287  0.55657919  0.94455570
   0.22206755  0.44501176  0.05724986
   0.11844287  0.89197476  0.94662737
   0.22803844  0.78318845  0.05225200
   0.44393176  0.22066762  0.95197084
   0.55419544  0.11072675  0.04797762
   0.44474155  0.55776993  0.94512719
   0.55717007  0.44147225  0.05199127
   0.44422042  0.89077761  0.95034372
   0.55568065  0.78055281  0.05131509
   0.77797063  0.22260833  0.95294097
   0.88745366  0.11196953  0.04784855
   0.77522132  0.55149444  0.94899375
   0.88516490  0.44131360  0.05098452
   0.77593338  0.89008876  0.94934809
   0.88667409  0.77457307  0.05217847
unknown system                          
           1
     8.277876    4.785311    0.000000
    -8.291742    4.809283    0.000000
     0.000000    0.000000   30.000000
   V    Mo   W    S 
   3   3   3  18
Direct configuration=    13
   0.66383498  0.33776601 -0.00096944
   0.65491099 -0.00912720 -0.00011912
   0.32343972 -0.01103736  0.00005981
   0.32163551  0.64734926 -0.00002733
   0.01189847  0.67338136  0.00015495
   0.33330285  0.35381773  0.00016214
   0.00391882 -0.01456686  0.00057080
   1.02414223  0.35792417  0.00036393
   0.65545444  0.65924185 -0.00028075
   0.10946890  0.22178516  0.94837255
   0.22736807  0.11066775  0.05015389
   0.11142417  0.55682079  0.94446219
   0.22218249  0.44515644  0.05733613
   0.11857560  0.89189641  0.94644759
   0.22816555  0.78309212  0.05233345
   0.44367255  0.22066315  0.95205830
   0.55409301  0.11064672  0.04796801
   0.44476290  0.55796641  0.94498284
   0.55719148  0.44155223  0.05206417
   0.44418714  0.89073301  0.95022849
   0.55568073  0.78049991  0.05138344
   0.77817388  0.22262928  0.95307787
   0.88770197  0.11201679  0.04755047
   0.77530985  0.55164917  0.94906143
   0.88529352  0.44150459  0.05098244
   0.77597313  0.89008544  0.94937193
   0.88645149  0.77410011  0.05224973
unknown system                          
           1
     8.278884    4.785289    0.000000
    -8.295517    4.814044    0.000000
     0.000000    0.000000   30.000000
   V    Mo   W    S 
   3   3   3  18
Direct configuration=    14
   0.66386058  0.33776339 -0.00095900
   0.65502299 -0.00901765 -0.00012194
   0.32346130 -0.01096229  0.00005938
   0.32160360  0.64728062 -0.00002244
   0.01179159  0.67337847  0.00015942
   0.33315073  0.35369353  0.00015532
   0.00402273 -0.01441481  0.00057625
   1.02413144  0.35782243  0.00036090
   0.65553321  0.65921990 -0.00027631
   0.10946168  0.22178899  0.94834165
   0.22738926  0.11065411  0.05017576
   0.11140386  0.55679787  0.94447423
   0.22215847  0.44513258  0.05732957
   0.11857762  0.89191458  0.94645804
   0.22815784  0.78311192  0.05231278
   0.44370115  0.22066414  0.95205848
   0.55410135  0.11067166  0.04796166
   0.44476362  0.55793307  0.94500234
   0.55718164  0.44152964  0.05205152
   0.44416717  0.89071923  0.95025238
   0.55567430  0.78049052  0.05136135
   0.77816631  0.22266216  0.95306587
   0.88769153  0.11201274  0.04757984
   0.77530066  0.55162876  0.94905163
   0.88528578  0.44149074  0.05096825
   0.77597584  0.89007226  0.94938369
   0.88647821  0.77417590  0.05223923
unknown system                          
           1
     8.271160    4.781248    0.000000
    -8.283873    4.803224    0.000000
     0.000000    0.000000   30.000000
   V    Mo   W    S 
   3   3   3  18
Direct configuration=    15
   0.66331006  0.33752693 -0.00107465
   0.65298119 -0.00985277 -0.00009770
   0.32281425 -0.01216386  0.00008841
   0.32205453  0.64742472 -0.00006814
   0.01294705  0.67447027  0.00014348
   0.33472788  0.35559713  0.00020158
   0.00345972 -0.01710941  0.00057838
   1.02468982  0.35945137  0.00042464
   0.65443393  0.65897566 -0.00036317
   0.10948832  0.22168793  0.94879929
   0.22741732  0.11079615  0.04989742
   0.11162690  0.55713771  0.94442825
   0.22237291  0.44538497  0.05739078
   0.11876287  0.89176931  0.94625181
   0.22833920  0.78298099  0.05239521
   0.44332498  0.22064355  0.95222602
   0.55390234  0.11049473  0.04792692
   0.44483845  0.55824759  0.94484934
   0.55724620  0.44173708  0.05212197
   0.44417691  0.89072847  0.95010595
   0.55574644  0.78043245  0.05142996
   0.77842789  0.22265321  0.95331217
   0.88808079  0.11203222  0.04706009
   0.77540582  0.55186711  0.94922580
   0.88548796  0.44181233  0.05093836
   0.77603635  0.89006371  0.94947906
   0.88611439  0.77342492  0.05232866
unknown system                          
           1
     8.282477    4.787529    0.000000
    -8.299793    4.817465    0.000000
     0.000000    0.000000   30.000000
   V    Mo   W    S 
   3   3   3  18
Direct configuration=    16
   0.66417068  0.33787093 -0.00092311
   0.65578002 -0.00885505 -0.00015187
   0.32365330 -0.01068324  0.00005102
   0.32130844  0.64696477 -0.00003176
   0.01139039  0.67317705  0.00011446
   0.33237783  0.35313354  0.00009740
   0.00430399 -0.01361568  0.00059023
   1.02417603  0.35745792  0.00027380
   0.65589524  0.65941747 -0.00027395
   0.10946156  0.22189888  0.94818739
   0.22739029  0.11059334  0.05026687
   0.11129721  0.55664843  0.94455181
   0.22205760  0.44505625  0.05732745
   0.11847106  0.89197932  0.94655747
   0.22808457  0.78314797  0.05226286
   0.44377984  0.22069118  0.95204415
   0.55420278  0.11068842  0.04793002
   0.44474052  0.55780970  0.94512364
   0.55708033  0.44146840  0.05201620
   0.44419587  0.89066482  0.95037163
   0.55561264  0.78047903  0.05129457
   0.77815875  0.22266278  0.95301798
   0.88756985  0.11202648  0.04775029
   0.77525361  0.55161055  0.94899534
   0.88530322  0.44143632  0.05097238
   0.77592879  0.89001313  0.94938545
   0.88657004  0.77447172  0.05219821
unknown system                          
           1
     8.280191    4.786128    0.000000
    -8.297987    4.816894    0.000000
     0.000000    0.000000   30.000000
   V    Mo   W    S 
   3   3   3  18
Direct configuration=    17
   0.66337148  0.33764982 -0.00107765
   0.65298565 -0.00993085 -0.00008943
   0.32273357 -0.01226629  0.00009866
   0.32206576  0.64747129 -0.00005056
   0.01293681  0.67450393  0.00015959
   0.33478678  0.35566184  0.00023574
   0.00339723 -0.01727642  0.00059278
   1.02467738  0.35950568  0.00046167
   0.65443825  0.65893762 -0.00034715
   0.10946413  0.22165242  0.94879242
   0.22744419  0.11082335  0.04989134
   0.11163860  0.55721034  0.94436237
   0.22235103  0.44537978  0.05742168
   0.11880356  0.89180584  0.94620332
   0.22834005  0.78295538  0.05242199
   0.44330891  0.22066535  0.95224650
   0.55391167  0.11051569  0.04792267
   0.44481997  0.55826913  0.94478992
   0.55722084  0.44171492  0.05212234
   0.44413468  0.89068343  0.95006793
   0.55569001  0.78039283  0.05146770
   0.77848126  0.22269255  0.95331557
   0.88815614  0.11207581  0.04704546
   0.77539148  0.55186212  0.94920461
   0.88550623  0.44183332  0.05094298
   0.77607887  0.89007545  0.94944007
   0.88607991  0.77335011  0.05235738
unknown system                          
           1
     8.278019    4.784640    0.000000
    -8.298212    4.819552    0.000000
     0.000000    0.000000   30.000000
   V    Mo   W    S 
   3   3   3  18
Direct configuration=    18
   0.66324136  0.33763489 -0.00111032
   0.65251420 -0.01013458 -0.00008312
   0.32257820 -0.01254440  0.00010139
   0.32215831  0.64752367 -0.00006736
   0.01321954  0.67470321  0.00015429
   0.33521620  0.35613338  0.00023783
   0.00321957 -0.01790308  0.00058147
   1.02479885  0.35989999  0.00046905
   0.65416604  0.65884973 -0.00037288
   0.10947383  0.22162873  0.94891501
   0.22742991  0.11085028  0.04982027
   0.11168737  0.55726849  0.94436331
   0.22240287  0.44544100  0.05742740
   0.11883673  0.89176887  0.94617053
   0.22837154  0.78292670  0.05244140
   0.44324240  0.22066244  0.95228908
   0.55386883  0.11049003  0.04791167
   0.44483249  0.55833513  0.94476753
   0.55725800  0.44176636  0.05213885
   0.44413680  0.89070076  0.95003093
   0.55571449  0.78037542  0.05148888
   0.77852868  0.22269829  0.95337461
   0.88826124  0.11208708  0.04692714
   0.77541216  0.55190999  0.94925071
   0.88553540  0.44189538  0.05093705
   0.77610240  0.89006809  0.94946109
   0.88600703  0.77317861  0.05237407
unknown system                          
           1
     8.279915    4.785822    0.000000
    -8.300622    4.821623    0.000000
     0.000000    0.000000   30.000000
   V    Mo   W    S 
   3   3   3  18
Direct configuration=    19
   0.66258463  0.33745231 -0.00123490
   0.65046852 -0.01090925 -0.00004830
   0.32196685 -0.01362841  0.00011883
   0.32264071  0.64787382 -0.00011535
   0.01443853  0.67553937  0.00015683
   0.33707479  0.35801551  0.00028001
   0.00250116 -0.02048115  0.00054650
   1.02519257  0.36144057  0.00054029
   0.65304464  0.65849523 -0.00045989
   0.10951657  0.22150239  0.94940248
   0.22739537  0.11097324  0.04953130
   0.11191676  0.55754902  0.94432131
   0.22264949  0.44569484  0.05745047
   0.11901091  0.89159286  0.94600091
   0.22854264  0.78282511  0.05253302
   0.44295260  0.22062392  0.95242854
   0.55365130  0.11036916  0.04789669
   0.44490282  0.55863978  0.94461915
   0.55742929  0.44197479  0.05222056
   0.44414384  0.89080162  0.94984687
   0.55583709  0.78033681  0.05158979
   0.77868959  0.22269249  0.95360108
   0.88863994  0.11210226  0.04643279
   0.77551921  0.55209119  0.94944042
   0.88563138  0.44213440  0.05091837
   0.77616925  0.89007909  0.94953408
   0.88570398  0.77243347  0.05244804
unknown system                          
           1
     8.282989    4.787766    0.000000
    -8.305477    4.826651    0.000000
     0.000000    0.000000   30.000000
   V    Mo   W    S 
   3   3   3  18
Direct configuration=    20
   0.66250548  0.33746157 -0.00124953
   0.65022087 -0.01099296 -0.00004055
   0.32187338 -0.01377678  0.00012255
   0.32271072  0.64798363 -0.00011553
   0.01459269  0.67563063  0.00016202
   0.33733048  0.35821020  0.00029602
   0.00241024 -0.02078961  0.00054305
   1.02518851  0.36160514  0.00055804
   0.65293564  0.65844502 -0.00046454
   0.10951417  0.22146899  0.94945426
   0.22740495  0.11098760  0.04949682
   0.11195203  0.55760336  0.94429788
   0.22268605  0.44572824  0.05746069
   0.11905438  0.89157293  0.94597197
   0.22857176  0.78282011  0.05254884
   0.44292437  0.22061226  0.95244502
   0.55361603  0.11035935  0.04789439
   0.44491515  0.55868914  0.94458460
   0.55745678  0.44198993  0.05223431
   0.44413667  0.89081937  0.94981612
   0.55584241  0.78032679  0.05160986
   0.77869807  0.22269397  0.95362467
   0.88868634  0.11210430  0.04637561
   0.77552942  0.55210035  0.94945587
   0.88562624  0.44215999  0.05092201
   0.77617333  0.89008458  0.94953039
   0.88565831  0.77231636  0.05246504
unknown system                          
           1
     8.260610    4.774988    0.000000
    -8.283259    4.814159    0.000000
     0.000000    0.000000   30.000000
   V    Mo   W    S 
   3   3   3  18
Direct configuration=    21
   0.66198606  0.33724941 -0.00132537
   0.64868944 -0.01169602 -0.00000310
   0.32155204 -0.01444511  0.00015047
   0.32308818  0.64829967 -0.00012521
   0.01543244  0.67600600  0.00019513
   0.33870246  0.35957885  0.00038553
   0.00157019 -0.02280054  0.00051861
   1.02551348  0.36274120  0.00066214
   0.65208668  0.65835156 -0.00049754
   0.10956570  0.22135468  0.94983587
   0.22733152  0.11120608  0.04928061
   0.11214055  0.55784912  0.94418554
   0.22290905  0.44593738  0.05749120
   0.11912410  0.89135780  0.94574679
   0.22871280  0.78263777  0.05269877
   0.44262317  0.22064658  0.95247089
   0.55348291  0.11025534  0.04794794
   0.44496730  0.55899910  0.94435060
   0.55759505  0.44216402  0.05235257
   0.44421621  0.89089311  0.94958833
   0.55600143  0.78037843  0.05173415
   0.77887951  0.22264523  0.95378196
   0.88895521  0.11214113  0.04597737
   0.77571537  0.55232286  0.94956972
   0.88574377  0.44233753  0.05093541
   0.77621051  0.89014418  0.94953972
   0.88541934  0.77165910  0.05255181
unknown system                          
           1
     8.284474    4.789433    0.000000
    -8.308945    4.831755    0.000000
     0.000000    0.000000   30.000000
   V    Mo   W    S 
   3   3   3  18
Direct configuration=    22
   0.66137352  0.33650730 -0.00143228
   0.64698957 -0.01299969 -0.00001313
   0.32168265 -0.01475692  0.00015596
   0.32338995  0.64858830 -0.00021037
   0.01628897  0.67585797  0.00019231
   0.33993264  0.36107616  0.00044504
  -0.00004469 -0.02530860  0.00040029
   1.02607862  0.36410786  0.00070165
   0.65121243  0.65892727 -0.00053009
   0.10973405  0.22131610  0.95034682
   0.22696651  0.11170915  0.04899387
   0.11232474  0.55796433  0.94408722
   0.22322599  0.44624093  0.05762534
   0.11880594  0.89091246  0.94550942
   0.22881250  0.78218796  0.05296780
   0.44217785  0.22104557  0.95239230
   0.55357770  0.11007629  0.04812571
   0.44501065  0.55938226  0.94402772
   0.55774974  0.44248427  0.05253409
   0.44467257  0.89101102  0.94927267
   0.55636874  0.78076166  0.05196562
   0.77932082  0.22248723  0.95401556
   0.88913965  0.11228662  0.04549096
   0.77607778  0.55275639  0.94975861
   0.88604104  0.44248976  0.05099716
   0.77615686  0.89030026  0.94948612
   0.88514766  0.77080255  0.05269352
unknown system                          
           1
     8.289503    4.794534    0.000000
    -8.314875    4.838433    0.000000
     0.000000    0.000000   30.000000
   V    Mo   W    S 
   3   3   3  18
Direct configuration=    23
   0.66103979  0.33702727 -0.00146938
   0.64646302 -0.01251697  0.00004627
   0.32089683 -0.01564100  0.00014511
   0.32377837  0.64904378 -0.00020359
   0.01704520  0.67677119  0.00019105
   0.34099848  0.36160220  0.00043691
   0.00068487 -0.02538540  0.00040999
   1.02578653  0.36424422  0.00074639
   0.65069810  0.65788981 -0.00059486
   0.10965437  0.22114193  0.95043015
   0.22721598  0.11135976  0.04889578
   0.11246884  0.55818682  0.94414066
   0.22330461  0.44627003  0.05749215
   0.11932937  0.89108800  0.94561984
   0.22897243  0.78258995  0.05280051
   0.44228856  0.22057785  0.95260228
   0.55315592  0.11008276  0.04793257
   0.44504206  0.55938069  0.94421027
   0.55792125  0.44246435  0.05246261
   0.44419095  0.89111651  0.94939310
   0.55615204  0.78034859  0.05184929
   0.77892555  0.22258116  0.95404261
   0.88929544  0.11210175  0.04541987
   0.77585584  0.55251196  0.94982905
   0.88576594  0.44256291  0.05093357
   0.77621591  0.89013316  0.94961107
   0.88506820  0.77068118  0.05262662
unknown system                          
           1
     8.306311    4.812852    0.000000
    -8.331395    4.856325    0.000000
     0.000000    0.000000   30.000000
   V    Mo   W    S 
   3   3   3  18
Direct configuration=    24
   0.65996566  0.33687496 -0.00159771
   0.64438804 -0.01313897  0.00013841
   0.32020986 -0.01688376  0.00016401
   0.32447127  0.64987333 -0.00021536
   0.01870941  0.67744244  0.00024682
   0.34317613  0.36337907  0.00057334
  -0.00022180 -0.02776713  0.00035276
   1.02604145  0.36563371  0.00090067
   0.64924962  0.65736157 -0.00063960
   0.10977851  0.22088652  0.95105356
   0.22711481  0.11157139  0.04846106
   0.11284815  0.55855642  0.94405597
   0.22378318  0.44664963  0.05741338
   0.11961058  0.89077270  0.94541189
   0.22931761  0.78254302  0.05293124
   0.44188521  0.22044727  0.95270404
   0.55273374  0.10989639  0.04791658
   0.44509562  0.55984061  0.94397092
   0.55833805  0.44278703  0.05259864
   0.44409982  0.89135717  0.94916060