       N       E                     dE             d eps       ncg     rms          rms(c)
DAV:   1     0.112664435002E+04    0.11266E+04   -0.35975E+04  8160   0.577E+02
DAV:   2    -0.114645712286E+01   -0.11278E+04   -0.10854E+04 11120   0.173E+02
DAV:   3    -0.199726349974E+03   -0.19858E+03   -0.19068E+03 10960   0.822E+01
DAV:   4    -0.208925821248E+03   -0.91995E+01   -0.89018E+01 12040   0.261E+01
DAV:   5    -0.209275007307E+03   -0.34919E+00   -0.34817E+00 11720   0.370E+00    0.275E+01
DAV:   6    -0.237140748680E+03   -0.27866E+02   -0.10767E+02 12720   0.605E+01    0.594E+01
DAV:   7    -0.196663300132E+03    0.40477E+02   -0.17743E+02 13120   0.152E+02    0.204E+01
DAV:   8    -0.190083191573E+03    0.65801E+01   -0.20307E+01 11840   0.134E+01    0.137E+01
DAV:   9    -0.188318462313E+03    0.17647E+01   -0.35106E+00 12080   0.623E+00    0.940E+00
DAV:  10    -0.187127576256E+03    0.11909E+01   -0.17819E+00 13320   0.758E+00    0.339E+00
DAV:  11    -0.187012551939E+03    0.11502E+00   -0.65574E-01 12560   0.250E+00    0.236E+00
DAV:  12    -0.187031004486E+03   -0.18453E-01   -0.46164E-01 12920   0.325E+00    0.352E+00
DAV:  13    -0.186933794181E+03    0.97210E-01   -0.29497E-01 13200   0.316E+00    0.192E+00
DAV:  14    -0.186903949750E+03    0.29844E-01   -0.10807E-01 12800   0.174E+00    0.102E+00
DAV:  15    -0.186898379794E+03    0.55700E-02   -0.44991E-02 12480   0.113E+00    0.100E+00
DAV:  16    -0.186891940651E+03    0.64391E-02   -0.16721E-02 12840   0.684E-01    0.489E-01
DAV:  17    -0.186889234588E+03    0.27061E-02   -0.74478E-03 12840   0.393E-01    0.178E-01
DAV:  18    -0.186888706348E+03    0.52824E-03   -0.18791E-03 11640   0.139E-01    0.164E-01
DAV:  19    -0.186888496050E+03    0.21030E-03   -0.75772E-04 10840   0.132E-01    0.461E-02
DAV:  20    -0.186889380903E+03   -0.88485E-03   -0.83137E-04  9240   0.569E-02    0.428E-02
DAV:  21    -0.186890321390E+03   -0.94049E-03   -0.23588E-04  8320   0.536E-02    0.373E-02
DAV:  22    -0.186891071253E+03   -0.74986E-03   -0.94584E-05  6400   0.287E-02    0.329E-02
DAV:  23    -0.186892211853E+03   -0.11406E-02   -0.14140E-04  7480   0.405E-02    0.164E-02
DAV:  24    -0.186892793871E+03   -0.58202E-03   -0.26191E-05  6720   0.175E-02    0.461E-03
DAV:  25    -0.186893160691E+03   -0.36682E-03   -0.16382E-05  5600   0.892E-03    0.511E-03
DAV:  26    -0.186893407556E+03   -0.24687E-03   -0.93918E-06  6760   0.770E-03    0.155E-03
DAV:  27    -0.186893500073E+03   -0.92517E-04   -0.33022E-06  7280   0.401E-03
   1 F= -.18689350E+03 E0= -.18672282E+03  d E =-.186894E+03
       N       E                     dE             d eps       ncg     rms          rms(c)
DAV:   1    -0.187532267714E+03   -0.63886E+00   -0.27041E+02  8160   0.349E+01    0.464E+00
DAV:   2    -0.189487969143E+03   -0.19557E+01   -0.20206E+01 12280   0.155E+01    0.930E+00
DAV:   3    -0.189373002089E+03    0.11497E+00   -0.42106E+00 12440   0.122E+01    0.652E+00
DAV:   4    -0.188787183992E+03    0.58582E+00   -0.58106E-01 12560   0.449E+00    0.175E+00
DAV:   5    -0.188924341292E+03   -0.13716E+00   -0.49336E-01 12360   0.356E+00    0.577E+00
DAV:   6    -0.188751732288E+03    0.17261E+00   -0.83926E-01 12760   0.443E+00    0.195E+00
DAV:   7    -0.188719025052E+03    0.32707E-01   -0.12189E-01 11840   0.143E+00    0.104E+00
DAV:   8    -0.188709628296E+03    0.93968E-02   -0.53517E-02 12800   0.122E+00    0.118E+00
DAV:   9    -0.188699844302E+03    0.97840E-02   -0.18718E-02 11880   0.775E-01    0.304E-01
DAV:  10    -0.188699320433E+03    0.52387E-03   -0.32072E-03 12840   0.214E-01    0.185E-01
DAV:  11    -0.188698905022E+03    0.41541E-03   -0.21276E-03 11720   0.152E-01    0.120E-01
DAV:  12    -0.188698980337E+03   -0.75315E-04   -0.94041E-04 11920   0.892E-02
   2 F= -.18869898E+03 E0= -.18856072E+03  d E =-.180548E+01
       N       E                     dE             d eps       ncg     rms          rms(c)
DAV:   1    -0.190620058542E+03   -0.19212E+01   -0.30997E+01  9120   0.142E+01    0.443E+00
DAV:   2    -0.190569960251E+03    0.50098E-01   -0.27345E+00 11120   0.942E+00    0.722E+00
DAV:   3    -0.190107693820E+03    0.46227E+00   -0.13096E+00 12360   0.859E+00    0.425E+00
DAV:   4    -0.189894703447E+03    0.21299E+00   -0.70192E-01 12560   0.420E+00    0.250E+00
DAV:   5    -0.189846948182E+03    0.47755E-01   -0.33542E-01 12320   0.268E+00    0.229E+00
DAV:   6    -0.189797715178E+03    0.49233E-01   -0.11492E-01 12720   0.212E+00    0.769E-01
DAV:   7    -0.189791133805E+03    0.65814E-02   -0.13813E-02 11600   0.567E-01    0.205E-01
DAV:   8    -0.189791604391E+03   -0.47059E-03   -0.34881E-03 12360   0.275E-01    0.283E-01
DAV:   9    -0.189791225718E+03    0.37867E-03   -0.18959E-03 10960   0.283E-01    0.164E-01
DAV:  10    -0.189791478906E+03   -0.25319E-03   -0.96268E-04  9760   0.148E-01    0.128E-01
DAV:  11    -0.189791205125E+03    0.27378E-03   -0.45768E-04  8800   0.775E-02    0.214E-02
DAV:  12    -0.189791228352E+03   -0.23228E-04   -0.74341E-05  6760   0.289E-02
   3 F= -.18979123E+03 E0= -.18967467E+03  d E =-.109225E+01
       N       E                     dE             d eps       ncg     rms          rms(c)
DAV:   1    -0.191366503096E+03   -0.15753E+01   -0.74643E+01  8160   0.197E+01    0.457E+00
DAV:   2    -0.191183307932E+03    0.18320E+00   -0.53347E+00 13360   0.760E+00    0.451E+00
DAV:   3    -0.191337560617E+03   -0.15425E+00   -0.15074E+00 12200   0.905E+00    0.674E+00
DAV:   4    -0.190938456055E+03    0.39910E+00   -0.13543E+00 12400   0.764E+00    0.295E+00
DAV:   5    -0.190898653653E+03    0.39802E-01   -0.42327E-01 12280   0.396E+00    0.289E+00
DAV:   6    -0.190808086620E+03    0.90567E-01   -0.19812E-01 12320   0.313E+00    0.116E+00
DAV:   7    -0.190796694394E+03    0.11392E-01   -0.42233E-02 12560   0.108E+00    0.450E-01
DAV:   8    -0.190793329750E+03    0.33646E-02   -0.64700E-03 10360   0.334E-01    0.173E-01
DAV:   9    -0.190794081913E+03   -0.75216E-03   -0.24183E-03 12200   0.323E-01    0.306E-01
DAV:  10    -0.190793567175E+03    0.51474E-03   -0.20973E-03 11160   0.289E-01    0.102E-01
DAV:  11    -0.190793452823E+03    0.11435E-03   -0.51813E-04  9760   0.934E-02    0.470E-02
DAV:  12    -0.190793445522E+03    0.73006E-05   -0.10838E-04  7280   0.404E-02
   4 F= -.19079345E+03 E0= -.19069546E+03  d E =-.100222E+01
       N       E                     dE             d eps       ncg     rms          rms(c)
DAV:   1    -0.192259553758E+03   -0.14661E+01   -0.17029E+02  8160   0.291E+01    0.577E+00
DAV:   2    -0.191993695934E+03    0.26586E+00   -0.99584E+00 11000   0.796E+00    0.362E+00
DAV:   3    -0.192064528276E+03   -0.70832E-01   -0.18782E+00 12240   0.795E+00    0.609E+00
DAV:   4    -0.191867513058E+03    0.19702E+00   -0.15080E+00 12040   0.950E+00    0.469E+00
DAV:   5    -0.191603230249E+03    0.26428E+00   -0.62168E-01 12400   0.470E+00    0.153E+00
DAV:   6    -0.191591464489E+03    0.11766E-01   -0.15441E-01 12640   0.269E+00    0.156E+00
DAV:   7    -0.191573085946E+03    0.18379E-01   -0.85341E-02 12360   0.210E+00    0.742E-01
DAV:   8    -0.191565897382E+03    0.71886E-02   -0.14151E-02 11720   0.755E-01    0.393E-01
DAV:   9    -0.191564802361E+03    0.10950E-02   -0.46529E-03 11840   0.474E-01    0.211E-01
DAV:  10    -0.191564821262E+03   -0.18901E-04   -0.23424E-03 11480   0.200E-01    0.833E-02
DAV:  11    -0.191564763914E+03    0.57349E-04   -0.54270E-04 11000   0.866E-02
   5 F= -.19156476E+03 E0= -.19147855E+03  d E =-.771318E+00
       N       E                     dE             d eps       ncg     rms          rms(c)
DAV:   1    -0.191688229441E+03   -0.12341E+00   -0.99026E+00  8160   0.669E+00    0.773E-01
DAV:   2    -0.191752738699E+03   -0.64509E-01   -0.38141E-01 12680   0.293E+00    0.203E+00
DAV:   3    -0.191708850149E+03    0.43889E-01   -0.10232E-01 12520   0.241E+00    0.549E-01
DAV:   4    -0.191708122629E+03    0.72752E-03   -0.13622E-02 11680   0.785E-01    0.597E-01
DAV:   5    -0.191704881070E+03    0.32416E-02   -0.91543E-03 11880   0.730E-01    0.302E-01
DAV:   6    -0.191704612916E+03    0.26815E-03   -0.41933E-03 11400   0.347E-01    0.199E-01
DAV:   7    -0.191704071393E+03    0.54152E-03   -0.21218E-03 11600   0.253E-01    0.168E-01
DAV:   8    -0.191703836899E+03    0.23449E-03   -0.74053E-04  9080   0.192E-01    0.587E-02
DAV:   9    -0.191703833403E+03    0.34958E-05   -0.12274E-04  6120   0.625E-02
   6 F= -.19170383E+03 E0= -.19161942E+03  d E =-.139069E+00
       N       E                     dE             d eps       ncg     rms          rms(c)
DAV:   1    -0.191830355846E+03   -0.12652E+00   -0.10693E+01  8160   0.698E+00    0.748E-01
DAV:   2    -0.191876141314E+03   -0.45785E-01   -0.36212E-01 12760   0.257E+00    0.156E+00
DAV:   3    -0.191851240956E+03    0.24900E-01   -0.71393E-02 12560   0.208E+00    0.585E-01
DAV:   4    -0.191847627788E+03    0.36132E-02   -0.10262E-02 11720   0.669E-01    0.429E-01
DAV:   5    -0.191847149556E+03    0.47823E-03   -0.83784E-03 12160   0.706E-01    0.417E-01
DAV:   6    -0.191846170687E+03    0.97887E-03   -0.59702E-03 12000   0.477E-01    0.209E-01
DAV:   7    -0.191845241723E+03    0.92896E-03   -0.17785E-03 10320   0.170E-01    0.375E-02
DAV:   8    -0.191845262131E+03   -0.20408E-04   -0.18198E-04  7560   0.442E-02
   7 F= -.19184526E+03 E0= -.19176326E+03  d E =-.141429E+00
       N       E                     dE             d eps       ncg     rms          rms(c)
DAV:   1    -0.192003026861E+03   -0.15779E+00   -0.24413E+01  8160   0.106E+01    0.109E+00
DAV:   2    -0.192072954607E+03   -0.69928E-01   -0.83158E-01 12280   0.306E+00    0.138E+00
DAV:   3    -0.192067396581E+03    0.55580E-02   -0.10009E-01 12360   0.259E+00    0.121E+00
DAV:   4    -0.192047135104E+03    0.20261E-01   -0.24984E-02 11720   0.127E+00    0.444E-01
DAV:   5    -0.192052135812E+03   -0.50007E-02   -0.18678E-02 12040   0.107E+00    0.856E-01
DAV:   6    -0.192046089091E+03    0.60467E-02   -0.16654E-02 12440   0.962E-01    0.303E-01
DAV:   7    -0.192044317329E+03    0.17718E-02   -0.33456E-03 10480   0.252E-01    0.635E-02
DAV:   8    -0.192044358798E+03   -0.41469E-04   -0.52039E-04 11320   0.107E-01
   8 F= -.19204436E+03 E0= -.19196406E+03  d E =-.199097E+00
       N       E                     dE             d eps       ncg     rms          rms(c)
DAV:   1    -0.192161928042E+03   -0.11761E+00   -0.45739E+01  8160   0.145E+01    0.151E+00
DAV:   2    -0.192293569360E+03   -0.13164E+00   -0.16947E+00 11360   0.382E+00    0.158E+00
DAV:   3    -0.192321770089E+03   -0.28201E-01   -0.19362E-01 12280   0.372E+00    0.226E+00
DAV:   4    -0.192262599534E+03    0.59171E-01   -0.71565E-02 12280   0.237E+00    0.647E-01
DAV:   5    -0.192265262031E+03   -0.26625E-02   -0.24993E-02 12360   0.136E+00    0.867E-01
DAV:   6    -0.192258911586E+03    0.63504E-02   -0.23905E-02 12760   0.115E+00    0.444E-01
DAV:   7    -0.192257157312E+03    0.17543E-02   -0.87483E-03 11680   0.722E-01    0.346E-01
DAV:   8    -0.192255782142E+03    0.13752E-02   -0.22610E-03 11360   0.378E-01    0.789E-02
DAV:   9    -0.192255688881E+03    0.93261E-04   -0.55472E-04 10120   0.830E-02
   9 F= -.19225569E+03 E0= -.19218051E+03  d E =-.211330E+00
       N       E                     dE             d eps       ncg     rms          rms(c)
DAV:   1    -0.192302560593E+03   -0.46778E-01   -0.58980E+00  8160   0.522E+00    0.641E-01
DAV:   2    -0.192325339720E+03   -0.22779E-01   -0.25952E-01 12160   0.178E+00    0.975E-01
DAV:   3    -0.192320843061E+03    0.44967E-02   -0.38259E-02 12400   0.167E+00    0.733E-01
DAV:   4    -0.192314009674E+03    0.68334E-02   -0.90650E-03 12560   0.802E-01    0.264E-01
DAV:   5    -0.192314846186E+03   -0.83651E-03   -0.52889E-03 12040   0.621E-01    0.393E-01
DAV:   6    -0.192313064153E+03    0.17820E-02   -0.42583E-03 11720   0.493E-01    0.108E-01
DAV:   7    -0.192312927238E+03    0.13691E-03   -0.69797E-04 10600   0.159E-01    0.839E-02
DAV:   8    -0.192312868720E+03    0.58518E-04   -0.23063E-04 10120   0.126E-01
  10 F= -.19231287E+03 E0= -.19223998E+03  d E =-.571798E-01
       N       E                     dE             d eps       ncg     rms          rms(c)
DAV:   1    -0.192347609058E+03   -0.34682E-01   -0.70111E+00  8160   0.558E+00    0.627E-01
DAV:   2    -0.192376534312E+03   -0.28925E-01   -0.27823E-01 12040   0.190E+00    0.105E+00
DAV:   3    -0.192368715667E+03    0.78186E-02   -0.37775E-02 12240   0.168E+00    0.678E-01
DAV:   4    -0.192363097179E+03    0.56185E-02   -0.73376E-03 12520   0.707E-01    0.203E-01
DAV:   5    -0.192363753542E+03   -0.65636E-03   -0.36377E-03 12520   0.479E-01    0.309E-01
DAV:   6    -0.192362955158E+03    0.79838E-03   -0.30615E-03 12160   0.461E-01    0.160E-01
DAV:   7    -0.192362525419E+03    0.42974E-03   -0.86840E-04 10400   0.160E-01    0.395E-02
DAV:   8    -0.192362555028E+03   -0.29609E-04   -0.14590E-04  7360   0.937E-02
  11 F= -.19236256E+03 E0= -.19229238E+03  d E =-.496863E-01
       N       E                     dE             d eps       ncg     rms          rms(c)
DAV:   1    -0.192376481155E+03   -0.13956E-01   -0.78378E-01  8160   0.191E+00    0.261E-01
DAV:   2    -0.192379947209E+03   -0.34661E-02   -0.33438E-02 12440   0.787E-01    0.485E-01
DAV:   3    -0.192377868529E+03    0.20787E-02   -0.67613E-03 12480   0.710E-01    0.243E-01
DAV:   4    -0.192377191324E+03    0.67721E-03   -0.13863E-03 11800   0.291E-01    0.130E-01
DAV:   5    -0.192377193604E+03   -0.22807E-05   -0.95203E-04 10680   0.262E-01
  12 F= -.19237719E+03 E0= -.19230762E+03  d E =-.146386E-01
       N       E                     dE             d eps       ncg     rms          rms(c)
DAV:   1    -0.192396764728E+03   -0.19573E-01   -0.20156E+00  8160   0.302E+00    0.395E-01
DAV:   2    -0.192406087942E+03   -0.93232E-02   -0.77801E-02 12280   0.124E+00    0.789E-01
DAV:   3    -0.192400140027E+03    0.59479E-02   -0.15202E-02 12520   0.109E+00    0.332E-01
DAV:   4    -0.192398726539E+03    0.14135E-02   -0.25557E-03 12400   0.369E-01    0.162E-01
DAV:   5    -0.192398930577E+03   -0.20404E-03   -0.19171E-03 12080   0.358E-01    0.217E-01
DAV:   6    -0.192398426850E+03    0.50373E-03   -0.13648E-03 11360   0.294E-01    0.736E-02
DAV:   7    -0.192398347730E+03    0.79119E-04   -0.23515E-04  7680   0.105E-01
  13 F= -.19239835E+03 E0= -.19232969E+03  d E =-.211541E-01
       N       E                     dE             d eps       ncg     rms          rms(c)
DAV:   1    -0.192404813508E+03   -0.63867E-02   -0.20242E-01  8160   0.103E+00    0.231E-01
DAV:   2    -0.192405292971E+03   -0.47946E-03   -0.13171E-02 11600   0.583E-01    0.355E-01
DAV:   3    -0.192404188455E+03    0.11045E-02   -0.40832E-03 11360   0.562E-01    0.204E-01
DAV:   4    -0.192403790342E+03    0.39811E-03   -0.14959E-03 10400   0.312E-01    0.157E-01
DAV:   5    -0.192403740506E+03    0.49836E-04   -0.11261E-03 10080   0.290E-01    0.152E-01
DAV:   6    -0.192403441576E+03    0.29893E-03   -0.56760E-04  9760   0.178E-01    0.287E-02
DAV:   7    -0.192403441598E+03   -0.22526E-07   -0.72692E-05  6120   0.411E-02
  14 F= -.19240344E+03 E0= -.19233550E+03  d E =-.509387E-02
       N       E                     dE             d eps       ncg     rms          rms(c)
DAV:   1    -0.192414128436E+03   -0.10687E-01   -0.75873E-01  8160   0.185E+00    0.228E-01
DAV:   2    -0.192418435530E+03   -0.43071E-02   -0.31578E-02 12360   0.792E-01    0.505E-01
DAV:   3    -0.192415824631E+03    0.26109E-02   -0.59996E-03 12680   0.676E-01    0.184E-01
DAV:   4    -0.192415416725E+03    0.40791E-03   -0.82413E-04 10400   0.195E-01    0.881E-02
DAV:   5    -0.192415422339E+03   -0.56146E-05   -0.53843E-04 10200   0.166E-01
  15 F= -.19241542E+03 E0= -.19234815E+03  d E =-.119807E-01
       N       E                     dE             d eps       ncg     rms          rms(c)
DAV:   1    -0.192432863849E+03   -0.17447E-01   -0.46819E+00  8160   0.463E+00    0.610E-01
DAV:   2    -0.192455108500E+03   -0.22245E-01   -0.20086E-01 12360   0.192E+00    0.117E+00
DAV:   3    -0.192442513107E+03    0.12595E-01   -0.36268E-02 12400   0.166E+00    0.520E-01
DAV:   4    -0.192439154887E+03    0.33582E-02   -0.66543E-03 12360   0.640E-01    0.306E-01
DAV:   5    -0.192439083432E+03    0.71455E-04   -0.49671E-03 11840   0.610E-01    0.327E-01
DAV:   6    -0.192437841783E+03    0.12416E-02   -0.34403E-03 12040   0.420E-01    0.916E-02
DAV:   7    -0.192437714990E+03    0.12679E-03   -0.55279E-04 10600   0.130E-01    0.640E-02
DAV:   8    -0.192437681116E+03    0.33874E-04   -0.12544E-04  8160   0.101E-01
  16 F= -.19243768E+03 E0= -.19237138E+03  d E =-.222588E-01
       N       E                     dE             d eps       ncg     rms          rms(c)
DAV:   1    -0.192444707698E+03   -0.69927E-02   -0.14913E+00  8160   0.257E+00    0.293E-01
DAV:   2    -0.192451964144E+03   -0.72564E-02   -0.62355E-02 11160   0.103E+00    0.556E-01
DAV:   3    -0.192449036678E+03    0.29275E-02   -0.88456E-03 12120   0.812E-01    0.273E-01
DAV:   4    -0.192448234668E+03    0.80201E-03   -0.16298E-03 11720   0.331E-01    0.137E-01
DAV:   5    -0.192448208582E+03    0.26086E-04   -0.88514E-04 11040   0.262E-01
  17 F= -.19244821E+03 E0= -.19238287E+03  d E =-.105275E-01
       N       E                     dE             d eps       ncg     rms          rms(c)
DAV:   1    -0.192450658379E+03   -0.24237E-02   -0.28611E+00  8160   0.358E+00    0.425E-01
DAV:   2    -0.192462604787E+03   -0.11946E-01   -0.13054E-01 11360   0.130E+00    0.609E-01
DAV:   3    -0.192460662513E+03    0.19423E-02   -0.15020E-02 11880   0.106E+00    0.479E-01
DAV:   4    -0.192457808966E+03    0.28535E-02   -0.41169E-03 12200   0.552E-01    0.179E-01
DAV:   5    -0.192458165332E+03   -0.35637E-03   -0.22819E-03 11920   0.404E-01    0.251E-01
DAV:   6    -0.192457427899E+03    0.73743E-03   -0.17553E-03 12120   0.325E-01    0.649E-02
DAV:   7    -0.192457400932E+03    0.26968E-04   -0.24809E-04  7320   0.104E-01
  18 F= -.19245740E+03 E0= -.19239338E+03  d E =-.919235E-02
       N       E                     dE             d eps       ncg     rms          rms(c)
DAV:   1    -0.192456971094E+03    0.45681E-03   -0.22475E-01  8160   0.102E+00    0.148E-01
DAV:   2    -0.192458540046E+03   -0.15690E-02   -0.98336E-03 11600   0.534E-01    0.360E-01
DAV:   3    -0.192457140074E+03    0.14000E-02   -0.27819E-03 11920   0.450E-01    0.106E-01
DAV:   4    -0.192456977987E+03    0.16209E-03   -0.37705E-04  8800   0.136E-01    0.634E-02
DAV:   5    -0.192456994328E+03   -0.16341E-04   -0.29785E-04  8800   0.144E-01
  19 F= -.19245699E+03 E0= -.19239254E+03  d E =0.406604E-03
       N       E                     dE             d eps       ncg     rms          rms(c)
DAV:   1    -0.192457866501E+03   -0.88851E-03   -0.72051E-02  8160   0.584E-01    0.106E-01
DAV:   2    -0.192458206020E+03   -0.33952E-03   -0.42114E-03 11040   0.281E-01    0.173E-01
DAV:   3    -0.192457940461E+03    0.26556E-03   -0.10264E-03 10880   0.263E-01    0.996E-02
DAV:   4    -0.192457847118E+03    0.93343E-04   -0.32784E-04  8640   0.144E-01
  20 F= -.19245785E+03 E0= -.19239341E+03  d E =-.852789E-03
       N       E                     dE             d eps       ncg     rms          rms(c)
DAV:   1    -0.192458872882E+03   -0.93242E-03   -0.54876E-02  8160   0.503E-01    0.798E-02
DAV:   2    -0.192459577897E+03   -0.70502E-03   -0.35219E-03 12080   0.343E-01    0.211E-01
DAV:   3    -0.192458988145E+03    0.58975E-03   -0.89763E-04 10320   0.262E-01    0.352E-02
DAV:   4    -0.192458982384E+03    0.57608E-05   -0.48680E-05  5680   0.467E-02
  21 F= -.19245898E+03 E0= -.19239471E+03  d E =-.113527E-02
       N       E                     dE             d eps       ncg     rms          rms(c)
DAV:   1    -0.192459602475E+03   -0.61433E-03   -0.16468E-02  8160   0.298E-01    0.682E-02
DAV:   2    -0.192459809430E+03   -0.20695E-03   -0.13207E-03 10720   0.219E-01    0.150E-01
DAV:   3    -0.192459565475E+03    0.24395E-03   -0.42595E-04  8920   0.194E-01    0.516E-02
DAV:   4    -0.192459536494E+03    0.28980E-04   -0.68594E-05  5560   0.677E-02
  22 F= -.19245954E+03 E0= -.19239543E+03  d E =-.554110E-03
       N       E                     dE             d eps       ncg     rms          rms(c)
DAV:   1    -0.192460665704E+03   -0.11002E-02   -0.94260E-02  8160   0.654E-01    0.805E-02
DAV:   2    -0.192461011847E+03   -0.34614E-03   -0.43772E-03 10520   0.196E-01    0.883E-02
DAV:   3    -0.192461003347E+03    0.85003E-05   -0.50028E-04 10800   0.188E-01
  23 F= -.19246100E+03 E0= -.19239718E+03  d E =-.146685E-02
       N       E                     dE             d eps       ncg     rms          rms(c)
DAV:   1    -0.192461181553E+03   -0.16971E-03   -0.65635E-03  8280   0.193E-01    0.502E-02
DAV:   2    -0.192461207910E+03   -0.26357E-04   -0.31989E-04  8400   0.108E-01
  24 F= -.19246121E+03 E0= -.19239746E+03  d E =-.204563E-03
       N       E                     dE             d eps       ncg     rms          rms(c)
DAV:   1    -0.192461923148E+03   -0.74159E-03   -0.50219E-02  8160   0.490E-01    0.706E-02
DAV:   2    -0.192462127018E+03   -0.20387E-03   -0.22277E-03 11920   0.168E-01    0.106E-01
DAV:   3    -0.192462050109E+03    0.76909E-04   -0.39510E-04  9960   0.178E-01
  25 F= -.19246205E+03 E0= -.19239846E+03  d E =-.842199E-03
       N       E                     dE             d eps       ncg     rms          rms(c)
DAV:   1    -0.192462382511E+03   -0.25549E-03   -0.12628E-02  8160   0.248E-01    0.450E-02
DAV:   2    -0.192462478395E+03   -0.95884E-04   -0.65960E-04 10320   0.138E-01
  26 F= -.19246248E+03 E0= -.19239889E+03  d E =-.428287E-03
