<?xml version="1.0" encoding="ISO-8859-1"?>
<modeling>
 <generator>
  <i name="program" type="string">vasp </i>
  <i name="version" type="string">5.4.1  </i>
  <i name="subversion" type="string">05Feb16 (build Jul 05 2020 17:13:04) complex                          parallel </i>
  <i name="platform" type="string">IFC91_ompi </i>
  <i name="date" type="string">2024 05 21 </i>
  <i name="time" type="string">06:56:36 </i>
 </generator>
 <incar>
  <i type="int" name="ISTART">     0</i>
  <i type="string" name="PREC">normal</i>
  <i type="string" name="ALGO"> Normal</i>
  <i type="int" name="ISPIN">     1</i>
  <i type="int" name="ICHARG">     2</i>
  <i type="int" name="IBRION">     1</i>
  <i type="int" name="NSW">   100</i>
  <i type="int" name="ISIF">     3</i>
  <i type="int" name="ISYM">     0</i>
  <i name="SYMPREC">      0.00000001</i>
  <i name="POTIM">      0.50000000</i>
  <i type="logical" name="LREAL"> F  </i>
  <i type="logical" name="LPLANE"> F  </i>
  <i type="int" name="ISMEAR">     0</i>
  <i type="logical" name="LWAVE"> F  </i>
  <i type="logical" name="LCHARG"> F  </i>
  <v type="int" name="KPOINT_BSE">    -1     0     0     0</v>
 </incar>
 <kpoints>
  <generation param="Gamma">
   <v type="int" name="divisions">       8        8        1 </v>
   <v name="usershift">      0.00000000       0.00000000       0.00000000 </v>
   <v name="genvec1">      0.12500000       0.00000000       0.00000000 </v>
   <v name="genvec2">     -0.00000000       0.12500000       0.00000000 </v>
   <v name="genvec3">      0.00000000       0.00000000       1.00000000 </v>
   <v name="shift">      0.00000000       0.00000000       0.00000000 </v>
  </generation>
  <varray name="kpointlist" >
   <v>       0.00000000       0.00000000       0.00000000 </v>
   <v>       0.12500000       0.00000000       0.00000000 </v>
   <v>       0.25000000       0.00000000       0.00000000 </v>
   <v>       0.37500000       0.00000000       0.00000000 </v>
   <v>       0.50000000       0.00000000       0.00000000 </v>
   <v>       0.00000000       0.12500000       0.00000000 </v>
   <v>       0.12500000       0.12500000       0.00000000 </v>
   <v>       0.25000000       0.12500000       0.00000000 </v>
   <v>       0.37500000       0.12500000       0.00000000 </v>
   <v>       0.50000000       0.12500000       0.00000000 </v>
   <v>      -0.37500000       0.12500000       0.00000000 </v>
   <v>      -0.25000000       0.12500000       0.00000000 </v>
   <v>      -0.12500000       0.12500000       0.00000000 </v>
   <v>       0.00000000       0.25000000       0.00000000 </v>
   <v>       0.12500000       0.25000000       0.00000000 </v>
   <v>       0.25000000       0.25000000       0.00000000 </v>
   <v>       0.37500000       0.25000000       0.00000000 </v>
   <v>       0.50000000       0.25000000       0.00000000 </v>
   <v>      -0.37500000       0.25000000       0.00000000 </v>
   <v>      -0.25000000       0.25000000       0.00000000 </v>
   <v>      -0.12500000       0.25000000       0.00000000 </v>
   <v>      -0.00000000       0.37500000       0.00000000 </v>
   <v>       0.12500000       0.37500000       0.00000000 </v>
   <v>       0.25000000       0.37500000       0.00000000 </v>
   <v>       0.37500000       0.37500000       0.00000000 </v>
   <v>       0.50000000       0.37500000       0.00000000 </v>
   <v>      -0.37500000       0.37500000       0.00000000 </v>
   <v>      -0.25000000       0.37500000       0.00000000 </v>
   <v>      -0.12500000       0.37500000       0.00000000 </v>
   <v>       0.00000000       0.50000000       0.00000000 </v>
   <v>       0.12500000       0.50000000       0.00000000 </v>
   <v>       0.25000000       0.50000000       0.00000000 </v>
   <v>       0.37500000       0.50000000       0.00000000 </v>
   <v>       0.50000000       0.50000000       0.00000000 </v>
  </varray>
  <varray name="weights" >
   <v>       0.01562500 </v>
   <v>       0.03125000 </v>
   <v>       0.03125000 </v>
   <v>       0.03125000 </v>
   <v>       0.01562500 </v>
   <v>       0.03125000 </v>
   <v>       0.03125000 </v>
   <v>       0.03125000 </v>
   <v>       0.03125000 </v>
   <v>       0.03125000 </v>
   <v>       0.03125000 </v>
   <v>       0.03125000 </v>
   <v>       0.03125000 </v>
   <v>       0.03125000 </v>
   <v>       0.03125000 </v>
   <v>       0.03125000 </v>
   <v>       0.03125000 </v>
   <v>       0.03125000 </v>
   <v>       0.03125000 </v>
   <v>       0.03125000 </v>
   <v>       0.03125000 </v>
   <v>       0.03125000 </v>
   <v>       0.03125000 </v>
   <v>       0.03125000 </v>
   <v>       0.03125000 </v>
   <v>       0.03125000 </v>
   <v>       0.03125000 </v>
   <v>       0.03125000 </v>
   <v>       0.03125000 </v>
   <v>       0.01562500 </v>
   <v>       0.03125000 </v>
   <v>       0.03125000 </v>
   <v>       0.03125000 </v>
   <v>       0.01562500 </v>
  </varray>
 </kpoints>
 <parameters>
  <separator name="general" >
   <i type="string" name="SYSTEM">unknown system</i>
   <i type="logical" name="LCOMPAT"> F  </i>
  </separator>
  <separator name="electronic" >
   <i type="string" name="PREC">normal</i>
   <i name="ENMAX">    280.00000000</i>
   <i name="ENAUG">    373.43800000</i>
   <i name="EDIFF">      0.00010000</i>
   <i type="int" name="IALGO">    38</i>
   <i type="int" name="IWAVPR">    11</i>
   <i type="int" name="NBANDS">   120</i>
   <i name="NELECT">    159.00000000</i>
   <i type="int" name="TURBO">     0</i>
   <i type="int" name="IRESTART">     0</i>
   <i type="int" name="NREBOOT">     0</i>
   <i type="int" name="NMIN">     0</i>
   <i name="EREF">      0.00000000</i>
   <separator name="electronic smearing" >
    <i type="int" name="ISMEAR">     0</i>
    <i name="SIGMA">      0.20000000</i>
    <i name="KSPACING">      0.50000000</i>
    <i type="logical" name="KGAMMA"> T  </i>
   </separator>
   <separator name="electronic projectors" >
    <i type="logical" name="LREAL"> F  </i>
    <v name="ROPT">      0.00000000      0.00000000      0.00000000      0.00000000</v>
    <i type="int" name="LMAXPAW">  -100</i>
    <i type="int" name="LMAXMIX">     2</i>
    <i type="logical" name="NLSPLINE"> F  </i>
   </separator>
   <separator name="electronic startup" >
    <i type="int" name="ISTART">     0</i>
    <i type="int" name="ICHARG">     2</i>
    <i type="int" name="INIWAV">     1</i>
   </separator>
   <separator name="electronic spin" >
    <i type="int" name="ISPIN">     1</i>
    <i type="logical" name="LNONCOLLINEAR"> F  </i>
    <v name="MAGMOM">      1.00000000      1.00000000      1.00000000      1.00000000      1.00000000      1.00000000      1.00000000      1.00000000      1.00000000      1.00000000      1.00000000      1.00000000      1.00000000      1.00000000      1.00000000      1.00000000      1.00000000      1.00000000      1.00000000      1.00000000
      1.00000000      1.00000000      1.00000000      1.00000000      1.00000000      1.00000000      1.00000000</v>
    <i name="NUPDOWN">     -1.00000000</i>
    <i type="logical" name="LSORBIT"> F  </i>
    <v name="SAXIS">      0.00000000      0.00000000      1.00000000</v>
    <i type="logical" name="LSPIRAL"> F  </i>
    <v name="QSPIRAL">      0.00000000      0.00000000      0.00000000</v>
    <i type="logical" name="LZEROZ"> F  </i>
   </separator>
   <separator name="electronic exchange-correlation" >
    <i type="logical" name="LASPH"> F  </i>
    <i type="logical" name="LMETAGGA"> F  </i>
   </separator>
   <separator name="electronic convergence" >
    <i type="int" name="NELM">    60</i>
    <i type="int" name="NELMDL">    -5</i>
    <i type="int" name="NELMIN">     2</i>
    <i name="ENINI">    280.00000000</i>
    <separator name="electronic convergence detail" >
     <i type="logical" name="LDIAG"> T  </i>
     <i type="logical" name="LSUBROT"> F  </i>
     <i name="WEIMIN">      0.00100000</i>
     <i name="EBREAK">      0.00000021</i>
     <i name="DEPER">      0.30000000</i>
     <i type="int" name="NRMM">     4</i>
     <i name="TIME">      0.40000000</i>
    </separator>
   </separator>
   <separator name="electronic mixer" >
    <i name="AMIX">      0.40000000</i>
    <i name="BMIX">      1.00000000</i>
    <i name="AMIN">      0.10000000</i>
    <i name="AMIX_MAG">      1.60000000</i>
    <i name="BMIX_MAG">      1.00000000</i>
    <separator name="electronic mixer details" >
     <i type="int" name="IMIX">     4</i>
     <i type="logical" name="MIXFIRST"> F  </i>
     <i type="int" name="MAXMIX">   -45</i>
     <i name="WC">    100.00000000</i>
     <i type="int" name="INIMIX">     1</i>
     <i type="int" name="MIXPRE">     1</i>
     <i type="int" name="MREMOVE">     5</i>
    </separator>
   </separator>
   <separator name="electronic dipolcorrection" >
    <i type="logical" name="LDIPOL"> F  </i>
    <i type="logical" name="LMONO"> F  </i>
    <i type="int" name="IDIPOL">     0</i>
    <i name="EPSILON">      1.00000000</i>
    <v name="DIPOL">   -100.00000000   -100.00000000   -100.00000000</v>
    <i name="EFIELD">      0.00000000</i>
   </separator>
  </separator>
  <separator name="grids" >
   <i type="int" name="NGX">    42</i>
   <i type="int" name="NGY">    42</i>
   <i type="int" name="NGZ">   126</i>
   <i type="int" name="NGXF">    84</i>
   <i type="int" name="NGYF">    84</i>
   <i type="int" name="NGZF">   252</i>
   <i type="logical" name="ADDGRID"> F  </i>
  </separator>
  <separator name="ionic" >
   <i type="int" name="NSW">   100</i>
   <i type="int" name="IBRION">     1</i>
   <i type="int" name="ISIF">     3</i>
   <i name="PSTRESS">      0.00000000</i>
   <i name="EDIFFG">      0.00100000</i>
   <i type="int" name="NFREE">     0</i>
   <i name="POTIM">      0.50000000</i>
   <i name="SMASS">     -3.00000000</i>
   <i name="SCALEE">      1.00000000</i>
  </separator>
  <separator name="ionic md" >
   <i name="TEBEG">      0.00010000</i>
   <i name="TEEND">      0.00010000</i>
   <i type="int" name="NBLOCK">     1</i>
   <i type="int" name="KBLOCK">   100</i>
   <i type="int" name="NPACO">   256</i>
   <i name="APACO">     16.00000000</i>
  </separator>
  <separator name="symmetry" >
   <i type="int" name="ISYM">     0</i>
   <i name="SYMPREC">      0.00000001</i>
  </separator>
  <separator name="dos" >
   <i type="logical" name="LORBIT"> F  </i>
   <v name="RWIGS">     -1.00000000     -1.00000000     -1.00000000     -1.00000000</v>
   <i type="int" name="NEDOS">   301</i>
   <i name="EMIN">     10.00000000</i>
   <i name="EMAX">    -10.00000000</i>
   <i name="EFERMI">      0.00000000</i>
  </separator>
  <separator name="writing" >
   <i type="int" name="NWRITE">     2</i>
   <i type="logical" name="LWAVE"> F  </i>
   <i type="logical" name="LCHARG"> F  </i>
   <i type="logical" name="LPARD"> F  </i>
   <i type="logical" name="LVTOT"> F  </i>
   <i type="logical" name="LVHAR"> F  </i>
   <i type="logical" name="LELF"> F  </i>
   <i type="logical" name="LOPTICS"> F  </i>
   <v name="STM">      0.00000000      0.00000000      0.00000000      0.00000000      0.00000000      0.00000000      0.00000000</v>
  </separator>
  <separator name="performance" >
   <i type="int" name="NPAR">    40</i>
   <i type="int" name="NSIM">     4</i>
   <i type="int" name="NBLK">    -1</i>
   <i type="logical" name="LPLANE"> F  </i>
   <i type="logical" name="LSCALAPACK"> T  </i>
   <i type="logical" name="LSCAAWARE"> F  </i>
   <i type="logical" name="LSCALU"> F  </i>
   <i type="logical" name="LASYNC"> F  </i>
   <i type="logical" name="LORBITALREAL"> F  </i>
  </separator>
  <separator name="miscellaneous" >
   <i type="int" name="IDIOT">     3</i>
   <i type="logical" name="LMUSIC"> F  </i>
   <v name="POMASS">     50.94100000     95.94000000    183.85000000     32.06600000</v>
   <v name="DARWINR">      0.00000000      0.00000000      0.00000000      0.00000000</v>
   <v name="DARWINV">      1.00000000      1.00000000      1.00000000      1.00000000</v>
   <i type="logical" name="LCORR"> T  </i>
  </separator>
  <i type="logical" name="GGA_COMPAT"> T  </i>
  <i type="logical" name="LBERRY"> F  </i>
  <i type="int" name="ICORELEVEL">     0</i>
  <i type="logical" name="LDAU"> F  </i>
  <i type="int" name="I_CONSTRAINED_M">     0</i>
  <separator name="electronic exchange-correlation" >
   <i type="string" name="GGA">--</i>
   <i type="int" name="VOSKOWN">     0</i>
   <i type="logical" name="LHFCALC"> F  </i>
   <i type="string" name="PRECFOCK"></i>
   <i type="logical" name="LSYMGRAD"> F  </i>
   <i type="logical" name="LHFONE"> F  </i>
   <i type="logical" name="LRHFCALC"> F  </i>
   <i type="logical" name="LTHOMAS"> F  </i>
   <i type="logical" name="LMODELHF"> F  </i>
   <i name="ENCUT4O">     -1.00000000</i>
   <i type="int" name="EXXOEP">     0</i>
   <i type="int" name="FOURORBIT">     0</i>
   <i name="AEXX">      0.00000000</i>
   <i name="HFALPHA">      0.00000000</i>
   <i name="MCALPHA">      0.00000000</i>
   <i name="ALDAX">      1.00000000</i>
   <i name="AGGAX">      1.00000000</i>
   <i name="ALDAC">      1.00000000</i>
   <i name="AGGAC">      1.00000000</i>
   <i type="int" name="NKREDX">     1</i>
   <i type="int" name="NKREDY">     1</i>
   <i type="int" name="NKREDZ">     1</i>
   <i type="logical" name="SHIFTRED"> F  </i>
   <i type="logical" name="ODDONLY"> F  </i>
   <i type="logical" name="EVENONLY"> F  </i>
   <i type="int" name="LMAXFOCK">     0</i>
   <i type="int" name="NMAXFOCKAE">     0</i>
   <i type="logical" name="LFOCKAEDFT"> F  </i>
   <i name="HFSCREEN">      0.00000000</i>
   <i name="HFSCREENC">      0.00000000</i>
   <i type="int" name="NBANDSGWLOW">     0</i>
  </separator>
  <separator name="vdW DFT" >
   <i type="logical" name="LUSE_VDW"> F  </i>
   <i name="Zab_VDW">     -0.84910000</i>
   <i name="PARAM1">      0.12340000</i>
   <i name="PARAM2">      1.00000000</i>
   <i name="PARAM3">      0.00000000</i>
  </separator>
  <separator name="model GW" >
   <i type="int" name="MODEL_GW">     0</i>
   <i name="MODEL_EPS0">     58.26239943</i>
   <i name="MODEL_ALPHA">      1.00000000</i>
  </separator>
  <separator name="linear response parameters" >
   <i type="logical" name="LEPSILON"> F  </i>
   <i type="logical" name="LRPA"> F  </i>
   <i type="logical" name="LNABLA"> F  </i>
   <i type="logical" name="LVEL"> F  </i>
   <i type="int" name="KINTER">     0</i>
   <i name="CSHIFT">      0.10000000</i>
   <i name="OMEGAMAX">     -1.00000000</i>
   <i name="DEG_THRESHOLD">      0.00200000</i>
  </separator>
  <separator name="orbital magnetization" >
   <i type="logical" name="NUCIND"> F  </i>
   <v name="MAGPOS">      0.00000000      0.00000000      0.00000000</v>
   <i type="logical" name="LNICSALL"> T  </i>
   <i type="logical" name="ORBITALMAG"> F  </i>
   <i type="logical" name="LMAGBLOCH"> F  </i>
   <i type="logical" name="LCHIMAG"> F  </i>
   <i type="logical" name="LGAUGE"> T  </i>
   <i type="int" name="MAGATOM">     0</i>
   <v name="MAGDIPOL">      0.00000000      0.00000000      0.00000000</v>
   <v name="AVECCONST">      0.00000000      0.00000000      0.00000000</v>
  </separator>
  <separator name="response functions" >
   <i type="logical" name="LADDER"> F  </i>
   <i type="logical" name="LFXC"> F  </i>
   <i type="logical" name="LHARTREE"> T  </i>
   <i type="int" name="IBSE">     0</i>
   <v type="int" name="KPOINT">    -1     0     0     0</v>
   <i type="logical" name="LTCTE"> F  </i>
   <i type="logical" name="LTETE"> F  </i>
   <i type="logical" name="LTRIPLET"> F  </i>
   <i type="logical" name="LFXCEPS"> F  </i>
   <i type="logical" name="LFXHEG"> F  </i>
   <i type="int" name="NATURALO">     0</i>
   <i type="logical" name="L2ORDER"> F  </i>
   <i type="logical" name="LUSEW"> F  </i>
   <i name="ENCUTGW">     -2.00000000</i>
   <i name="ENCUTGWSOFT">     -2.00000000</i>
   <i name="ENCUTLF">     -1.00000000</i>
   <i type="int" name="LMAXMP2">    -1</i>
   <i name="SCISSOR">      0.00000000</i>
   <i type="int" name="NOMEGA">     0</i>
   <i type="int" name="NOMEGAR">     0</i>
   <i type="int" name="NBANDSGW">    -1</i>
   <i type="int" name="NBANDSO">    -1</i>
   <i type="int" name="NBANDSV">    -1</i>
   <i type="int" name="NELM">     1</i>
   <i type="int" name="NELMHF">     1</i>
   <i type="int" name="DIM">     3</i>
   <i type="int" name="ANTIRES">     0</i>
   <i name="OMEGAMAX">    -30.00000000</i>
   <i name="OMEGAMIN">    -30.00000000</i>
   <i name="OMEGATL">   -200.00000000</i>
   <i type="int" name="OMEGAGRID">     0</i>
   <i name="CSHIFT">     -0.10000000</i>
   <i type="logical" name="SELFENERGY"> F  </i>
   <i type="logical" name="LSPECTRAL"> F  </i>
   <i type="logical" name="LSPECTRALGW"> F  </i>
   <i type="logical" name="LSINGLES"> F  </i>
   <i type="logical" name="LFERMIGW"> F  </i>
   <i type="logical" name="ODDONLYGW"> F  </i>
   <i type="logical" name="EVENONLYGW"> F  </i>
   <i type="int" name="NKREDLFX">     1</i>
   <i type="int" name="NKREDLFY">     1</i>
   <i type="int" name="NKREDLFZ">     1</i>
   <i type="int" name="MAXMEM">  1800</i>
   <i type="int" name="TELESCOPE">     0</i>
   <i type="int" name="TAUPAR">     1</i>
   <i type="int" name="OMEGAPAR">    -1</i>
   <i name="LAMBDA">      1.00000000</i>
  </separator>
  <separator name="External order field" >
   <i name="OFIELD_KAPPA">      0.00000000</i>
   <v name="OFIELD_K">      0.00000000      0.00000000      0.00000000</v>
   <i name="OFIELD_Q6_NEAR">      0.00000000</i>
   <i name="OFIELD_Q6_FAR">      0.00000000</i>
   <i name="OFIELD_A">      0.00000000</i>
  </separator>
 </parameters>
 <atominfo>
  <atoms>      27 </atoms>
  <types>       4 </types>
  <array name="atoms" >
   <dimension dim="1">ion</dimension>
   <field type="string">element</field>
   <field type="int">atomtype</field>
   <set>
    <rc><c>V </c><c>   1</c></rc>
    <rc><c>V </c><c>   1</c></rc>
    <rc><c>V </c><c>   1</c></rc>
    <rc><c>Mo</c><c>   2</c></rc>
    <rc><c>Mo</c><c>   2</c></rc>
    <rc><c>Mo</c><c>   2</c></rc>
    <rc><c>W </c><c>   3</c></rc>
    <rc><c>W </c><c>   3</c></rc>
    <rc><c>W </c><c>   3</c></rc>
    <rc><c>S </c><c>   4</c></rc>
    <rc><c>S </c><c>   4</c></rc>
    <rc><c>S </c><c>   4</c></rc>
    <rc><c>S </c><c>   4</c></rc>
    <rc><c>S </c><c>   4</c></rc>
    <rc><c>S </c><c>   4</c></rc>
    <rc><c>S </c><c>   4</c></rc>
    <rc><c>S </c><c>   4</c></rc>
    <rc><c>S </c><c>   4</c></rc>
    <rc><c>S </c><c>   4</c></rc>
    <rc><c>S </c><c>   4</c></rc>
    <rc><c>S </c><c>   4</c></rc>
    <rc><c>S </c><c>   4</c></rc>
    <rc><c>S </c><c>   4</c></rc>
    <rc><c>S </c><c>   4</c></rc>
    <rc><c>S </c><c>   4</c></rc>
    <rc><c>S </c><c>   4</c></rc>
    <rc><c>S </c><c>   4</c></rc>
   </set>
  </array>
  <array name="atomtypes" >
   <dimension dim="1">type</dimension>
   <field type="int">atomspertype</field>
   <field type="string">element</field>
   <field>mass</field>
   <field>valence</field>
   <field type="string">pseudopotential</field>
   <set>
    <rc><c>   3</c><c>V </c><c>     50.94100000</c><c>      5.00000000</c><c> PAW_PBE V 08Apr2002                    </c></rc>
    <rc><c>   3</c><c>Mo</c><c>     95.94000000</c><c>      6.00000000</c><c> PAW_PBE Mo 08Apr2002                   </c></rc>
    <rc><c>   3</c><c>W </c><c>    183.85000000</c><c>      6.00000000</c><c> PAW_PBE W 08Apr2002                    </c></rc>
    <rc><c>  18</c><c>S </c><c>     32.06600000</c><c>      6.00000000</c><c>  PAW_PBE S 17Jan2003                   </c></rc>
   </set>
  </array>
 </atominfo>
 <structure name="initialpos" >
  <crystal>
   <varray name="basis" >
    <v>       8.66999996       5.03999989       0.00000000 </v>
    <v>      -8.66999982       5.04000013       0.00000000 </v>
    <v>       0.00000000       0.00000000      30.00000000 </v>
   </varray>
   <i name="volume">   2621.80797419 </i>
   <varray name="rec_basis" >
    <v>       0.05767013       0.09920635       0.00000000 </v>
    <v>      -0.05767013       0.09920635       0.00000000 </v>
    <v>       0.00000000       0.00000000       0.03333333 </v>
   </varray>
  </crystal>
  <varray name="positions" >
   <v>       1.00000000       0.33333334       0.00000000 </v>
   <v>       0.33333334       0.00000000       0.00000000 </v>
   <v>       0.00000000       0.00000000       0.00000000 </v>
   <v>       0.66666669       0.33333334       0.00000000 </v>
   <v>       0.66666669       0.00000000       0.00000000 </v>
   <v>       0.66666669       0.66666669       0.00000000 </v>
   <v>       0.00000000       0.66666669       0.00000000 </v>
   <v>       0.33333334       0.33333334       0.00000000 </v>
   <v>       0.33333334       0.66666669       0.00000000 </v>
   <v>       0.11068511       0.22244981       0.95539999 </v>
   <v>       0.22244981       0.11068511       0.04460000 </v>
   <v>       0.11068511       0.55578315       0.95539999 </v>
   <v>       0.22244981       0.44401845       0.04460000 </v>
   <v>       0.11068511       0.88911647       0.95539999 </v>
   <v>       0.22244981       0.77735180       0.04460000 </v>
   <v>       0.44401845       0.22244981       0.95539999 </v>
   <v>       0.55578315       0.11068511       0.04460000 </v>
   <v>       0.44401845       0.55578315       0.95539999 </v>
   <v>       0.55578315       0.44401845       0.04460000 </v>
   <v>       0.44401845       0.88911647       0.95539999 </v>
   <v>       0.55578315       0.77735180       0.04460000 </v>
   <v>       0.77735180       0.22244981       0.95539999 </v>
   <v>       0.88911647       0.11068511       0.04460000 </v>
   <v>       0.77735180       0.55578315       0.95539999 </v>
   <v>       0.88911647       0.44401845       0.04460000 </v>
   <v>       0.77735180       0.88911647       0.95539999 </v>
   <v>       0.88911647       0.77735180       0.04460000 </v>
  </varray>
 </structure>
 <calculation>
  <scstep>
   <time name="dav">   30.14   30.22</time>
   <time name="total">   30.20   30.28</time>
   <energy>
    <i name="alphaZ">     81.65567618 </i>
    <i name="ewald">  41890.25210219 </i>
    <i name="hartreedc"> -47722.88004863 </i>
    <i name="XCdc">   -242.92955975 </i>
    <i name="pawpsdc">   3467.42045192 </i>
    <i name="pawaedc">  -2871.19716117 </i>
    <i name="eentropy">     -0.54111856 </i>
    <i name="bandstr">   -236.57851642 </i>
    <i name="atom">   6761.44252427 </i>
    <i name="e_fr_energy">   1126.64435002 </i>
    <i name="e_wo_entrp">   1127.18546858 </i>
    <i name="e_0_energy">   1126.91490930 </i>
   </energy>
  </scstep>
  <scstep>
   <time name="dav">   38.61   38.70</time>
   <time name="total">   38.61   38.72</time>
   <energy>
    <i name="e_fr_energy">     -1.14645712 </i>
    <i name="e_wo_entrp">     -0.94637484 </i>
    <i name="e_0_energy">     -1.04641598 </i>
   </energy>
  </scstep>
  <scstep>
   <time name="dav">   38.18   38.27</time>
   <time name="total">   38.18   38.28</time>
   <energy>
    <i name="e_fr_energy">   -199.72634997 </i>
    <i name="e_wo_entrp">   -199.45494822 </i>
    <i name="e_0_energy">   -199.59064910 </i>
   </energy>
  </scstep>
  <scstep>
   <time name="dav">   41.06   41.16</time>
   <time name="total">   41.06   41.17</time>
   <energy>
    <i name="e_fr_energy">   -208.92582125 </i>
    <i name="e_wo_entrp">   -208.62623967 </i>
    <i name="e_0_energy">   -208.77603046 </i>
   </energy>
  </scstep>
  <scstep>
   <time name="dav">   40.27   40.37</time>
   <time name="total">   40.87   40.98</time>
   <energy>
    <i name="e_fr_energy">   -209.27500731 </i>
    <i name="e_wo_entrp">   -208.97907914 </i>
    <i name="e_0_energy">   -209.12704322 </i>
   </energy>
  </scstep>
  <scstep>
   <time name="dav">   43.00   43.10</time>
   <time name="total">   43.61   43.72</time>
   <energy>
    <i name="e_fr_energy">   -237.14074868 </i>
    <i name="e_wo_entrp">   -236.87194473 </i>
    <i name="e_0_energy">   -237.00634670 </i>
   </energy>
  </scstep>
  <scstep>
   <time name="dav">   44.39   44.50</time>
   <time name="total">   45.05   45.17</time>
   <energy>
    <i name="e_fr_energy">   -196.66330013 </i>
    <i name="e_wo_entrp">   -196.32854774 </i>
    <i name="e_0_energy">   -196.49592393 </i>
   </energy>
  </scstep>
  <scstep>
   <time name="dav">   40.68   40.77</time>
   <time name="total">   41.32   41.43</time>
   <energy>
    <i name="e_fr_energy">   -190.08319157 </i>
    <i name="e_wo_entrp">   -189.81445759 </i>
    <i name="e_0_energy">   -189.94882458 </i>
   </energy>
  </scstep>
  <scstep>
   <time name="dav">   41.27   41.37</time>
   <time name="total">   41.91   42.02</time>
   <energy>
    <i name="e_fr_energy">   -188.31846231 </i>
    <i name="e_wo_entrp">   -187.98932030 </i>
    <i name="e_0_energy">   -188.15389131 </i>
   </energy>
  </scstep>
  <scstep>
   <time name="dav">   44.69   44.80</time>
   <time name="total">   45.35   45.47</time>
   <energy>
    <i name="e_fr_energy">   -187.12757626 </i>
    <i name="e_wo_entrp">   -186.78531477 </i>
    <i name="e_0_energy">   -186.95644551 </i>
   </energy>
  </scstep>
  <scstep>
   <time name="dav">   42.65   42.75</time>
   <time name="total">   43.34   43.45</time>
   <energy>
    <i name="e_fr_energy">   -187.01255194 </i>
    <i name="e_wo_entrp">   -186.66384608 </i>
    <i name="e_0_energy">   -186.83819901 </i>
   </energy>
  </scstep>
  <scstep>
   <time name="dav">   43.82   43.93</time>
   <time name="total">   44.48   44.60</time>
   <energy>
    <i name="e_fr_energy">   -187.03100449 </i>
    <i name="e_wo_entrp">   -186.69733981 </i>
    <i name="e_0_energy">   -186.86417215 </i>
   </energy>
  </scstep>
  <scstep>
   <time name="dav">   44.39   44.50</time>
   <time name="total">   45.06   45.18</time>
   <energy>
    <i name="e_fr_energy">   -186.93379418 </i>
    <i name="e_wo_entrp">   -186.59774393 </i>
    <i name="e_0_energy">   -186.76576906 </i>
   </energy>
  </scstep>
  <scstep>
   <time name="dav">   43.34   43.44</time>
   <time name="total">   44.00   44.12</time>
   <energy>
    <i name="e_fr_energy">   -186.90394975 </i>
    <i name="e_wo_entrp">   -186.56290533 </i>
    <i name="e_0_energy">   -186.73342754 </i>
   </energy>
  </scstep>
  <scstep>
   <time name="dav">   42.53   42.64</time>
   <time name="total">   43.21   43.32</time>
   <energy>
    <i name="e_fr_energy">   -186.89837979 </i>
    <i name="e_wo_entrp">   -186.55534789 </i>
    <i name="e_0_energy">   -186.72686384 </i>
   </energy>
  </scstep>
  <scstep>
   <time name="dav">   43.50   43.61</time>
   <time name="total">   44.17   44.29</time>
   <energy>
    <i name="e_fr_energy">   -186.89194065 </i>
    <i name="e_wo_entrp">   -186.54856781 </i>
    <i name="e_0_energy">   -186.72025423 </i>
   </energy>
  </scstep>
  <scstep>
   <time name="dav">   43.34   43.44</time>
   <time name="total">   44.00   44.12</time>
   <energy>
    <i name="e_fr_energy">   -186.88923459 </i>
    <i name="e_wo_entrp">   -186.54792978 </i>
    <i name="e_0_energy">   -186.71858219 </i>
   </energy>
  </scstep>
  <scstep>
   <time name="dav">   39.90   40.00</time>
   <time name="total">   40.59   40.69</time>
   <energy>
    <i name="e_fr_energy">   -186.88870635 </i>
    <i name="e_wo_entrp">   -186.54750965 </i>
    <i name="e_0_energy">   -186.71810800 </i>
   </energy>
  </scstep>
  <scstep>
   <time name="dav">   37.73   37.82</time>
   <time name="total">   38.39   38.49</time>
   <energy>
    <i name="e_fr_energy">   -186.88849605 </i>
    <i name="e_wo_entrp">   -186.54685576 </i>
    <i name="e_0_energy">   -186.71767591 </i>
   </energy>
  </scstep>
  <scstep>
   <time name="dav">   33.04   33.12</time>
   <time name="total">   33.71   33.80</time>
   <energy>
    <i name="e_fr_energy">   -186.88938090 </i>
    <i name="e_wo_entrp">   -186.54805794 </i>
    <i name="e_0_energy">   -186.71871942 </i>
   </energy>
  </scstep>
  <scstep>
   <time name="dav">   30.54   30.61</time>
   <time name="total">   31.20   31.28</time>
   <energy>
    <i name="e_fr_energy">   -186.89032139 </i>
    <i name="e_wo_entrp">   -186.54886814 </i>
    <i name="e_0_energy">   -186.71959476 </i>
   </energy>
  </scstep>
  <scstep>
   <time name="dav">   25.44   25.51</time>
   <time name="total">   26.10   26.18</time>
   <energy>
    <i name="e_fr_energy">   -186.89107125 </i>
    <i name="e_wo_entrp">   -186.54966221 </i>
    <i name="e_0_energy">   -186.72036673 </i>
   </energy>
  </scstep>
  <scstep>
   <time name="dav">   28.35   28.42</time>
   <time name="total">   29.01   29.10</time>
   <energy>
    <i name="e_fr_energy">   -186.89221185 </i>
    <i name="e_wo_entrp">   -186.55091473 </i>
    <i name="e_0_energy">   -186.72156329 </i>
   </energy>
  </scstep>
  <scstep>
   <time name="dav">   26.23   26.29</time>
   <time name="total">   26.91   26.99</time>
   <energy>
    <i name="e_fr_energy">   -186.89279387 </i>
    <i name="e_wo_entrp">   -186.55143491 </i>
    <i name="e_0_energy">   -186.72211439 </i>
   </energy>
  </scstep>
  <scstep>
   <time name="dav">   23.08   23.14</time>
   <time name="total">   23.74   23.80</time>
   <energy>
    <i name="e_fr_energy">   -186.89316069 </i>
    <i name="e_wo_entrp">   -186.55177620 </i>
    <i name="e_0_energy">   -186.72246845 </i>
   </energy>
  </scstep>
  <scstep>
   <time name="dav">   26.43   26.50</time>
   <time name="total">   27.11   27.18</time>
   <energy>
    <i name="e_fr_energy">   -186.89340756 </i>
    <i name="e_wo_entrp">   -186.55204579 </i>
    <i name="e_0_energy">   -186.72272667 </i>
   </energy>
  </scstep>
  <scstep>
   <time name="dav">   27.95   28.02</time>
   <time name="total">   28.00   28.08</time>
   <energy>
    <i name="alphaZ">     81.65567618 </i>
    <i name="ewald">  41890.25210219 </i>
    <i name="hartreedc"> -47833.18017927 </i>
    <i name="XCdc">   -231.59806640 </i>
    <i name="pawpsdc">   4192.17271566 </i>
    <i name="pawaedc">  -3610.19735096 </i>
    <i name="eentropy">     -0.34136506 </i>
    <i name="bandstr">  -1437.09955668 </i>
    <i name="atom">   6761.44252427 </i>
    <i name="e_fr_energy">   -186.89350007 </i>
    <i name="e_wo_entrp">   -186.55213501 </i>
    <i name="e_0_energy">   -186.72281754 </i>
   </energy>
  </scstep>
  <structure>
   <crystal>
    <varray name="basis" >
     <v>       8.66999996       5.03999989       0.00000000 </v>
     <v>      -8.66999982       5.04000013       0.00000000 </v>
     <v>       0.00000000       0.00000000      30.00000000 </v>
    </varray>
    <i name="volume">   2621.80797419 </i>
    <varray name="rec_basis" >
     <v>       0.05767013       0.09920635       0.00000000 </v>
     <v>      -0.05767013       0.09920635       0.00000000 </v>
     <v>       0.00000000       0.00000000       0.03333333 </v>
    </varray>
   </crystal>
   <varray name="positions" >
    <v>       1.00000000       0.33333334       0.00000000 </v>
    <v>       0.33333334       0.00000000       0.00000000 </v>
    <v>       0.00000000       0.00000000       0.00000000 </v>
    <v>       0.66666669       0.33333334       0.00000000 </v>
    <v>       0.66666669       0.00000000       0.00000000 </v>
    <v>       0.66666669       0.66666669       0.00000000 </v>
    <v>       0.00000000       0.66666669       0.00000000 </v>
    <v>       0.33333334       0.33333334       0.00000000 </v>
    <v>       0.33333334       0.66666669       0.00000000 </v>
    <v>       0.11068511       0.22244981       0.95539999 </v>
    <v>       0.22244981       0.11068511       0.04460000 </v>
    <v>       0.11068511       0.55578315       0.95539999 </v>
    <v>       0.22244981       0.44401845       0.04460000 </v>
    <v>       0.11068511       0.88911647       0.95539999 </v>
    <v>       0.22244981       0.77735180       0.04460000 </v>
    <v>       0.44401845       0.22244981       0.95539999 </v>
    <v>       0.55578315       0.11068511       0.04460000 </v>
    <v>       0.44401845       0.55578315       0.95539999 </v>
    <v>       0.55578315       0.44401845       0.04460000 </v>
    <v>       0.44401845       0.88911647       0.95539999 </v>
    <v>       0.55578315       0.77735180       0.04460000 </v>
    <v>       0.77735180       0.22244981       0.95539999 </v>
    <v>       0.88911647       0.11068511       0.04460000 </v>
    <v>       0.77735180       0.55578315       0.95539999 </v>
    <v>       0.88911647       0.44401845       0.04460000 </v>
    <v>       0.77735180       0.88911647       0.95539999 </v>
    <v>       0.88911647       0.77735180       0.04460000 </v>
   </varray>
  </structure>
  <varray name="forces" >
   <v>      -0.15057341      -0.39283188       0.08773559 </v>
   <v>       0.14506892       0.31859961      -0.07746112 </v>
   <v>      -0.20469978      -0.27165882      -0.00744003 </v>
   <v>       0.01777344       0.00455106       0.11124977 </v>
   <v>       0.01479090       0.03543524       0.01573234 </v>
   <v>      -0.01583962      -0.02450150      -0.02638951 </v>
   <v>      -0.32316144      -0.38915417      -0.03627167 </v>
   <v>       0.28163781       0.29500104       0.00514882 </v>
   <v>       0.26446611       0.46697210      -0.11634051 </v>
   <v>      -0.24016245      -0.52560460      -1.38373999 </v>
   <v>       0.23145752      -0.51832119       1.39320482 </v>
   <v>       0.47166526      -0.55425246      -2.11536063 </v>
   <v>      -0.48294268      -0.60587352       2.15369719 </v>
   <v>      -0.22179513       0.53242755      -1.41282833 </v>
   <v>      -0.47292503       0.56365723       2.11836500 </v>
   <v>       0.37057481      -0.73438998      -2.17658795 </v>
   <v>      -0.52855287      -0.67695396       2.14193549 </v>
   <v>       0.03356136      -0.11830835      -2.94157364 </v>
   <v>      -0.19235308      -0.13924981       2.90552912 </v>
   <v>      -0.69200544      -0.17449985      -2.15295931 </v>
   <v>      -0.18897736      -0.13832491       2.90344891 </v>
   <v>       0.52904771       0.68357280      -2.14659335 </v>
   <v>       0.31604205       0.68775927       1.44594639 </v>
   <v>       0.19096606       0.16101126      -2.88287146 </v>
   <v>       0.68855621       0.13861737       2.16021136 </v>
   <v>       0.52355532       0.68567893      -2.14430775 </v>
   <v>      -0.36517519       0.69064153       2.17852043 </v>
  </varray>
  <varray name="stress" >
   <v>       7.27629679       0.12115433      -1.59973669 </v>
   <v>       0.12115433       4.48925494       0.03804364 </v>
   <v>      -1.59973685       0.03804372      30.27868943 </v>
  </varray>
  <energy>
   <i name="e_fr_energy">   -186.89350007 </i>
   <i name="e_wo_entrp">   -186.72281754 </i>
   <i name="e_0_energy">     -0.34136506 </i>
  </energy>
  <time name="totalsc"> 1079.58 1082.46</time>
 </calculation>
 <calculation>
  <scstep>
   <time name="dav">   29.95   30.02</time>
   <time name="total">   30.64   30.72</time>
   <energy>
    <i name="alphaZ">     78.91876957 </i>
    <i name="ewald">  39379.23293043 </i>
    <i name="hartreedc"> -45336.81885817 </i>
    <i name="XCdc">   -239.05309858 </i>
    <i name="pawpsdc">   4192.15119806 </i>
    <i name="pawaedc">  -3610.17606226 </i>
    <i name="eentropy">     -0.27868627 </i>
    <i name="bandstr">  -1412.95098476 </i>
    <i name="atom">   6761.44252427 </i>
    <i name="e_fr_energy">   -187.53226771 </i>
    <i name="e_wo_entrp">   -187.25358145 </i>
    <i name="e_0_energy">   -187.39292458 </i>
   </energy>
  </scstep>
  <scstep>
   <time name="dav">   41.80   41.90</time>
   <time name="total">   42.46   42.57</time>
   <energy>
    <i name="e_fr_energy">   -189.48796914 </i>
    <i name="e_wo_entrp">   -189.15794128 </i>
    <i name="e_0_energy">   -189.32295521 </i>
   </energy>
  </scstep>
  <scstep>
   <time name="dav">   42.34   42.44</time>
   <time name="total">   43.02   43.13</time>
   <energy>
    <i name="e_fr_energy">   -189.37300209 </i>
    <i name="e_wo_entrp">   -189.10216982 </i>
    <i name="e_0_energy">   -189.23758595 </i>
   </energy>
  </scstep>
  <scstep>
   <time name="dav">   42.53   42.64</time>
   <time name="total">   43.20   43.31</time>
   <energy>
    <i name="e_fr_energy">   -188.78718399 </i>
    <i name="e_wo_entrp">   -188.50823535 </i>
    <i name="e_0_energy">   -188.64770967 </i>
   </energy>
  </scstep>
  <scstep>
   <time name="dav">   42.05   42.15</time>
   <time name="total">   42.73   42.85</time>
   <energy>
    <i name="e_fr_energy">   -188.92434129 </i>
    <i name="e_wo_entrp">   -188.63299969 </i>
    <i name="e_0_energy">   -188.77867049 </i>
   </energy>
  </scstep>
  <scstep>
   <time name="dav">   43.15   43.26</time>
   <time name="total">   43.82   43.94</time>
   <energy>
    <i name="e_fr_energy">   -188.75173229 </i>
    <i name="e_wo_entrp">   -188.47609295 </i>
    <i name="e_0_energy">   -188.61391262 </i>
   </energy>
  </scstep>
  <scstep>
   <time name="dav">   40.46   40.56</time>
   <time name="total">   41.18   41.29</time>
   <energy>
    <i name="e_fr_energy">   -188.71902505 </i>
    <i name="e_wo_entrp">   -188.43926514 </i>
    <i name="e_0_energy">   -188.57914510 </i>
   </energy>
  </scstep>
  <scstep>
   <time name="dav">   43.33   43.43</time>
   <time name="total">   44.01   44.12</time>
   <energy>
    <i name="e_fr_energy">   -188.70962830 </i>
    <i name="e_wo_entrp">   -188.43224313 </i>
    <i name="e_0_energy">   -188.57093571 </i>
   </energy>
  </scstep>
  <scstep>
   <time name="dav">   40.61   40.71</time>
   <time name="total">   41.30   41.41</time>
   <energy>
    <i name="e_fr_energy">   -188.69984430 </i>
    <i name="e_wo_entrp">   -188.42278615 </i>
    <i name="e_0_energy">   -188.56131523 </i>
   </energy>
  </scstep>
  <scstep>
   <time name="dav">   43.13   43.24</time>
   <time name="total">   43.80   43.92</time>
   <energy>
    <i name="e_fr_energy">   -188.69932043 </i>
    <i name="e_wo_entrp">   -188.42252498 </i>
    <i name="e_0_energy">   -188.56092271 </i>
   </energy>
  </scstep>
  <scstep>
   <time name="dav">   40.32   40.41</time>
   <time name="total">   40.99   41.10</time>
   <energy>
    <i name="e_fr_energy">   -188.69890502 </i>
    <i name="e_wo_entrp">   -188.42240637 </i>
    <i name="e_0_energy">   -188.56065569 </i>
   </energy>
  </scstep>
  <scstep>
   <time name="dav">   40.82   40.92</time>
   <time name="total">   40.87   40.98</time>
   <energy>
    <i name="alphaZ">     78.91876957 </i>
    <i name="ewald">  39379.23293043 </i>
    <i name="hartreedc"> -45347.68729415 </i>
    <i name="XCdc">   -237.96436999 </i>
    <i name="pawpsdc">   3952.23479964 </i>
    <i name="pawaedc">  -3366.77282299 </i>
    <i name="eentropy">     -0.27652656 </i>
    <i name="bandstr">  -1407.82699056 </i>
    <i name="atom">   6761.44252427 </i>
    <i name="e_fr_energy">   -188.69898034 </i>
    <i name="e_wo_entrp">   -188.42245377 </i>
    <i name="e_0_energy">   -188.56071706 </i>
   </energy>
  </scstep>
  <structure>
   <crystal>
    <varray name="basis" >
     <v>       8.85623897       5.10922613       0.00000000 </v>
     <v>      -8.85266809       5.10308386       0.00000000 </v>
     <v>       0.00000000       0.00000000      30.00000000 </v>
    </varray>
    <i name="volume">   2712.73239684 </i>
    <varray name="rec_basis" >
     <v>       0.05643480       0.09790131       0.00000000 </v>
     <v>      -0.05650273       0.09794080       0.00000000 </v>
     <v>       0.00000000       0.00000000       0.03333333 </v>
    </varray>
   </crystal>
   <varray name="positions" >
    <v>       0.99770100       0.33187218       0.00014109 </v>
    <v>       0.33526176       0.00112121      -0.00012456 </v>
    <v>      -0.00186966      -0.00073065      -0.00001196 </v>
    <v>       0.66673792       0.33330568       0.00017890 </v>
    <v>       0.66687743       0.00012844       0.00002530 </v>
    <v>       0.66650535       0.66659349      -0.00004244 </v>
    <v>      -0.00276157       0.66570329      -0.00005833 </v>
    <v>       0.33552877       0.33396165       0.00000828 </v>
    <v>       0.33630405       0.66816582      -0.00018709 </v>
    <v>       0.10750141       0.22060245       0.95317481 </v>
    <v>       0.22061309       0.10756048       0.04684040 </v>
    <v>       0.10934472       0.55181826       0.95199830 </v>
    <v>       0.21820649       0.44246238       0.04806333 </v>
    <v>       0.11261623       0.89228172       0.95312804 </v>
    <v>       0.22383171       0.78136520       0.04800652 </v>
    <v>       0.44153468       0.21790404       0.95189984 </v>
    <v>       0.55107275       0.10891574       0.04804442 </v>
    <v>       0.44354561       0.55512356       0.95066968 </v>
    <v>       0.55458155       0.44388716       0.04927235 </v>
    <v>       0.44125803       0.89020658       0.95193784 </v>
    <v>       0.55459537       0.77721554       0.04926900 </v>
    <v>       0.78209526       0.22424948       0.95194808 </v>
    <v>       0.89328735       0.11309743       0.04692521 </v>
    <v>       0.77865369       0.55602245       0.95076408 </v>
    <v>       0.89169556       0.44276620       0.04807381 </v>
    <v>       0.78209006       0.89094150       0.95195175 </v>
    <v>       0.89140589       0.78167317       0.04810325 </v>
   </varray>
  </structure>
  <varray name="forces" >
   <v>      -0.19693592      -0.35069801      -0.05333082 </v>
   <v>       0.15131828       0.29352546       0.07197295 </v>
   <v>      -0.14311401      -0.27549110      -0.08488074 </v>
   <v>      -0.11164323       0.11794937       0.03922221 </v>
   <v>      -0.00051092      -0.14994161      -0.00638829 </v>
   <v>      -0.02967763      -0.21456490      -0.01266770 </v>
   <v>      -0.29489004      -0.48508085      -0.07832467 </v>
   <v>       0.18696672       0.52543246       0.09695631 </v>
   <v>       0.39585832       0.48682574       0.06446616 </v>
   <v>       0.07265459       0.07882256       0.24494018 </v>
   <v>      -0.06302139       0.07522792      -0.22807681 </v>
   <v>      -0.05079362       0.06871608       0.25597157 </v>
   <v>       0.06110950       0.06595426      -0.23255044 </v>
   <v>       0.05229644      -0.07991586       0.19392169 </v>
   <v>       0.04870913      -0.06875673      -0.29360335 </v>
   <v>      -0.09576496      -0.05752246      -0.05701724 </v>
   <v>      -0.03228280      -0.06614642       0.06006953 </v>
   <v>      -0.06493822      -0.08360006      -0.14963854 </v>
   <v>      -0.05301688      -0.11060850       0.17097841 </v>
   <v>       0.00972411      -0.09835330      -0.11789314 </v>
   <v>      -0.05114172      -0.11123440       0.13622803 </v>
   <v>       0.02971778       0.06545066      -0.02620902 </v>
   <v>       0.01201057       0.04242674       0.03629298 </v>
   <v>       0.05556803       0.10258931      -0.13934687 </v>
   <v>      -0.01753026       0.09170488       0.11425248 </v>
   <v>       0.02851040       0.08635267      -0.05177074 </v>
   <v>       0.10081772       0.05093611       0.04642587 </v>
  </varray>
  <varray name="stress" >
   <v>     -19.96945982      -0.02630174      -0.02805164 </v>
   <v>      -0.02630162     -19.56270240      -0.10783796 </v>
   <v>      -0.02805161      -0.10783801      -1.79092401 </v>
  </varray>
  <energy>
   <i name="e_fr_energy">   -188.69898034 </i>
   <i name="e_wo_entrp">   -188.56071706 </i>
   <i name="e_0_energy">     -0.27652656 </i>
  </energy>
  <time name="totalsc">  558.52  559.99</time>
 </calculation>
 <calculation>
  <scstep>
   <time name="dav">   32.79   32.87</time>
   <time name="total">   33.46   33.55</time>
   <energy>
    <i name="alphaZ">     82.33581523 </i>
    <i name="ewald">  41298.31984671 </i>
    <i name="hartreedc"> -47297.24894656 </i>
    <i name="XCdc">   -233.85364243 </i>
    <i name="pawpsdc">   3950.61887160 </i>
    <i name="pawaedc">  -3365.13821859 </i>
    <i name="eentropy">     -0.23218166 </i>
    <i name="bandstr">  -1386.86412712 </i>
    <i name="atom">   6761.44252427 </i>
    <i name="e_fr_energy">   -190.62005854 </i>
    <i name="e_wo_entrp">   -190.38787688 </i>
    <i name="e_0_energy">   -190.50396771 </i>
   </energy>
  </scstep>
  <scstep>
   <time name="dav">   38.51   38.60</time>
   <time name="total">   39.18   39.28</time>
   <energy>
    <i name="e_fr_energy">   -190.56996025 </i>
    <i name="e_wo_entrp">   -190.34151562 </i>
    <i name="e_0_energy">   -190.45573794 </i>
   </energy>
  </scstep>
  <scstep>
   <time name="dav">   41.78   41.88</time>
   <time name="total">   42.44   42.55</time>
   <energy>
    <i name="e_fr_energy">   -190.10769382 </i>
    <i name="e_wo_entrp">   -189.85869082 </i>
    <i name="e_0_energy">   -189.98319232 </i>
   </energy>
  </scstep>
  <scstep>
   <time name="dav">   42.61   42.71</time>
   <time name="total">   43.27   43.39</time>
   <energy>
    <i name="e_fr_energy">   -189.89470345 </i>
    <i name="e_wo_entrp">   -189.66629639 </i>
    <i name="e_0_energy">   -189.78049992 </i>
   </energy>
  </scstep>
  <scstep>
   <time name="dav">   41.88   41.98</time>
   <time name="total">   42.55   42.67</time>
   <energy>
    <i name="e_fr_energy">   -189.84694818 </i>
    <i name="e_wo_entrp">   -189.61215904 </i>
    <i name="e_0_energy">   -189.72955361 </i>
   </energy>
  </scstep>
  <scstep>
   <time name="dav">   42.95   43.05</time>
   <time name="total">   43.62   43.73</time>
   <energy>
    <i name="e_fr_energy">   -189.79771518 </i>
    <i name="e_wo_entrp">   -189.56357629 </i>
    <i name="e_0_energy">   -189.68064573 </i>
   </energy>
  </scstep>
  <scstep>
   <time name="dav">   39.90   39.99</time>
   <time name="total">   40.55   40.66</time>
   <energy>
    <i name="e_fr_energy">   -189.79113380 </i>
    <i name="e_wo_entrp">   -189.55834725 </i>
    <i name="e_0_energy">   -189.67474053 </i>
   </energy>
  </scstep>
  <scstep>
   <time name="dav">   42.01   42.11</time>
   <time name="total">   42.66   42.77</time>
   <energy>
    <i name="e_fr_energy">   -189.79160439 </i>
    <i name="e_wo_entrp">   -189.55864538 </i>
    <i name="e_0_energy">   -189.67512489 </i>
   </energy>
  </scstep>
  <scstep>
   <time name="dav">   38.20   38.29</time>
   <time name="total">   38.85   38.95</time>
   <energy>
    <i name="e_fr_energy">   -189.79122572 </i>
    <i name="e_wo_entrp">   -189.55819940 </i>
    <i name="e_0_energy">   -189.67471256 </i>
   </energy>
  </scstep>
  <scstep>
   <time name="dav">   34.74   34.82</time>
   <time name="total">   35.40   35.49</time>
   <energy>
    <i name="e_fr_energy">   -189.79147891 </i>
    <i name="e_wo_entrp">   -189.55844826 </i>
    <i name="e_0_energy">   -189.67496358 </i>
   </energy>
  </scstep>
  <scstep>
   <time name="dav">   32.09   32.17</time>
   <time name="total">   32.75   32.84</time>
   <energy>
    <i name="e_fr_energy">   -189.79120512 </i>
    <i name="e_wo_entrp">   -189.55805964 </i>
    <i name="e_0_energy">   -189.67463238 </i>
   </energy>
  </scstep>
  <scstep>
   <time name="dav">   26.45   26.51</time>
   <time name="total">   26.50   26.58</time>
   <energy>
    <i name="alphaZ">     82.33581523 </i>
    <i name="ewald">  41298.31984671 </i>
    <i name="hartreedc"> -47270.59023325 </i>
    <i name="XCdc">   -235.24515479 </i>
    <i name="pawpsdc">   4038.66098364 </i>
    <i name="pawaedc">  -3454.36961317 </i>
    <i name="eentropy">     -0.23311941 </i>
    <i name="bandstr">  -1410.11227759 </i>
    <i name="atom">   6761.44252427 </i>
    <i name="e_fr_energy">   -189.79122835 </i>
    <i name="e_wo_entrp">   -189.55810894 </i>
    <i name="e_0_energy">   -189.67466865 </i>
   </energy>
  </scstep>
  <structure>
   <crystal>
    <varray name="basis" >
     <v>       8.66846552       5.00293829       0.00000000 </v>
     <v>      -8.66525527       4.99741766       0.00000000 </v>
     <v>       0.00000000       0.00000000      30.00000000 </v>
    </varray>
    <i name="volume">   2600.15040053 </i>
    <varray name="rec_basis" >
     <v>       0.05765918       0.09997793       0.00000000 </v>
     <v>      -0.05772287       0.10001497       0.00000000 </v>
     <v>       0.00000000       0.00000000       0.03333333 </v>
    </varray>
   </crystal>
   <varray name="positions" >
    <v>       0.99693210       0.33147933       0.00011101 </v>
    <v>       0.33589241       0.00146292      -0.00008398 </v>
    <v>      -0.00246260      -0.00105032      -0.00005983 </v>
    <v>       0.66682668       0.33360784       0.00020102 </v>
    <v>       0.66662859      -0.00011952       0.00002170 </v>
    <v>       0.66612163       0.66626633      -0.00004958 </v>
    <v>      -0.00384657       0.66518141      -0.00010250 </v>
    <v>       0.33657757       0.33465356       0.00006296 </v>
    <v>       0.33748835       0.66859407      -0.00015073 </v>
    <v>       0.10770133       0.22066360       0.95331295 </v>
    <v>       0.22067752       0.10774538       0.04671177 </v>
    <v>       0.10941004       0.55198068       0.95214266 </v>
    <v>       0.21837408       0.44251325       0.04793219 </v>
    <v>       0.11253379       0.89209931       0.95323740 </v>
    <v>       0.22376433       0.78120471       0.04784094 </v>
    <v>       0.44134797       0.21790027       0.95186769 </v>
    <v>       0.55093236       0.10883700       0.04807830 </v>
    <v>       0.44334514       0.55504711       0.95058529 </v>
    <v>       0.55434773       0.44375457       0.04936877 </v>
    <v>       0.44110441       0.89003432       0.95187136 </v>
    <v>       0.55436230       0.77708012       0.04934583 </v>
    <v>       0.78223204       0.22432952       0.95193330 </v>
    <v>       0.89336909       0.11315625       0.04694568 </v>
    <v>       0.77887667       0.55613932       0.95068549 </v>
    <v>       0.89183071       0.44293491       0.04813824 </v>
    <v>       0.78226030       0.89105733       0.95192256 </v>
    <v>       0.89158651       0.78166119       0.04812943 </v>
   </varray>
  </structure>
  <varray name="forces" >
   <v>      -0.23974606      -0.33429252      -0.07565728 </v>
   <v>       0.18477249       0.29173634       0.08660118 </v>
   <v>      -0.12455680      -0.28696137      -0.08524004 </v>
   <v>      -0.13542279       0.15976931       0.01129583 </v>
   <v>      -0.01234605      -0.21926407      -0.01329986 </v>
   <v>      -0.04160345      -0.27556102      -0.00583474 </v>
   <v>      -0.26835094      -0.51030985      -0.06389966 </v>
   <v>       0.14523017       0.58553014       0.08514058 </v>
   <v>       0.43299696       0.49705148       0.08457480 </v>
   <v>       0.00532988      -0.03209837      -0.18645487 </v>
   <v>       0.00875377      -0.05789192       0.21173961 </v>
   <v>       0.02603258      -0.03842427      -0.20891831 </v>
   <v>      -0.01680273      -0.05477695       0.25064075 </v>
   <v>      -0.01904197       0.05489691      -0.24714186 </v>
   <v>      -0.02603461       0.03172276       0.16953141 </v>
   <v>       0.02800462      -0.10698272      -0.56077914 </v>
   <v>      -0.06060217      -0.12213247       0.54436179 </v>
   <v>      -0.01840496      -0.01979978      -0.73796612 </v>
   <v>      -0.00626225      -0.02620824       0.74292129 </v>
   <v>      -0.09950996      -0.01426223      -0.63595175 </v>
   <v>      -0.00636185      -0.01992329       0.70053192 </v>
   <v>       0.06492134       0.11453969      -0.50215626 </v>
   <v>       0.04339749       0.09446811       0.48908587 </v>
   <v>       0.00894621       0.01717486      -0.70315568 </v>
   <v>       0.09234134       0.02459304       0.63307015 </v>
   <v>       0.05714414       0.14161007      -0.53702034 </v>
   <v>      -0.02282438       0.10579636       0.55398075 </v>
  </varray>
  <varray name="stress" >
   <v>     -10.17987005      -0.03566615      -0.04734286 </v>
   <v>      -0.03566637      -9.85976339      -0.12766285 </v>
   <v>      -0.04734302      -0.12766291       6.47702962 </v>
  </varray>
  <energy>
   <i name="e_fr_energy">   -189.79122835 </i>
   <i name="e_wo_entrp">   -189.67466865 </i>
   <i name="e_0_energy">     -0.23311941 </i>
  </energy>
  <time name="totalsc">  521.79  523.18</time>
 </calculation>
 <calculation>
  <scstep>
   <time name="dav">   30.00   30.08</time>
   <time name="total">   30.65   30.72</time>
   <energy>
    <i name="alphaZ">     85.80206846 </i>
    <i name="ewald">  42824.55928715 </i>
    <i name="hartreedc"> -48841.16664181 </i>
    <i name="XCdc">   -232.96640228 </i>
    <i name="pawpsdc">   4038.77751548 </i>
    <i name="pawaedc">  -3454.48413058 </i>
    <i name="eentropy">     -0.19156250 </i>
    <i name="bandstr">  -1373.13916129 </i>
    <i name="atom">   6761.44252427 </i>
    <i name="e_fr_energy">   -191.36650310 </i>
    <i name="e_wo_entrp">   -191.17494060 </i>
    <i name="e_0_energy">   -191.27072185 </i>
   </energy>
  </scstep>
  <scstep>
   <time name="dav">   44.86   44.96</time>
   <time name="total">   45.50   45.62</time>
   <energy>
    <i name="e_fr_energy">   -191.18330793 </i>
    <i name="e_wo_entrp">   -190.99345310 </i>
    <i name="e_0_energy">   -191.08838052 </i>
   </energy>
  </scstep>
  <scstep>
   <time name="dav">   41.41   41.51</time>
   <time name="total">   42.04   42.15</time>
   <energy>
    <i name="e_fr_energy">   -191.33756062 </i>
    <i name="e_wo_entrp">   -191.11347214 </i>
    <i name="e_0_energy">   -191.22551638 </i>
   </energy>
  </scstep>
  <scstep>
   <time name="dav">   41.99   42.09</time>
   <time name="total">   42.65   42.76</time>
   <energy>
    <i name="e_fr_energy">   -190.93845605 </i>
    <i name="e_wo_entrp">   -190.74698722 </i>
    <i name="e_0_energy">   -190.84272164 </i>
   </energy>
  </scstep>
  <scstep>
   <time name="dav">   41.58   41.68</time>
   <time name="total">   42.23   42.34</time>
   <energy>
    <i name="e_fr_energy">   -190.89865365 </i>
    <i name="e_wo_entrp">   -190.70396014 </i>
    <i name="e_0_energy">   -190.80130690 </i>
   </energy>
  </scstep>
  <scstep>
   <time name="dav">   42.41   42.51</time>
   <time name="total">   43.09   43.20</time>
   <energy>
    <i name="e_fr_energy">   -190.80808662 </i>
    <i name="e_wo_entrp">   -190.60952154 </i>
    <i name="e_0_energy">   -190.70880408 </i>
   </energy>
  </scstep>
  <scstep>
   <time name="dav">   43.16   43.26</time>
   <time name="total">   43.82   43.94</time>
   <energy>
    <i name="e_fr_energy">   -190.79669439 </i>
    <i name="e_wo_entrp">   -190.60216803 </i>
    <i name="e_0_energy">   -190.69943121 </i>
   </energy>
  </scstep>
  <scstep>
   <time name="dav">   36.91   37.00</time>
   <time name="total">   37.58   37.69</time>
   <energy>
    <i name="e_fr_energy">   -190.79332975 </i>
    <i name="e_wo_entrp">   -190.59753961 </i>
    <i name="e_0_energy">   -190.69543468 </i>
   </energy>
  </scstep>
  <scstep>
   <time name="dav">   42.15   42.25</time>
   <time name="total">   42.82   42.93</time>
   <energy>
    <i name="e_fr_energy">   -190.79408191 </i>
    <i name="e_wo_entrp">   -190.59829143 </i>
    <i name="e_0_energy">   -190.69618667 </i>
   </energy>
  </scstep>
  <scstep>
   <time name="dav">   39.35   39.44</time>
   <time name="total">   40.02   40.12</time>
   <energy>
    <i name="e_fr_energy">   -190.79356717 </i>
    <i name="e_wo_entrp">   -190.59751788 </i>
    <i name="e_0_energy">   -190.69554253 </i>
   </energy>
  </scstep>
  <scstep>
   <time name="dav">   35.28   35.36</time>
   <time name="total">   35.96   36.06</time>
   <energy>
    <i name="e_fr_energy">   -190.79345282 </i>
    <i name="e_wo_entrp">   -190.59753896 </i>
    <i name="e_0_energy">   -190.69549589 </i>
   </energy>
  </scstep>
  <scstep>
   <time name="dav">   28.22   28.29</time>
   <time name="total">   28.27   28.35</time>
   <energy>
    <i name="alphaZ">     85.80206846 </i>
    <i name="ewald">  42824.55928715 </i>
    <i name="hartreedc"> -48812.59587342 </i>
    <i name="XCdc">   -234.29459900 </i>
    <i name="pawpsdc">   4063.78608011 </i>
    <i name="pawaedc">  -3479.66652629 </i>
    <i name="eentropy">     -0.19596457 </i>
    <i name="bandstr">  -1399.63044224 </i>
    <i name="atom">   6761.44252427 </i>
    <i name="e_fr_energy">   -190.79344552 </i>
    <i name="e_wo_entrp">   -190.59748095 </i>
    <i name="e_0_energy">   -190.69546324 </i>
   </energy>
  </scstep>
  <structure>
   <crystal>
    <varray name="basis" >
     <v>       8.48648933       4.90211061       0.00000000 </v>
     <v>      -8.48478430       4.89919250       0.00000000 </v>
     <v>       0.00000000       0.00000000      30.00000000 </v>
    </varray>
    <i name="volume">   2495.10888001 </i>
    <varray name="rec_basis" >
     <v>       0.05890556       0.10201700       0.00000000 </v>
     <v>      -0.05894064       0.10203750       0.00000000 </v>
     <v>       0.00000000       0.00000000       0.03333333 </v>
    </varray>
   </crystal>
   <varray name="positions" >
    <v>       0.99395513       0.33035625      -0.00006446 </v>
    <v>       0.33842786       0.00256835       0.00010757 </v>
    <v>      -0.00470909      -0.00245162      -0.00023641 </v>
    <v>       0.66740778       0.33523577       0.00020060 </v>
    <v>       0.66502200      -0.00160338      -0.00001169 </v>
    <v>       0.66407799       0.66455682      -0.00005583 </v>
    <v>      -0.00803200       0.66285592      -0.00022236 </v>
    <v>       0.34085456       0.33800367       0.00022896 </v>
    <v>       0.34223921       0.67011241       0.00004129 </v>
    <v>       0.10714533       0.22026316       0.95256005 </v>
    <v>       0.22011752       0.10691485       0.04752413 </v>
    <v>       0.10910642       0.55126727       0.95131479 </v>
    <v>       0.21755655       0.44204157       0.04886192 </v>
    <v>       0.11304279       0.89295186       0.95235077 </v>
    <v>       0.22401236       0.78185652       0.04858587 </v>
    <v>       0.44083451       0.21682726       0.95027909 </v>
    <v>       0.54976885       0.10819244       0.04961637 </v>
    <v>       0.44338149       0.55508214       0.94855827 </v>
    <v>       0.55443965       0.44375685       0.05139209 </v>
    <v>       0.44070895       0.89067255       0.95011513 </v>
    <v>       0.55450761       0.77714223       0.05127498 </v>
    <v>       0.78335632       0.22488378       0.95048961 </v>
    <v>       0.89429202       0.11367555       0.04834262 </v>
    <v>       0.77873558       0.55606808       0.94875133 </v>
    <v>       0.89230832       0.44242878       0.04988916 </v>
    <v>       0.78353182       0.89183399       0.95039885 </v>
    <v>       0.89212492       0.78272139       0.04970721 </v>
   </varray>
  </structure>
  <varray name="forces" >
   <v>      -0.30254047      -0.37812099      -0.07251239 </v>
   <v>       0.19072543       0.30726087       0.07811511 </v>
   <v>      -0.09797960      -0.27175435      -0.04951259 </v>
   <v>      -0.16158316       0.20456249      -0.02650735 </v>
   <v>      -0.02114672      -0.26038420      -0.01362857 </v>
   <v>      -0.04283568      -0.34100647       0.01291029 </v>
   <v>      -0.31133576      -0.57047119      -0.00369970 </v>
   <v>       0.13530039       0.60532406       0.02016633 </v>
   <v>       0.51508442       0.54827927       0.03796113 </v>
   <v>       0.03917802       0.04371420      -0.06321983 </v>
   <v>      -0.02186424       0.02378446       0.08781864 </v>
   <v>       0.02000316       0.04025170      -0.02822087 </v>
   <v>       0.00432944       0.00559156       0.11180681 </v>
   <v>       0.00475949      -0.00110102      -0.14650911 </v>
   <v>       0.00441525      -0.03835031      -0.01739360 </v>
   <v>       0.02059304       0.01275238      -0.37352372 </v>
   <v>      -0.00923389       0.01285187       0.39223907 </v>
   <v>       0.02308708       0.03604244      -0.59153725 </v>
   <v>       0.04011427       0.05431072       0.59502106 </v>
   <v>      -0.00926279       0.01529958      -0.47836323 </v>
   <v>       0.05367611       0.08008502       0.56283694 </v>
   <v>       0.00403113      -0.01790479      -0.35880644 </v>
   <v>      -0.00465308      -0.01416179       0.37969000 </v>
   <v>      -0.04919511      -0.05505969      -0.53995084 </v>
   <v>       0.01378661      -0.03554505       0.49191493 </v>
   <v>       0.00963379       0.00655787      -0.38645016 </v>
   <v>      -0.04708714      -0.01280863       0.37935531 </v>
  </varray>
  <varray name="stress" >
   <v>      -5.87047637       0.10263059      -0.01588421 </v>
   <v>       0.10263038      -5.75108751       0.01267492 </v>
   <v>      -0.01588424       0.01267489       4.51664921 </v>
  </varray>
  <energy>
   <i name="e_fr_energy">   -190.79344552 </i>
   <i name="e_wo_entrp">   -190.69546324 </i>
   <i name="e_0_energy">     -0.19596457 </i>
  </energy>
  <time name="totalsc">  533.81  535.22</time>
 </calculation>
 <calculation>
  <scstep>
   <time name="dav">   30.44   30.51</time>
   <time name="total">   31.10   31.18</time>
   <energy>
    <i name="alphaZ">     90.22143197 </i>
    <i name="ewald">  44685.25418813 </i>
    <i name="hartreedc"> -50729.31653513 </i>
    <i name="XCdc">   -231.80367472 </i>
    <i name="pawpsdc">   4063.74118602 </i>
    <i name="pawaedc">  -3479.61751728 </i>
    <i name="eentropy">     -0.16451052 </i>
    <i name="bandstr">  -1352.01664651 </i>
    <i name="atom">   6761.44252427 </i>
    <i name="e_fr_energy">   -192.25955376 </i>
    <i name="e_wo_entrp">   -192.09504324 </i>
    <i name="e_0_energy">   -192.17729850 </i>
   </energy>
  </scstep>
  <scstep>
   <time name="dav">   38.67   38.76</time>
   <time name="total">   39.33   39.44</time>
   <energy>
    <i name="e_fr_energy">   -191.99369593 </i>
    <i name="e_wo_entrp">   -191.81708300 </i>
    <i name="e_0_energy">   -191.90538947 </i>
   </energy>
  </scstep>
  <scstep>
   <time name="dav">   42.23   42.33</time>
   <time name="total">   42.88   43.00</time>
   <energy>
    <i name="e_fr_energy">   -192.06452828 </i>
    <i name="e_wo_entrp">   -191.88339106 </i>
    <i name="e_0_energy">   -191.97395967 </i>
   </energy>
  </scstep>
  <scstep>
   <time name="dav">   41.54   41.64</time>
   <time name="total">   42.20   42.31</time>
   <energy>
    <i name="e_fr_energy">   -191.86751306 </i>
    <i name="e_wo_entrp">   -191.68892861 </i>
    <i name="e_0_energy">   -191.77822084 </i>
   </energy>
  </scstep>
  <scstep>
   <time name="dav">   42.60   42.70</time>
   <time name="total">   43.25   43.37</time>
   <energy>
    <i name="e_fr_energy">   -191.60323025 </i>
    <i name="e_wo_entrp">   -191.43344016 </i>
    <i name="e_0_energy">   -191.51833521 </i>
   </energy>
  </scstep>
  <scstep>
   <time name="dav">   43.20   43.31</time>
   <time name="total">   43.86   43.98</time>
   <energy>
    <i name="e_fr_energy">   -191.59146449 </i>
    <i name="e_wo_entrp">   -191.40894513 </i>
    <i name="e_0_energy">   -191.50020481 </i>
   </energy>
  </scstep>
  <scstep>
   <time name="dav">   42.44   42.54</time>
   <time name="total">   43.10   43.21</time>
   <energy>
    <i name="e_fr_energy">   -191.57308595 </i>
    <i name="e_wo_entrp">   -191.40634944 </i>
    <i name="e_0_energy">   -191.48971769 </i>
   </energy>
  </scstep>
  <scstep>
   <time name="dav">   40.86   40.96</time>
   <time name="total">   41.53   41.64</time>
   <energy>
    <i name="e_fr_energy">   -191.56589738 </i>
    <i name="e_wo_entrp">   -191.39429589 </i>
    <i name="e_0_energy">   -191.48009663 </i>
   </energy>
  </scstep>
  <scstep>
   <time name="dav">   41.36   41.46</time>
   <time name="total">   42.01   42.12</time>
   <energy>
    <i name="e_fr_energy">   -191.56480236 </i>
    <i name="e_wo_entrp">   -191.39275217 </i>
    <i name="e_0_energy">   -191.47877727 </i>
   </energy>
  </scstep>
  <scstep>
   <time name="dav">   40.01   40.10</time>
   <time name="total">   40.66   40.77</time>
   <energy>
    <i name="e_fr_energy">   -191.56482126 </i>
    <i name="e_wo_entrp">   -191.39261935 </i>
    <i name="e_0_energy">   -191.47872031 </i>
   </energy>
  </scstep>
  <scstep>
   <time name="dav">   38.73   38.83</time>
   <time name="total">   38.78   38.89</time>
   <energy>
    <i name="alphaZ">     90.22143197 </i>
    <i name="ewald">  44685.25418813 </i>
    <i name="hartreedc"> -50694.38943210 </i>
    <i name="XCdc">   -233.34761980 </i>
    <i name="pawpsdc">   4086.56072202 </i>
    <i name="pawaedc">  -3502.52250612 </i>
    <i name="eentropy">     -0.17241944 </i>
    <i name="bandstr">  -1384.61165285 </i>
    <i name="atom">   6761.44252427 </i>
    <i name="e_fr_energy">   -191.56476391 </i>
    <i name="e_wo_entrp">   -191.39234447 </i>
    <i name="e_0_energy">   -191.47855419 </i>
   </energy>
  </scstep>
  <structure>
   <crystal>
    <varray name="basis" >
     <v>       8.27543399       4.78738945       0.00000000 </v>
     <v>      -8.26814240       4.77479541       0.00000000 </v>
     <v>       0.00000000       0.00000000      30.00000000 </v>
    </varray>
    <i name="volume">   2372.88965897 </i>
    <varray name="rec_basis" >
     <v>       0.06036685       0.10453258       0.00000000 </v>
     <v>      -0.06052607       0.10462476       0.00000000 </v>
     <v>       0.00000000       0.00000000       0.03333333 </v>
    </varray>
   </crystal>
   <varray name="positions" >
    <v>       0.98721595       0.32796944      -0.00038138 </v>
    <v>       0.34361909       0.00492865       0.00044231 </v>
    <v>      -0.00883104      -0.00518318      -0.00045607 </v>
    <v>       0.66881912       0.33899021       0.00008602 </v>
    <v>       0.66149827      -0.00480217      -0.00007348 </v>
    <v>       0.65945804       0.66058708      -0.00000698 </v>
    <v>      -0.01721411       0.65795485      -0.00025541 </v>
    <v>       0.34940528       0.34474174       0.00033372 </v>
    <v>       0.35264486       0.67318077       0.00023994 </v>
    <v>       0.10736656       0.22021771       0.95180629 </v>
    <v>       0.21987833       0.10668552       0.04838605 </v>
    <v>       0.10943689       0.55103911       0.95063780 </v>
    <v>       0.21704767       0.44177588       0.04987221 </v>
    <v>       0.11340978       0.89353913       0.95126314 </v>
    <v>       0.22382587       0.78191958       0.04908023 </v>
    <v>       0.44100979       0.21627355       0.94816495 </v>
    <v>       0.54937225       0.10812383       0.05176762 </v>
    <v>       0.44412532       0.55541855       0.94550099 </v>
    <v>       0.55554629       0.44422117       0.05444784 </v>
    <v>       0.44075687       0.89139912       0.94757926 </v>
    <v>       0.55600152       0.77783303       0.05418757 </v>
    <v>       0.78364945       0.22488150       0.94848649 </v>
    <v>       0.89451904       0.11376936       0.05038856 </v>
    <v>       0.77754942       0.55563089       0.94591789 </v>
    <v>       0.89213302       0.44153064       0.05247164 </v>
    <v>       0.78416654       0.89214148       0.94827086 </v>
    <v>       0.89180438       0.78344702       0.05184187 </v>
   </varray>
  </structure>
  <varray name="forces" >
   <v>      -0.34594319      -0.50527721       0.04910571 </v>
   <v>       0.18542571       0.40643252      -0.00810007 </v>
   <v>      -0.11703216      -0.33172274      -0.02103240 </v>
   <v>      -0.11418363       0.12122213       0.01396068 </v>
   <v>       0.04934127      -0.11673860       0.05328137 </v>
   <v>       0.02935950      -0.08883228       0.07976332 </v>
   <v>      -0.31785089      -0.49574935       0.07018789 </v>
   <v>       0.14657915       0.43907156      -0.04521271 </v>
   <v>       0.35163336       0.39535151      -0.11646622 </v>
   <v>       0.04353992       0.15217612       0.23234352 </v>
   <v>      -0.05454410       0.16337539      -0.17165028 </v>
   <v>      -0.00896383       0.18671521       0.34441122 </v>
   <v>       0.03268090       0.12062878      -0.20857361 </v>
   <v>       0.07244935      -0.10560680       0.15246893 </v>
   <v>       0.11004249      -0.17959019      -0.35805766 </v>
   <v>      -0.01973040       0.10919997      -0.09733443 </v>
   <v>       0.04510346       0.15597290       0.07251498 </v>
   <v>       0.03681658       0.06281982      -0.29725940 </v>
   <v>       0.08549018       0.09202442       0.25804092 </v>
   <v>       0.08254931      -0.00184780      -0.14409421 </v>
   <v>       0.14866982       0.17047743       0.28302903 </v>
   <v>      -0.09102543      -0.18771817      -0.11825242 </v>
   <v>      -0.05446393      -0.08614685       0.05347946 </v>
   <v>      -0.14206748      -0.11644914      -0.26933543 </v>
   <v>      -0.06288010      -0.07538844       0.16887867 </v>
   <v>      -0.04913111      -0.14788173      -0.08476366 </v>
   <v>      -0.04186476      -0.13651846       0.10866679 </v>
  </varray>
  <varray name="stress" >
   <v>      -0.24377267       0.18106950       0.33056623 </v>
   <v>       0.18106945       0.18833952       0.33443247 </v>
   <v>       0.33056632       0.33443239      -0.51277622 </v>
  </varray>
  <energy>
   <i name="e_fr_energy">   -191.56476391 </i>
   <i name="e_wo_entrp">   -191.47855419 </i>
   <i name="e_0_energy">     -0.17241944 </i>
  </energy>
  <time name="totalsc">  507.92  509.25</time>
 </calculation>
 <calculation>
  <scstep>
   <time name="dav">   30.44   30.51</time>
   <time name="total">   31.14   31.22</time>
   <energy>
    <i name="alphaZ">     90.25022514 </i>
    <i name="ewald">  44681.76351141 </i>
    <i name="hartreedc"> -50691.82413973 </i>
    <i name="XCdc">   -233.40295331 </i>
    <i name="pawpsdc">   4086.91473213 </i>
    <i name="pawaedc">  -3502.87287238 </i>
    <i name="eentropy">     -0.16568084 </i>
    <i name="bandstr">  -1383.79357613 </i>
    <i name="atom">   6761.44252427 </i>
    <i name="e_fr_energy">   -191.68822944 </i>
    <i name="e_wo_entrp">   -191.52254860 </i>
    <i name="e_0_energy">   -191.60538902 </i>
   </energy>
  </scstep>
  <scstep>
   <time name="dav">   43.52   43.62</time>
   <time name="total">   44.16   44.27</time>
   <energy>
    <i name="e_fr_energy">   -191.75273870 </i>
    <i name="e_wo_entrp">   -191.56742187 </i>
    <i name="e_0_energy">   -191.66008028 </i>
   </energy>
  </scstep>
  <scstep>
   <time name="dav">   43.12   43.22</time>
   <time name="total">   43.79   43.91</time>
   <energy>
    <i name="e_fr_energy">   -191.70885015 </i>
    <i name="e_wo_entrp">   -191.54301576 </i>
    <i name="e_0_energy">   -191.62593295 </i>
   </energy>
  </scstep>
  <scstep>
   <time name="dav">   40.04   40.13</time>
   <time name="total">   40.69   40.81</time>
   <energy>
    <i name="e_fr_energy">   -191.70812263 </i>
    <i name="e_wo_entrp">   -191.53921982 </i>
    <i name="e_0_energy">   -191.62367122 </i>
   </energy>
  </scstep>
  <scstep>
   <time name="dav">   40.79   40.89</time>
   <time name="total">   41.46   41.57</time>
   <energy>
    <i name="e_fr_energy">   -191.70488107 </i>
    <i name="e_wo_entrp">   -191.53607347 </i>
    <i name="e_0_energy">   -191.62047727 </i>
   </energy>
  </scstep>
  <scstep>
   <time name="dav">   39.50   39.59</time>
   <time name="total">   40.13   40.24</time>
   <energy>
    <i name="e_fr_energy">   -191.70461292 </i>
    <i name="e_wo_entrp">   -191.53513471 </i>
    <i name="e_0_energy">   -191.61987381 </i>
   </energy>
  </scstep>
  <scstep>
   <time name="dav">   40.07   40.16</time>
   <time name="total">   40.70   40.81</time>
   <energy>
    <i name="e_fr_energy">   -191.70407139 </i>
    <i name="e_wo_entrp">   -191.53527844 </i>
    <i name="e_0_energy">   -191.61967492 </i>
   </energy>
  </scstep>
  <scstep>
   <time name="dav">   33.22   33.30</time>
   <time name="total">   33.87   33.96</time>
   <energy>
    <i name="e_fr_energy">   -191.70383690 </i>
    <i name="e_wo_entrp">   -191.53473262 </i>
    <i name="e_0_energy">   -191.61928476 </i>
   </energy>
  </scstep>
  <scstep>
   <time name="dav">   25.10   25.16</time>
   <time name="total">   25.15   25.22</time>
   <energy>
    <i name="alphaZ">     90.25022514 </i>
    <i name="ewald">  44681.76351141 </i>
    <i name="hartreedc"> -50692.69915809 </i>
    <i name="XCdc">   -233.38540498 </i>
    <i name="pawpsdc">   4086.17243718 </i>
    <i name="pawaedc">  -3502.10283172 </i>
    <i name="eentropy">     -0.16883132 </i>
    <i name="bandstr">  -1382.97630530 </i>
    <i name="atom">   6761.44252427 </i>
    <i name="e_fr_energy">   -191.70383340 </i>
    <i name="e_wo_entrp">   -191.53500208 </i>
    <i name="e_0_energy">   -191.61941774 </i>
   </energy>
  </scstep>
  <structure>
   <crystal>
    <varray name="basis" >
     <v>       8.27164950       4.79342934       0.00000000 </v>
     <v>      -8.25970965       4.77277872       0.00000000 </v>
     <v>       0.00000000       0.00000000      30.00000000 </v>
    </varray>
    <i name="volume">   2372.13261908 </i>
    <varray name="rec_basis" >
     <v>       0.06036061       0.10445929       0.00000000 </v>
     <v>      -0.06062177       0.10461029       0.00000000 </v>
     <v>       0.00000000       0.00000000       0.03333333 </v>
    </varray>
   </crystal>
   <varray name="positions" >
    <v>       0.98358748       0.32640108      -0.00030359 </v>
    <v>       0.34626384       0.00646655       0.00043117 </v>
    <v>      -0.01088823      -0.00654471      -0.00049156 </v>
    <v>       0.66910890       0.33996659       0.00010799 </v>
    <v>       0.66102797      -0.00556156       0.00001264 </v>
    <v>       0.65906494       0.66002461       0.00012279 </v>
    <v>      -0.02072563       0.65633690      -0.00014171 </v>
    <v>       0.35212172       0.34658700       0.00026101 </v>
    <v>       0.35575179       0.67417649       0.00005218 </v>
    <v>       0.10826837       0.22086340       0.95217723 </v>
    <v>       0.22054695       0.10767494       0.04811430 </v>
    <v>       0.11036192       0.55201347       0.95119089 </v>
    <v>       0.21775266       0.44229155       0.04954157 </v>
    <v>       0.11308856       0.89279321       0.95150248 </v>
    <v>       0.22323495       0.78068253       0.04850392 </v>
    <v>       0.44150828       0.21688282       0.94799235 </v>
    <v>       0.55029482       0.10878417       0.05189999 </v>
    <v>       0.44455824       0.55563230       0.94499809 </v>
    <v>       0.55627318       0.44444109       0.05488699 </v>
    <v>       0.44099017       0.89115236       0.94732831 </v>
    <v>       0.55731575       0.77826782       0.05466642 </v>
    <v>       0.78242961       0.22419418       0.94828077 </v>
    <v>       0.89392327       0.11349237       0.05048921 </v>
    <v>       0.77653134       0.55545334       0.94546168 </v>
    <v>       0.89156391       0.44132525       0.05276307 </v>
    <v>       0.78327468       0.89153563       0.94811874 </v>
    <v>       0.89098501       0.78288105       0.05203298 </v>
   </varray>
  </structure>
  <varray name="forces" >
   <v>      -0.32309850      -0.50590178       0.00763653 </v>
   <v>       0.17652162       0.44309314       0.00163741 </v>
   <v>      -0.13684952      -0.37964674      -0.06432515 </v>
   <v>      -0.13739077       0.08765887      -0.03009021 </v>
   <v>       0.08105637      -0.10754479       0.03389086 </v>
   <v>       0.03020644      -0.04870058       0.03004395 </v>
   <v>      -0.30832872      -0.48898543       0.00108636 </v>
   <v>       0.18188489       0.43590604      -0.01785519 </v>
   <v>       0.33668043       0.42973478      -0.02778745 </v>
   <v>       0.01410920       0.10925879       0.29444398 </v>
   <v>      -0.03125787       0.11868939      -0.22963207 </v>
   <v>      -0.00148010       0.12014029       0.37923358 </v>
   <v>       0.00662744       0.08387491      -0.26296696 </v>
   <v>       0.06448194      -0.08589729       0.22430478 </v>
   <v>       0.06460267      -0.13806469      -0.39657921 </v>
   <v>       0.00689227       0.06526399      -0.11633898 </v>
   <v>       0.03558319       0.11035790       0.07010587 </v>
   <v>       0.05644924       0.06920279      -0.24004101 </v>
   <v>       0.06689796       0.07002938       0.20975576 </v>
   <v>       0.05723722       0.03033486      -0.13371687 </v>
   <v>       0.09186888       0.10701922       0.18818108 </v>
   <v>      -0.07578828      -0.14499073      -0.08042003 </v>
   <v>      -0.03330307      -0.04656057       0.07679446 </v>
   <v>      -0.09605380      -0.09778033      -0.19521345 </v>
   <v>      -0.05061985      -0.07132656       0.18394539 </v>
   <v>      -0.03773428      -0.09597438      -0.06672071 </v>
   <v>      -0.03919497      -0.06919049       0.16062727 </v>
  </varray>
  <varray name="stress" >
   <v>       0.08694638       0.08583581       0.15067968 </v>
   <v>       0.08583568       0.16290538       0.24088920 </v>
   <v>       0.15067976       0.24088933      -1.11736890 </v>
  </varray>
  <energy>
   <i name="e_fr_energy">   -191.70383340 </i>
   <i name="e_wo_entrp">   -191.61941774 </i>
   <i name="e_0_energy">     -0.16883132 </i>
  </energy>
  <time name="totalsc">  400.26  401.32</time>
 </calculation>
 <calculation>
  <scstep>
   <time name="dav">   30.43   30.50</time>
   <time name="total">   31.09   31.16</time>
   <energy>
    <i name="alphaZ">     90.13084477 </i>
    <i name="ewald">  44630.34704785 </i>
    <i name="hartreedc"> -50639.70191731 </i>
    <i name="XCdc">   -233.46913988 </i>
    <i name="pawpsdc">   4086.19210263 </i>
    <i name="pawaedc">  -3502.12270423 </i>
    <i name="eentropy">     -0.16268136 </i>
    <i name="bandstr">  -1384.48643259 </i>
    <i name="atom">   6761.44252427 </i>
    <i name="e_fr_energy">   -191.83035585 </i>
    <i name="e_wo_entrp">   -191.66767449 </i>
    <i name="e_0_energy">   -191.74901517 </i>
   </energy>
  </scstep>
  <scstep>
   <time name="dav">   43.82   43.93</time>
   <time name="total">   44.48   44.60</time>
   <energy>
    <i name="e_fr_energy">   -191.87614131 </i>
    <i name="e_wo_entrp">   -191.70126816 </i>
    <i name="e_0_energy">   -191.78870474 </i>
   </energy>
  </scstep>
  <scstep>
   <time name="dav">   43.17   43.28</time>
   <time name="total">   43.82   43.94</time>
   <energy>
    <i name="e_fr_energy">   -191.85124096 </i>
    <i name="e_wo_entrp">   -191.68992445 </i>
    <i name="e_0_energy">   -191.77058271 </i>
   </energy>
  </scstep>
  <scstep>
   <time name="dav">   40.97   41.06</time>
   <time name="total">   41.65   41.76</time>
   <energy>
    <i name="e_fr_energy">   -191.84762779 </i>
    <i name="e_wo_entrp">   -191.68314843 </i>
    <i name="e_0_energy">   -191.76538811 </i>
   </energy>
  </scstep>
  <scstep>
   <time name="dav">   42.16   42.27</time>
   <time name="total">   42.81   42.92</time>
   <energy>
    <i name="e_fr_energy">   -191.84714956 </i>
    <i name="e_wo_entrp">   -191.68298627 </i>
    <i name="e_0_energy">   -191.76506791 </i>
   </energy>
  </scstep>
  <scstep>
   <time name="dav">   41.50   41.60</time>
   <time name="total">   42.16   42.27</time>
   <energy>
    <i name="e_fr_energy">   -191.84617069 </i>
    <i name="e_wo_entrp">   -191.68202153 </i>
    <i name="e_0_energy">   -191.76409611 </i>
   </energy>
  </scstep>
  <scstep>
   <time name="dav">   36.93   37.02</time>
   <time name="total">   37.58   37.68</time>
   <energy>
    <i name="e_fr_energy">   -191.84524172 </i>
    <i name="e_wo_entrp">   -191.68110475 </i>
    <i name="e_0_energy">   -191.76317323 </i>
   </energy>
  </scstep>
  <scstep>
   <time name="dav">   29.09   29.21</time>
   <time name="total">   29.14   29.26</time>
   <energy>
    <i name="alphaZ">     90.13084477 </i>
    <i name="ewald">  44630.34704785 </i>
    <i name="hartreedc"> -50641.26452931 </i>
    <i name="XCdc">   -233.40660667 </i>
    <i name="pawpsdc">   4088.51520439 </i>
    <i name="pawaedc">  -3504.46726996 </i>
    <i name="eentropy">     -0.16399810 </i>
    <i name="bandstr">  -1382.97847938 </i>
    <i name="atom">   6761.44252427 </i>
    <i name="e_fr_energy">   -191.84526213 </i>
    <i name="e_wo_entrp">   -191.68126403 </i>
[...]
      <set comment="kpoint 31">
       <r>  -17.5456    1.0000 </r>
       <r>  -17.2422    1.0000 </r>
       <r>  -16.9453    1.0000 </r>
       <r>  -16.6976    1.0000 </r>
       <r>  -16.5364    1.0000 </r>
       <r>  -16.4526    1.0000 </r>
       <r>  -16.3495    1.0000 </r>
       <r>  -16.1755    1.0000 </r>
       <r>  -16.1156    1.0000 </r>
       <r>  -16.0356    1.0000 </r>
       <r>  -15.9535    1.0000 </r>
       <r>  -15.8600    1.0000 </r>
       <r>  -15.7713    1.0000 </r>
       <r>  -15.6044    1.0000 </r>
       <r>  -15.5666    1.0000 </r>
       <r>  -15.4634    1.0000 </r>
       <r>  -15.3660    1.0000 </r>
       <r>  -15.3250    1.0000 </r>
       <r>   -9.7423    1.0000 </r>
       <r>   -9.4733    1.0000 </r>
       <r>   -9.3546    1.0000 </r>
       <r>   -8.9541    1.0000 </r>
       <r>   -8.8822    1.0000 </r>
       <r>   -8.7996    1.0000 </r>
       <r>   -8.5866    1.0000 </r>
       <r>   -8.5072    1.0000 </r>
       <r>   -8.4475    1.0000 </r>
       <r>   -8.2981    1.0000 </r>
       <r>   -8.2633    1.0000 </r>
       <r>   -8.2189    1.0000 </r>
       <r>   -8.1211    1.0000 </r>
       <r>   -8.0934    1.0000 </r>
       <r>   -7.9671    1.0000 </r>
       <r>   -7.9077    1.0000 </r>
       <r>   -7.8405    1.0000 </r>
       <r>   -7.7793    1.0000 </r>
       <r>   -7.5862    1.0000 </r>
       <r>   -7.4450    1.0000 </r>
       <r>   -7.3559    1.0000 </r>
       <r>   -7.2595    1.0000 </r>
       <r>   -7.1711    1.0000 </r>
       <r>   -7.0822    1.0000 </r>
       <r>   -6.9754    1.0000 </r>
       <r>   -6.9121    1.0000 </r>
       <r>   -6.8522    1.0000 </r>
       <r>   -6.7122    1.0000 </r>
       <r>   -6.6390    1.0000 </r>
       <r>   -6.5752    1.0000 </r>
       <r>   -6.5360    1.0000 </r>
       <r>   -6.4880    1.0000 </r>
       <r>   -6.4381    1.0000 </r>
       <r>   -6.3502    1.0000 </r>
       <r>   -6.3074    1.0000 </r>
       <r>   -6.2136    1.0000 </r>
       <r>   -6.1741    1.0000 </r>
       <r>   -6.0375    1.0000 </r>
       <r>   -5.9866    1.0000 </r>
       <r>   -5.9009    1.0000 </r>
       <r>   -5.8184    1.0000 </r>
       <r>   -5.7073    1.0000 </r>
       <r>   -5.6864    1.0000 </r>
       <r>   -5.5328    1.0000 </r>
       <r>   -5.4827    1.0000 </r>
       <r>   -5.4207    1.0000 </r>
       <r>   -5.2133    1.0000 </r>
       <r>   -5.0937    1.0000 </r>
       <r>   -5.0601    1.0000 </r>
       <r>   -4.8937    1.0000 </r>
       <r>   -4.8295    1.0000 </r>
       <r>   -4.7100    1.0000 </r>
       <r>   -4.6179    1.0000 </r>
       <r>   -4.5087    1.0000 </r>
       <r>   -4.3312    1.0000 </r>
       <r>   -4.2521    1.0000 </r>
       <r>   -4.1652    1.0000 </r>
       <r>   -3.9460    1.0000 </r>
       <r>   -3.8568    1.0000 </r>
       <r>   -3.7493    0.9999 </r>
       <r>   -3.6232    0.9977 </r>
       <r>   -3.0918    0.1765 </r>
       <r>   -3.0379    0.0951 </r>
       <r>   -2.8849    0.0084 </r>
       <r>   -2.6877    0.0001 </r>
       <r>   -2.6030    0.0000 </r>
       <r>   -2.4819    0.0000 </r>
       <r>   -2.4069    0.0000 </r>
       <r>   -2.2205    0.0000 </r>
       <r>   -2.1399    0.0000 </r>
       <r>   -2.0779    0.0000 </r>
       <r>   -1.9239    0.0000 </r>
       <r>   -1.6742    0.0000 </r>
       <r>   -1.4320    0.0000 </r>
       <r>   -1.4165    0.0000 </r>
       <r>   -1.3010    0.0000 </r>
       <r>   -1.2491    0.0000 </r>
       <r>   -1.1937    0.0000 </r>
       <r>   -1.0695    0.0000 </r>
       <r>   -0.9784    0.0000 </r>
       <r>   -0.9437    0.0000 </r>
       <r>   -0.8593    0.0000 </r>
       <r>   -0.8362    0.0000 </r>
       <r>   -0.7721    0.0000 </r>
       <r>   -0.6290    0.0000 </r>
       <r>   -0.5452    0.0000 </r>
       <r>   -0.5072    0.0000 </r>
       <r>   -0.3698    0.0000 </r>
       <r>   -0.2883    0.0000 </r>
       <r>   -0.0952    0.0000 </r>
       <r>   -0.0520    0.0000 </r>
       <r>    0.0968    0.0000 </r>
       <r>    0.3703    0.0000 </r>
       <r>    0.6271    0.0000 </r>
       <r>    0.7087    0.0000 </r>
       <r>    0.9604    0.0000 </r>
       <r>    1.1849    0.0000 </r>
       <r>    1.3088    0.0000 </r>
       <r>    1.6450    0.0000 </r>
       <r>    2.1481    0.0000 </r>
       <r>    2.3037    0.0000 </r>
       <r>    2.4025    0.0000 </r>
      </set>
      <set comment="kpoint 32">
       <r>  -17.5449    1.0000 </r>
       <r>  -17.1798    1.0000 </r>
       <r>  -17.0639    1.0000 </r>
       <r>  -16.6970    1.0000 </r>
       <r>  -16.4948    1.0000 </r>
       <r>  -16.3793    1.0000 </r>
       <r>  -16.3184    1.0000 </r>
       <r>  -16.2208    1.0000 </r>
       <r>  -16.1216    1.0000 </r>
       <r>  -16.0846    1.0000 </r>
       <r>  -15.9708    1.0000 </r>
       <r>  -15.8450    1.0000 </r>
       <r>  -15.7862    1.0000 </r>
       <r>  -15.5919    1.0000 </r>
       <r>  -15.5543    1.0000 </r>
       <r>  -15.4633    1.0000 </r>
       <r>  -15.3635    1.0000 </r>
       <r>  -15.3241    1.0000 </r>
       <r>   -9.6768    1.0000 </r>
       <r>   -9.5972    1.0000 </r>
       <r>   -9.4331    1.0000 </r>
       <r>   -8.9299    1.0000 </r>
       <r>   -8.7400    1.0000 </r>
       <r>   -8.6690    1.0000 </r>
       <r>   -8.5386    1.0000 </r>
       <r>   -8.4642    1.0000 </r>
       <r>   -8.4189    1.0000 </r>
       <r>   -8.3910    1.0000 </r>
       <r>   -8.3232    1.0000 </r>
       <r>   -8.2596    1.0000 </r>
       <r>   -8.1754    1.0000 </r>
       <r>   -8.1068    1.0000 </r>
       <r>   -8.0450    1.0000 </r>
       <r>   -7.9325    1.0000 </r>
       <r>   -7.8512    1.0000 </r>
       <r>   -7.7809    1.0000 </r>
       <r>   -7.5529    1.0000 </r>
       <r>   -7.4499    1.0000 </r>
       <r>   -7.3275    1.0000 </r>
       <r>   -7.2788    1.0000 </r>
       <r>   -7.1700    1.0000 </r>
       <r>   -7.0273    1.0000 </r>
       <r>   -6.9539    1.0000 </r>
       <r>   -6.9107    1.0000 </r>
       <r>   -6.8419    1.0000 </r>
       <r>   -6.7556    1.0000 </r>
       <r>   -6.6632    1.0000 </r>
       <r>   -6.5961    1.0000 </r>
       <r>   -6.5075    1.0000 </r>
       <r>   -6.4782    1.0000 </r>
       <r>   -6.4352    1.0000 </r>
       <r>   -6.3784    1.0000 </r>
       <r>   -6.3503    1.0000 </r>
       <r>   -6.1920    1.0000 </r>
       <r>   -6.1229    1.0000 </r>
       <r>   -6.0251    1.0000 </r>
       <r>   -5.9591    1.0000 </r>
       <r>   -5.8688    1.0000 </r>
       <r>   -5.7863    1.0000 </r>
       <r>   -5.7601    1.0000 </r>
       <r>   -5.6557    1.0000 </r>
       <r>   -5.5549    1.0000 </r>
       <r>   -5.5045    1.0000 </r>
       <r>   -5.4101    1.0000 </r>
       <r>   -5.1882    1.0000 </r>
       <r>   -5.0887    1.0000 </r>
       <r>   -5.0019    1.0000 </r>
       <r>   -4.8618    1.0000 </r>
       <r>   -4.8486    1.0000 </r>
       <r>   -4.7890    1.0000 </r>
       <r>   -4.7433    1.0000 </r>
       <r>   -4.5172    1.0000 </r>
       <r>   -4.3365    1.0000 </r>
       <r>   -4.2495    1.0000 </r>
       <r>   -4.1358    1.0000 </r>
       <r>   -3.9653    1.0000 </r>
       <r>   -3.8201    1.0000 </r>
       <r>   -3.7012    0.9996 </r>
       <r>   -3.6536    0.9988 </r>
       <r>   -3.0776    0.1516 </r>
       <r>   -3.0573    0.1205 </r>
       <r>   -2.8413    0.0035 </r>
       <r>   -2.7164    0.0002 </r>
       <r>   -2.5919    0.0000 </r>
       <r>   -2.5020    0.0000 </r>
       <r>   -2.4046    0.0000 </r>
       <r>   -2.2443    0.0000 </r>
       <r>   -2.1360    0.0000 </r>
       <r>   -2.0675    0.0000 </r>
       <r>   -1.9162    0.0000 </r>
       <r>   -1.6899    0.0000 </r>
       <r>   -1.4611    0.0000 </r>
       <r>   -1.4119    0.0000 </r>
       <r>   -1.2813    0.0000 </r>
       <r>   -1.2526    0.0000 </r>
       <r>   -1.1917    0.0000 </r>
       <r>   -1.0490    0.0000 </r>
       <r>   -0.9790    0.0000 </r>
       <r>   -0.8853    0.0000 </r>
       <r>   -0.8615    0.0000 </r>
       <r>   -0.7939    0.0000 </r>
       <r>   -0.7245    0.0000 </r>
       <r>   -0.6497    0.0000 </r>
       <r>   -0.6133    0.0000 </r>
       <r>   -0.5427    0.0000 </r>
       <r>   -0.3766    0.0000 </r>
       <r>   -0.3055    0.0000 </r>
       <r>   -0.0748    0.0000 </r>
       <r>   -0.0280    0.0000 </r>
       <r>    0.1457    0.0000 </r>
       <r>    0.3916    0.0000 </r>
       <r>    0.5989    0.0000 </r>
       <r>    0.7783    0.0000 </r>
       <r>    0.9262    0.0000 </r>
       <r>    1.1354    0.0000 </r>
       <r>    1.2737    0.0000 </r>
       <r>    1.6209    0.0000 </r>
       <r>    2.1188    0.0000 </r>
       <r>    2.2703    0.0000 </r>
       <r>    2.5833    0.0000 </r>
      </set>
      <set comment="kpoint 33">
       <r>  -17.5142    1.0000 </r>
       <r>  -17.2992    1.0000 </r>
       <r>  -16.9272    1.0000 </r>
       <r>  -16.6950    1.0000 </r>
       <r>  -16.5021    1.0000 </r>
       <r>  -16.4843    1.0000 </r>
       <r>  -16.3230    1.0000 </r>
       <r>  -16.1940    1.0000 </r>
       <r>  -16.1444    1.0000 </r>
       <r>  -16.0644    1.0000 </r>
       <r>  -15.9006    1.0000 </r>
       <r>  -15.8281    1.0000 </r>
       <r>  -15.7883    1.0000 </r>
       <r>  -15.6255    1.0000 </r>
       <r>  -15.5694    1.0000 </r>
       <r>  -15.4624    1.0000 </r>
       <r>  -15.3569    1.0000 </r>
       <r>  -15.3242    1.0000 </r>
       <r>   -9.7785    1.0000 </r>
       <r>   -9.4482    1.0000 </r>
       <r>   -9.4071    1.0000 </r>
       <r>   -8.9124    1.0000 </r>
       <r>   -8.8378    1.0000 </r>
       <r>   -8.7539    1.0000 </r>
       <r>   -8.6266    1.0000 </r>
       <r>   -8.5758    1.0000 </r>
       <r>   -8.4177    1.0000 </r>
       <r>   -8.3085    1.0000 </r>
       <r>   -8.2513    1.0000 </r>
       <r>   -8.1679    1.0000 </r>
       <r>   -8.1356    1.0000 </r>
       <r>   -8.0691    1.0000 </r>
       <r>   -8.0133    1.0000 </r>
       <r>   -7.9002    1.0000 </r>
       <r>   -7.8449    1.0000 </r>
       <r>   -7.8109    1.0000 </r>
       <r>   -7.5507    1.0000 </r>
       <r>   -7.4412    1.0000 </r>
       <r>   -7.3973    1.0000 </r>
       <r>   -7.3257    1.0000 </r>
       <r>   -7.1430    1.0000 </r>
       <r>   -7.0003    1.0000 </r>
       <r>   -6.9648    1.0000 </r>
       <r>   -6.8714    1.0000 </r>
       <r>   -6.8358    1.0000 </r>
       <r>   -6.7696    1.0000 </r>
       <r>   -6.6786    1.0000 </r>
       <r>   -6.5857    1.0000 </r>
       <r>   -6.5243    1.0000 </r>
       <r>   -6.5011    1.0000 </r>
       <r>   -6.4405    1.0000 </r>
       <r>   -6.3544    1.0000 </r>
       <r>   -6.2901    1.0000 </r>
       <r>   -6.1976    1.0000 </r>
       <r>   -6.1272    1.0000 </r>
       <r>   -6.0506    1.0000 </r>
       <r>   -6.0016    1.0000 </r>
       <r>   -5.9216    1.0000 </r>
       <r>   -5.8431    1.0000 </r>
       <r>   -5.7172    1.0000 </r>
       <r>   -5.6498    1.0000 </r>
       <r>   -5.5326    1.0000 </r>
       <r>   -5.5050    1.0000 </r>
       <r>   -5.4151    1.0000 </r>
       <r>   -5.2002    1.0000 </r>
       <r>   -5.1032    1.0000 </r>
       <r>   -5.0453    1.0000 </r>
       <r>   -4.8653    1.0000 </r>
       <r>   -4.8247    1.0000 </r>
       <r>   -4.6824    1.0000 </r>
       <r>   -4.6555    1.0000 </r>
       <r>   -4.5414    1.0000 </r>
       <r>   -4.3435    1.0000 </r>
       <r>   -4.2697    1.0000 </r>
       <r>   -4.1257    1.0000 </r>
       <r>   -4.0512    1.0000 </r>
       <r>   -3.7952    1.0000 </r>
       <r>   -3.7312    0.9998 </r>
       <r>   -3.6373    0.9983 </r>
       <r>   -3.1061    0.2039 </r>
       <r>   -3.0247    0.0803 </r>
       <r>   -2.8698    0.0062 </r>
       <r>   -2.7114    0.0001 </r>
       <r>   -2.6113    0.0000 </r>
       <r>   -2.5261    0.0000 </r>
       <r>   -2.3722    0.0000 </r>
       <r>   -2.2202    0.0000 </r>
       <r>   -2.1210    0.0000 </r>
       <r>   -2.0333    0.0000 </r>
       <r>   -1.9110    0.0000 </r>
       <r>   -1.7074    0.0000 </r>
       <r>   -1.4912    0.0000 </r>
       <r>   -1.3761    0.0000 </r>
       <r>   -1.2737    0.0000 </r>
       <r>   -1.2522    0.0000 </r>
       <r>   -1.1791    0.0000 </r>
       <r>   -1.0681    0.0000 </r>
       <r>   -0.9814    0.0000 </r>
       <r>   -0.8890    0.0000 </r>
       <r>   -0.8392    0.0000 </r>
       <r>   -0.7965    0.0000 </r>
       <r>   -0.7297    0.0000 </r>
       <r>   -0.6330    0.0000 </r>
       <r>   -0.6018    0.0000 </r>
       <r>   -0.5566    0.0000 </r>
       <r>   -0.4124    0.0000 </r>
       <r>   -0.3605    0.0000 </r>
       <r>   -0.0706    0.0000 </r>
       <r>   -0.0445    0.0000 </r>
       <r>    0.2330    0.0000 </r>
       <r>    0.4267    0.0000 </r>
       <r>    0.5878    0.0000 </r>
       <r>    0.8793    0.0000 </r>
       <r>    0.9275    0.0000 </r>
       <r>    1.0772    0.0000 </r>
       <r>    1.2410    0.0000 </r>
       <r>    1.5929    0.0000 </r>
       <r>    2.1521    0.0000 </r>
       <r>    2.3035    0.0000 </r>
       <r>    2.4129    0.0000 </r>
      </set>
      <set comment="kpoint 34">
       <r>  -17.4743    1.0000 </r>
       <r>  -17.3780    1.0000 </r>
       <r>  -16.7951    1.0000 </r>
       <r>  -16.6804    1.0000 </r>
       <r>  -16.6467    1.0000 </r>
       <r>  -16.4926    1.0000 </r>
       <r>  -16.3205    1.0000 </r>
       <r>  -16.1875    1.0000 </r>
       <r>  -16.1500    1.0000 </r>
       <r>  -16.0547    1.0000 </r>
       <r>  -15.8235    1.0000 </r>
       <r>  -15.8215    1.0000 </r>
       <r>  -15.7776    1.0000 </r>
       <r>  -15.6800    1.0000 </r>
       <r>  -15.5804    1.0000 </r>
       <r>  -15.4624    1.0000 </r>
       <r>  -15.3533    1.0000 </r>
       <r>  -15.3244    1.0000 </r>
       <r>   -9.8192    1.0000 </r>
       <r>   -9.3752    1.0000 </r>
       <r>   -9.3153    1.0000 </r>
       <r>   -8.9681    1.0000 </r>
       <r>   -8.9362    1.0000 </r>
       <r>   -8.8149    1.0000 </r>
       <r>   -8.6683    1.0000 </r>
       <r>   -8.5937    1.0000 </r>
       <r>   -8.4329    1.0000 </r>
       <r>   -8.2997    1.0000 </r>
       <r>   -8.2325    1.0000 </r>
       <r>   -8.1515    1.0000 </r>
       <r>   -8.1025    1.0000 </r>
       <r>   -8.0190    1.0000 </r>
       <r>   -7.9176    1.0000 </r>
       <r>   -7.8676    1.0000 </r>
       <r>   -7.8506    1.0000 </r>
       <r>   -7.7335    1.0000 </r>
       <r>   -7.6139    1.0000 </r>
       <r>   -7.5152    1.0000 </r>
       <r>   -7.4004    1.0000 </r>
       <r>   -7.3445    1.0000 </r>
       <r>   -7.1166    1.0000 </r>
       <r>   -7.0420    1.0000 </r>
       <r>   -6.9856    1.0000 </r>
       <r>   -6.8646    1.0000 </r>
       <r>   -6.8194    1.0000 </r>
       <r>   -6.7059    1.0000 </r>
       <r>   -6.6182    1.0000 </r>
       <r>   -6.6009    1.0000 </r>
       <r>   -6.5406    1.0000 </r>
       <r>   -6.5093    1.0000 </r>
       <r>   -6.4328    1.0000 </r>
       <r>   -6.3895    1.0000 </r>
       <r>   -6.2846    1.0000 </r>
       <r>   -6.2575    1.0000 </r>
       <r>   -6.1792    1.0000 </r>
       <r>   -6.0385    1.0000 </r>
       <r>   -5.9994    1.0000 </r>
       <r>   -5.8433    1.0000 </r>
       <r>   -5.8228    1.0000 </r>
       <r>   -5.8004    1.0000 </r>
       <r>   -5.6355    1.0000 </r>
       <r>   -5.5955    1.0000 </r>
       <r>   -5.4877    1.0000 </r>
       <r>   -5.4154    1.0000 </r>
       <r>   -5.2144    1.0000 </r>
       <r>   -5.1178    1.0000 </r>
       <r>   -4.9966    1.0000 </r>
       <r>   -4.9075    1.0000 </r>
       <r>   -4.8305    1.0000 </r>
       <r>   -4.6013    1.0000 </r>
       <r>   -4.5607    1.0000 </r>
       <r>   -4.5263    1.0000 </r>
       <r>   -4.3158    1.0000 </r>
       <r>   -4.2842    1.0000 </r>
       <r>   -4.2151    1.0000 </r>
       <r>   -4.0757    1.0000 </r>
       <r>   -3.7979    1.0000 </r>
       <r>   -3.7435    0.9999 </r>
       <r>   -3.6290    0.9979 </r>
       <r>   -3.1178    0.2281 </r>
       <r>   -3.0043    0.0608 </r>
       <r>   -2.9056    0.0124 </r>
       <r>   -2.6985    0.0001 </r>
       <r>   -2.6309    0.0000 </r>
       <r>   -2.5339    0.0000 </r>
       <r>   -2.3516    0.0000 </r>
       <r>   -2.1932    0.0000 </r>
       <r>   -2.1126    0.0000 </r>
       <r>   -2.0097    0.0000 </r>
       <r>   -1.9167    0.0000 </r>
       <r>   -1.7172    0.0000 </r>
       <r>   -1.5019    0.0000 </r>
       <r>   -1.3308    0.0000 </r>
       <r>   -1.3025    0.0000 </r>
       <r>   -1.2389    0.0000 </r>
       <r>   -1.1794    0.0000 </r>
       <r>   -1.0843    0.0000 </r>
       <r>   -0.9813    0.0000 </r>
       <r>   -0.8948    0.0000 </r>
       <r>   -0.8362    0.0000 </r>
       <r>   -0.7950    0.0000 </r>
       <r>   -0.7413    0.0000 </r>
       <r>   -0.6314    0.0000 </r>
       <r>   -0.6053    0.0000 </r>
       <r>   -0.5759    0.0000 </r>
       <r>   -0.4257    0.0000 </r>
       <r>   -0.3337    0.0000 </r>
       <r>   -0.0951    0.0000 </r>
       <r>   -0.0593    0.0000 </r>
       <r>    0.2681    0.0000 </r>
       <r>    0.4443    0.0000 </r>
       <r>    0.5938    0.0000 </r>
       <r>    0.9317    0.0000 </r>
       <r>    0.9555    0.0000 </r>
       <r>    1.0357    0.0000 </r>
       <r>    1.2249    0.0000 </r>
       <r>    1.5790    0.0000 </r>
       <r>    2.2319    0.0000 </r>
       <r>    2.2699    0.0000 </r>
       <r>    2.3941    0.0000 </r>
      </set>
     </set>
    </set>
   </array>
  </eigenvalues>
  <separator name="orbital magnetization" >
   <v name="MAGDIPOLOUT">      0.00000000      0.00000000      0.00000000</v>
  </separator>
 </calculation>
 <structure name="finalpos" >
  <crystal>
   <varray name="basis" >
    <v>       8.31913828       4.82446094       0.00000000 </v>
    <v>      -8.30638122       4.80232593       0.00000000 </v>
    <v>       0.00000000       0.00000000      30.00000000 </v>
   </varray>
   <i name="volume">   2400.75075785 </i>
   <varray name="rec_basis" >
    <v>       0.06001030       0.10379730       0.00000000 </v>
    <v>      -0.06028690       0.10395671       0.00000000 </v>
    <v>       0.00000000       0.00000000       0.03333333 </v>
   </varray>
  </crystal>
  <varray name="positions" >
   <v>       0.96036579       0.31285503       0.00237993 </v>
   <v>       0.37160098       0.01881848      -0.00243322 </v>
   <v>      -0.03248136      -0.01659974       0.00145002 </v>
   <v>       0.66669782       0.35304972       0.00007741 </v>
   <v>       0.66261851      -0.02073128       0.00013458 </v>
   <v>       0.66160979       0.66219309       0.00026481 </v>
   <v>      -0.03606320       0.65105722       0.00134709 </v>
   <v>       0.36850227       0.35355264      -0.00143357 </v>
   <v>       0.37013121       0.68139447      -0.00171738 </v>
   <v>       0.10816249       0.22210132       0.95761209 </v>
   <v>       0.22293748       0.10857383       0.04239974 </v>
   <v>       0.10945909       0.55095055       0.95688633 </v>
   <v>       0.21818328       0.44264533       0.04483348 </v>
   <v>       0.11345827       0.89249057       0.95630075 </v>
   <v>       0.22402525       0.78134346       0.04280217 </v>
   <v>       0.44662648       0.22177905       0.94503576 </v>
   <v>       0.55908099       0.11295765       0.05055078 </v>
   <v>       0.44740928       0.55690864       0.94275932 </v>
   <v>       0.55905885       0.44851305       0.05660895 </v>
   <v>       0.44702179       0.89103274       0.94463450 </v>
   <v>       0.55885177       0.77660814       0.05638123 </v>
   <v>       0.77290701       0.21950629       0.94980494 </v>
   <v>       0.88865984       0.10855524       0.05352198 </v>
   <v>       0.77373788       0.55668597       0.94385543 </v>
   <v>       0.88547617       0.44125093       0.05504326 </v>
   <v>       0.78096984       0.88856187       0.94612075 </v>
   <v>       0.88920689       0.78216021       0.05477879 </v>
  </varray>
 </structure>
</modeling>
