   27   27  100    1
  0.9710400E+02  0.1002848E-08  0.1002848E-08  0.3000000E-08  0.5000000E-15
  1.000000000000000E-004
  CAR 
 unknown system                          
    159     34    120
 
  0.0000000E+00  0.0000000E+00  0.0000000E+00  0.1562500E-01
    1      -17.789438   1.000000
    2      -16.666094   1.000000
    3      -16.626506   1.000000
    4      -16.560588   1.000000
    5      -16.524718   1.000000
    6      -16.493368   1.000000
    7      -16.382589   1.000000
    8      -16.292238   1.000000
    9      -16.125271   1.000000
   10      -16.094001   1.000000
   11      -16.019428   1.000000
   12      -15.963707   1.000000
   13      -15.910562   1.000000
   14      -15.691762   1.000000
   15      -15.604938   1.000000
   16      -15.548055   1.000000
   17      -15.488084   1.000000
   18      -15.314013   1.000000
   19       -9.264947   1.000000
   20       -8.945457   1.000000
   21       -8.932649   1.000000
   22       -8.819074   1.000000
   23       -8.792595   1.000000
   24       -8.672784   1.000000
   25       -8.618491   1.000000
   26       -8.549352   1.000000
   27       -8.488621   1.000000
   28       -8.475045   1.000000
   29       -8.403880   1.000000
   30       -8.376585   1.000000
   31       -8.250165   1.000000
   32       -8.110981   1.000000
   33       -8.094328   1.000000
   34       -7.936991   1.000000
   35       -7.805504   1.000000
   36       -7.795927   1.000000
   37       -7.763139   1.000000
   38       -7.524682   1.000000
   39       -7.495349   1.000000
   40       -7.396579   1.000000
   41       -7.373447   1.000000
   42       -7.336413   1.000000
   43       -7.121681   1.000000
   44       -6.903757   1.000000
   45       -6.803609   1.000000
   46       -6.762884   1.000000
   47       -6.739858   1.000000
   48       -6.564804   1.000000
   49       -6.533508   1.000000
   50       -6.418913   1.000000
   51       -6.396568   1.000000
   52       -6.373068   1.000000
   53       -6.322289   1.000000
   54       -6.314789   1.000000
   55       -6.299884   1.000000
   56       -6.218462   1.000000
   57       -6.145406   1.000000
   58       -5.833438   1.000000
   59       -5.724106   1.000000
   60       -5.667695   1.000000
   61       -5.423003   1.000000
   62       -5.393411   1.000000
   63       -5.254977   1.000000
   64       -5.162954   1.000000
   65       -5.080513   1.000000
   66       -5.035086   1.000000
   67       -4.948461   1.000000
   68       -4.872287   1.000000
   69       -4.766187   1.000000
   70       -4.743574   1.000000
   71       -4.709580   1.000000
   72       -4.685934   1.000000
   73       -4.493240   1.000000
   74       -4.329997   1.000000
   75       -3.971567   0.999999
   76       -3.936772   0.999997
   77       -3.762781   0.999536
   78       -3.704283   0.998122
   79       -3.507794   0.934306
   80       -3.390862   0.752322
   81       -3.376882   0.720041
   82       -2.751439   0.000062
   83       -2.718392   0.000023
   84       -2.563655   0.000000
   85       -2.502733   0.000000
   86       -2.386660   0.000000
   87       -2.338850   0.000000
   88       -2.316806   0.000000
   89       -2.122643   0.000000
   90       -2.091011   0.000000
   91       -2.002132   0.000000
   92       -1.907476   0.000000
   93       -1.447377   0.000000
   94       -1.355226   0.000000
   95       -1.142652   0.000000
   96       -1.013219   0.000000
   97       -0.985671   0.000000
   98       -0.877517   0.000000
   99       -0.711100   0.000000
  100       -0.572840   0.000000
  101       -0.530810   0.000000
  102       -0.518713   0.000000
  103       -0.460342   0.000000
  104       -0.435450   0.000000
  105       -0.267785   0.000000
  106       -0.116383   0.000000
  107       -0.060298   0.000000
  108        0.028049   0.000000
  109        0.073167   0.000000
  110        0.262284   0.000000
  111        0.300748   0.000000
  112        0.436937   0.000000
  113        0.686262   0.000000
  114        0.951969   0.000000
  115        1.004500   0.000000
  116        1.017263   0.000000
  117        1.132939   0.000000
  118        1.645302   0.000000
  119        1.833060   0.000000
  120        2.146788   0.000000
 
  0.1250000E+00  0.2775558E-16  0.0000000E+00  0.3125000E-01
    1      -17.764078   1.000000
    2      -16.762797   1.000000
    3      -16.656759   1.000000
    4      -16.609689   1.000000
    5      -16.533769   1.000000
    6      -16.423519   1.000000
    7      -16.371417   1.000000
    8      -16.263174   1.000000
    9      -16.129168   1.000000
   10      -16.081167   1.000000
   11      -16.023125   1.000000
   12      -15.907723   1.000000
   13      -15.889480   1.000000
   14      -15.680734   1.000000
   15      -15.627615   1.000000
   16      -15.533445   1.000000
   17      -15.493079   1.000000
   18      -15.332425   1.000000
   19       -9.250465   1.000000
   20       -9.154144   1.000000
   21       -9.019272   1.000000
   22       -8.914268   1.000000
   23       -8.786395   1.000000
   24       -8.689462   1.000000
   25       -8.635126   1.000000
   26       -8.564087   1.000000
   27       -8.512692   1.000000
   28       -8.413903   1.000000
   29       -8.356015   1.000000
   30       -8.278834   1.000000
   31       -8.212475   1.000000
   32       -8.020387   1.000000
   33       -7.987177   1.000000
   34       -7.888767   1.000000
   35       -7.817458   1.000000
   36       -7.757279   1.000000
   37       -7.682339   1.000000
   38       -7.523014   1.000000
   39       -7.488210   1.000000
   40       -7.433480   1.000000
   41       -7.345516   1.000000
   42       -7.286431   1.000000
   43       -7.114256   1.000000
   44       -6.937621   1.000000
   45       -6.863910   1.000000
   46       -6.828586   1.000000
   47       -6.740334   1.000000
   48       -6.632560   1.000000
   49       -6.474754   1.000000
   50       -6.450020   1.000000
   51       -6.412194   1.000000
   52       -6.361921   1.000000
   53       -6.328492   1.000000
   54       -6.299899   1.000000
   55       -6.257752   1.000000
   56       -6.165763   1.000000
   57       -6.130130   1.000000
   58       -5.843682   1.000000
   59       -5.670048   1.000000
   60       -5.656923   1.000000
   61       -5.499824   1.000000
   62       -5.454354   1.000000
   63       -5.290210   1.000000
   64       -5.182656   1.000000
   65       -5.129061   1.000000
   66       -5.058272   1.000000
   67       -4.931035   1.000000
   68       -4.886375   1.000000
   69       -4.842620   1.000000
   70       -4.738980   1.000000
   71       -4.627978   1.000000
   72       -4.583374   1.000000
   73       -4.548353   1.000000
   74       -4.303219   1.000000
   75       -3.982830   0.999999
   76       -3.886685   0.999986
   77       -3.796357   0.999807
   78       -3.712941   0.998458
   79       -3.659264   0.995056
   80       -3.343801   0.636473
   81       -3.265205   0.418119
   82       -2.783139   0.000150
   83       -2.679729   0.000007
   84       -2.558311   0.000000
   85       -2.520259   0.000000
   86       -2.381586   0.000000
   87       -2.336248   0.000000
   88       -2.263650   0.000000
   89       -2.153256   0.000000
   90       -2.065048   0.000000
   91       -2.009414   0.000000
   92       -1.885477   0.000000
   93       -1.459494   0.000000
   94       -1.331416   0.000000
   95       -1.144977   0.000000
   96       -1.026393   0.000000
   97       -0.976795   0.000000
   98       -0.860273   0.000000
   99       -0.739133   0.000000
  100       -0.681003   0.000000
  101       -0.585227   0.000000
  102       -0.560773   0.000000
  103       -0.501499   0.000000
  104       -0.371824   0.000000
  105       -0.335416   0.000000
  106       -0.206094   0.000000
  107       -0.107775   0.000000
  108        0.013451   0.000000
  109        0.094753   0.000000
  110        0.266919   0.000000
  111        0.366392   0.000000
  112        0.431466   0.000000
  113        0.688439   0.000000
  114        0.958985   0.000000
  115        1.011659   0.000000
  116        1.094852   0.000000
  117        1.109588   0.000000
  118        1.689852   0.000000
  119        1.871439   0.000000
  120        2.182085   0.000000
 
  0.2500000E+00  0.5551115E-16  0.0000000E+00  0.3125000E-01
    1      -17.689218   1.000000
    2      -16.971193   1.000000
    3      -16.696396   1.000000
    4      -16.636733   1.000000
    5      -16.567177   1.000000
    6      -16.396019   1.000000
    7      -16.320507   1.000000
    8      -16.202974   1.000000
    9      -16.157762   1.000000
   10      -16.042823   1.000000
   11      -15.972193   1.000000
   12      -15.879526   1.000000
   13      -15.812747   1.000000
   14      -15.676677   1.000000
   15      -15.637230   1.000000
   16      -15.527913   1.000000
   17      -15.487885   1.000000
   18      -15.378391   1.000000
   19       -9.482762   1.000000
   20       -9.224102   1.000000
   21       -9.117999   1.000000
   22       -9.039100   1.000000
   23       -8.849924   1.000000
   24       -8.772788   1.000000
   25       -8.671568   1.000000
   26       -8.514346   1.000000
   27       -8.490704   1.000000
   28       -8.393501   1.000000
   29       -8.247545   1.000000
   30       -8.130870   1.000000
   31       -8.077927   1.000000
   32       -8.015177   1.000000
   33       -7.917718   1.000000
   34       -7.893864   1.000000
   35       -7.768583   1.000000
   36       -7.633997   1.000000
   37       -7.573025   1.000000
   38       -7.538944   1.000000
   39       -7.411093   1.000000
   40       -7.363935   1.000000
   41       -7.283020   1.000000
   42       -7.184052   1.000000
   43       -7.118206   1.000000
   44       -6.966841   1.000000
   45       -6.880988   1.000000
   46       -6.833445   1.000000
   47       -6.786216   1.000000
   48       -6.659503   1.000000
   49       -6.557354   1.000000
   50       -6.529549   1.000000
   51       -6.364051   1.000000
   52       -6.341542   1.000000
   53       -6.309383   1.000000
   54       -6.268751   1.000000
   55       -6.177492   1.000000
   56       -6.154526   1.000000
   57       -6.010971   1.000000
   58       -5.899170   1.000000
   59       -5.760968   1.000000
   60       -5.649642   1.000000
   61       -5.587295   1.000000
   62       -5.509184   1.000000
   63       -5.471814   1.000000
   64       -5.347898   1.000000
   65       -5.142853   1.000000
   66       -5.074183   1.000000
   67       -4.955952   1.000000
   68       -4.903657   1.000000
   69       -4.746555   1.000000
   70       -4.700047   1.000000
   71       -4.618341   1.000000
   72       -4.527489   1.000000
   73       -4.411382   1.000000
   74       -4.320242   1.000000
   75       -4.187136   1.000000
   76       -4.052027   1.000000
   77       -3.788037   0.999759
   78       -3.633566   0.991757
   79       -3.556711   0.968169
   80       -3.262781   0.411435
   81       -3.179085   0.207344
   82       -2.846752   0.000774
   83       -2.669137   0.000005
   84       -2.580059   0.000000
   85       -2.489203   0.000000
   86       -2.364143   0.000000
   87       -2.334396   0.000000
   88       -2.216161   0.000000
   89       -2.136230   0.000000
   90       -2.018100   0.000000
   91       -2.011191   0.000000
   92       -1.847818   0.000000
   93       -1.467520   0.000000
   94       -1.286568   0.000000
   95       -1.175515   0.000000
   96       -1.057609   0.000000
   97       -0.979772   0.000000
   98       -0.872762   0.000000
   99       -0.821268   0.000000
  100       -0.793392   0.000000
  101       -0.681173   0.000000
  102       -0.625196   0.000000
  103       -0.556126   0.000000
  104       -0.456175   0.000000
  105       -0.400438   0.000000
  106       -0.289677   0.000000
  107       -0.175398   0.000000
  108       -0.066118   0.000000
  109        0.075746   0.000000
  110        0.140266   0.000000
  111        0.405623   0.000000
  112        0.545059   0.000000
  113        0.753508   0.000000
  114        0.964581   0.000000
  115        1.074628   0.000000
  116        1.090668   0.000000
  117        1.214734   0.000000
  118        1.814184   0.000000
  119        1.981677   0.000000
  120        2.286897   0.000000
 
  0.3750000E+00  0.0000000E+00  0.0000000E+00  0.3125000E-01
    1      -17.569874   1.000000
    2      -17.185628   1.000000
    3      -16.739828   1.000000
    4      -16.639225   1.000000
    5      -16.592445   1.000000
    6      -16.403924   1.000000
    7      -16.264303   1.000000
    8      -16.206612   1.000000
    9      -16.128317   1.000000
   10      -16.024210   1.000000
   11      -15.878888   1.000000
   12      -15.852411   1.000000
   13      -15.785126   1.000000
   14      -15.706315   1.000000
   15      -15.609372   1.000000
   16      -15.560911   1.000000
   17      -15.476003   1.000000
   18      -15.399316   1.000000
   19       -9.702509   1.000000
   20       -9.329291   1.000000
   21       -9.146340   1.000000
   22       -9.058074   1.000000
   23       -8.879008   1.000000
   24       -8.828978   1.000000
   25       -8.667352   1.000000
   26       -8.520768   1.000000
   27       -8.433294   1.000000
   28       -8.275281   1.000000
   29       -8.226888   1.000000
   30       -8.193069   1.000000
   31       -8.020883   1.000000
   32       -7.975038   1.000000
   33       -7.918748   1.000000
   34       -7.855813   1.000000
   35       -7.768223   1.000000
   36       -7.703381   1.000000
   37       -7.512921   1.000000
   38       -7.417210   1.000000
   39       -7.356863   1.000000
   40       -7.320945   1.000000
   41       -7.213685   1.000000
   42       -7.101748   1.000000
   43       -7.032301   1.000000
   44       -6.929388   1.000000
   45       -6.863555   1.000000
   46       -6.802601   1.000000
   47       -6.716097   1.000000
   48       -6.613584   1.000000
   49       -6.569832   1.000000
   50       -6.431753   1.000000
   51       -6.397035   1.000000
   52       -6.355752   1.000000
   53       -6.284521   1.000000
   54       -6.201819   1.000000
   55       -6.179361   1.000000
   56       -6.112850   1.000000
   57       -6.032638   1.000000
   58       -5.936017   1.000000
   59       -5.911676   1.000000
   60       -5.789760   1.000000
   61       -5.681626   1.000000
   62       -5.671367   1.000000
   63       -5.524380   1.000000
   64       -5.372516   1.000000
   65       -5.163181   1.000000
   66       -5.106253   1.000000
   67       -4.945319   1.000000
   68       -4.888933   1.000000
   69       -4.835752   1.000000
   70       -4.678868   1.000000
   71       -4.568265   1.000000
   72       -4.523921   1.000000
   73       -4.424737   1.000000
   74       -4.327097   1.000000
   75       -4.265256   1.000000
   76       -4.085899   1.000000
   77       -3.815803   0.999886
   78       -3.529621   0.951843
   79       -3.374773   0.715001
   80       -3.209876   0.274939
   81       -3.120461   0.109310
   82       -2.924282   0.004430
   83       -2.691964   0.000010
   84       -2.634971   0.000002
   85       -2.426338   0.000000
   86       -2.383502   0.000000
   87       -2.317584   0.000000
   88       -2.207949   0.000000
   89       -2.103763   0.000000
   90       -1.979263   0.000000
   91       -1.946870   0.000000
   92       -1.818599   0.000000
   93       -1.448565   0.000000
   94       -1.275462   0.000000
   95       -1.233825   0.000000
   96       -1.096279   0.000000
   97       -1.029784   0.000000
   98       -0.944238   0.000000
   99       -0.885337   0.000000
  100       -0.839892   0.000000
  101       -0.718026   0.000000
  102       -0.644359   0.000000
  103       -0.610043   0.000000
  104       -0.525203   0.000000
  105       -0.454298   0.000000
  106       -0.397844   0.000000
  107       -0.221456   0.000000
  108       -0.146299   0.000000
  109       -0.079464   0.000000
  110        0.146610   0.000000
  111        0.464061   0.000000
  112        0.539589   0.000000
  113        0.826451   0.000000
  114        0.959317   0.000000
  115        1.127842   0.000000
  116        1.169070   0.000000
  117        1.295524   0.000000
  118        2.000306   0.000000
  119        2.154971   0.000000
  120        2.458618   0.000000
 
  0.5000000E+00  0.1110223E-15  0.0000000E+00  0.1562500E-01
    1      -17.453599   1.000000
    2      -17.335551   1.000000
    3      -16.755162   1.000000
    4      -16.644805   1.000000
    5      -16.595439   1.000000
    6      -16.408549   1.000000
    7      -16.255930   1.000000
    8      -16.199768   1.000000
    9      -16.111441   1.000000
   10      -16.021082   1.000000
   11      -15.852917   1.000000
   12      -15.810352   1.000000
   13      -15.762714   1.000000
   14      -15.735976   1.000000
   15      -15.627522   1.000000
   16      -15.557679   1.000000
   17      -15.498994   1.000000
   18      -15.382312   1.000000
   19       -9.781748   1.000000
   20       -9.370268   1.000000
   21       -9.183910   1.000000
   22       -9.053387   1.000000
   23       -8.871883   1.000000
   24       -8.785185   1.000000
   25       -8.661935   1.000000
   26       -8.619848   1.000000
   27       -8.362103   1.000000
   28       -8.286534   1.000000
   29       -8.177980   1.000000
   30       -8.136820   1.000000
   31       -8.065285   1.000000
   32       -7.990501   1.000000
   33       -7.911678   1.000000
   34       -7.875912   1.000000
   35       -7.779854   1.000000
   36       -7.697552   1.000000
   37       -7.539830   1.000000
   38       -7.436199   1.000000
   39       -7.359671   1.000000
   40       -7.301360   1.000000
   41       -7.073906   1.000000
   42       -7.035034   1.000000
   43       -6.993487   1.000000
   44       -6.859794   1.000000
   45       -6.813087   1.000000
   46       -6.729489   1.000000
   47       -6.718202   1.000000
   48       -6.630213   1.000000
   49       -6.585118   1.000000
   50       -6.526955   1.000000
   51       -6.446002   1.000000
   52       -6.333771   1.000000
   53       -6.255724   1.000000
   54       -6.157700   1.000000
   55       -6.103614   1.000000
   56       -6.074100   1.000000
   57       -6.063448   1.000000
   58       -5.979349   1.000000
   59       -5.885915   1.000000
   60       -5.845359   1.000000
   61       -5.784776   1.000000
   62       -5.692782   1.000000
   63       -5.506365   1.000000
   64       -5.376730   1.000000
   65       -5.288232   1.000000
   66       -5.161964   1.000000
   67       -5.045216   1.000000
   68       -4.886091   1.000000
   69       -4.849316   1.000000
   70       -4.610932   1.000000
   71       -4.533777   1.000000
   72       -4.491724   1.000000
   73       -4.440299   1.000000
   74       -4.369296   1.000000
   75       -4.292286   1.000000
   76       -4.011830   1.000000
   77       -3.847477   0.999954
   78       -3.502918   0.929783
   79       -3.237828   0.344471
   80       -3.177420   0.203992
   81       -3.166706   0.183208
   82       -2.949489   0.007361
   83       -2.701885   0.000014
   84       -2.659507   0.000004
   85       -2.444120   0.000000
   86       -2.368273   0.000000
   87       -2.296947   0.000000
   88       -2.204774   0.000000
   89       -2.102971   0.000000
   90       -1.960745   0.000000
   91       -1.909321   0.000000
   92       -1.804597   0.000000
   93       -1.432224   0.000000
   94       -1.293185   0.000000
   95       -1.259545   0.000000
   96       -1.113698   0.000000
   97       -1.067952   0.000000
   98       -0.948625   0.000000
   99       -0.896661   0.000000
  100       -0.878886   0.000000
  101       -0.722249   0.000000
  102       -0.670998   0.000000
  103       -0.603213   0.000000
  104       -0.559294   0.000000
  105       -0.484052   0.000000
  106       -0.437832   0.000000
  107       -0.240219   0.000000
  108       -0.181725   0.000000
  109       -0.129168   0.000000
  110        0.148762   0.000000
  111        0.493999   0.000000
  112        0.517763   0.000000
  113        0.847293   0.000000
  114        0.957629   0.000000
  115        1.154178   0.000000
  116        1.211002   0.000000
  117        1.321298   0.000000
  118        2.215325   0.000000
  119        2.260643   0.000000
  120        2.366383   0.000000
 
  0.0000000E+00  0.1250000E+00  0.0000000E+00  0.3125000E-01
    1      -17.765508   1.000000
    2      -16.740073   1.000000
    3      -16.668890   1.000000
    4      -16.618057   1.000000
    5      -16.555073   1.000000
    6      -16.415395   1.000000
    7      -16.361026   1.000000
    8      -16.260681   1.000000
    9      -16.114009   1.000000
   10      -16.069832   1.000000
   11      -16.017471   1.000000
   12      -15.941886   1.000000
   13      -15.880975   1.000000
   14      -15.693674   1.000000
   15      -15.616687   1.000000
   16      -15.545379   1.000000
   17      -15.498001   1.000000
   18      -15.321937   1.000000
   19       -9.272294   1.000000
   20       -9.089591   1.000000
   21       -8.986285   1.000000
   22       -8.924646   1.000000
   23       -8.810196   1.000000
   24       -8.689203   1.000000
   25       -8.654197   1.000000
   26       -8.596527   1.000000
   27       -8.506235   1.000000
   28       -8.476469   1.000000
   29       -8.343417   1.000000
   30       -8.217511   1.000000
   31       -8.165890   1.000000
   32       -8.079874   1.000000
   33       -7.991294   1.000000
   34       -7.880430   1.000000
   35       -7.780576   1.000000
   36       -7.735998   1.000000
   37       -7.675928   1.000000
   38       -7.588257   1.000000
   39       -7.502801   1.000000
   40       -7.455073   1.000000
   41       -7.338235   1.000000
   42       -7.257293   1.000000
   43       -7.163653   1.000000
   44       -6.956554   1.000000
   45       -6.842039   1.000000
   46       -6.783637   1.000000
   47       -6.705475   1.000000
   48       -6.613663   1.000000
   49       -6.499144   1.000000
   50       -6.458076   1.000000
   51       -6.402921   1.000000
   52       -6.348961   1.000000
   53       -6.321402   1.000000
   54       -6.300170   1.000000
   55       -6.273485   1.000000
   56       -6.178994   1.000000
   57       -6.149064   1.000000
   58       -5.876778   1.000000
   59       -5.710490   1.000000
   60       -5.605223   1.000000
   61       -5.480699   1.000000
   62       -5.432926   1.000000
   63       -5.325694   1.000000
   64       -5.245656   1.000000
   65       -5.086991   1.000000
   66       -5.016341   1.000000
   67       -4.949035   1.000000
   68       -4.917620   1.000000
   69       -4.843635   1.000000
   70       -4.719499   1.000000
   71       -4.674686   1.000000
   72       -4.583756   1.000000
   73       -4.477459   1.000000
   74       -4.240858   1.000000
   75       -4.023737   1.000000
   76       -3.900211   0.999991
   77       -3.782615   0.999722
   78       -3.693684   0.997622
   79       -3.644852   0.993390
   80       -3.472852   0.896449
   81       -3.172144   0.193588
   82       -2.764797   0.000090
   83       -2.697951   0.000012
   84       -2.557531   0.000000
   85       -2.495029   0.000000
   86       -2.385461   0.000000
   87       -2.334634   0.000000
   88       -2.292918   0.000000
   89       -2.150459   0.000000
   90       -2.078936   0.000000
   91       -1.987652   0.000000
   92       -1.892666   0.000000
   93       -1.446547   0.000000
   94       -1.346353   0.000000
   95       -1.142154   0.000000
   96       -1.014954   0.000000
   97       -0.982077   0.000000
   98       -0.883103   0.000000
   99       -0.769808   0.000000
  100       -0.633792   0.000000
  101       -0.601355   0.000000
  102       -0.559391   0.000000
  103       -0.511420   0.000000
  104       -0.429653   0.000000
  105       -0.316138   0.000000
  106       -0.214472   0.000000
  107       -0.136839   0.000000
  108        0.080144   0.000000
  109        0.150054   0.000000
  110        0.276386   0.000000
  111        0.346852   0.000000
  112        0.394667   0.000000
  113        0.622450   0.000000
  114        0.921640   0.000000
  115        1.072500   0.000000
  116        1.109449   0.000000
  117        1.154212   0.000000
  118        1.688865   0.000000
  119        1.872917   0.000000
  120        2.181577   0.000000
 
  0.1250000E+00  0.1250000E+00  0.0000000E+00  0.3125000E-01
    1      -17.716526   1.000000
    2      -16.862903   1.000000
    3      -16.780263   1.000000
    4      -16.629425   1.000000
    5      -16.492158   1.000000
    6      -16.403829   1.000000
    7      -16.353014   1.000000
    8      -16.215725   1.000000
    9      -16.127247   1.000000
   10      -16.054161   1.000000
   11      -16.005759   1.000000
   12      -15.897217   1.000000
   13      -15.818246   1.000000
   14      -15.683063   1.000000
   15      -15.639841   1.000000
   16      -15.529846   1.000000
   17      -15.496762   1.000000
   18      -15.357707   1.000000
   19       -9.345555   1.000000
   20       -9.263931   1.000000
   21       -9.123191   1.000000
   22       -8.997270   1.000000
   23       -8.833649   1.000000
   24       -8.749499   1.000000
   25       -8.610224   1.000000
   26       -8.524814   1.000000
   27       -8.480368   1.000000
   28       -8.425958   1.000000
   29       -8.318909   1.000000
   30       -8.228064   1.000000
   31       -8.090667   1.000000
   32       -8.057471   1.000000
   33       -7.926355   1.000000
   34       -7.816032   1.000000
   35       -7.736876   1.000000
   36       -7.679415   1.000000
   37       -7.590813   1.000000
   38       -7.525054   1.000000
   39       -7.438695   1.000000
   40       -7.383719   1.000000
   41       -7.288133   1.000000
   42       -7.257661   1.000000
   43       -7.150449   1.000000
   44       -6.996085   1.000000
   45       -6.878277   1.000000
   46       -6.809104   1.000000
   47       -6.784294   1.000000
   48       -6.632039   1.000000
   49       -6.549001   1.000000
   50       -6.480886   1.000000
   51       -6.394070   1.000000
   52       -6.358134   1.000000
   53       -6.311314   1.000000
   54       -6.286247   1.000000
   55       -6.189978   1.000000
   56       -6.143529   1.000000
   57       -6.063013   1.000000
   58       -5.882788   1.000000
   59       -5.684745   1.000000
   60       -5.632699   1.000000
   61       -5.586648   1.000000
   62       -5.519692   1.000000
   63       -5.431780   1.000000
   64       -5.249026   1.000000
   65       -5.188803   1.000000
   66       -5.101637   1.000000
   67       -4.999728   1.000000
   68       -4.828180   1.000000
   69       -4.778445   1.000000
   70       -4.677178   1.000000
   71       -4.642429   1.000000
   72       -4.547801   1.000000
   73       -4.449620   1.000000
   74       -4.216594   1.000000
   75       -4.138919   1.000000
   76       -4.036610   1.000000
   77       -3.779738   0.999700
   78       -3.717745   0.998620
   79       -3.544221   0.961321
   80       -3.375509   0.716764
   81       -3.130217   0.122776
   82       -2.806313   0.000279
   83       -2.671744   0.000005
   84       -2.572333   0.000000
   85       -2.492397   0.000000
   86       -2.368488   0.000000
   87       -2.320549   0.000000
   88       -2.222149   0.000000
   89       -2.176527   0.000000
   90       -2.053792   0.000000
   91       -1.993395   0.000000
   92       -1.862949   0.000000
   93       -1.464678   0.000000
   94       -1.311334   0.000000
   95       -1.149388   0.000000
   96       -1.033649   0.000000
   97       -0.996613   0.000000
   98       -0.867398   0.000000
   99       -0.835207   0.000000
  100       -0.740810   0.000000
  101       -0.660402   0.000000
  102       -0.640801   0.000000
  103       -0.525795   0.000000
  104       -0.464363   0.000000
  105       -0.401732   0.000000
  106       -0.248181   0.000000
  107       -0.179363   0.000000
  108        0.019513   0.000000
  109        0.085971   0.000000
  110        0.251140   0.000000
  111        0.360821   0.000000
  112        0.493449   0.000000
  113        0.638891   0.000000
  114        0.932717   0.000000
  115        1.090974   0.000000
  116        1.156142   0.000000
  117        1.209494   0.000000
  118        1.773651   0.000000
  119        1.946872   0.000000
  120        2.251535   0.000000
 
  0.2500000E+00  0.1250000E+00  0.0000000E+00  0.3125000E-01
    1      -17.620493   1.000000
    2      -17.061259   1.000000
    3      -16.871442   1.000000
    4      -16.614920   1.000000
    5      -16.462036   1.000000
    6      -16.401373   1.000000
    7      -16.316456   1.000000
    8      -16.198945   1.000000
    9      -16.129327   1.000000
   10      -16.038666   1.000000
   11      -15.940313   1.000000
   12      -15.866655   1.000000
   13      -15.776208   1.000000
   14      -15.703285   1.000000
   15      -15.614993   1.000000
   16      -15.544632   1.000000
   17      -15.476312   1.000000
   18      -15.395873   1.000000
   19       -9.578857   1.000000
   20       -9.399068   1.000000
   21       -9.194654   1.000000
   22       -9.034591   1.000000
   23       -8.822458   1.000000
   24       -8.750994   1.000000
   25       -8.614870   1.000000
   26       -8.473884   1.000000
   27       -8.442832   1.000000
   28       -8.355604   1.000000
   29       -8.235139   1.000000
   30       -8.206834   1.000000
   31       -8.094973   1.000000
   32       -8.020012   1.000000
   33       -7.941660   1.000000
   34       -7.900973   1.000000
   35       -7.760791   1.000000
   36       -7.644266   1.000000
   37       -7.501363   1.000000
   38       -7.425980   1.000000
   39       -7.339864   1.000000
   40       -7.297965   1.000000
   41       -7.256197   1.000000
   42       -7.183602   1.000000
   43       -7.068426   1.000000
   44       -6.942260   1.000000
   45       -6.846199   1.000000
   46       -6.822809   1.000000
   47       -6.706631   1.000000