       N       E                     dE             d eps       ncg     rms          rms(c)
DAV:   1     0.112348110816E+04    0.11235E+04   -0.35866E+04  8160   0.577E+02
DAV:   2    -0.351155345591E+01   -0.11270E+04   -0.10859E+04 11000   0.173E+02
DAV:   3    -0.199853656922E+03   -0.19634E+03   -0.18838E+03 10960   0.819E+01
DAV:   4    -0.208941346866E+03   -0.90877E+01   -0.87792E+01 11920   0.259E+01
DAV:   5    -0.209288096404E+03   -0.34675E+00   -0.34582E+00 11560   0.379E+00    0.275E+01
DAV:   6    -0.236791683277E+03   -0.27504E+02   -0.11059E+02 12640   0.604E+01    0.594E+01
DAV:   7    -0.196668488083E+03    0.40123E+02   -0.17922E+02 13200   0.152E+02    0.203E+01
DAV:   8    -0.190028246230E+03    0.66402E+01   -0.20787E+01 11840   0.134E+01    0.136E+01
DAV:   9    -0.188240282374E+03    0.17880E+01   -0.30933E+00 11920   0.626E+00    0.919E+00
DAV:  10    -0.187056262506E+03    0.11840E+01   -0.18279E+00 13360   0.773E+00    0.299E+00
DAV:  11    -0.186995901722E+03    0.60361E-01   -0.62048E-01 12480   0.238E+00    0.248E+00
DAV:  12    -0.187073561512E+03   -0.77660E-01   -0.59421E-01 12600   0.413E+00    0.454E+00
DAV:  13    -0.186906079950E+03    0.16748E+00   -0.42565E-01 12920   0.363E+00    0.185E+00
DAV:  14    -0.186893869407E+03    0.12211E-01   -0.11948E-01 12960   0.209E+00    0.177E+00
DAV:  15    -0.186870078658E+03    0.23791E-01   -0.58122E-02 12760   0.147E+00    0.736E-01
DAV:  16    -0.186865582259E+03    0.44964E-02   -0.88628E-03 12800   0.372E-01    0.414E-01
DAV:  17    -0.186863620711E+03    0.19615E-02   -0.74674E-03 12800   0.368E-01    0.222E-01
DAV:  18    -0.186862980022E+03    0.64069E-03   -0.17472E-03 11680   0.126E-01    0.131E-01
DAV:  19    -0.186862857771E+03    0.12225E-03   -0.59316E-04  9920   0.995E-02    0.449E-02
DAV:  20    -0.186863704542E+03   -0.84677E-03   -0.76597E-04  9120   0.508E-02    0.376E-02
DAV:  21    -0.186864385270E+03   -0.68073E-03   -0.19192E-04  8120   0.394E-02    0.339E-02
DAV:  22    -0.186865417853E+03   -0.10326E-02   -0.16172E-04  7600   0.461E-02    0.405E-02
DAV:  23    -0.186866565666E+03   -0.11478E-02   -0.13686E-04  7440   0.487E-02    0.162E-02
DAV:  24    -0.186867140773E+03   -0.57511E-03   -0.28897E-05  6760   0.170E-02    0.454E-03
DAV:  25    -0.186867505474E+03   -0.36470E-03   -0.16877E-05  5520   0.963E-03    0.439E-03
DAV:  26    -0.186867749138E+03   -0.24366E-03   -0.93639E-06  6800   0.724E-03    0.157E-03
DAV:  27    -0.186867840007E+03   -0.90869E-04   -0.32734E-06  7200   0.416E-03
   1 F= -.18686784E+03 E0= -.18669574E+03  d E =-.186868E+03
       N       E                     dE             d eps       ncg     rms          rms(c)
DAV:   1    -0.187506838525E+03   -0.63909E+00   -0.27185E+02  8160   0.350E+01    0.467E+00
DAV:   2    -0.189514000924E+03   -0.20072E+01   -0.20435E+01 12240   0.156E+01    0.986E+00
DAV:   3    -0.189363199920E+03    0.15080E+00   -0.50268E+00 12440   0.126E+01    0.648E+00
DAV:   4    -0.188791560885E+03    0.57164E+00   -0.60331E-01 12440   0.458E+00    0.230E+00
DAV:   5    -0.188886408136E+03   -0.94847E-01   -0.45010E-01 11240   0.375E+00    0.524E+00
DAV:   6    -0.188758642120E+03    0.12777E+00   -0.73495E-01 12640   0.410E+00    0.223E+00
DAV:   7    -0.188704692186E+03    0.53950E-01   -0.19648E-01 10520   0.140E+00    0.136E+00
DAV:   8    -0.188696135804E+03    0.85564E-02   -0.91309E-02 12920   0.147E+00    0.150E+00
DAV:   9    -0.188681086850E+03    0.15049E-01   -0.32709E-02 11920   0.106E+00    0.625E-01
DAV:  10    -0.188677439742E+03    0.36471E-02   -0.71350E-03 12440   0.380E-01    0.330E-01
DAV:  11    -0.188676738424E+03    0.70132E-03   -0.37504E-03 12840   0.280E-01    0.128E-01
DAV:  12    -0.188676835731E+03   -0.97307E-04   -0.95323E-04 12000   0.988E-02
   2 F= -.18867684E+03 E0= -.18853551E+03  d E =-.180900E+01
       N       E                     dE             d eps       ncg     rms          rms(c)
DAV:   1    -0.190607401691E+03   -0.19307E+01   -0.31416E+01  9120   0.143E+01    0.446E+00
DAV:   2    -0.190566999747E+03    0.40402E-01   -0.28186E+00 11160   0.953E+00    0.734E+00
DAV:   3    -0.190088003245E+03    0.47900E+00   -0.14096E+00 12320   0.862E+00    0.425E+00
DAV:   4    -0.189880733339E+03    0.20727E+00   -0.76868E-01 12680   0.423E+00    0.265E+00
DAV:   5    -0.189920098736E+03   -0.39365E-01   -0.47532E-01 12240   0.405E+00    0.375E+00
DAV:   6    -0.189775656058E+03    0.14444E+00   -0.21615E-01 12280   0.316E+00    0.655E-01
DAV:   7    -0.189769470896E+03    0.61852E-02   -0.16162E-02 12520   0.511E-01    0.266E-01
DAV:   8    -0.189770498762E+03   -0.10279E-02   -0.51855E-03 11640   0.419E-01    0.412E-01
DAV:   9    -0.189769283500E+03    0.12153E-02   -0.27010E-03 11120   0.331E-01    0.133E-01
DAV:  10    -0.189769570878E+03   -0.28738E-03   -0.90007E-04 10200   0.115E-01    0.129E-01
DAV:  11    -0.189769354974E+03    0.21590E-03   -0.46671E-04  8880   0.742E-02    0.198E-02
DAV:  12    -0.189769377273E+03   -0.22298E-04   -0.68097E-05  7040   0.269E-02
   3 F= -.18976938E+03 E0= -.18964926E+03  d E =-.109254E+01
       N       E                     dE             d eps       ncg     rms          rms(c)
DAV:   1    -0.191314311079E+03   -0.15450E+01   -0.75286E+01  8160   0.198E+01    0.456E+00
DAV:   2    -0.191164827428E+03    0.14948E+00   -0.53461E+00 13160   0.782E+00    0.478E+00
DAV:   3    -0.191269141656E+03   -0.10431E+00   -0.15782E+00 12240   0.905E+00    0.643E+00
DAV:   4    -0.190873253840E+03    0.39589E+00   -0.12258E+00 12960   0.722E+00    0.263E+00
DAV:   5    -0.190789650720E+03    0.83603E-01   -0.31510E-01 12280   0.272E+00    0.182E+00
DAV:   6    -0.190772167598E+03    0.17483E-01   -0.15922E-01 12640   0.258E+00    0.166E+00
DAV:   7    -0.190751088544E+03    0.21079E-01   -0.64249E-02 11800   0.154E+00    0.494E-01
DAV:   8    -0.190747998402E+03    0.30901E-02   -0.89862E-03 11560   0.474E-01    0.320E-01
DAV:   9    -0.190747400534E+03    0.59787E-03   -0.28299E-03 11440   0.364E-01    0.211E-01
DAV:  10    -0.190747515445E+03   -0.11491E-03   -0.14940E-03 11160   0.206E-01    0.138E-01
DAV:  11    -0.190747301556E+03    0.21389E-03   -0.92642E-04 10040   0.111E-01    0.463E-02
DAV:  12    -0.190747296876E+03    0.46808E-05   -0.14093E-04  7360   0.441E-02
   4 F= -.19074730E+03 E0= -.19064225E+03  d E =-.977920E+00
       N       E                     dE             d eps       ncg     rms          rms(c)
DAV:   1    -0.192157237504E+03   -0.14099E+01   -0.16448E+02  8160   0.287E+01    0.576E+00
DAV:   2    -0.191865822881E+03    0.29141E+00   -0.95594E+00 11320   0.819E+00    0.388E+00
DAV:   3    -0.192011225984E+03   -0.14540E+00   -0.20522E+00 12080   0.868E+00    0.742E+00
DAV:   4    -0.191753041011E+03    0.25818E+00   -0.25205E+00 11480   0.108E+01    0.452E+00
DAV:   5    -0.191587101992E+03    0.16594E+00   -0.77203E-01 12280   0.583E+00    0.347E+00
DAV:   6    -0.191436111736E+03    0.15099E+00   -0.28090E-01 12240   0.382E+00    0.122E+00
DAV:   7    -0.191427880577E+03    0.82312E-02   -0.72393E-02 12320   0.143E+00    0.833E-01
DAV:   8    -0.191426055140E+03    0.18254E-02   -0.34069E-02 12040   0.122E+00    0.775E-01
DAV:   9    -0.191419492095E+03    0.65630E-02   -0.10699E-02 12440   0.701E-01    0.186E-01
DAV:  10    -0.191419782899E+03   -0.29080E-03   -0.23751E-03 11240   0.183E-01    0.109E-01
DAV:  11    -0.191419637694E+03    0.14520E-03   -0.64252E-04 11200   0.971E-02    0.554E-02
DAV:  12    -0.191419619225E+03    0.18469E-04   -0.10718E-04  7040   0.461E-02
   5 F= -.19141962E+03 E0= -.19131715E+03  d E =-.672322E+00
       N       E                     dE             d eps       ncg     rms          rms(c)
DAV:   1    -0.191483866659E+03   -0.64229E-01   -0.46197E+00  8160   0.456E+00    0.674E-01
DAV:   2    -0.191546677208E+03   -0.62811E-01   -0.28234E-01 12960   0.300E+00    0.231E+00
DAV:   3    -0.191493421624E+03    0.53256E-01   -0.10860E-01 12440   0.232E+00    0.455E-01
DAV:   4    -0.191495949241E+03   -0.25276E-02   -0.18475E-02 11120   0.880E-01    0.737E-01
DAV:   5    -0.191490738116E+03    0.52111E-02   -0.12124E-02 11280   0.734E-01    0.255E-01
DAV:   6    -0.191490448258E+03    0.28986E-03   -0.35483E-03 10960   0.283E-01    0.209E-01
DAV:   7    -0.191490828065E+03   -0.37981E-03   -0.37329E-03 11480   0.403E-01    0.317E-01
DAV:   8    -0.191489851015E+03    0.97705E-03   -0.18899E-03  9720   0.284E-01    0.474E-02
DAV:   9    -0.191489839371E+03    0.11644E-04   -0.10582E-04  5720   0.444E-02
   6 F= -.19148984E+03 E0= -.19138499E+03  d E =-.702201E-01
       N       E                     dE             d eps       ncg     rms          rms(c)
DAV:   1    -0.191535837597E+03   -0.45987E-01   -0.22490E+00  8160   0.316E+00    0.366E-01
DAV:   2    -0.191549587302E+03   -0.13750E-01   -0.72923E-02 13400   0.118E+00    0.103E+00
DAV:   3    -0.191538957417E+03    0.10630E-01   -0.28781E-02 12160   0.116E+00    0.346E-01
DAV:   4    -0.191539280460E+03   -0.32304E-03   -0.63586E-03 11080   0.492E-01    0.400E-01
DAV:   5    -0.191537746805E+03    0.15337E-02   -0.38345E-03 11040   0.417E-01    0.139E-01
DAV:   6    -0.191537656093E+03    0.90712E-04   -0.91110E-04  9960   0.137E-01
   7 F= -.19153766E+03 E0= -.19143193E+03  d E =-.478167E-01
       N       E                     dE             d eps       ncg     rms          rms(c)
DAV:   1    -0.191594406182E+03   -0.56659E-01   -0.33650E+00  8160   0.386E+00    0.447E-01
DAV:   2    -0.191620787403E+03   -0.26381E-01   -0.11840E-01 13600   0.164E+00    0.151E+00
DAV:   3    -0.191598999061E+03    0.21788E-01   -0.56673E-02 12200   0.154E+00    0.404E-01
DAV:   4    -0.191599686236E+03   -0.68717E-03   -0.10371E-02 11360   0.640E-01    0.478E-01
DAV:   5    -0.191597344616E+03    0.23416E-02   -0.49668E-03 11240   0.476E-01    0.145E-01
DAV:   6    -0.191597384513E+03   -0.39897E-04   -0.13673E-03 10400   0.178E-01    0.149E-01
DAV:   7    -0.191597629830E+03   -0.24532E-03   -0.17467E-03 10240   0.283E-01    0.235E-01
DAV:   8    -0.191597087729E+03    0.54210E-03   -0.88643E-04  8320   0.198E-01    0.274E-02
DAV:   9    -0.191597106807E+03   -0.19078E-04   -0.60338E-05  5640   0.308E-02
   8 F= -.19159711E+03 E0= -.19149088E+03  d E =-.594507E-01
       N       E                     dE             d eps       ncg     rms          rms(c)
DAV:   1    -0.191625544660E+03   -0.28457E-01   -0.77061E-01  8160   0.185E+00    0.218E-01
DAV:   2    -0.191631758840E+03   -0.62142E-02   -0.29237E-02 13480   0.898E-01    0.709E-01
DAV:   3    -0.191626650562E+03    0.51083E-02   -0.11517E-02 11320   0.728E-01    0.178E-01
DAV:   4    -0.191626950419E+03   -0.29986E-03   -0.23150E-03  9760   0.304E-01    0.246E-01
DAV:   5    -0.191626346896E+03    0.60352E-03   -0.12728E-03  9400   0.238E-01    0.634E-02
DAV:   6    -0.191626364549E+03   -0.17653E-04   -0.23323E-04  6680   0.640E-02
   9 F= -.19162636E+03 E0= -.19152014E+03  d E =-.292577E-01
       N       E                     dE             d eps       ncg     rms          rms(c)
DAV:   1    -0.191606477289E+03    0.19870E-01   -0.33286E-01  8160   0.122E+00    0.140E-01
DAV:   2    -0.191609200889E+03   -0.27236E-02   -0.12590E-02 12760   0.564E-01    0.466E-01
DAV:   3    -0.191606899312E+03    0.23016E-02   -0.47772E-03 11400   0.467E-01    0.109E-01
DAV:   4    -0.191607031768E+03   -0.13246E-03   -0.90532E-04  8720   0.190E-01    0.151E-01
DAV:   5    -0.191606789191E+03    0.24258E-03   -0.48640E-04  8560   0.152E-01    0.386E-02
DAV:   6    -0.191606797205E+03   -0.80139E-05   -0.10186E-04  6200   0.488E-02
  10 F= -.19160680E+03 E0= -.19150048E+03  d E =0.195673E-01
       N       E                     dE             d eps       ncg     rms          rms(c)
DAV:   1    -0.191568091722E+03    0.38697E-01   -0.17647E+00  8160   0.287E+00    0.406E-01
DAV:   2    -0.191581307971E+03   -0.13216E-01   -0.81709E-02 11400   0.135E+00    0.105E+00
DAV:   3    -0.191570403270E+03    0.10905E-01   -0.28248E-02 11920   0.113E+00    0.375E-01
DAV:   4    -0.191570572873E+03   -0.16960E-03   -0.80001E-03 11280   0.546E-01    0.406E-01
DAV:   5    -0.191569076585E+03    0.14963E-02   -0.52490E-03 10760   0.491E-01    0.208E-01
DAV:   6    -0.191568680414E+03    0.39617E-03   -0.17998E-03 11640   0.237E-01    0.896E-02
DAV:   7    -0.191568557860E+03    0.12255E-03   -0.60110E-04 11360   0.940E-02    0.448E-02
DAV:   8    -0.191568565174E+03   -0.73138E-05   -0.14675E-04  6520   0.812E-02
  11 F= -.19156857E+03 E0= -.19146227E+03  d E =0.382320E-01
       N       E                     dE             d eps       ncg     rms          rms(c)
DAV:   1    -0.191350388232E+03    0.21817E+00   -0.44041E+01  8160   0.142E+01    0.157E+00
DAV:   2    -0.191578811999E+03   -0.22842E+00   -0.14243E+00 12560   0.528E+00    0.361E+00
DAV:   3    -0.191413852471E+03    0.16496E+00   -0.28214E-01 11760   0.413E+00    0.115E+00
DAV:   4    -0.191414392219E+03   -0.53975E-03   -0.70964E-02 12400   0.165E+00    0.136E+00
DAV:   5    -0.191399085214E+03    0.15307E-01   -0.53094E-02 11560   0.160E+00    0.636E-01
DAV:   6    -0.191396836492E+03    0.22487E-02   -0.15912E-02 11480   0.670E-01    0.369E-01
DAV:   7    -0.191396431690E+03    0.40480E-03   -0.10893E-02 12200   0.661E-01    0.510E-01
DAV:   8    -0.191393998091E+03    0.24336E-02   -0.48955E-03 11320   0.468E-01    0.957E-02
DAV:   9    -0.191393965276E+03    0.32815E-04   -0.50421E-04  9960   0.977E-02
  12 F= -.19139397E+03 E0= -.19129300E+03  d E =0.174600E+00
       N       E                     dE             d eps       ncg     rms          rms(c)
DAV:   1    -0.191432637703E+03   -0.38640E-01   -0.24555E+00  8160   0.333E+00    0.441E-01
DAV:   2    -0.191454808201E+03   -0.22170E-01   -0.13597E-01 13400   0.175E+00    0.119E+00
DAV:   3    -0.191439918248E+03    0.14890E-01   -0.35540E-02 12320   0.135E+00    0.336E-01
DAV:   4    -0.191440148442E+03   -0.23019E-03   -0.67171E-03 11440   0.519E-01    0.421E-01
DAV:   5    -0.191438618607E+03    0.15298E-02   -0.48016E-03 11480   0.481E-01    0.200E-01
DAV:   6    -0.191438274537E+03    0.34407E-03   -0.15484E-03 11320   0.201E-01    0.888E-02
DAV:   7    -0.191438306442E+03   -0.31906E-04   -0.85508E-04 10840   0.151E-01
  13 F= -.19143831E+03 E0= -.19133566E+03  d E =-.443412E-01
       N       E                     dE             d eps       ncg     rms          rms(c)
DAV:   1    -0.191437306975E+03    0.96756E-03   -0.88343E+00  8160   0.643E+00    0.695E-01
DAV:   2    -0.191465114807E+03   -0.27808E-01   -0.22046E-01 13440   0.192E+00    0.151E+00
DAV:   3    -0.191448565543E+03    0.16549E-01   -0.69300E-02 11960   0.181E+00    0.736E-01
DAV:   4    -0.191444065597E+03    0.44999E-02   -0.13216E-02 12360   0.728E-01    0.389E-01
DAV:   5    -0.191443395571E+03    0.67003E-03   -0.84975E-03 11160   0.656E-01    0.440E-01
DAV:   6    -0.191442511624E+03    0.88395E-03   -0.75968E-03 10480   0.584E-01    0.300E-01
DAV:   7    -0.191442008697E+03    0.50293E-03   -0.35488E-03 11280   0.398E-01    0.249E-01
DAV:   8    -0.191441345616E+03    0.66308E-03   -0.12281E-03  9760   0.251E-01    0.482E-02
DAV:   9    -0.191441334737E+03    0.10879E-04   -0.96411E-05  6480   0.490E-02
  14 F= -.19144133E+03 E0= -.19133952E+03  d E =-.302829E-02
       N       E                     dE             d eps       ncg     rms          rms(c)
DAV:   1    -0.191499065918E+03   -0.57720E-01   -0.58264E+00  8160   0.510E+00    0.614E-01
DAV:   2    -0.191546055339E+03   -0.46989E-01   -0.21950E-01 13600   0.253E+00    0.199E+00
DAV:   3    -0.191508395485E+03    0.37660E-01   -0.89008E-02 12160   0.210E+00    0.535E-01
DAV:   4    -0.191508890644E+03   -0.49516E-03   -0.15635E-02 11440   0.850E-01    0.609E-01
DAV:   5    -0.191505183266E+03    0.37074E-02   -0.86651E-03 11560   0.659E-01    0.236E-01
DAV:   6    -0.191504594132E+03    0.58913E-03   -0.23547E-03 10640   0.222E-01    0.118E-01
DAV:   7    -0.191504687589E+03   -0.93458E-04   -0.13287E-03 11800   0.200E-01    0.169E-01
DAV:   8    -0.191504405665E+03    0.28192E-03   -0.67334E-04  8800   0.184E-01    0.575E-02
DAV:   9    -0.191504377548E+03    0.28116E-04   -0.95285E-05  5960   0.565E-02
  15 F= -.19150438E+03 E0= -.19140144E+03  d E =-.630428E-01
       N       E                     dE             d eps       ncg     rms          rms(c)
DAV:   1    -0.191446573213E+03    0.57832E-01   -0.42676E+00  8160   0.438E+00    0.500E-01
DAV:   2    -0.191470764896E+03   -0.24192E-01   -0.13858E-01 13600   0.186E+00    0.129E+00
DAV:   3    -0.191452077526E+03    0.18687E-01   -0.38450E-02 11840   0.146E+00    0.412E-01
DAV:   4    -0.191452448232E+03   -0.37071E-03   -0.97842E-03 11240   0.620E-01    0.476E-01
DAV:   5    -0.191450506299E+03    0.19419E-02   -0.64619E-03 11280   0.573E-01    0.251E-01
DAV:   6    -0.191449853153E+03    0.65315E-03   -0.20274E-03 10960   0.249E-01    0.101E-01
DAV:   7    -0.191449752007E+03    0.10115E-03   -0.57412E-04 10760   0.977E-02    0.557E-02
DAV:   8    -0.191449741276E+03    0.10731E-04   -0.16373E-04  6760   0.905E-02
  16 F= -.19144974E+03 E0= -.19134714E+03  d E =0.546363E-01
       N       E                     dE             d eps       ncg     rms          rms(c)
DAV:   1    -0.191385594945E+03    0.64157E-01   -0.68707E+00  8160   0.553E+00    0.598E-01
DAV:   2    -0.191421046929E+03   -0.35452E-01   -0.19869E-01 12800   0.205E+00    0.155E+00
DAV:   3    -0.191395004542E+03    0.26042E-01   -0.57478E-02 11840   0.176E+00    0.556E-01
DAV:   4    -0.191394577679E+03    0.42686E-03   -0.13249E-02 11240   0.728E-01    0.516E-01
DAV:   5    -0.191392212813E+03    0.23649E-02   -0.76746E-03 10960   0.639E-01    0.286E-01
DAV:   6    -0.191391455408E+03    0.75740E-03   -0.27053E-03 11920   0.306E-01    0.137E-01
DAV:   7    -0.191391550437E+03   -0.95029E-04   -0.13367E-03 11240   0.220E-01    0.185E-01
DAV:   8    -0.191391214485E+03    0.33595E-03   -0.72142E-04  8600   0.191E-01    0.482E-02
DAV:   9    -0.191391206229E+03    0.82561E-05   -0.64027E-05  6080   0.459E-02
  17 F= -.19139121E+03 E0= -.19128991E+03  d E =0.585350E-01
       N       E                     dE             d eps       ncg     rms          rms(c)
DAV:   1    -0.191389033149E+03    0.21813E-02   -0.11283E+00  8160   0.225E+00    0.255E-01
DAV:   2    -0.191392829769E+03   -0.37966E-02   -0.35108E-02 12720   0.720E-01    0.496E-01
DAV:   3    -0.191391278942E+03    0.15508E-02   -0.10443E-02 12280   0.693E-01    0.363E-01
DAV:   4    -0.191390054042E+03    0.12249E-02   -0.27792E-03 11320   0.331E-01    0.117E-01
DAV:   5    -0.191389898210E+03    0.15583E-03   -0.80867E-04 10040   0.134E-01    0.916E-02
DAV:   6    -0.191390033802E+03   -0.13559E-03   -0.72605E-04 10000   0.203E-01    0.138E-01
DAV:   7    -0.191389827697E+03    0.20611E-03   -0.40424E-04  8400   0.150E-01    0.411E-02
DAV:   8    -0.191389832021E+03   -0.43243E-05   -0.10877E-04  5800   0.680E-02
  18 F= -.19138983E+03 E0= -.19128873E+03  d E =0.137421E-02
       N       E                     dE             d eps       ncg     rms          rms(c)
DAV:   1    -0.191430274764E+03   -0.40447E-01   -0.39971E+00  8160   0.424E+00    0.520E-01
DAV:   2    -0.191457085439E+03   -0.26811E-01   -0.13876E-01 13600   0.195E+00    0.152E+00
DAV:   3    -0.191435284067E+03    0.21801E-01   -0.53531E-02 12200   0.164E+00    0.461E-01
DAV:   4    -0.191435513938E+03   -0.22987E-03   -0.11345E-02 11440   0.705E-01    0.511E-01
DAV:   5    -0.191433121312E+03    0.23926E-02   -0.71382E-03 11040   0.605E-01    0.261E-01
DAV:   6    -0.191432369828E+03    0.75148E-03   -0.23576E-03 11000   0.255E-01    0.108E-01
DAV:   7    -0.191432563495E+03   -0.19367E-03   -0.12777E-03 10840   0.221E-01    0.191E-01
DAV:   8    -0.191432195446E+03    0.36805E-03   -0.71640E-04  8880   0.190E-01    0.406E-02
DAV:   9    -0.191432188237E+03    0.72094E-05   -0.60732E-05  6040   0.405E-02
  19 F= -.19143219E+03 E0= -.19132953E+03  d E =-.423562E-01
       N       E                     dE             d eps       ncg     rms          rms(c)
DAV:   1    -0.191462106806E+03   -0.29911E-01   -0.17120E+00  8160   0.278E+00    0.348E-01
DAV:   2    -0.191475639788E+03   -0.13533E-01   -0.67113E-02 13600   0.140E+00    0.105E+00
DAV:   3    -0.191464507021E+03    0.11133E-01   -0.24583E-02 12240   0.112E+00    0.274E-01
DAV:   4    -0.191465030681E+03   -0.52366E-03   -0.50020E-03 11400   0.475E-01    0.374E-01
DAV:   5    -0.191463690860E+03    0.13398E-02   -0.31971E-03 11160   0.398E-01    0.139E-01
DAV:   6    -0.191463508375E+03    0.18249E-03   -0.82316E-04  9800   0.131E-01    0.660E-02
DAV:   7    -0.191463448777E+03    0.59598E-04   -0.27949E-04  8120   0.596E-02
  20 F= -.19146345E+03 E0= -.19136004E+03  d E =-.312605E-01
       N       E                     dE             d eps       ncg     rms          rms(c)
DAV:   1    -0.191425872318E+03    0.37636E-01   -0.21847E+00  8160   0.313E+00    0.369E-01
DAV:   2    -0.191440247510E+03   -0.14375E-01   -0.79121E-02 13600   0.143E+00    0.100E+00
DAV:   3    -0.191428955333E+03    0.11292E-01   -0.22062E-02 12080   0.111E+00    0.274E-01
DAV:   4    -0.191429399969E+03   -0.44464E-03   -0.50044E-03 10880   0.452E-01    0.371E-01
DAV:   5    -0.191428130877E+03    0.12691E-02   -0.34055E-03 10960   0.412E-01    0.156E-01
DAV:   6    -0.191427926008E+03    0.20487E-03   -0.97223E-04 10200   0.156E-01    0.760E-02
DAV:   7    -0.191427859307E+03    0.66701E-04   -0.34008E-04  9080   0.794E-02
  21 F= -.19142786E+03 E0= -.19132511E+03  d E =0.355895E-01
       N       E                     dE             d eps       ncg     rms          rms(c)
DAV:   1    -0.191368840548E+03    0.59085E-01   -0.60452E+00  8160   0.520E+00    0.573E-01
DAV:   2    -0.191399158370E+03   -0.30318E-01   -0.19072E-01 13320   0.196E+00    0.137E+00
DAV:   3    -0.191378171203E+03    0.20987E-01   -0.48185E-02 11840   0.162E+00    0.501E-01
DAV:   4    -0.191378211808E+03   -0.40605E-04   -0.12374E-02 11560   0.694E-01    0.532E-01
DAV:   5    -0.191375699730E+03    0.25121E-02   -0.73660E-03 11400   0.615E-01    0.261E-01
DAV:   6    -0.191375117780E+03    0.58195E-03   -0.24419E-03 11480   0.280E-01    0.128E-01
DAV:   7    -0.191374945714E+03    0.17207E-03   -0.87830E-04 10920   0.123E-01    0.599E-02
DAV:   8    -0.191374925384E+03    0.20330E-04   -0.21709E-04  7200   0.101E-01
  22 F= -.19137493E+03 E0= -.19127292E+03  d E =0.529339E-01
       N       E                     dE             d eps       ncg     rms          rms(c)
DAV:   1    -0.191354991018E+03    0.19955E-01   -0.24833E+00  8160   0.332E+00    0.363E-01
DAV:   2    -0.191365489394E+03   -0.10498E-01   -0.72462E-02 13240   0.119E+00    0.819E-01
DAV:   3    -0.191358640270E+03    0.68491E-02   -0.20091E-02 11360   0.100E+00    0.379E-01
DAV:   4    -0.191357969184E+03    0.67109E-03   -0.54287E-03 11320   0.470E-01    0.301E-01
DAV:   5    -0.191357367342E+03    0.60184E-03   -0.29919E-03 10800   0.394E-01    0.210E-01
DAV:   6    -0.191356917865E+03    0.44948E-03   -0.11938E-03 10760   0.224E-01    0.713E-02
DAV:   7    -0.191356917981E+03   -0.11531E-06   -0.40650E-04  9280   0.794E-02
  23 F= -.19135692E+03 E0= -.19125455E+03  d E =0.180074E-01
       N       E                     dE             d eps       ncg     rms          rms(c)
DAV:   1    -0.191394940391E+03   -0.38023E-01   -0.43883E+00  8160   0.445E+00    0.547E-01
DAV:   2    -0.191426203125E+03   -0.31263E-01   -0.16201E-01 13600   0.212E+00    0.158E+00
DAV:   3    -0.191401036312E+03    0.25167E-01   -0.58902E-02 12200   0.174E+00    0.444E-01
DAV:   4    -0.191401722332E+03   -0.68602E-03   -0.11885E-02 11480   0.717E-01    0.564E-01
DAV:   5    -0.191398814248E+03    0.29081E-02   -0.78414E-03 11200   0.623E-01    0.248E-01
DAV:   6    -0.191398119367E+03    0.69488E-03   -0.22945E-03 11160   0.245E-01    0.105E-01
DAV:   7    -0.191398278802E+03   -0.15943E-03   -0.12438E-03 11080   0.202E-01    0.176E-01
DAV:   8    -0.191397973592E+03    0.30521E-03   -0.66813E-04  8840   0.184E-01    0.533E-02
DAV:   9    -0.191397949379E+03    0.24213E-04   -0.79121E-05  5920   0.523E-02
  24 F= -.19139795E+03 E0= -.19129413E+03  d E =-.410314E-01
       N       E                     dE             d eps       ncg     rms          rms(c)
DAV:   1    -0.191410729295E+03   -0.12756E-01   -0.50184E-01  8160   0.150E+00    0.176E-01
DAV:   2    -0.191413751391E+03   -0.30221E-02   -0.16988E-02 13600   0.678E-01    0.470E-01
DAV:   3    -0.191411402592E+03    0.23488E-02   -0.54060E-03 11680   0.538E-01    0.141E-01
DAV:   4    -0.191411457111E+03   -0.54519E-04   -0.11379E-03  9720   0.211E-01    0.169E-01
DAV:   5    -0.191411231495E+03    0.22562E-03   -0.76902E-04  8520   0.198E-01    0.911E-02
DAV:   6    -0.191411149774E+03    0.81720E-04   -0.22134E-04  5880   0.889E-02
  25 F= -.19141115E+03 E0= -.19130659E+03  d E =-.132004E-01
       N       E                     dE             d eps       ncg     rms          rms(c)
DAV:   1    -0.191400031144E+03    0.11200E-01   -0.15513E+00  8160   0.268E+00    0.385E-01
DAV:   2    -0.191406137433E+03   -0.61063E-02   -0.53917E-02 12640   0.118E+00    0.769E-01
DAV:   3    -0.191400132678E+03    0.60048E-02   -0.16526E-02 12080   0.980E-01    0.315E-01
DAV:   4    -0.191399616554E+03    0.51612E-03   -0.50161E-03 10960   0.428E-01    0.309E-01
DAV:   5    -0.191399407812E+03    0.20874E-03   -0.45648E-03 11560   0.477E-01    0.307E-01
DAV:   6    -0.191398408019E+03    0.99979E-03   -0.22692E-03 10880   0.301E-01    0.752E-02
DAV:   7    -0.191398380990E+03    0.27029E-04   -0.39475E-04  8000   0.793E-02
  26 F= -.19139838E+03 E0= -.19129558E+03  d E =0.127688E-01
       N       E                     dE             d eps       ncg     rms          rms(c)
DAV:   1    -0.191449532649E+03   -0.51125E-01   -0.74816E+00  8160   0.582E+00    0.729E-01
DAV:   2    -0.191491537185E+03   -0.42005E-01   -0.25501E-01 13600   0.261E+00    0.185E+00
DAV:   3    -0.191456959740E+03    0.34577E-01   -0.85435E-02 12240   0.215E+00    0.558E-01
DAV:   4    -0.191457674666E+03   -0.71493E-03   -0.19075E-02 12320   0.865E-01    0.723E-01
DAV:   5    -0.191453794491E+03    0.38802E-02   -0.15533E-02 10800   0.877E-01    0.448E-01
DAV:   6    -0.191451726695E+03    0.20678E-02   -0.58139E-03 11320   0.432E-01    0.160E-01
DAV:   7    -0.191451673882E+03    0.52813E-04   -0.19775E-03 11680   0.224E-01    0.167E-01
DAV:   8    -0.191451449866E+03    0.22402E-03   -0.10350E-03  9040   0.222E-01    0.107E-01
DAV:   9    -0.191451329494E+03    0.12037E-03   -0.24879E-04  6840   0.995E-02    0.250E-02
DAV:  10    -0.191451327137E+03    0.23572E-05   -0.61307E-05  6560   0.290E-02
  27 F= -.19145133E+03 E0= -.19134595E+03  d E =-.529461E-01
       N       E                     dE             d eps       ncg     rms          rms(c)
DAV:   1    -0.191481613726E+03   -0.30284E-01   -0.18257E+00  8160   0.286E+00    0.336E-01
DAV:   2    -0.191493076988E+03   -0.11463E-01   -0.61024E-02 13600   0.127E+00    0.965E-01
DAV:   3    -0.191484071022E+03    0.90060E-02   -0.22328E-02 11960   0.105E+00    0.306E-01
DAV:   4    -0.191484179545E+03   -0.10852E-03   -0.47617E-03 11120   0.457E-01    0.339E-01
DAV:   5    -0.191483158342E+03    0.10212E-02   -0.29612E-03 10840   0.388E-01    0.161E-01
DAV:   6    -0.191482873988E+03    0.28435E-03   -0.88286E-04 10400   0.154E-01    0.620E-02
DAV:   7    -0.191482833545E+03    0.40443E-04   -0.25229E-04  7320   0.563E-02
  28 F= -.19148283E+03 E0= -.19137752E+03  d E =-.315064E-01
       N       E                     dE             d eps       ncg     rms          rms(c)
DAV:   1    -0.191451317583E+03    0.31556E-01   -0.20389E+00  8160   0.300E+00    0.306E-01
DAV:   2    -0.191459116706E+03   -0.77991E-02   -0.53704E-02 12320   0.919E-01    0.714E-01
DAV:   3    -0.191454526931E+03    0.45898E-02   -0.15775E-02 12000   0.870E-01    0.363E-01
DAV:   4    -0.191453731988E+03    0.79494E-03   -0.38522E-03 11000   0.383E-01    0.226E-01
DAV:   5    -0.191453346853E+03    0.38513E-03   -0.18258E-03 10240   0.313E-01    0.167E-01
DAV:   6    -0.191453107721E+03    0.23913E-03   -0.91855E-04 10080   0.201E-01    0.810E-02
DAV:   7    -0.191453082666E+03    0.25054E-04   -0.33231E-04  8160   0.984E-02
  29 F= -.19145308E+03 E0= -.19134734E+03  d E =0.297509E-01
       N       E                     dE             d eps       ncg     rms          rms(c)
DAV:   1    -0.191437537721E+03    0.15570E-01   -0.34259E+00  8160   0.389E+00    0.401E-01
DAV:   2    -0.191449010788E+03   -0.11473E-01   -0.94297E-02 12600   0.128E+00    0.842E-01
DAV:   3    -0.191443138049E+03    0.58727E-02   -0.22627E-02 11960   0.105E+00    0.464E-01
DAV:   4    -0.191441843843E+03    0.12942E-02   -0.66238E-03 11280   0.527E-01    0.309E-01
DAV:   5    -0.191441345759E+03    0.49808E-03   -0.37846E-03 10360   0.452E-01    0.256E-01
DAV:   6    -0.191440789415E+03    0.55634E-03   -0.19524E-03 12680   0.286E-01    0.988E-02
DAV:   7    -0.191440719953E+03    0.69462E-04   -0.60950E-04 10040   0.126E-01
  30 F= -.19144072E+03 E0= -.19133491E+03  d E =0.123627E-01
       N       E                     dE             d eps       ncg     rms          rms(c)
DAV:   1    -0.191487417764E+03   -0.46628E-01   -0.60455E+00  8160   0.520E+00    0.597E-01
DAV:   2    -0.191522675365E+03   -0.35258E-01   -0.19713E-01 13520   0.219E+00    0.170E+00
DAV:   3    -0.191496707361E+03    0.25968E-01   -0.68031E-02 12200   0.186E+00    0.576E-01
DAV:   4    -0.191496251252E+03    0.45611E-03   -0.13943E-02 11400   0.791E-01    0.564E-01
DAV:   5    -0.191493300555E+03    0.29507E-02   -0.85683E-03 10800   0.673E-01    0.293E-01
DAV:   6    -0.191492458894E+03    0.84166E-03   -0.31620E-03 11560   0.304E-01    0.139E-01
DAV:   7    -0.191492897773E+03   -0.43888E-03   -0.22879E-03 12080   0.305E-01    0.266E-01
DAV:   8    -0.191492194537E+03    0.70324E-03   -0.13130E-03  9400   0.257E-01    0.515E-02
DAV:   9    -0.191492174931E+03    0.19606E-04   -0.94186E-05  5800   0.505E-02
  31 F= -.19149217E+03 E0= -.19138656E+03  d E =-.514550E-01
       N       E                     dE             d eps       ncg     rms          rms(c)
DAV:   1    -0.191517021010E+03   -0.24826E-01   -0.13095E+00  8160   0.244E+00    0.277E-01
DAV:   2    -0.191522525324E+03   -0.55043E-02   -0.37400E-02 13600   0.946E-01    0.641E-01
DAV:   3    -0.191518252904E+03    0.42724E-02   -0.10563E-02 12120   0.764E-01    0.212E-01
DAV:   4    -0.191518321881E+03   -0.68977E-04   -0.25104E-03 11280   0.303E-01    0.257E-01
DAV:   5    -0.191517908101E+03    0.41378E-03   -0.23212E-03 10200   0.335E-01    0.183E-01
DAV:   6    -0.191517594549E+03    0.31355E-03   -0.92173E-04  9680   0.183E-01    0.642E-02
DAV:   7    -0.191517562978E+03    0.31571E-04   -0.18290E-04  6440   0.742E-02
  32 F= -.19151756E+03 E0= -.19141215E+03  d E =-.253880E-01
       N       E                     dE             d eps       ncg     rms          rms(c)
DAV:   1    -0.191510816202E+03    0.67783E-02   -0.13198E+00  8160   0.244E+00    0.242E-01
DAV:   2    -0.191513564151E+03   -0.27479E-02   -0.29607E-02 13240   0.672E-01    0.416E-01
DAV:   3    -0.191512551084E+03    0.10131E-02   -0.74490E-03 12240   0.599E-01    0.302E-01
DAV:   4    -0.191511947626E+03    0.60346E-03   -0.27217E-03  9880   0.344E-01    0.197E-01
DAV:   5    -0.191511761347E+03    0.18628E-03   -0.15890E-03  9880   0.293E-01    0.159E-01
DAV:   6    -0.191511533792E+03    0.22755E-03   -0.75062E-04 10320   0.164E-01    0.631E-02
DAV:   7    -0.191511587386E+03   -0.53594E-04   -0.33896E-04  8040   0.124E-01
  33 F= -.19151159E+03 E0= -.19140616E+03  d E =0.597559E-02
       N       E                     dE             d eps       ncg     rms          rms(c)
DAV:   1    -0.191486005072E+03    0.25529E-01   -0.46977E+00  8160   0.453E+00    0.462E-01
DAV:   2    -0.191505257820E+03   -0.19253E-01   -0.11835E-01 12080   0.148E+00    0.120E+00
DAV:   3    -0.191492405458E+03    0.12852E-01   -0.34150E-02 12480   0.133E+00    0.465E-01
DAV:   4    -0.191491541554E+03    0.86390E-03   -0.68615E-03 10960   0.542E-01    0.370E-01
DAV:   5    -0.191490370261E+03    0.11713E-02   -0.43011E-03 12120   0.500E-01    0.231E-01
DAV:   6    -0.191490026701E+03    0.34356E-03   -0.19510E-03 11720   0.273E-01    0.131E-01
DAV:   7    -0.191490250813E+03   -0.22411E-03   -0.15243E-03 10240   0.265E-01    0.214E-01
DAV:   8    -0.191489784254E+03    0.46656E-03   -0.82963E-04  8440   0.203E-01    0.361E-02
DAV:   9    -0.191489783551E+03    0.70340E-06   -0.52729E-05  5600   0.347E-02
  34 F= -.19148978E+03 E0= -.19138434E+03  d E =0.218038E-01
       N       E                     dE             d eps       ncg     rms          rms(c)
DAV:   1    -0.191544273849E+03   -0.54490E-01   -0.60112E+00  8160   0.520E+00    0.593E-01
DAV:   2    -0.191575710656E+03   -0.31437E-01   -0.19121E-01 13600   0.213E+00    0.157E+00
DAV:   3    -0.191553320100E+03    0.22391E-01   -0.62046E-02 12120   0.179E+00    0.582E-01
DAV:   4    -0.191552945117E+03    0.37498E-03   -0.14525E-02 11520   0.817E-01    0.587E-01
DAV:   5    -0.191549875209E+03    0.30699E-02   -0.91841E-03 11240   0.698E-01    0.306E-01
DAV:   6    -0.191548865647E+03    0.10096E-02   -0.31990E-03 11440   0.307E-01    0.123E-01
DAV:   7    -0.191548835414E+03    0.30233E-04   -0.12137E-03 11880   0.173E-01    0.134E-01
DAV:   8    -0.191548677412E+03    0.15800E-03   -0.56329E-04  8800   0.170E-01    0.744E-02
DAV:   9    -0.191548619968E+03    0.57444E-04   -0.11976E-04  6040   0.731E-02
  35 F= -.19154862E+03 E0= -.19144418E+03  d E =-.588364E-01
       N       E                     dE             d eps       ncg     rms          rms(c)
DAV:   1    -0.191557968462E+03   -0.92910E-02   -0.47066E-01  8160   0.146E+00    0.140E-01
DAV:   2    -0.191559166786E+03   -0.11983E-02   -0.10656E-02 13040   0.398E-01    0.275E-01
DAV:   3    -0.191558616498E+03    0.55029E-03   -0.23685E-03 10680   0.348E-01    0.160E-01
DAV:   4    -0.191558527897E+03    0.88601E-04   -0.71995E-04  8360   0.192E-01
  36 F= -.19155853E+03 E0= -.19145454E+03  d E =-.990793E-02
       N       E                     dE             d eps       ncg     rms          rms(c)
DAV:   1    -0.191586815484E+03   -0.28199E-01   -0.47892E+00  8160   0.458E+00    0.446E-01
DAV:   2    -0.191600944210E+03   -0.14129E-01   -0.11173E-01 12160   0.134E+00    0.982E-01
DAV:   3    -0.191594089108E+03    0.68551E-02   -0.32380E-02 12560   0.123E+00    0.547E-01
DAV:   4    -0.191591393048E+03    0.26961E-02   -0.63896E-03 10840   0.496E-01    0.215E-01
DAV:   5    -0.191591245121E+03    0.14793E-03   -0.27716E-03 11840   0.344E-01    0.245E-01
DAV:   6    -0.191590965707E+03    0.27941E-03   -0.22638E-03 11920   0.357E-01    0.167E-01
DAV:   7    -0.191590748537E+03    0.21717E-03   -0.93877E-04  9880   0.199E-01    0.111E-01
DAV:   8    -0.191590655618E+03    0.92919E-04   -0.39802E-04  8560   0.143E-01
  37 F= -.19159066E+03 E0= -.19148738E+03  d E =-.321277E-01
       N       E                     dE             d eps       ncg     rms          rms(c)
DAV:   1    -0.191614540298E+03   -0.23792E-01   -0.47021E+00  8160   0.463E+00    0.457E-01
DAV:   2    -0.191627492711E+03   -0.12952E-01   -0.11232E-01 13560   0.137E+00    0.935E-01
DAV:   3    -0.191620886441E+03    0.66063E-02   -0.25125E-02 11640   0.116E+00    0.489E-01
DAV:   4    -0.191620275497E+03    0.61094E-03   -0.81206E-03 11760   0.650E-01    0.454E-01
DAV:   5    -0.191618506107E+03    0.17694E-02   -0.54446E-03 10280   0.583E-01    0.258E-01
DAV:   6    -0.191618004819E+03    0.50129E-03   -0.22960E-03 11000   0.264E-01    0.124E-01
DAV:   7    -0.191617917415E+03    0.87404E-04   -0.92448E-04 10840   0.178E-01
  38 F= -.19161792E+03 E0= -.19151584E+03  d E =-.272618E-01
       N       E                     dE             d eps       ncg     rms          rms(c)
DAV:   1    -0.191697936698E+03   -0.79932E-01   -0.12030E+01  8160   0.743E+00    0.779E-01
DAV:   2    -0.191734232161E+03   -0.36295E-01   -0.32159E-01 13480   0.233E+00    0.150E+00
DAV:   3    -0.191715113203E+03    0.19119E-01   -0.70637E-02 12240   0.201E+00    0.796E-01
DAV:   4    -0.191712952463E+03    0.21607E-02   -0.22578E-02 11920   0.106E+00    0.755E-01
DAV:   5    -0.191708959924E+03    0.39925E-02   -0.15346E-02 12160   0.984E-01    0.522E-01
DAV:   6    -0.191706247052E+03    0.27129E-02   -0.74716E-03 11200   0.547E-01    0.197E-01
DAV:   7    -0.191705901566E+03    0.34549E-03   -0.20555E-03 11960   0.218E-01    0.147E-01
DAV:   8    -0.191705725366E+03    0.17620E-03   -0.76728E-04  9600   0.198E-01    0.872E-02
DAV:   9    -0.191705646643E+03    0.78723E-04   -0.16419E-04  6520   0.884E-02
  39 F= -.19170565E+03 E0= -.19160699E+03  d E =-.877292E-01
       N       E                     dE             d eps       ncg     rms          rms(c)
DAV:   1    -0.191774402615E+03   -0.68677E-01   -0.70284E+00  8160   0.565E+00    0.576E-01
DAV:   2    -0.191793958607E+03   -0.19556E-01   -0.19608E-01 12360   0.167E+00    0.968E-01
DAV:   3    -0.191787085840E+03    0.68728E-02   -0.38832E-02 12200   0.147E+00    0.661E-01
DAV:   4    -0.191784042891E+03    0.30429E-02   -0.12784E-02 12360   0.808E-01    0.441E-01
DAV:   5    -0.191782723137E+03    0.13198E-02   -0.66798E-03 11120   0.640E-01    0.365E-01
DAV:   6    -0.191781601457E+03    0.11217E-02   -0.40620E-03 11720   0.449E-01    0.174E-01
DAV:   7    -0.191781276513E+03    0.32494E-03   -0.11832E-03 11440   0.165E-01    0.823E-02
DAV:   8    -0.191781256693E+03    0.19819E-04   -0.38510E-04  9320   0.139E-01
  40 F= -.19178126E+03 E0= -.19168532E+03  d E =-.756101E-01
       N       E                     dE             d eps       ncg     rms          rms(c)
DAV:   1    -0.191817925702E+03   -0.36649E-01   -0.18873E+00  8160   0.293E+00    0.325E-01
DAV:   2    -0.191823347791E+03   -0.54221E-02   -0.58707E-02 12600   0.921E-01    0.526E-01
DAV:   3    -0.191821485204E+03    0.18626E-02   -0.11869E-02 12280   0.813E-01    0.375E-01
DAV:   4    -0.191820487115E+03    0.99809E-03   -0.43505E-03 11760   0.467E-01    0.248E-01
DAV:   5    -0.191820157726E+03    0.32939E-03   -0.24458E-03 10240   0.377E-01    0.218E-01
DAV:   6    -0.191819717781E+03    0.43995E-03   -0.12967E-03  9680   0.254E-01    0.863E-02
DAV:   7    -0.191819711823E+03    0.59577E-05   -0.37169E-04  8040   0.118E-01
  41 F= -.19181971E+03 E0= -.19172473E+03  d E =-.384551E-01
       N       E                     dE             d eps       ncg     rms          rms(c)
DAV:   1    -0.191898617898E+03   -0.78900E-01   -0.13754E+01  8160   0.787E+00    0.777E-01
DAV:   2    -0.191930327035E+03   -0.31709E-01   -0.38432E-01 12240   0.203E+00    0.101E+00
DAV:   3    -0.191929079389E+03    0.12476E-02   -0.67248E-02 12280   0.188E+00    0.106E+00
DAV:   4    -0.191919228494E+03    0.98509E-02   -0.26398E-02 12320   0.121E+00    0.509E-01
DAV:   5    -0.191917134189E+03    0.20943E-02   -0.10020E-02 10520   0.760E-01    0.434E-01
DAV:   6    -0.191916187574E+03    0.94661E-03   -0.70702E-03 12720   0.639E-01    0.289E-01
DAV:   7    -0.191915090911E+03    0.10967E-02   -0.23002E-03 11840   0.259E-01    0.676E-02
DAV:   8    -0.191915002940E+03    0.87971E-04   -0.33268E-04  8440   0.720E-02
  42 F= -.19191500E+03 E0= -.19182175E+03  d E =-.952911E-01
       N       E                     dE             d eps       ncg     rms          rms(c)
DAV:   1    -0.191968453976E+03   -0.53363E-01   -0.76937E+00  8160   0.596E+00    0.697E-01
DAV:   2    -0.191990152282E+03   -0.21698E-01   -0.26711E-01 12280   0.186E+00    0.106E+00
DAV:   3    -0.191984840173E+03    0.53121E-02   -0.48360E-02 12240   0.167E+00    0.820E-01
DAV:   4    -0.191979542261E+03    0.52979E-02   -0.18536E-02 11600   0.103E+00    0.554E-01
DAV:   5    -0.191977546799E+03    0.19955E-02   -0.93358E-03 11280   0.821E-01    0.451E-01
DAV:   6    -0.191975781203E+03    0.17656E-02   -0.58880E-03 11520   0.547E-01    0.213E-01
DAV:   7    -0.191975833357E+03   -0.52155E-04   -0.27794E-03 11600   0.349E-01    0.263E-01
DAV:   8    -0.191975142941E+03    0.69042E-03   -0.14841E-03  9760   0.282E-01    0.691E-02
DAV:   9    -0.191975085265E+03    0.57676E-04   -0.12103E-04  5920   0.647E-02
  43 F= -.19197509E+03 E0= -.19188121E+03  d E =-.600823E-01
       N       E                     dE             d eps       ncg     rms          rms(c)
DAV:   1    -0.191966466839E+03    0.86761E-02   -0.47652E+01  8160   0.147E+01    0.143E+00
DAV:   2    -0.192076620173E+03   -0.11015E+00   -0.14580E+00 10880   0.353E+00    0.153E+00
DAV:   3    -0.192100089860E+03   -0.23470E-01   -0.22912E-01 12400   0.332E+00    0.228E+00
DAV:   4    -0.192049830460E+03    0.50259E-01   -0.11106E-01 12240   0.243E+00    0.778E-01
DAV:   5    -0.192045268301E+03    0.45622E-02   -0.26808E-02 11720   0.125E+00    0.730E-01
DAV:   6    -0.192043769262E+03    0.14990E-02   -0.23967E-02 12720   0.123E+00    0.588E-01
DAV:   7    -0.192039018057E+03    0.47512E-02   -0.86887E-03 11760   0.587E-01    0.210E-01
DAV:   8    -0.192039002080E+03    0.15977E-04   -0.26368E-03 11840   0.356E-01    0.233E-01
DAV:   9    -0.192038458561E+03    0.54352E-03   -0.10652E-03  9960   0.231E-01    0.656E-02
DAV:  10    -0.192038386005E+03    0.72556E-04   -0.33955E-04  8560   0.645E-02
  44 F= -.19203839E+03 E0= -.19194065E+03  d E =-.633007E-01
       N       E                     dE             d eps       ncg     rms          rms(c)
DAV:   1    -0.192029892434E+03    0.85661E-02   -0.10038E+01  8160   0.669E+00    0.652E-01
DAV:   2    -0.192046800871E+03   -0.16908E-01   -0.23185E-01 11440   0.152E+00    0.797E-01
DAV:   3    -0.192048180047E+03   -0.13792E-02   -0.49082E-02 12320   0.153E+00    0.970E-01
DAV:   4    -0.192039286450E+03    0.88936E-02   -0.18903E-02 12440   0.104E+00    0.351E-01
DAV:   5    -0.192037437817E+03    0.18486E-02   -0.48256E-03 10320   0.341E-01    0.191E-01
DAV:   6    -0.192038614786E+03   -0.11770E-02   -0.43537E-03 12840   0.462E-01    0.401E-01
DAV:   7    -0.192037102961E+03    0.15118E-02   -0.31564E-03 11560   0.428E-01    0.113E-01
DAV:   8    -0.192036976031E+03    0.12693E-03   -0.39355E-04  8800   0.132E-01    0.672E-02
DAV:   9    -0.192036937251E+03    0.38780E-04   -0.13657E-04  9000   0.967E-02
  45 F= -.19203694E+03 E0= -.19194145E+03  d E =0.144875E-02
       N       E                     dE             d eps       ncg     rms          rms(c)
DAV:   1    -0.192047267705E+03   -0.10292E-01   -0.11129E+00  8160   0.227E+00    0.265E-01
DAV:   2    -0.192049148390E+03   -0.18807E-02   -0.38268E-02 12080   0.526E-01    0.196E-01
DAV:   3    -0.192050357980E+03   -0.12096E-02   -0.57344E-03 12440   0.513E-01    0.425E-01
DAV:   4    -0.192048522270E+03    0.18357E-02   -0.38288E-03 11320   0.466E-01    0.127E-01
DAV:   5    -0.192048345999E+03    0.17627E-03   -0.79175E-04  9840   0.134E-01    0.618E-02
DAV:   6    -0.192048307502E+03    0.38497E-04   -0.35194E-04  9320   0.870E-02
  46 F= -.19204831E+03 E0= -.19195188E+03  d E =-.113703E-01
       N       E                     dE             d eps       ncg     rms          rms(c)
DAV:   1    -0.192055264630E+03   -0.69186E-02   -0.69837E-01  8160   0.178E+00    0.205E-01
DAV:   2    -0.192058010042E+03   -0.27454E-02   -0.25976E-02 11160   0.573E-01    0.346E-01
DAV:   3    -0.192057180996E+03    0.82905E-03   -0.48488E-03 12000   0.525E-01    0.240E-01
DAV:   4    -0.192056870451E+03    0.31055E-03   -0.14028E-03  9960   0.285E-01    0.181E-01
DAV:   5    -0.192056571042E+03    0.29941E-03   -0.67384E-04  9120   0.227E-01    0.819E-02
DAV:   6    -0.192056545791E+03    0.25252E-04   -0.25629E-04  8320   0.840E-02
  47 F= -.19205655E+03 E0= -.19195983E+03  d E =-.823829E-02
       N       E                     dE             d eps       ncg     rms          rms(c)
DAV:   1    -0.192059143456E+03   -0.25724E-02   -0.84405E-02  8160   0.634E-01    0.936E-02
DAV:   2    -0.192059441803E+03   -0.29835E-03   -0.34046E-03 11520   0.223E-01    0.164E-01
DAV:   3    -0.192059280311E+03    0.16149E-03   -0.11859E-03 10800   0.250E-01    0.119E-01
DAV:   4    -0.192059143863E+03    0.13645E-03   -0.31103E-04  7720   0.120E-01    0.492E-02
DAV:   5    -0.192059147072E+03   -0.32098E-05   -0.12338E-04  7680   0.976E-02
  48 F= -.19205915E+03 E0= -.19196263E+03  d E =-.260128E-02
       N       E                     dE             d eps       ncg     rms          rms(c)
DAV:   1    -0.192064791786E+03   -0.56479E-02   -0.43394E-01  8160   0.141E+00    0.165E-01
DAV:   2    -0.192065949448E+03   -0.11577E-02   -0.13339E-02 10560   0.391E-01    0.229E-01
DAV:   3    -0.192065654523E+03    0.29492E-03   -0.26323E-03 12360   0.397E-01    0.183E-01
DAV:   4    -0.192065353545E+03    0.30098E-03   -0.73686E-04  8640   0.203E-01    0.110E-01
DAV:   5    -0.192065327660E+03    0.25885E-04   -0.50770E-04  8920   0.180E-01
  49 F= -.19206533E+03 E0= -.19196891E+03  d E =-.618059E-02
       N       E                     dE             d eps       ncg     rms          rms(c)
DAV:   1    -0.192064416313E+03    0.93723E-03   -0.92083E-03  8520   0.230E-01    0.417E-02
DAV:   2    -0.192064619974E+03   -0.20366E-03   -0.76036E-04 10480   0.143E-01    0.126E-01
DAV:   3    -0.192064438775E+03    0.18120E-03   -0.39305E-04  8320   0.153E-01    0.588E-02
DAV:   4    -0.192064404611E+03    0.34165E-04   -0.57958E-05  5560   0.550E-02
  50 F= -.19206440E+03 E0= -.19196771E+03  d E =0.923049E-03
       N       E                     dE             d eps       ncg     rms          rms(c)
DAV:   1    -0.192065144650E+03   -0.70587E-03   -0.46136E-02  8160   0.467E-01    0.972E-02
DAV:   2    -0.192066674598E+03   -0.15299E-02   -0.43362E-03 11520   0.438E-01    0.385E-01
DAV:   3    -0.192065115225E+03    0.15594E-02   -0.21395E-03 10000   0.365E-01    0.448E-02
DAV:   4    -0.192065166108E+03   -0.50883E-04   -0.16365E-04  7040   0.893E-02
  51 F= -.19206517E+03 E0= -.19196815E+03  d E =-.761497E-03
       N       E                     dE             d eps       ncg     rms          rms(c)
DAV:   1    -0.192066842517E+03   -0.17273E-02   -0.47893E-02  8160   0.473E-01    0.766E-02
DAV:   2    -0.192066860422E+03   -0.17905E-04   -0.16426E-03 10000   0.131E-01    0.846E-02
DAV:   3    -0.192066922811E+03   -0.62389E-04   -0.47836E-04  9480   0.170E-01
  52 F= -.19206692E+03 E0= -.19196986E+03  d E =-.175670E-02
       N       E                     dE             d eps       ncg     rms          rms(c)
DAV:   1    -0.192070895008E+03   -0.40346E-02   -0.24494E-01  8160   0.108E+00    0.169E-01
DAV:   2    -0.192074222691E+03   -0.33277E-02   -0.11968E-02 12360   0.640E-01    0.574E-01
DAV:   3    -0.192070943151E+03    0.32795E-02   -0.57240E-03 11640   0.574E-01    0.106E-01
DAV:   4    -0.192070919743E+03    0.23408E-04   -0.53581E-04  9800   0.145E-01
  53 F= -.19207092E+03 E0= -.19197420E+03  d E =-.399693E-02
       N       E                     dE             d eps       ncg     rms          rms(c)
DAV:   1    -0.192071233167E+03   -0.29002E-03   -0.63886E-02  8160   0.552E-01    0.131E-01
DAV:   2    -0.192073651658E+03   -0.24185E-02   -0.68475E-03 10920   0.590E-01    0.477E-01
DAV:   3    -0.192071095925E+03    0.25557E-02   -0.35768E-03 10680   0.473E-01    0.816E-02
DAV:   4    -0.192071197119E+03   -0.10119E-03   -0.45100E-04  8680   0.177E-01    0.123E-01
DAV:   5    -0.192071025813E+03    0.17131E-03   -0.23489E-04  7800   0.122E-01    0.304E-02
DAV:   6    -0.192071019001E+03    0.68116E-05   -0.69554E-05  6040   0.354E-02
  54 F= -.19207102E+03 E0= -.19197409E+03  d E =-.992582E-04
       N       E                     dE             d eps       ncg     rms          rms(c)
DAV:   1    -0.192072689438E+03   -0.16636E-02   -0.51072E-02  8160   0.481E-01    0.621E-02
DAV:   2    -0.192072974237E+03   -0.28480E-03   -0.22621E-03 10240   0.212E-01    0.126E-01
DAV:   3    -0.192072809791E+03    0.16445E-03   -0.38562E-04  8720   0.170E-01    0.499E-02
DAV:   4    -0.192072805872E+03    0.39188E-05   -0.92115E-05  5440   0.725E-02
  55 F= -.19207281E+03 E0= -.19197588E+03  d E =-.178687E-02
       N       E                     dE             d eps       ncg     rms          rms(c)
DAV:   1    -0.192078054123E+03   -0.52443E-02   -0.47614E-01  8160   0.147E+00    0.180E-01
DAV:   2    -0.192079575471E+03   -0.15213E-02   -0.16166E-02 10800   0.479E-01    0.272E-01
DAV:   3    -0.192079042569E+03    0.53290E-03   -0.36554E-03 12400   0.443E-01    0.195E-01
DAV:   4    -0.192078782235E+03    0.26033E-03   -0.10792E-03 10320   0.231E-01    0.137E-01
DAV:   5    -0.192078667165E+03    0.11507E-03   -0.60231E-04  9080   0.205E-01    0.101E-01
DAV:   6    -0.192078592574E+03    0.74591E-04   -0.28703E-04  8200   0.113E-01
  56 F= -.19207859E+03 E0= -.19198179E+03  d E =-.578670E-02
       N       E                     dE             d eps       ncg     rms          rms(c)
DAV:   1    -0.192081649711E+03   -0.29825E-02   -0.13147E-01  8160   0.785E-01    0.115E-01
DAV:   2    -0.192082621697E+03   -0.97199E-03   -0.48267E-03 11400   0.356E-01    0.308E-01
DAV:   3    -0.192081682978E+03    0.93872E-03   -0.22593E-03 11400   0.355E-01    0.105E-01
DAV:   4    -0.192081626019E+03    0.56958E-04   -0.36422E-04  7840   0.122E-01
  57 F= -.19208163E+03 E0= -.19198514E+03  d E =-.303345E-02
       N       E                     dE             d eps       ncg     rms          rms(c)
DAV:   1    -0.192075141661E+03    0.65413E-02   -0.62908E-01  8160   0.171E+00    0.229E-01
DAV:   2    -0.192079644935E+03   -0.45033E-02   -0.20605E-02 12240   0.781E-01    0.600E-01
DAV:   3    -0.192075342518E+03    0.43024E-02   -0.88780E-03 12160   0.724E-01    0.175E-01
DAV:   4    -0.192075485213E+03   -0.14270E-03   -0.14713E-03 10480   0.282E-01    0.215E-01
DAV:   5    -0.192075109898E+03    0.37532E-03   -0.10563E-03 10000   0.273E-01    0.111E-01
DAV:   6    -0.192074961380E+03    0.14852E-03   -0.32229E-04  8160   0.106E-01    0.370E-02
DAV:   7    -0.192074979595E+03   -0.18214E-04   -0.11172E-04  6920   0.693E-02
  58 F= -.19207498E+03 E0= -.19197781E+03  d E =0.664642E-02
       N       E                     dE             d eps       ncg     rms          rms(c)
DAV:   1    -0.192067529471E+03    0.74319E-02   -0.15294E+00  8160   0.266E+00    0.363E-01
DAV:   2    -0.192075135632E+03   -0.76062E-02   -0.45334E-02 12440   0.100E+00    0.848E-01
DAV:   3    -0.192068342887E+03    0.67927E-02   -0.21349E-02 12240   0.107E+00    0.391E-01
DAV:   4    -0.192067526205E+03    0.81668E-03   -0.44121E-03 11600   0.462E-01    0.270E-01
DAV:   5    -0.192067062992E+03    0.46321E-03   -0.25441E-03 11000   0.430E-01    0.215E-01
DAV:   6    -0.192066516771E+03    0.54622E-03   -0.10979E-03 10640   0.242E-01    0.717E-02
DAV:   7    -0.192066479611E+03    0.37160E-04   -0.27144E-04  8560   0.781E-02
  59 F= -.19206648E+03 E0= -.19196831E+03  d E =0.849998E-02
       N       E                     dE             d eps       ncg     rms          rms(c)
DAV:   1    -0.192064772741E+03    0.17440E-02   -0.93135E-02  8160   0.660E-01    0.999E-02
DAV:   2    -0.192065838567E+03   -0.10658E-02   -0.39328E-03 11600   0.353E-01    0.319E-01
DAV:   3    -0.192064783937E+03    0.10546E-02   -0.19709E-03 10280   0.333E-01    0.755E-02
DAV:   4    -0.192064795840E+03   -0.11903E-04   -0.22218E-04  8160   0.113E-01
  60 F= -.19206480E+03 E0= -.19196658E+03  d E =0.168377E-02
       N       E                     dE             d eps       ncg     rms          rms(c)
DAV:   1    -0.192065636407E+03   -0.85247E-03   -0.94877E-02  8160   0.681E-01    0.108E-01
DAV:   2    -0.192066143578E+03   -0.50717E-03   -0.48675E-03 11880   0.272E-01    0.198E-01
DAV:   3    -0.192065838609E+03    0.30497E-03   -0.11278E-03 10080   0.270E-01    0.117E-01
DAV:   4    -0.192065752234E+03    0.86375E-04   -0.37723E-04  8240   0.136E-01
  61 F= -.19206575E+03 E0= -.19196689E+03  d E =-.956394E-03
       N       E                     dE             d eps       ncg     rms          rms(c)
DAV:   1    -0.192063615693E+03    0.22229E-02   -0.88134E-01  8160   0.203E+00    0.281E-01
DAV:   2    -0.192069610132E+03   -0.59944E-02   -0.31013E-02 11920   0.863E-01    0.742E-01
DAV:   3    -0.192064120405E+03    0.54897E-02   -0.13220E-02 11840   0.841E-01    0.249E-01
DAV:   4    -0.192064249775E+03   -0.12937E-03   -0.25717E-03 11360   0.383E-01    0.267E-01
DAV:   5    -0.192063547744E+03    0.70203E-03   -0.15965E-03 10320   0.343E-01    0.124E-01
DAV:   6    -0.192063375668E+03    0.17208E-03   -0.57096E-04 10280   0.138E-01    0.560E-02
DAV:   7    -0.192063394023E+03   -0.18355E-04   -0.23594E-04  7760   0.102E-01
  62 F= -.19206339E+03 E0= -.19196378E+03  d E =0.235821E-02
       N       E                     dE             d eps       ncg     rms          rms(c)
DAV:   1    -0.192063699120E+03   -0.32345E-03   -0.70184E-02  8160   0.591E-01    0.112E-01
DAV:   2    -0.192064196170E+03   -0.49705E-03   -0.39492E-03 13240   0.320E-01    0.240E-01
DAV:   3    -0.192063687666E+03    0.50850E-03   -0.15512E-03  9800   0.291E-01    0.112E-01
DAV:   4    -0.192063588084E+03    0.99582E-04   -0.42547E-04  8240   0.131E-01
  63 F= -.19206359E+03 E0= -.19196392E+03  d E =-.194061E-03
       N       E                     dE             d eps       ncg     rms          rms(c)
DAV:   1    -0.192062543369E+03    0.11443E-02   -0.76509E-01  8160   0.189E+00    0.252E-01
DAV:   2    -0.192067252247E+03   -0.47089E-02   -0.29812E-02 12320   0.761E-01    0.637E-01
DAV:   3    -0.192063627641E+03    0.36246E-02   -0.94016E-03 12280   0.719E-01    0.225E-01
DAV:   4    -0.192063209038E+03    0.41860E-03   -0.13330E-03 10240   0.212E-01    0.116E-01
DAV:   5    -0.192063052695E+03    0.15634E-03   -0.74262E-04 10720   0.158E-01    0.105E-01
DAV:   6    -0.192063127451E+03   -0.74756E-04   -0.77096E-04  9760   0.207E-01
  64 F= -.19206313E+03 E0= -.19196220E+03  d E =0.460633E-03
       N       E                     dE             d eps       ncg     rms          rms(c)
DAV:   1    -0.192065909953E+03   -0.28573E-02   -0.84526E-01  8160   0.199E+00    0.291E-01
DAV:   2    -0.192072751923E+03   -0.68420E-02   -0.32709E-02 12120   0.938E-01    0.781E-01
DAV:   3    -0.192066184826E+03    0.65671E-02   -0.14590E-02 11520   0.879E-01    0.259E-01
DAV:   4    -0.192066094867E+03    0.89959E-04   -0.26379E-03 11320   0.367E-01    0.248E-01
DAV:   5    -0.192065542753E+03    0.55211E-03   -0.16993E-03 11080   0.342E-01    0.139E-01
DAV:   6    -0.192065335966E+03    0.20679E-03   -0.70046E-04 10520   0.166E-01    0.798E-02
DAV:   7    -0.192065385592E+03   -0.49627E-04   -0.48204E-04  8720   0.160E-01
  65 F= -.19206539E+03 E0= -.19196520E+03  d E =-.225814E-02
       N       E                     dE             d eps       ncg     rms          rms(c)
DAV:   1    -0.192066486449E+03   -0.11505E-02   -0.73956E-02  8160   0.601E-01    0.907E-02
DAV:   2    -0.192067035743E+03   -0.54929E-03   -0.29010E-03 11440   0.292E-01    0.228E-01
DAV:   3    -0.192066502810E+03    0.53293E-03   -0.12824E-03 10240   0.263E-01    0.852E-02
DAV:   4    -0.192066486704E+03    0.16106E-04   -0.24523E-04  7440   0.118E-01
  66 F= -.19206649E+03 E0= -.19196642E+03  d E =-.110111E-02
       N       E                     dE             d eps       ncg     rms          rms(c)
DAV:   1    -0.192065384539E+03    0.11183E-02   -0.59191E-02  8160   0.536E-01    0.893E-02
DAV:   2    -0.192066569146E+03   -0.11846E-02   -0.31671E-03 12360   0.390E-01    0.311E-01
DAV:   3    -0.192065348405E+03    0.12207E-02   -0.16620E-03 10080   0.336E-01    0.426E-02
DAV:   4    -0.192065410036E+03   -0.61631E-04   -0.20258E-04  7000   0.986E-02
  67 F= -.19206541E+03 E0= -.19196540E+03  d E =0.107667E-02
       N       E                     dE             d eps       ncg     rms          rms(c)
DAV:   1    -0.192065144741E+03    0.20366E-03   -0.73596E-02  8160   0.584E-01    0.902E-02
DAV:   2    -0.192065936194E+03   -0.79145E-03   -0.39157E-03 11840   0.336E-01    0.267E-01
DAV:   3    -0.192065210259E+03    0.72593E-03   -0.16975E-03  9880   0.294E-01    0.713E-02
DAV:   4    -0.192065197580E+03    0.12679E-04   -0.20884E-04  6040   0.939E-02
  68 F= -.19206520E+03 E0= -.19196514E+03  d E =0.212456E-03
       N       E                     dE             d eps       ncg     rms          rms(c)
DAV:   1    -0.192063698510E+03    0.15117E-02   -0.52063E-01  8160   0.156E+00    0.216E-01
DAV:   2    -0.192065853086E+03   -0.21546E-02   -0.15363E-02 11960   0.549E-01    0.464E-01
DAV:   3    -0.192063920791E+03    0.19323E-02   -0.70916E-03 11880   0.595E-01    0.240E-01
DAV:   4    -0.192063633371E+03    0.28742E-03   -0.15829E-03 10600   0.272E-01    0.161E-01
DAV:   5    -0.192063472013E+03    0.16136E-03   -0.98791E-04 10080   0.262E-01    0.134E-01
DAV:   6    -0.192063278381E+03    0.19363E-03   -0.44372E-04  9480   0.155E-01    0.490E-02
DAV:   7    -0.192063286024E+03   -0.76428E-05   -0.15043E-04  6600   0.856E-02
  69 F= -.19206329E+03 E0= -.19196258E+03  d E =0.191156E-02
       N       E                     dE             d eps       ncg     rms          rms(c)
DAV:   1    -0.192067337230E+03   -0.40588E-02   -0.78954E-01  8160   0.193E+00    0.273E-01
DAV:   2    -0.192072214271E+03   -0.48770E-02   -0.24852E-02 12160   0.809E-01    0.675E-01
DAV:   3    -0.192067292225E+03    0.49220E-02   -0.12701E-02 12520   0.820E-01    0.260E-01
DAV:   4    -0.192067257826E+03    0.34399E-04   -0.28245E-03 11160   0.371E-01    0.255E-01
DAV:   5    -0.192066670849E+03    0.58698E-03   -0.17096E-03 10920   0.342E-01    0.132E-01
DAV:   6    -0.192066453847E+03    0.21700E-03   -0.53769E-04  9960   0.136E-01    0.503E-02
DAV:   7    -0.192066462785E+03   -0.89386E-05   -0.21695E-04  6840   0.903E-02
  70 F= -.19206646E+03 E0= -.19196611E+03  d E =-.317676E-02
       N       E                     dE             d eps       ncg     rms          rms(c)
DAV:   1    -0.192067474886E+03   -0.10210E-02   -0.54093E-02  8160   0.506E-01    0.673E-02
DAV:   2    -0.192067786576E+03   -0.31169E-03   -0.19103E-03 12240   0.199E-01    0.158E-01
DAV:   3    -0.192067534896E+03    0.25168E-03   -0.71211E-04  9160   0.196E-01    0.675E-02
DAV:   4    -0.192067516584E+03    0.18311E-04   -0.15693E-04  5800   0.851E-02
  71 F= -.19206752E+03 E0= -.19196704E+03  d E =-.105380E-02
       N       E                     dE             d eps       ncg     rms          rms(c)
DAV:   1    -0.192065970574E+03    0.15643E-02   -0.10410E-01  8160   0.709E-01    0.994E-02
DAV:   2    -0.192066641577E+03   -0.67100E-03   -0.38693E-03 12360   0.298E-01    0.226E-01
DAV:   3    -0.192066032811E+03    0.60877E-03   -0.12613E-03 10480   0.294E-01    0.768E-02
DAV:   4    -0.192066025030E+03    0.77810E-05   -0.24471E-04  7040   0.107E-01
  72 F= -.19206603E+03 E0= -.19196584E+03  d E =0.149155E-02
       N       E                     dE             d eps       ncg     rms          rms(c)
DAV:   1    -0.192066265440E+03   -0.23263E-03   -0.23898E-02  8160   0.336E-01    0.596E-02
DAV:   2    -0.192066549841E+03   -0.28440E-03   -0.16252E-03 11440   0.212E-01    0.156E-01
DAV:   3    -0.192066284648E+03    0.26519E-03   -0.51537E-04  8440   0.176E-01    0.429E-02
DAV:   4    -0.192066306129E+03   -0.21481E-04   -0.13473E-04  5880   0.893E-02
  73 F= -.19206631E+03 E0= -.19196597E+03  d E =-.281100E-03
       N       E                     dE             d eps       ncg     rms          rms(c)
DAV:   1    -0.192067411313E+03   -0.11267E-02   -0.50244E-02  8160   0.489E-01    0.693E-02
DAV:   2    -0.192067608082E+03   -0.19677E-03   -0.15898E-03 11560   0.174E-01    0.146E-01
DAV:   3    -0.192067426568E+03    0.18151E-03   -0.58092E-04  8640   0.186E-01    0.750E-02
DAV:   4    -0.192067385183E+03    0.41385E-04   -0.12341E-04  5800   0.795E-02
  74 F= -.19206739E+03 E0= -.19196720E+03  d E =-.107905E-02
       N       E                     dE             d eps       ncg     rms          rms(c)
DAV:   1    -0.192066312772E+03    0.11138E-02   -0.52319E-02  8160   0.496E-01    0.754E-02
DAV:   2    -0.192066744782E+03   -0.43201E-03   -0.20717E-03 11400   0.269E-01    0.195E-01
DAV:   3    -0.192066297991E+03    0.44679E-03   -0.64643E-04  9160   0.222E-01    0.461E-02
DAV:   4    -0.192066342649E+03   -0.44658E-04   -0.15373E-04  6240   0.968E-02
  75 F= -.19206634E+03 E0= -.19196608E+03  d E =0.104253E-02
       N       E                     dE             d eps       ncg     rms          rms(c)
DAV:   1    -0.192065193051E+03    0.11049E-02   -0.77018E-02  8160   0.607E-01    0.952E-02
DAV:   2    -0.192065381089E+03   -0.18804E-03   -0.33154E-03 11520   0.196E-01    0.126E-01
DAV:   3    -0.192065367863E+03    0.13226E-04   -0.10702E-03 10960   0.226E-01    0.138E-01
DAV:   4    -0.192065198065E+03    0.16980E-03   -0.46543E-04  8160   0.151E-01    0.541E-02
DAV:   5    -0.192065160270E+03    0.37795E-04   -0.11201E-04  5480   0.566E-02
  76 F= -.19206516E+03 E0= -.19196484E+03  d E =0.118238E-02
       N       E                     dE             d eps       ncg     rms          rms(c)
DAV:   1    -0.192062772081E+03    0.24260E-02   -0.34174E-01  8160   0.127E+00    0.188E-01
DAV:   2    -0.192063581424E+03   -0.80934E-03   -0.10956E-02 11200   0.446E-01    0.312E-01
DAV:   3    -0.192062967384E+03    0.61404E-03   -0.35902E-03 12560   0.447E-01    0.211E-01
DAV:   4    -0.192062630762E+03    0.33662E-03   -0.13336E-03  9800   0.259E-01    0.128E-01
DAV:   5    -0.192062560743E+03    0.70019E-04   -0.64109E-04  9880   0.207E-01
  77 F= -.19206256E+03 E0= -.19196277E+03  d E =0.259953E-02
       N       E                     dE             d eps       ncg     rms          rms(c)
DAV:   1    -0.192068368885E+03   -0.57381E-02   -0.92307E-01  8160   0.213E+00    0.314E-01
DAV:   2    -0.192069352243E+03   -0.98336E-03   -0.31474E-02 12040   0.580E-01    0.365E-01
DAV:   3    -0.192069786155E+03   -0.43391E-03   -0.11066E-02 11960   0.720E-01    0.475E-01
DAV:   4    -0.192067741100E+03    0.20451E-02   -0.57330E-03 11320   0.537E-01    0.192E-01
DAV:   5    -0.192067324072E+03    0.41703E-03   -0.17024E-03 11320   0.232E-01    0.138E-01
DAV:   6    -0.192067230815E+03    0.93257E-04   -0.94331E-04 10960   0.233E-01
  78 F= -.19206723E+03 E0= -.19196710E+03  d E =-.467007E-02
       N       E                     dE             d eps       ncg     rms          rms(c)
DAV:   1    -0.192068025504E+03   -0.70143E-03   -0.41144E-02  8160   0.450E-01    0.847E-02
DAV:   2    -0.192068847037E+03   -0.82153E-03   -0.27490E-03 11560   0.309E-01    0.285E-01
DAV:   3    -0.192068010712E+03    0.83632E-03   -0.14008E-03 10000   0.287E-01    0.605E-02
DAV:   4    -0.192068003998E+03    0.67145E-05   -0.10727E-04  5600   0.725E-02
  79 F= -.19206800E+03 E0= -.19196761E+03  d E =-.773183E-03
       N       E                     dE             d eps       ncg     rms          rms(c)
DAV:   1    -0.192068061736E+03   -0.51024E-04   -0.47766E-03  8520   0.176E-01    0.504E-02
DAV:   2    -0.192068483642E+03   -0.42191E-03   -0.99879E-04 11000   0.225E-01    0.201E-01
DAV:   3    -0.192068031038E+03    0.45260E-03   -0.69736E-04  8520   0.202E-01    0.313E-02
DAV:   4    -0.192068049200E+03   -0.18162E-04   -0.58700E-05  5600   0.529E-02
  80 F= -.19206805E+03 E0= -.19196779E+03  d E =-.452022E-04
       N       E                     dE             d eps       ncg     rms          rms(c)
DAV:   1    -0.192069167530E+03   -0.11365E-02   -0.14670E-01  8160   0.820E-01    0.122E-01
DAV:   2    -0.192070056653E+03   -0.88912E-03   -0.67446E-03 11160   0.391E-01    0.272E-01
DAV:   3    -0.192069364937E+03    0.69172E-03   -0.21119E-03 12080   0.337E-01    0.125E-01
DAV:   4    -0.192069266357E+03    0.98580E-04   -0.44002E-04  8160   0.159E-01
  81 F= -.19206927E+03 E0= -.19196868E+03  d E =-.121716E-02
       N       E                     dE             d eps       ncg     rms          rms(c)
DAV:   1    -0.192069449762E+03   -0.84825E-04   -0.15006E-02  8200   0.310E-01    0.828E-02
DAV:   2    -0.192070319256E+03   -0.86949E-03   -0.21113E-03 12440   0.324E-01    0.281E-01
DAV:   3    -0.192069394904E+03    0.92435E-03   -0.13155E-03  9960   0.297E-01    0.633E-02
DAV:   4    -0.192069406864E+03   -0.11960E-04   -0.18424E-04  6760   0.939E-02
  82 F= -.19206941E+03 E0= -.19196907E+03  d E =-.140507E-03
       N       E                     dE             d eps       ncg     rms          rms(c)
DAV:   1    -0.192070013137E+03   -0.61823E-03   -0.29004E-02  8160   0.378E-01    0.532E-02
DAV:   2    -0.192070172849E+03   -0.15971E-03   -0.11079E-03 11920   0.143E-01    0.117E-01
DAV:   3    -0.192070050214E+03    0.12264E-03   -0.40248E-04  8960   0.149E-01    0.610E-02
DAV:   4    -0.192070022044E+03    0.28170E-04   -0.78930E-05  5440   0.625E-02
  83 F= -.19207002E+03 E0= -.19196958E+03  d E =-.615179E-03
       N       E                     dE             d eps       ncg     rms          rms(c)
DAV:   1    -0.192070289417E+03   -0.23920E-03   -0.90213E-02  8160   0.648E-01    0.110E-01
DAV:   2    -0.192071130167E+03   -0.84075E-03   -0.49700E-03 11360   0.410E-01    0.266E-01
DAV:   3    -0.192070285892E+03    0.84428E-03   -0.16419E-03 12200   0.317E-01    0.620E-02
DAV:   4    -0.192070298672E+03   -0.12781E-04   -0.25000E-04  6520   0.102E-01
  84 F= -.19207030E+03 E0= -.19196975E+03  d E =-.276629E-03
       N       E                     dE             d eps       ncg     rms          rms(c)
DAV:   1    -0.192072679893E+03   -0.23940E-02   -0.27843E-01  8160   0.114E+00    0.164E-01
DAV:   2    -0.192074593014E+03   -0.19131E-02   -0.10886E-02 12680   0.497E-01    0.401E-01
DAV:   3    -0.192072944945E+03    0.16481E-02   -0.45936E-03 12160   0.493E-01    0.174E-01
DAV:   4    -0.192072769635E+03    0.17531E-03   -0.83155E-04  9640   0.201E-01    0.119E-01
DAV:   5    -0.192072668372E+03    0.10126E-03   -0.48394E-04  9760   0.184E-01    0.865E-02
DAV:   6    -0.192072593966E+03    0.74406E-04   -0.22869E-04  8160   0.101E-01
  85 F= -.19207259E+03 E0= -.19197196E+03  d E =-.229529E-02
       N       E                     dE             d eps       ncg     rms          rms(c)
DAV:   1    -0.192074719165E+03   -0.20508E-02   -0.43773E-01  8160   0.142E+00    0.203E-01
DAV:   2    -0.192078518450E+03   -0.37993E-02   -0.18732E-02 11480   0.789E-01    0.546E-01
DAV:   3    -0.192075077759E+03    0.34407E-02   -0.65112E-03 12320   0.627E-01    0.145E-01
DAV:   4    -0.192075293227E+03   -0.21547E-03   -0.14748E-03  9880   0.277E-01    0.209E-01
DAV:   5    -0.192074882936E+03    0.41029E-03   -0.10204E-03 10040   0.243E-01    0.848E-02
DAV:   6    -0.192074814665E+03    0.68271E-04   -0.25131E-04  7560   0.861E-02
  86 F= -.19207481E+03 E0= -.19197425E+03  d E =-.222070E-02
       N       E                     dE             d eps       ncg     rms          rms(c)
DAV:   1    -0.192069615193E+03    0.52677E-02   -0.14958E+00  8160   0.260E+00    0.331E-01
DAV:   2    -0.192078040373E+03   -0.84252E-02   -0.54931E-02 12240   0.118E+00    0.758E-01
DAV:   3    -0.192071471549E+03    0.65688E-02   -0.15527E-02 12320   0.974E-01    0.250E-01
DAV:   4    -0.192071456086E+03    0.15463E-04   -0.33128E-03 11680   0.380E-01    0.280E-01
DAV:   5    -0.192070932790E+03    0.52330E-03   -0.27444E-03 10720   0.388E-01    0.195E-01
DAV:   6    -0.192070532860E+03    0.39993E-03   -0.10497E-03  9800   0.199E-01    0.643E-02
DAV:   7    -0.192070531360E+03    0.15007E-05   -0.28688E-04  8600   0.888E-02
  87 F= -.19207053E+03 E0= -.19196995E+03  d E =0.428331E-02
       N       E                     dE             d eps       ncg     rms          rms(c)
DAV:   1    -0.192064659919E+03    0.58729E-02   -0.17330E+00  8160   0.281E+00    0.370E-01
DAV:   2    -0.192075100858E+03   -0.10441E-01   -0.68083E-02 12360   0.130E+00    0.869E-01
DAV:   3    -0.192067098162E+03    0.80027E-02   -0.21329E-02 12320   0.108E+00    0.315E-01
DAV:   4    -0.192067278115E+03   -0.17995E-03   -0.43146E-03 12480   0.492E-01    0.363E-01
DAV:   5    -0.192066143599E+03    0.11345E-02   -0.30643E-03 11280   0.461E-01    0.187E-01
DAV:   6    -0.192065769225E+03    0.37437E-03   -0.10940E-03 10000   0.186E-01    0.745E-02
DAV:   7    -0.192065819996E+03   -0.50771E-04   -0.46205E-04  9480   0.136E-01
  88 F= -.19206582E+03 E0= -.19196532E+03  d E =0.471136E-02
       N       E                     dE             d eps       ncg     rms          rms(c)
DAV:   1    -0.192065390338E+03    0.37889E-03   -0.13625E-02  8160   0.273E-01    0.393E-02
DAV:   2    -0.192065514311E+03   -0.12397E-03   -0.65695E-04 10480   0.119E-01    0.100E-01
DAV:   3    -0.192065409508E+03    0.10480E-03   -0.26646E-04  8920   0.119E-01    0.369E-02
DAV:   4    -0.192065408396E+03    0.11123E-05   -0.42410E-05  5960   0.523E-02
  89 F= -.19206541E+03 E0= -.19196507E+03  d E =0.411600E-03
       N       E                     dE             d eps       ncg     rms          rms(c)
DAV:   1    -0.192067143457E+03   -0.17339E-02   -0.20176E-01  8160   0.959E-01    0.119E-01
DAV:   2    -0.192068352182E+03   -0.12087E-02   -0.75337E-03 11520   0.399E-01    0.285E-01
DAV:   3    -0.192067453442E+03    0.89874E-03   -0.22465E-03 11160   0.353E-01    0.101E-01
DAV:   4    -0.192067492231E+03   -0.38789E-04   -0.47423E-04  8240   0.163E-01
  90 F= -.19206749E+03 E0= -.19196679E+03  d E =-.208383E-02
       N       E                     dE             d eps       ncg     rms          rms(c)
DAV:   1    -0.192065743958E+03    0.17095E-02   -0.12203E-01  8160   0.760E-01    0.875E-02
DAV:   2    -0.192066655720E+03   -0.91176E-03   -0.43144E-03 12360   0.339E-01    0.246E-01
DAV:   3    -0.192065902244E+03    0.75348E-03   -0.13068E-03 10120   0.291E-01    0.466E-02
DAV:   4    -0.192065931397E+03   -0.29153E-04   -0.15077E-04  6040   0.827E-02
  91 F= -.19206593E+03 E0= -.19196554E+03  d E =0.156083E-02
       N       E                     dE             d eps       ncg     rms          rms(c)
DAV:   1    -0.192065025673E+03    0.87657E-03   -0.70954E-02  8160   0.582E-01    0.917E-02
DAV:   2    -0.192065123490E+03   -0.97817E-04   -0.20655E-03 11720   0.165E-01    0.124E-01
DAV:   3    -0.192065070474E+03    0.53016E-04   -0.99356E-04 10880   0.220E-01
  92 F= -.19206507E+03 E0= -.19196502E+03  d E =0.860923E-03
       N       E                     dE             d eps       ncg     rms          rms(c)
DAV:   1    -0.192064966289E+03    0.15720E-03   -0.22726E-03 12200   0.159E-01    0.627E-02
DAV:   2    -0.192065375745E+03   -0.40946E-03   -0.89032E-04 10120   0.236E-01    0.198E-01
DAV:   3    -0.192064919570E+03    0.45618E-03   -0.60674E-04  8240   0.221E-01    0.554E-02
DAV:   4    -0.192064912116E+03    0.74539E-05   -0.12231E-04  5480   0.731E-02
  93 F= -.19206491E+03 E0= -.19196479E+03  d E =0.158358E-03
       N       E                     dE             d eps       ncg     rms          rms(c)
DAV:   1    -0.192066605783E+03   -0.16862E-02   -0.16424E-01  8160   0.877E-01    0.118E-01
DAV:   2    -0.192067877701E+03   -0.12719E-02   -0.60374E-03 12240   0.392E-01    0.316E-01
DAV:   3    -0.192066722569E+03    0.11551E-02   -0.24915E-03 11360   0.372E-01    0.970E-02
DAV:   4    -0.192066788100E+03   -0.65531E-04   -0.46941E-04  8240   0.162E-01
  94 F= -.19206679E+03 E0= -.19196618E+03  d E =-.187598E-02
       N       E                     dE             d eps       ncg     rms          rms(c)
DAV:   1    -0.192064524682E+03    0.21979E-02   -0.26742E-01  8160   0.113E+00    0.141E-01
DAV:   2    -0.192065733102E+03   -0.12084E-02   -0.82566E-03 12440   0.399E-01    0.299E-01
DAV:   3    -0.192064752598E+03    0.98050E-03   -0.28508E-03 12280   0.406E-01    0.126E-01
DAV:   4    -0.192064755887E+03   -0.32891E-05   -0.73293E-04  8320   0.183E-01
  95 F= -.19206476E+03 E0= -.19196475E+03  d E =0.203221E-02
       N       E                     dE             d eps       ncg     rms          rms(c)
DAV:   1    -0.192064973571E+03   -0.22097E-03   -0.30176E-02  8160   0.396E-01    0.590E-02
DAV:   2    -0.192065253336E+03   -0.27976E-03   -0.16407E-03 11480   0.197E-01    0.139E-01
DAV:   3    -0.192065029380E+03    0.22396E-03   -0.43347E-04  8640   0.173E-01    0.468E-02
DAV:   4    -0.192065028124E+03    0.12554E-05   -0.96354E-05  5680   0.711E-02
  96 F= -.19206503E+03 E0= -.19196489E+03  d E =-.272238E-03
       N       E                     dE             d eps       ncg     rms          rms(c)
DAV:   1    -0.192065535490E+03   -0.50611E-03   -0.14031E-02  8160   0.266E-01    0.439E-02
DAV:   2    -0.192065702835E+03   -0.16734E-03   -0.68990E-04 10320   0.154E-01    0.133E-01
DAV:   3    -0.192065513710E+03    0.18912E-03   -0.35209E-04  8200   0.140E-01    0.283E-02
DAV:   4    -0.192065523318E+03   -0.96082E-05   -0.44359E-05  5560   0.505E-02
  97 F= -.19206552E+03 E0= -.19196545E+03  d E =-.495194E-03
       N       E                     dE             d eps       ncg     rms          rms(c)
DAV:   1    -0.192068669801E+03   -0.31561E-02   -0.30460E-01  8160   0.124E+00    0.219E-01
DAV:   2    -0.192069338023E+03   -0.66822E-03   -0.12257E-02 11640   0.458E-01    0.370E-01
DAV:   3    -0.192068621596E+03    0.71643E-03   -0.64242E-03 12360   0.565E-01    0.288E-01
DAV:   4    -0.192067738754E+03    0.88284E-03   -0.18182E-03 11280   0.277E-01    0.889E-02
DAV:   5    -0.192067753537E+03   -0.14784E-04   -0.78082E-04 10280   0.186E-01
  98 F= -.19206775E+03 E0= -.19196760E+03  d E =-.223022E-02
       N       E                     dE             d eps       ncg     rms          rms(c)
DAV:   1    -0.192068016506E+03   -0.27775E-03   -0.17181E-02 10200   0.317E-01    0.105E-01
DAV:   2    -0.192068814777E+03   -0.79827E-03   -0.24504E-03 10560   0.380E-01    0.304E-01
DAV:   3    -0.192067759573E+03    0.10552E-02   -0.14139E-03 10000   0.325E-01    0.729E-02
DAV:   4    -0.192067821628E+03   -0.62055E-04   -0.35491E-04  8200   0.142E-01
  99 F= -.19206782E+03 E0= -.19196742E+03  d E =-.680910E-04
       N       E                     dE             d eps       ncg     rms          rms(c)
DAV:   1    -0.192067625866E+03    0.13371E-03   -0.11655E-03  9320   0.147E-01    0.615E-02
DAV:   2    -0.192068390503E+03   -0.76464E-03   -0.16942E-03 11040   0.300E-01    0.255E-01
DAV:   3    -0.192067586273E+03    0.80423E-03   -0.10933E-03  9880   0.257E-01    0.454E-02
DAV:   4    -0.192067581401E+03    0.48716E-05   -0.49797E-05  5600   0.551E-02
 100 F= -.19206758E+03 E0= -.19196739E+03  d E =0.240227E-03
