<?xml version="1.0" encoding="ISO-8859-1"?>
<modeling>
 <generator>
  <i name="program" type="string">vasp </i>
  <i name="version" type="string">5.4.1  </i>
  <i name="subversion" type="string">05Feb16 (build Jul 05 2020 17:13:04) complex                          parallel </i>
  <i name="platform" type="string">IFC91_ompi </i>
  <i name="date" type="string">2024 07 22 </i>
  <i name="time" type="string">15:41:55 </i>
 </generator>
 <incar>
  <i type="int" name="ISTART">     0</i>
  <i type="string" name="PREC">normal</i>
  <i type="string" name="ALGO"> Normal</i>
  <i type="int" name="ISPIN">     1</i>
  <i type="int" name="ICHARG">     2</i>
  <i type="int" name="IBRION">     1</i>
  <i type="int" name="NSW">   100</i>
  <i type="int" name="ISIF">     3</i>
  <i type="int" name="ISYM">     0</i>
  <i name="SYMPREC">      0.00000001</i>
  <i name="POTIM">      0.50000000</i>
  <i type="logical" name="LREAL"> F  </i>
  <i type="logical" name="LPLANE"> F  </i>
  <i type="int" name="ISMEAR">     0</i>
  <i type="logical" name="LWAVE"> F  </i>
  <i type="logical" name="LCHARG"> F  </i>
  <v type="int" name="KPOINT_BSE">    -1     0     0     0</v>
 </incar>
 <kpoints>
  <generation param="Gamma">
   <v type="int" name="divisions">       8        8        1 </v>
   <v name="usershift">      0.00000000       0.00000000       0.00000000 </v>
   <v name="genvec1">      0.12500000       0.00000000       0.00000000 </v>
   <v name="genvec2">     -0.00000000       0.12500000       0.00000000 </v>
   <v name="genvec3">      0.00000000       0.00000000       1.00000000 </v>
   <v name="shift">      0.00000000       0.00000000       0.00000000 </v>
  </generation>
  <varray name="kpointlist" >
   <v>       0.00000000       0.00000000       0.00000000 </v>
   <v>       0.12500000       0.00000000       0.00000000 </v>
   <v>       0.25000000       0.00000000       0.00000000 </v>
   <v>       0.37500000       0.00000000       0.00000000 </v>
   <v>       0.50000000       0.00000000       0.00000000 </v>
   <v>       0.00000000       0.12500000       0.00000000 </v>
   <v>       0.12500000       0.12500000       0.00000000 </v>
   <v>       0.25000000       0.12500000       0.00000000 </v>
   <v>       0.37500000       0.12500000       0.00000000 </v>
   <v>       0.50000000       0.12500000       0.00000000 </v>
   <v>      -0.37500000       0.12500000       0.00000000 </v>
   <v>      -0.25000000       0.12500000       0.00000000 </v>
   <v>      -0.12500000       0.12500000       0.00000000 </v>
   <v>       0.00000000       0.25000000       0.00000000 </v>
   <v>       0.12500000       0.25000000       0.00000000 </v>
   <v>       0.25000000       0.25000000       0.00000000 </v>
   <v>       0.37500000       0.25000000       0.00000000 </v>
   <v>       0.50000000       0.25000000       0.00000000 </v>
   <v>      -0.37500000       0.25000000       0.00000000 </v>
   <v>      -0.25000000       0.25000000       0.00000000 </v>
   <v>      -0.12500000       0.25000000       0.00000000 </v>
   <v>      -0.00000000       0.37500000       0.00000000 </v>
   <v>       0.12500000       0.37500000       0.00000000 </v>
   <v>       0.25000000       0.37500000       0.00000000 </v>
   <v>       0.37500000       0.37500000       0.00000000 </v>
   <v>       0.50000000       0.37500000       0.00000000 </v>
   <v>      -0.37500000       0.37500000       0.00000000 </v>
   <v>      -0.25000000       0.37500000       0.00000000 </v>
   <v>      -0.12500000       0.37500000       0.00000000 </v>
   <v>       0.00000000       0.50000000       0.00000000 </v>
   <v>       0.12500000       0.50000000       0.00000000 </v>
   <v>       0.25000000       0.50000000       0.00000000 </v>
   <v>       0.37500000       0.50000000       0.00000000 </v>
   <v>       0.50000000       0.50000000       0.00000000 </v>
  </varray>
  <varray name="weights" >
   <v>       0.01562500 </v>
   <v>       0.03125000 </v>
   <v>       0.03125000 </v>
   <v>       0.03125000 </v>
   <v>       0.01562500 </v>
   <v>       0.03125000 </v>
   <v>       0.03125000 </v>
   <v>       0.03125000 </v>
   <v>       0.03125000 </v>
   <v>       0.03125000 </v>
   <v>       0.03125000 </v>
   <v>       0.03125000 </v>
   <v>       0.03125000 </v>
   <v>       0.03125000 </v>
   <v>       0.03125000 </v>
   <v>       0.03125000 </v>
   <v>       0.03125000 </v>
   <v>       0.03125000 </v>
   <v>       0.03125000 </v>
   <v>       0.03125000 </v>
   <v>       0.03125000 </v>
   <v>       0.03125000 </v>
   <v>       0.03125000 </v>
   <v>       0.03125000 </v>
   <v>       0.03125000 </v>
   <v>       0.03125000 </v>
   <v>       0.03125000 </v>
   <v>       0.03125000 </v>
   <v>       0.03125000 </v>
   <v>       0.01562500 </v>
   <v>       0.03125000 </v>
   <v>       0.03125000 </v>
   <v>       0.03125000 </v>
   <v>       0.01562500 </v>
  </varray>
 </kpoints>
 <parameters>
  <separator name="general" >
   <i type="string" name="SYSTEM">unknown system</i>
   <i type="logical" name="LCOMPAT"> F  </i>
  </separator>
  <separator name="electronic" >
   <i type="string" name="PREC">normal</i>
   <i name="ENMAX">    280.00000000</i>
   <i name="ENAUG">    373.43800000</i>
   <i name="EDIFF">      0.00010000</i>
   <i type="int" name="IALGO">    38</i>
   <i type="int" name="IWAVPR">    11</i>
   <i type="int" name="NBANDS">   120</i>
   <i name="NELECT">    159.00000000</i>
   <i type="int" name="TURBO">     0</i>
   <i type="int" name="IRESTART">     0</i>
   <i type="int" name="NREBOOT">     0</i>
   <i type="int" name="NMIN">     0</i>
   <i name="EREF">      0.00000000</i>
   <separator name="electronic smearing" >
    <i type="int" name="ISMEAR">     0</i>
    <i name="SIGMA">      0.20000000</i>
    <i name="KSPACING">      0.50000000</i>
    <i type="logical" name="KGAMMA"> T  </i>
   </separator>
   <separator name="electronic projectors" >
    <i type="logical" name="LREAL"> F  </i>
    <v name="ROPT">      0.00000000      0.00000000      0.00000000      0.00000000</v>
    <i type="int" name="LMAXPAW">  -100</i>
    <i type="int" name="LMAXMIX">     2</i>
    <i type="logical" name="NLSPLINE"> F  </i>
   </separator>
   <separator name="electronic startup" >
    <i type="int" name="ISTART">     0</i>
    <i type="int" name="ICHARG">     2</i>
    <i type="int" name="INIWAV">     1</i>
   </separator>
   <separator name="electronic spin" >
    <i type="int" name="ISPIN">     1</i>
    <i type="logical" name="LNONCOLLINEAR"> F  </i>
    <v name="MAGMOM">      1.00000000      1.00000000      1.00000000      1.00000000      1.00000000      1.00000000      1.00000000      1.00000000      1.00000000      1.00000000      1.00000000      1.00000000      1.00000000      1.00000000      1.00000000      1.00000000      1.00000000      1.00000000      1.00000000      1.00000000
      1.00000000      1.00000000      1.00000000      1.00000000      1.00000000      1.00000000      1.00000000</v>
    <i name="NUPDOWN">     -1.00000000</i>
    <i type="logical" name="LSORBIT"> F  </i>
    <v name="SAXIS">      0.00000000      0.00000000      1.00000000</v>
    <i type="logical" name="LSPIRAL"> F  </i>
    <v name="QSPIRAL">      0.00000000      0.00000000      0.00000000</v>
    <i type="logical" name="LZEROZ"> F  </i>
   </separator>
   <separator name="electronic exchange-correlation" >
    <i type="logical" name="LASPH"> F  </i>
    <i type="logical" name="LMETAGGA"> F  </i>
   </separator>
   <separator name="electronic convergence" >
    <i type="int" name="NELM">    60</i>
    <i type="int" name="NELMDL">    -5</i>
    <i type="int" name="NELMIN">     2</i>
    <i name="ENINI">    280.00000000</i>
    <separator name="electronic convergence detail" >
     <i type="logical" name="LDIAG"> T  </i>
     <i type="logical" name="LSUBROT"> F  </i>
     <i name="WEIMIN">      0.00100000</i>
     <i name="EBREAK">      0.00000021</i>
     <i name="DEPER">      0.30000000</i>
     <i type="int" name="NRMM">     4</i>
     <i name="TIME">      0.40000000</i>
    </separator>
   </separator>
   <separator name="electronic mixer" >
    <i name="AMIX">      0.40000000</i>
    <i name="BMIX">      1.00000000</i>
    <i name="AMIN">      0.10000000</i>
    <i name="AMIX_MAG">      1.60000000</i>
    <i name="BMIX_MAG">      1.00000000</i>
    <separator name="electronic mixer details" >
     <i type="int" name="IMIX">     4</i>
     <i type="logical" name="MIXFIRST"> F  </i>
     <i type="int" name="MAXMIX">   -45</i>
     <i name="WC">    100.00000000</i>
     <i type="int" name="INIMIX">     1</i>
     <i type="int" name="MIXPRE">     1</i>
     <i type="int" name="MREMOVE">     5</i>
    </separator>
   </separator>
   <separator name="electronic dipolcorrection" >
    <i type="logical" name="LDIPOL"> F  </i>
    <i type="logical" name="LMONO"> F  </i>
    <i type="int" name="IDIPOL">     0</i>
    <i name="EPSILON">      1.00000000</i>
    <v name="DIPOL">   -100.00000000   -100.00000000   -100.00000000</v>
    <i name="EFIELD">      0.00000000</i>
   </separator>
  </separator>
  <separator name="grids" >
   <i type="int" name="NGX">    42</i>
   <i type="int" name="NGY">    42</i>
   <i type="int" name="NGZ">   126</i>
   <i type="int" name="NGXF">    84</i>
   <i type="int" name="NGYF">    84</i>
   <i type="int" name="NGZF">   252</i>
   <i type="logical" name="ADDGRID"> F  </i>
  </separator>
  <separator name="ionic" >
   <i type="int" name="NSW">   100</i>
   <i type="int" name="IBRION">     1</i>
   <i type="int" name="ISIF">     3</i>
   <i name="PSTRESS">      0.00000000</i>
   <i name="EDIFFG">      0.00100000</i>
   <i type="int" name="NFREE">     0</i>
   <i name="POTIM">      0.50000000</i>
   <i name="SMASS">     -3.00000000</i>
   <i name="SCALEE">      1.00000000</i>
  </separator>
  <separator name="ionic md" >
   <i name="TEBEG">      0.00010000</i>
   <i name="TEEND">      0.00010000</i>
   <i type="int" name="NBLOCK">     1</i>
   <i type="int" name="KBLOCK">   100</i>
   <i type="int" name="NPACO">   256</i>
   <i name="APACO">     16.00000000</i>
  </separator>
  <separator name="symmetry" >
   <i type="int" name="ISYM">     0</i>
   <i name="SYMPREC">      0.00000001</i>
  </separator>
  <separator name="dos" >
   <i type="logical" name="LORBIT"> F  </i>
   <v name="RWIGS">     -1.00000000     -1.00000000     -1.00000000     -1.00000000</v>
   <i type="int" name="NEDOS">   301</i>
   <i name="EMIN">     10.00000000</i>
   <i name="EMAX">    -10.00000000</i>
   <i name="EFERMI">      0.00000000</i>
  </separator>
  <separator name="writing" >
   <i type="int" name="NWRITE">     2</i>
   <i type="logical" name="LWAVE"> F  </i>
   <i type="logical" name="LCHARG"> F  </i>
   <i type="logical" name="LPARD"> F  </i>
   <i type="logical" name="LVTOT"> F  </i>
   <i type="logical" name="LVHAR"> F  </i>
   <i type="logical" name="LELF"> F  </i>
   <i type="logical" name="LOPTICS"> F  </i>
   <v name="STM">      0.00000000      0.00000000      0.00000000      0.00000000      0.00000000      0.00000000      0.00000000</v>
  </separator>
  <separator name="performance" >
   <i type="int" name="NPAR">    40</i>
   <i type="int" name="NSIM">     4</i>
   <i type="int" name="NBLK">    -1</i>
   <i type="logical" name="LPLANE"> F  </i>
   <i type="logical" name="LSCALAPACK"> T  </i>
   <i type="logical" name="LSCAAWARE"> F  </i>
   <i type="logical" name="LSCALU"> F  </i>
   <i type="logical" name="LASYNC"> F  </i>
   <i type="logical" name="LORBITALREAL"> F  </i>
  </separator>
  <separator name="miscellaneous" >
   <i type="int" name="IDIOT">     3</i>
   <i type="logical" name="LMUSIC"> F  </i>
   <v name="POMASS">     50.94100000     95.94000000    183.85000000     32.06600000</v>
   <v name="DARWINR">      0.00000000      0.00000000      0.00000000      0.00000000</v>
   <v name="DARWINV">      1.00000000      1.00000000      1.00000000      1.00000000</v>
   <i type="logical" name="LCORR"> T  </i>
  </separator>
  <i type="logical" name="GGA_COMPAT"> T  </i>
  <i type="logical" name="LBERRY"> F  </i>
  <i type="int" name="ICORELEVEL">     0</i>
  <i type="logical" name="LDAU"> F  </i>
  <i type="int" name="I_CONSTRAINED_M">     0</i>
  <separator name="electronic exchange-correlation" >
   <i type="string" name="GGA">--</i>
   <i type="int" name="VOSKOWN">     0</i>
   <i type="logical" name="LHFCALC"> F  </i>
   <i type="string" name="PRECFOCK"></i>
   <i type="logical" name="LSYMGRAD"> F  </i>
   <i type="logical" name="LHFONE"> F  </i>
   <i type="logical" name="LRHFCALC"> F  </i>
   <i type="logical" name="LTHOMAS"> F  </i>
   <i type="logical" name="LMODELHF"> F  </i>
   <i name="ENCUT4O">     -1.00000000</i>
   <i type="int" name="EXXOEP">     0</i>
   <i type="int" name="FOURORBIT">     0</i>
   <i name="AEXX">      0.00000000</i>
   <i name="HFALPHA">      0.00000000</i>
   <i name="MCALPHA">      0.00000000</i>
   <i name="ALDAX">      1.00000000</i>
   <i name="AGGAX">      1.00000000</i>
   <i name="ALDAC">      1.00000000</i>
   <i name="AGGAC">      1.00000000</i>
   <i type="int" name="NKREDX">     1</i>
   <i type="int" name="NKREDY">     1</i>
   <i type="int" name="NKREDZ">     1</i>
   <i type="logical" name="SHIFTRED"> F  </i>
   <i type="logical" name="ODDONLY"> F  </i>
   <i type="logical" name="EVENONLY"> F  </i>
   <i type="int" name="LMAXFOCK">     0</i>
   <i type="int" name="NMAXFOCKAE">     0</i>
   <i type="logical" name="LFOCKAEDFT"> F  </i>
   <i name="HFSCREEN">      0.00000000</i>
   <i name="HFSCREENC">      0.00000000</i>
   <i type="int" name="NBANDSGWLOW">     0</i>
  </separator>
  <separator name="vdW DFT" >
   <i type="logical" name="LUSE_VDW"> F  </i>
   <i name="Zab_VDW">     -0.84910000</i>
   <i name="PARAM1">      0.12340000</i>
   <i name="PARAM2">      1.00000000</i>
   <i name="PARAM3">      0.00000000</i>
  </separator>
  <separator name="model GW" >
   <i type="int" name="MODEL_GW">     0</i>
   <i name="MODEL_EPS0">     58.26239943</i>
   <i name="MODEL_ALPHA">      1.00000000</i>
  </separator>
  <separator name="linear response parameters" >
   <i type="logical" name="LEPSILON"> F  </i>
   <i type="logical" name="LRPA"> F  </i>
   <i type="logical" name="LNABLA"> F  </i>
   <i type="logical" name="LVEL"> F  </i>
   <i type="int" name="KINTER">     0</i>
   <i name="CSHIFT">      0.10000000</i>
   <i name="OMEGAMAX">     -1.00000000</i>
   <i name="DEG_THRESHOLD">      0.00200000</i>
  </separator>
  <separator name="orbital magnetization" >
   <i type="logical" name="NUCIND"> F  </i>
   <v name="MAGPOS">      0.00000000      0.00000000      0.00000000</v>
   <i type="logical" name="LNICSALL"> T  </i>
   <i type="logical" name="ORBITALMAG"> F  </i>
   <i type="logical" name="LMAGBLOCH"> F  </i>
   <i type="logical" name="LCHIMAG"> F  </i>
   <i type="logical" name="LGAUGE"> T  </i>
   <i type="int" name="MAGATOM">     0</i>
   <v name="MAGDIPOL">      0.00000000      0.00000000      0.00000000</v>
   <v name="AVECCONST">      0.00000000      0.00000000      0.00000000</v>
  </separator>
  <separator name="response functions" >
   <i type="logical" name="LADDER"> F  </i>
   <i type="logical" name="LFXC"> F  </i>
   <i type="logical" name="LHARTREE"> T  </i>
   <i type="int" name="IBSE">     0</i>
   <v type="int" name="KPOINT">    -1     0     0     0</v>
   <i type="logical" name="LTCTE"> F  </i>
   <i type="logical" name="LTETE"> F  </i>
   <i type="logical" name="LTRIPLET"> F  </i>
   <i type="logical" name="LFXCEPS"> F  </i>
   <i type="logical" name="LFXHEG"> F  </i>
   <i type="int" name="NATURALO">     0</i>
   <i type="logical" name="L2ORDER"> F  </i>
   <i type="logical" name="LUSEW"> F  </i>
   <i name="ENCUTGW">     -2.00000000</i>
   <i name="ENCUTGWSOFT">     -2.00000000</i>
   <i name="ENCUTLF">     -1.00000000</i>
   <i type="int" name="LMAXMP2">    -1</i>
   <i name="SCISSOR">      0.00000000</i>
   <i type="int" name="NOMEGA">     0</i>
   <i type="int" name="NOMEGAR">     0</i>
   <i type="int" name="NBANDSGW">    -1</i>
   <i type="int" name="NBANDSO">    -1</i>
   <i type="int" name="NBANDSV">    -1</i>
   <i type="int" name="NELM">     1</i>
   <i type="int" name="NELMHF">     1</i>
   <i type="int" name="DIM">     3</i>
   <i type="int" name="ANTIRES">     0</i>
   <i name="OMEGAMAX">    -30.00000000</i>
   <i name="OMEGAMIN">    -30.00000000</i>
   <i name="OMEGATL">   -200.00000000</i>
   <i type="int" name="OMEGAGRID">     0</i>
   <i name="CSHIFT">     -0.10000000</i>
   <i type="logical" name="SELFENERGY"> F  </i>
   <i type="logical" name="LSPECTRAL"> F  </i>
   <i type="logical" name="LSPECTRALGW"> F  </i>
   <i type="logical" name="LSINGLES"> F  </i>
   <i type="logical" name="LFERMIGW"> F  </i>
   <i type="logical" name="ODDONLYGW"> F  </i>
   <i type="logical" name="EVENONLYGW"> F  </i>
   <i type="int" name="NKREDLFX">     1</i>
   <i type="int" name="NKREDLFY">     1</i>
   <i type="int" name="NKREDLFZ">     1</i>
   <i type="int" name="MAXMEM">  1800</i>
   <i type="int" name="TELESCOPE">     0</i>
   <i type="int" name="TAUPAR">     1</i>
   <i type="int" name="OMEGAPAR">    -1</i>
   <i name="LAMBDA">      1.00000000</i>
  </separator>
  <separator name="External order field" >
   <i name="OFIELD_KAPPA">      0.00000000</i>
   <v name="OFIELD_K">      0.00000000      0.00000000      0.00000000</v>
   <i name="OFIELD_Q6_NEAR">      0.00000000</i>
   <i name="OFIELD_Q6_FAR">      0.00000000</i>
   <i name="OFIELD_A">      0.00000000</i>
  </separator>
 </parameters>
 <atominfo>
  <atoms>      27 </atoms>
  <types>       4 </types>
  <array name="atoms" >
   <dimension dim="1">ion</dimension>
   <field type="string">element</field>
   <field type="int">atomtype</field>
   <set>
    <rc><c>V </c><c>   1</c></rc>
    <rc><c>V </c><c>   1</c></rc>
    <rc><c>V </c><c>   1</c></rc>
    <rc><c>Mo</c><c>   2</c></rc>
    <rc><c>Mo</c><c>   2</c></rc>
    <rc><c>Mo</c><c>   2</c></rc>
    <rc><c>W </c><c>   3</c></rc>
    <rc><c>W </c><c>   3</c></rc>
    <rc><c>W </c><c>   3</c></rc>
    <rc><c>S </c><c>   4</c></rc>
    <rc><c>S </c><c>   4</c></rc>
    <rc><c>S </c><c>   4</c></rc>
    <rc><c>S </c><c>   4</c></rc>
    <rc><c>S </c><c>   4</c></rc>
    <rc><c>S </c><c>   4</c></rc>
    <rc><c>S </c><c>   4</c></rc>
    <rc><c>S </c><c>   4</c></rc>
    <rc><c>S </c><c>   4</c></rc>
    <rc><c>S </c><c>   4</c></rc>
    <rc><c>S </c><c>   4</c></rc>
    <rc><c>S </c><c>   4</c></rc>
    <rc><c>S </c><c>   4</c></rc>
    <rc><c>S </c><c>   4</c></rc>
    <rc><c>S </c><c>   4</c></rc>
    <rc><c>S </c><c>   4</c></rc>
    <rc><c>S </c><c>   4</c></rc>
    <rc><c>S </c><c>   4</c></rc>
   </set>
  </array>
  <array name="atomtypes" >
   <dimension dim="1">type</dimension>
   <field type="int">atomspertype</field>
   <field type="string">element</field>
   <field>mass</field>
   <field>valence</field>
   <field type="string">pseudopotential</field>
   <set>
    <rc><c>   3</c><c>V </c><c>     50.94100000</c><c>      5.00000000</c><c> PAW_PBE V 08Apr2002                    </c></rc>
    <rc><c>   3</c><c>Mo</c><c>     95.94000000</c><c>      6.00000000</c><c> PAW_PBE Mo 08Apr2002                   </c></rc>
    <rc><c>   3</c><c>W </c><c>    183.85000000</c><c>      6.00000000</c><c> PAW_PBE W 08Apr2002                    </c></rc>
    <rc><c>  18</c><c>S </c><c>     32.06600000</c><c>      6.00000000</c><c>  PAW_PBE S 17Jan2003                   </c></rc>
   </set>
  </array>
 </atominfo>
 <structure name="initialpos" >
  <crystal>
   <varray name="basis" >
    <v>       8.66999996       5.03999989       0.00000000 </v>
    <v>      -8.66999982       5.04000013       0.00000000 </v>
    <v>       0.00000000       0.00000000      30.00000000 </v>
   </varray>
   <i name="volume">   2621.80797419 </i>
   <varray name="rec_basis" >
    <v>       0.05767013       0.09920635       0.00000000 </v>
    <v>      -0.05767013       0.09920635       0.00000000 </v>
    <v>       0.00000000       0.00000000       0.03333333 </v>
   </varray>
  </crystal>
  <varray name="positions" >
   <v>       0.00000000       0.00000000       0.00000000 </v>
   <v>       0.66666669       0.00000000       0.00000000 </v>
   <v>       0.33333334       0.33333334       0.00000000 </v>
   <v>       0.66666669       0.33333334       0.00000000 </v>
   <v>       0.00000000       0.66666669       0.00000000 </v>
   <v>       1.00000000       0.33333334       0.00000000 </v>
   <v>       0.33333334       0.00000000       0.00000000 </v>
   <v>       0.33333334       0.66666669       0.00000000 </v>
   <v>       0.66666669       0.66666669       0.00000000 </v>
   <v>       0.11068511       0.22244981       0.95539999 </v>
   <v>       0.22244981       0.11068511       0.04460000 </v>
   <v>       0.11068511       0.55578315       0.95539999 </v>
   <v>       0.22244981       0.44401845       0.04460000 </v>
   <v>       0.11068511       0.88911647       0.95539999 </v>
   <v>       0.22244981       0.77735180       0.04460000 </v>
   <v>       0.44401845       0.22244981       0.95539999 </v>
   <v>       0.55578315       0.11068511       0.04460000 </v>
   <v>       0.44401845       0.55578315       0.95539999 </v>
   <v>       0.55578315       0.44401845       0.04460000 </v>
   <v>       0.44401845       0.88911647       0.95539999 </v>
   <v>       0.55578315       0.77735180       0.04460000 </v>
   <v>       0.77735180       0.22244981       0.95539999 </v>
   <v>       0.88911647       0.11068511       0.04460000 </v>
   <v>       0.77735180       0.55578315       0.95539999 </v>
   <v>       0.88911647       0.44401845       0.04460000 </v>
   <v>       0.77735180       0.88911647       0.95539999 </v>
   <v>       0.88911647       0.77735180       0.04460000 </v>
  </varray>
 </structure>
 <calculation>
  <scstep>
   <time name="dav">   22.09   22.15</time>
   <time name="total">   22.14   22.20</time>
   <energy>
    <i name="alphaZ">     81.65567618 </i>
    <i name="ewald">  41890.23010383 </i>
    <i name="hartreedc"> -47722.85855704 </i>
    <i name="XCdc">   -242.92965098 </i>
    <i name="pawpsdc">   3467.42045192 </i>
    <i name="pawaedc">  -2871.19716117 </i>
    <i name="eentropy">     -0.53591523 </i>
    <i name="bandstr">   -236.77728349 </i>
    <i name="atom">   6761.44252427 </i>
    <i name="e_fr_energy">   1126.45018829 </i>
    <i name="e_wo_entrp">   1126.98610352 </i>
    <i name="e_0_energy">   1126.71814590 </i>
   </energy>
  </scstep>
  <scstep>
   <time name="dav">   28.45   28.52</time>
   <time name="total">   28.45   28.53</time>
   <energy>
    <i name="e_fr_energy">     -0.85861544 </i>
    <i name="e_wo_entrp">     -0.65917628 </i>
    <i name="e_0_energy">     -0.75889586 </i>
   </energy>
  </scstep>
  <scstep>
   <time name="dav">   28.11   28.18</time>
   <time name="total">   28.11   28.19</time>
   <energy>
    <i name="e_fr_energy">   -199.69175185 </i>
    <i name="e_wo_entrp">   -199.40314509 </i>
    <i name="e_0_energy">   -199.54744847 </i>
   </energy>
  </scstep>
  <scstep>
   <time name="dav">   30.74   30.82</time>
   <time name="total">   30.74   30.83</time>
   <energy>
    <i name="e_fr_energy">   -208.90366083 </i>
    <i name="e_wo_entrp">   -208.58079408 </i>
    <i name="e_0_energy">   -208.74222745 </i>
   </energy>
  </scstep>
  <scstep>
   <time name="dav">   29.06   29.13</time>
   <time name="total">   29.52   29.60</time>
   <energy>
    <i name="e_fr_energy">   -209.22397282 </i>
    <i name="e_wo_entrp">   -208.90495489 </i>
    <i name="e_0_energy">   -209.06446385 </i>
   </energy>
  </scstep>
  <scstep>
   <time name="dav">   31.30   31.37</time>
   <time name="total">   31.80   31.88</time>
   <energy>
    <i name="e_fr_energy">   -236.36346971 </i>
    <i name="e_wo_entrp">   -236.08584675 </i>
    <i name="e_0_energy">   -236.22465823 </i>
   </energy>
  </scstep>
  <scstep>
   <time name="dav">   32.97   33.05</time>
   <time name="total">   33.48   33.57</time>
   <energy>
    <i name="e_fr_energy">   -196.83013601 </i>
    <i name="e_wo_entrp">   -196.49754717 </i>
    <i name="e_0_energy">   -196.66384159 </i>
   </energy>
  </scstep>
  <scstep>
   <time name="dav">   29.63   29.71</time>
   <time name="total">   30.15   30.23</time>
   <energy>
    <i name="e_fr_energy">   -190.31963856 </i>
    <i name="e_wo_entrp">   -190.05268435 </i>
    <i name="e_0_energy">   -190.18616145 </i>
   </energy>
  </scstep>
  <scstep>
   <time name="dav">   30.37   30.45</time>
   <time name="total">   30.90   30.98</time>
   <energy>
    <i name="e_fr_energy">   -188.29796873 </i>
    <i name="e_wo_entrp">   -187.96320527 </i>
    <i name="e_0_energy">   -188.13058700 </i>
   </energy>
  </scstep>
  <scstep>
   <time name="dav">   33.07   33.15</time>
   <time name="total">   33.60   33.69</time>
   <energy>
    <i name="e_fr_energy">   -187.10933737 </i>
    <i name="e_wo_entrp">   -186.76286613 </i>
    <i name="e_0_energy">   -186.93610175 </i>
   </energy>
  </scstep>
  <scstep>
   <time name="dav">   31.00   31.07</time>
   <time name="total">   31.53   31.61</time>
   <energy>
    <i name="e_fr_energy">   -187.01030106 </i>
    <i name="e_wo_entrp">   -186.66337601 </i>
    <i name="e_0_energy">   -186.83683854 </i>
   </energy>
  </scstep>
  <scstep>
   <time name="dav">   32.09   32.17</time>
   <time name="total">   32.63   32.72</time>
   <energy>
    <i name="e_fr_energy">   -186.99891412 </i>
    <i name="e_wo_entrp">   -186.66244912 </i>
    <i name="e_0_energy">   -186.83068162 </i>
   </energy>
  </scstep>
  <scstep>
   <time name="dav">   32.77   32.85</time>
   <time name="total">   33.30   33.39</time>
   <energy>
    <i name="e_fr_energy">   -186.92412981 </i>
    <i name="e_wo_entrp">   -186.58546779 </i>
    <i name="e_0_energy">   -186.75479880 </i>
   </energy>
  </scstep>
  <scstep>
   <time name="dav">   32.25   32.33</time>
   <time name="total">   32.79   32.88</time>
   <energy>
    <i name="e_fr_energy">   -186.89015305 </i>
    <i name="e_wo_entrp">   -186.54633305 </i>
    <i name="e_0_energy">   -186.71824305 </i>
   </energy>
  </scstep>
  <scstep>
   <time name="dav">   30.55   30.62</time>
   <time name="total">   31.09   31.17</time>
   <energy>
    <i name="e_fr_energy">   -186.88588659 </i>
    <i name="e_wo_entrp">   -186.54148732 </i>
    <i name="e_0_energy">   -186.71368696 </i>
   </energy>
  </scstep>
  <scstep>
   <time name="dav">   32.35   32.43</time>
   <time name="total">   32.89   32.97</time>
   <energy>
    <i name="e_fr_energy">   -186.88557336 </i>
    <i name="e_wo_entrp">   -186.54166142 </i>
    <i name="e_0_energy">   -186.71361739 </i>
   </energy>
  </scstep>
  <scstep>
   <time name="dav">   32.37   32.45</time>
   <time name="total">   32.91   33.00</time>
   <energy>
    <i name="e_fr_energy">   -186.88363752 </i>
    <i name="e_wo_entrp">   -186.54057367 </i>
    <i name="e_0_energy">   -186.71210560 </i>
   </energy>
  </scstep>
  <scstep>
   <time name="dav">   30.76   30.84</time>
   <time name="total">   31.30   31.38</time>
   <energy>
    <i name="e_fr_energy">   -186.88246366 </i>
    <i name="e_wo_entrp">   -186.53978301 </i>
    <i name="e_0_energy">   -186.71112334 </i>
   </energy>
  </scstep>
  <scstep>
   <time name="dav">   28.54   28.61</time>
   <time name="total">   29.08   29.15</time>
   <energy>
    <i name="e_fr_energy">   -186.88228897 </i>
    <i name="e_wo_entrp">   -186.53912323 </i>
    <i name="e_0_energy">   -186.71070610 </i>
   </energy>
  </scstep>
  <scstep>
   <time name="dav">   24.01   24.07</time>
   <time name="total">   24.55   24.62</time>
   <energy>
    <i name="e_fr_energy">   -186.88314933 </i>
    <i name="e_wo_entrp">   -186.54028644 </i>
    <i name="e_0_energy">   -186.71171788 </i>
   </energy>
  </scstep>
  <scstep>
   <time name="dav">   22.20   22.26</time>
   <time name="total">   22.74   22.80</time>
   <energy>
    <i name="e_fr_energy">   -186.88388367 </i>
    <i name="e_wo_entrp">   -186.54093823 </i>
    <i name="e_0_energy">   -186.71241095 </i>
   </energy>
  </scstep>
  <scstep>
   <time name="dav">   20.49   20.54</time>
   <time name="total">   21.03   21.09</time>
   <energy>
    <i name="e_fr_energy">   -186.88476100 </i>
    <i name="e_wo_entrp">   -186.54181987 </i>
    <i name="e_0_energy">   -186.71329044 </i>
   </energy>
  </scstep>
  <scstep>
   <time name="dav">   20.80   20.85</time>
   <time name="total">   21.34   21.40</time>
   <energy>
    <i name="e_fr_energy">   -186.88599818 </i>
    <i name="e_wo_entrp">   -186.54318387 </i>
    <i name="e_0_energy">   -186.71459103 </i>
   </energy>
  </scstep>
  <scstep>
   <time name="dav">   19.23   19.27</time>
   <time name="total">   19.76   19.82</time>
   <energy>
    <i name="e_fr_energy">   -186.88653692 </i>
    <i name="e_wo_entrp">   -186.54365206 </i>
    <i name="e_0_energy">   -186.71509449 </i>
   </energy>
  </scstep>
  <scstep>
   <time name="dav">   16.71   16.75</time>
   <time name="total">   17.25   17.30</time>
   <energy>
    <i name="e_fr_energy">   -186.88694327 </i>
    <i name="e_wo_entrp">   -186.54404253 </i>
    <i name="e_0_energy">   -186.71549290 </i>
   </energy>
  </scstep>
  <scstep>
   <time name="dav">   19.41   19.46</time>
   <time name="total">   19.95   20.01</time>
   <energy>
    <i name="e_fr_energy">   -186.88717982 </i>
    <i name="e_wo_entrp">   -186.54429578 </i>
    <i name="e_0_energy">   -186.71573780 </i>
   </energy>
  </scstep>
  <scstep>
   <time name="dav">   20.27   20.32</time>
   <time name="total">   20.31   20.36</time>
   <energy>
    <i name="alphaZ">     81.65567618 </i>
    <i name="ewald">  41890.23010383 </i>
    <i name="hartreedc"> -47833.12186363 </i>
    <i name="XCdc">   -231.59845638 </i>
    <i name="pawpsdc">   4192.17922333 </i>
    <i name="pawaedc">  -3610.20447427 </i>
    <i name="eentropy">     -0.34288557 </i>
    <i name="bandstr">  -1437.12711012 </i>
    <i name="atom">   6761.44252427 </i>
    <i name="e_fr_energy">   -186.88726237 </i>
    <i name="e_wo_entrp">   -186.54437680 </i>
    <i name="e_0_energy">   -186.71581958 </i>
   </energy>
  </scstep>
  <structure>
   <crystal>
    <varray name="basis" >
     <v>       8.66999996       5.03999989       0.00000000 </v>
     <v>      -8.66999982       5.04000013       0.00000000 </v>
     <v>       0.00000000       0.00000000      30.00000000 </v>
    </varray>
    <i name="volume">   2621.80797419 </i>
    <varray name="rec_basis" >
     <v>       0.05767013       0.09920635       0.00000000 </v>
     <v>      -0.05767013       0.09920635       0.00000000 </v>
     <v>       0.00000000       0.00000000       0.03333333 </v>
    </varray>
   </crystal>
   <varray name="positions" >
    <v>       0.00000000       0.00000000       0.00000000 </v>
    <v>       0.66666669       0.00000000       0.00000000 </v>
    <v>       0.33333334       0.33333334       0.00000000 </v>
    <v>       0.66666669       0.33333334       0.00000000 </v>
    <v>       0.00000000       0.66666669       0.00000000 </v>
    <v>       1.00000000       0.33333334       0.00000000 </v>
    <v>       0.33333334       0.00000000       0.00000000 </v>
    <v>       0.33333334       0.66666669       0.00000000 </v>
    <v>       0.66666669       0.66666669       0.00000000 </v>
    <v>       0.11068511       0.22244981       0.95539999 </v>
    <v>       0.22244981       0.11068511       0.04460000 </v>
    <v>       0.11068511       0.55578315       0.95539999 </v>
    <v>       0.22244981       0.44401845       0.04460000 </v>
    <v>       0.11068511       0.88911647       0.95539999 </v>
    <v>       0.22244981       0.77735180       0.04460000 </v>
    <v>       0.44401845       0.22244981       0.95539999 </v>
    <v>       0.55578315       0.11068511       0.04460000 </v>
    <v>       0.44401845       0.55578315       0.95539999 </v>
    <v>       0.55578315       0.44401845       0.04460000 </v>
    <v>       0.44401845       0.88911647       0.95539999 </v>
    <v>       0.55578315       0.77735180       0.04460000 </v>
    <v>       0.77735180       0.22244981       0.95539999 </v>
    <v>       0.88911647       0.11068511       0.04460000 </v>
    <v>       0.77735180       0.55578315       0.95539999 </v>
    <v>       0.88911647       0.44401845       0.04460000 </v>
    <v>       0.77735180       0.88911647       0.95539999 </v>
    <v>       0.88911647       0.77735180       0.04460000 </v>
   </varray>
  </structure>
  <varray name="forces" >
   <v>      -0.08519342       0.03406779      -0.02341251 </v>
   <v>      -0.14980376       0.39517774      -0.06138286 </v>
   <v>      -0.01445628      -0.06830056       0.05931389 </v>
   <v>       0.25712866       0.42744820       0.09207068 </v>
   <v>       0.26980539      -0.43078094      -0.00548291 </v>
   <v>      -0.43027267      -0.04045851      -0.03397956 </v>
   <v>      -0.07002337       0.01654282      -0.00770221 </v>
   <v>      -0.25539950      -0.48326646      -0.07661724 </v>
   <v>       0.53199802       0.05669525       0.02887273 </v>
   <v>       0.89771202      -0.00142251      -1.42979641 </v>
   <v>      -0.75377330       0.02098450       1.49954508 </v>
   <v>       0.20444187       0.18257607      -2.93357775 </v>
   <v>       0.69837762       0.15500150       2.12607175 </v>
   <v>      -0.64824668       0.14805879      -2.07329220 </v>
   <v>      -0.08395884       0.12654730       2.90063962 </v>
   <v>      -0.65440024      -0.15058114      -2.05981342 </v>
   <v>       0.64355580      -0.13544293       2.09994960 </v>
   <v>       0.44630560      -0.55959845      -2.14393044 </v>
   <v>      -0.62558346      -0.56552196       2.17424915 </v>
   <v>       0.48480134       0.58829338      -2.20118736 </v>
   <v>      -0.46758874       0.57618650       2.08436005 </v>
   <v>       0.54988249      -0.71437922      -2.17414227 </v>
   <v>       0.32319543      -0.66727985       1.41481280 </v>
   <v>      -0.05447099       0.02638747      -2.92072761 </v>
   <v>      -0.13194006      -0.00879027       2.94747652 </v>
   <v>      -0.26699543       0.52748155      -1.43215971 </v>
   <v>      -0.61509750       0.54437394       2.14984259 </v>
  </varray>
  <varray name="stress" >
   <v>       7.43241275      -0.05364937      -1.60917108 </v>
   <v>      -0.05364969       4.34332214      -0.00057229 </v>
   <v>      -1.60917118      -0.00057232      30.28324917 </v>
  </varray>
  <energy>
   <i name="e_fr_energy">   -186.88726237 </i>
   <i name="e_wo_entrp">   -186.71581958 </i>
   <i name="e_0_energy">     -0.34288557 </i>
  </energy>
  <time name="totalsc">  795.59  797.71</time>
 </calculation>
 <calculation>
  <scstep>
   <time name="dav">   22.09   22.14</time>
   <time name="total">   22.64   22.69</time>
   <energy>
    <i name="alphaZ">     78.91674126 </i>
    <i name="ewald">  39378.01597574 </i>
    <i name="hartreedc"> -45335.57286389 </i>
    <i name="XCdc">   -239.05670386 </i>
    <i name="pawpsdc">   4192.16821654 </i>
    <i name="pawaedc">  -3610.19350195 </i>
    <i name="eentropy">     -0.28148695 </i>
    <i name="bandstr">  -1412.98261249 </i>
    <i name="atom">   6761.44252427 </i>
    <i name="e_fr_energy">   -187.54371132 </i>
    <i name="e_wo_entrp">   -187.26222437 </i>
    <i name="e_0_energy">   -187.40296785 </i>
   </energy>
  </scstep>
  <scstep>
   <time name="dav">   30.88   30.96</time>
   <time name="total">   31.42   31.50</time>
   <energy>
    <i name="e_fr_energy">   -189.65310245 </i>
    <i name="e_wo_entrp">   -189.31254750 </i>
    <i name="e_0_energy">   -189.48282498 </i>
   </energy>
  </scstep>
  <scstep>
   <time name="dav">   31.13   31.21</time>
   <time name="total">   31.69   31.77</time>
   <energy>
    <i name="e_fr_energy">   -189.34352314 </i>
    <i name="e_wo_entrp">   -189.06932901 </i>
    <i name="e_0_energy">   -189.20642607 </i>
   </energy>
  </scstep>
  <scstep>
   <time name="dav">   31.37   31.44</time>
   <time name="total">   31.91   32.00</time>
   <energy>
    <i name="e_fr_energy">   -188.80567175 </i>
    <i name="e_wo_entrp">   -188.52485768 </i>
    <i name="e_0_energy">   -188.66526472 </i>
   </energy>
  </scstep>
  <scstep>
   <time name="dav">   31.30   31.38</time>
   <time name="total">   31.85   31.93</time>
   <energy>
    <i name="e_fr_energy">   -188.96674113 </i>
    <i name="e_wo_entrp">   -188.67261380 </i>
    <i name="e_0_energy">   -188.81967746 </i>
   </energy>
  </scstep>
  <scstep>
   <time name="dav">   31.71   31.78</time>
   <time name="total">   32.26   32.34</time>
   <energy>
    <i name="e_fr_energy">   -188.77254175 </i>
    <i name="e_wo_entrp">   -188.49281249 </i>
    <i name="e_0_energy">   -188.63267712 </i>
   </energy>
  </scstep>
  <scstep>
   <time name="dav">   29.14   29.21</time>
   <time name="total">   29.69   29.77</time>
   <energy>
    <i name="e_fr_energy">   -188.75540227 </i>
    <i name="e_wo_entrp">   -188.47483025 </i>
    <i name="e_0_energy">   -188.61511626 </i>
   </energy>
  </scstep>
  <scstep>
   <time name="dav">   33.14   33.22</time>
   <time name="total">   33.69   33.78</time>
   <energy>
    <i name="e_fr_energy">   -188.73471273 </i>
    <i name="e_wo_entrp">   -188.45424739 </i>
    <i name="e_0_energy">   -188.59448006 </i>
   </energy>
  </scstep>
  <scstep>
   <time name="dav">   31.01   31.08</time>
   <time name="total">   31.56   31.64</time>
   <energy>
    <i name="e_fr_energy">   -188.71599159 </i>
    <i name="e_wo_entrp">   -188.43633850 </i>
    <i name="e_0_energy">   -188.57616505 </i>
   </energy>
  </scstep>
  <scstep>
   <time name="dav">   27.13   27.20</time>
   <time name="total">   27.68   27.75</time>
   <energy>
    <i name="e_fr_energy">   -188.71575555 </i>
    <i name="e_wo_entrp">   -188.43622463 </i>
    <i name="e_0_energy">   -188.57599009 </i>
   </energy>
  </scstep>
  <scstep>
   <time name="dav">   29.17   29.24</time>
   <time name="total">   29.72   29.80</time>
   <energy>
    <i name="e_fr_energy">   -188.71497853 </i>
    <i name="e_wo_entrp">   -188.43593966 </i>
    <i name="e_0_energy">   -188.57545910 </i>
   </energy>
  </scstep>
  <scstep>
   <time name="dav">   27.68   27.75</time>
   <time name="total">   28.23   28.31</time>
   <energy>
    <i name="e_fr_energy">   -188.71514028 </i>
    <i name="e_wo_entrp">   -188.43603385 </i>
    <i name="e_0_energy">   -188.57558707 </i>
   </energy>
  </scstep>
  <scstep>
   <time name="dav">   22.71   22.77</time>
   <time name="total">   22.75   22.81</time>
   <energy>
    <i name="alphaZ">     78.91674126 </i>
    <i name="ewald">  39378.01597574 </i>
    <i name="hartreedc"> -45346.29785332 </i>
    <i name="XCdc">   -237.96808807 </i>
    <i name="pawpsdc">   3950.47419965 </i>
    <i name="pawaedc">  -3364.99540461 </i>
    <i name="eentropy">     -0.27911674 </i>
    <i name="bandstr">  -1408.02408313 </i>
    <i name="atom">   6761.44252427 </i>
    <i name="e_fr_energy">   -188.71510496 </i>
    <i name="e_wo_entrp">   -188.43598822 </i>
    <i name="e_0_energy">   -188.57554659 </i>
   </energy>
  </scstep>
  <structure>
   <crystal>
    <varray name="basis" >
     <v>       8.85762053       5.10264435       0.00000000 </v>
     <v>      -8.85920158       5.10536461       0.00000000 </v>
     <v>       0.00000000       0.00000000      30.00000000 </v>
    </varray>
    <i name="volume">   2712.80211939 </i>
    <varray name="rec_basis" >
     <v>       0.05645857       0.09797104       0.00000000 </v>
     <v>      -0.05642849       0.09795356       0.00000000 </v>
     <v>       0.00000000       0.00000000       0.03333333 </v>
    </varray>
   </crystal>
   <varray name="positions" >
    <v>      -0.00007397       0.00040007      -0.00003765 </v>
    <v>       0.66814122       0.00230809      -0.00009871 </v>
    <v>       0.33296624       0.33304668       0.00009538 </v>
    <v>       0.66942782       0.33466373       0.00014806 </v>
    <v>      -0.00131107       0.66385434      -0.00000882 </v>
    <v>       0.99860928       0.33433680      -0.00005464 </v>
    <v>       0.33321770       0.00027399      -0.00001239 </v>
    <v>       0.33030988       0.66506435      -0.00012321 </v>
    <v>       0.66841813       0.66545793       0.00004643 </v>
    <v>       0.11317588       0.21994542       0.95310075 </v>
    <v>       0.22045312       0.11288266       0.04701140 </v>
    <v>       0.11212771       0.55608817       0.95068254 </v>
    <v>       0.22513464       0.44281729       0.04801891 </v>
    <v>       0.10959019       0.89162860       0.95206595 </v>
    <v>       0.22282187       0.77819104       0.04926448 </v>
    <v>       0.44147713       0.22354978       0.95208763 </v>
    <v>       0.55692540       0.10824641       0.04797690 </v>
    <v>       0.44258192       0.55186323       0.95195236 </v>
    <v>       0.55133610       0.44305235       0.04809638 </v>
    <v>       0.44818281       0.89058323       0.95186029 </v>
    <v>       0.55723986       0.78141032       0.04795183 </v>
    <v>       0.77546265       0.21750095       0.95190378 </v>
    <v>       0.88682206       0.10659234       0.04687514 </v>
    <v>       0.77732654       0.55606099       0.95070320 </v>
    <v>       0.88870732       0.44434346       0.04933980 </v>
    <v>       0.77913349       0.89238380       0.95309695 </v>
    <v>       0.89001053       0.78166846       0.04805714 </v>
   </varray>
  </structure>
  <varray name="forces" >
   <v>      -0.04850250       0.03449151      -0.08726360 </v>
   <v>      -0.16406228       0.29551701       0.06006188 </v>
   <v>       0.00744640      -0.03134769      -0.07132260 </v>
   <v>       0.16728353       0.58802769       0.03014218 </v>
   <v>       0.37980434      -0.50501709       0.00779060 </v>
   <v>      -0.62599866       0.15782140       0.00254189 </v>
   <v>       0.07799132      -0.04689350      -0.11164458 </v>
   <v>      -0.38251042      -0.43353125       0.07206421 </v>
   <v>       0.55604403       0.00220412       0.11488517 </v>
   <v>       0.02234929      -0.01145482       0.17628361 </v>
   <v>       0.09096367       0.00517206      -0.06240555 </v>
   <v>       0.04361350       0.10201798      -0.28960875 </v>
   <v>      -0.02847868       0.09252226      -0.00900917 </v>
   <v>       0.03118517       0.10374528       0.12474184 </v>
   <v>       0.06449283       0.08513780      -0.00430534 </v>
   <v>       0.03421117      -0.09830245       0.14932565 </v>
   <v>      -0.02488963      -0.09917878      -0.02575395 </v>
   <v>      -0.05896825       0.06487055       0.17086377 </v>
   <v>      -0.06504752       0.05753962       0.00921051 </v>
   <v>      -0.04778713      -0.05954718       0.11847883 </v>
   <v>       0.05590478      -0.07210852      -0.38661629 </v>
   <v>       0.02832596      -0.06606520      -0.16771603 </v>
   <v>       0.00330817      -0.02927473      -0.08100291 </v>
   <v>      -0.12339000       0.00303059      -0.23285256 </v>
   <v>       0.01398542      -0.00862041       0.39813131 </v>
   <v>       0.06276995      -0.07300370       0.13074448 </v>
   <v>      -0.07004445      -0.05775256      -0.03576459 </v>
  </varray>
  <varray name="stress" >
   <v>     -19.91254391       0.00727427       0.04786393 </v>
   <v>       0.00727418     -19.45018199       0.01194395 </v>
   <v>       0.04786385       0.01194413      -1.75731883 </v>
  </varray>
  <energy>
   <i name="e_fr_energy">   -188.71510496 </i>
   <i name="e_wo_entrp">   -188.57554659 </i>
   <i name="e_0_energy">     -0.27911674 </i>
  </energy>
  <time name="totalsc">  427.20  428.32</time>
 </calculation>
 <calculation>
  <scstep>
   <time name="dav">   23.90   23.96</time>
   <time name="total">   24.43   24.50</time>
   <energy>
    <i name="alphaZ">     82.34405266 </i>
    <i name="ewald">  41303.21586506 </i>
    <i name="hartreedc"> -47301.90388169 </i>
    <i name="XCdc">   -233.84238379 </i>
    <i name="pawpsdc">   3949.58341016 </i>
    <i name="pawaedc">  -3364.09745593 </i>
    <i name="eentropy">     -0.23647660 </i>
    <i name="bandstr">  -1387.15540545 </i>
    <i name="atom">   6761.44252427 </i>
    <i name="e_fr_energy">   -190.64975130 </i>
    <i name="e_wo_entrp">   -190.41327471 </i>
    <i name="e_0_energy">   -190.53151300 </i>
   </energy>
  </scstep>
  <scstep>
   <time name="dav">   28.35   28.41</time>
   <time name="total">   28.87   28.95</time>
   <energy>
    <i name="e_fr_energy">   -190.56877408 </i>
    <i name="e_wo_entrp">   -190.33146630 </i>
    <i name="e_0_energy">   -190.45012019 </i>
   </energy>
  </scstep>
  <scstep>
   <time name="dav">   30.81   30.89</time>
   <time name="total">   31.34   31.43</time>
   <energy>
    <i name="e_fr_energy">   -190.13780031 </i>
    <i name="e_wo_entrp">   -189.88581112 </i>
    <i name="e_0_energy">   -190.01180572 </i>
   </energy>
  </scstep>
  <scstep>
   <time name="dav">   31.82   31.89</time>
   <time name="total">   32.35   32.44</time>
   <energy>
    <i name="e_fr_energy">   -189.92360539 </i>
    <i name="e_wo_entrp">   -189.68771502 </i>
    <i name="e_0_energy">   -189.80566021 </i>
   </energy>
  </scstep>
  <scstep>
   <time name="dav">   30.67   30.75</time>
   <time name="total">   31.21   31.29</time>
   <energy>
    <i name="e_fr_energy">   -189.90389212 </i>
    <i name="e_wo_entrp">   -189.66431435 </i>
    <i name="e_0_energy">   -189.78410324 </i>
   </energy>
  </scstep>
  <scstep>
   <time name="dav">   31.22   31.29</time>
   <time name="total">   31.75   31.84</time>
   <energy>
    <i name="e_fr_energy">   -189.82551830 </i>
    <i name="e_wo_entrp">   -189.58657011 </i>
    <i name="e_0_energy">   -189.70604420 </i>
   </energy>
  </scstep>
  <scstep>
   <time name="dav">   29.30   29.37</time>
   <time name="total">   29.84   29.92</time>
   <energy>
    <i name="e_fr_energy">   -189.81860914 </i>
    <i name="e_wo_entrp">   -189.57997013 </i>
    <i name="e_0_energy">   -189.69928963 </i>
   </energy>
  </scstep>
  <scstep>
   <time name="dav">   30.90   30.97</time>
   <time name="total">   31.43   31.52</time>
   <energy>
    <i name="e_fr_energy">   -189.81962815 </i>
    <i name="e_wo_entrp">   -189.58090781 </i>
    <i name="e_0_energy">   -189.70026798 </i>
   </energy>
  </scstep>
  <scstep>
   <time name="dav">   28.23   28.30</time>
   <time name="total">   28.76   28.84</time>
   <energy>
    <i name="e_fr_energy">   -189.81840848 </i>
    <i name="e_wo_entrp">   -189.57972919 </i>
    <i name="e_0_energy">   -189.69906883 </i>
   </energy>
  </scstep>
  <scstep>
   <time name="dav">   25.68   25.74</time>
   <time name="total">   26.21   26.28</time>
   <energy>
    <i name="e_fr_energy">   -189.81870666 </i>
    <i name="e_wo_entrp">   -189.57994714 </i>
    <i name="e_0_energy">   -189.69932690 </i>
   </energy>
  </scstep>
  <scstep>
   <time name="dav">   23.41   23.47</time>
   <time name="total">   23.94   24.01</time>
   <energy>
    <i name="e_fr_energy">   -189.81851815 </i>
    <i name="e_wo_entrp">   -189.57972609 </i>
    <i name="e_0_energy">   -189.69912212 </i>
   </energy>
  </scstep>
  <scstep>
   <time name="dav">   20.56   20.61</time>
   <time name="total">   20.60   20.65</time>
   <energy>
    <i name="alphaZ">     82.34405266 </i>
    <i name="ewald">  41303.21586506 </i>
    <i name="hartreedc"> -47275.42538783 </i>
    <i name="XCdc">   -235.23291203 </i>
    <i name="pawpsdc">   4039.13002653 </i>
    <i name="pawaedc">  -3454.85082095 </i>
    <i name="eentropy">     -0.23880205 </i>
    <i name="bandstr">  -1410.20308104 </i>
    <i name="atom">   6761.44252427 </i>
    <i name="e_fr_energy">   -189.81853536 </i>
    <i name="e_wo_entrp">   -189.57973331 </i>
    <i name="e_0_energy">   -189.69913434 </i>
   </energy>
  </scstep>
  <structure>
   <crystal>
    <varray name="basis" >
     <v>       8.66917789       4.99665465       0.00000000 </v>
     <v>      -8.67064595       4.99918064       0.00000000 </v>
     <v>       0.00000000       0.00000000      30.00000000 </v>
    </varray>
    <i name="volume">   2599.89028970 </i>
    <varray name="rec_basis" >
     <v>       0.05768529       0.10005014       0.00000000 </v>
     <v>      -0.05765614       0.10003320       0.00000000 </v>
     <v>       0.00000000       0.00000000       0.03333333 </v>
    </varray>
   </crystal>
   <varray name="positions" >
    <v>      -0.00006305       0.00050428      -0.00008722 </v>
    <v>       0.66847674       0.00295912      -0.00006459 </v>
    <v>       0.33292107       0.33298719       0.00005487 </v>
    <v>       0.67057046       0.33548440       0.00016518 </v>
    <v>      -0.00178878       0.66264616      -0.00000439 </v>
    <v>       0.99827050       0.33520217      -0.00005320 </v>
    <v>       0.33321445       0.00012072      -0.00007580 </v>
    <v>       0.32921810       0.66470852      -0.00008227 </v>
    <v>       0.66895677       0.66492693       0.00011169 </v>
    <v>       0.11317826       0.21990481       0.95320088 </v>
    <v>       0.22054927       0.11280382       0.04697595 </v>
    <v>       0.11233998       0.55621652       0.95051803 </v>
    <v>       0.22526171       0.44299911       0.04801379 </v>
    <v>       0.10979339       0.89177178       0.95213681 </v>
    <v>       0.22302606       0.77827113       0.04926204 </v>
    <v>       0.44134593       0.22335280       0.95217245 </v>
    <v>       0.55673588       0.10810479       0.04796227 </v>
    <v>       0.44263349       0.55202822       0.95204941 </v>
    <v>       0.55136958       0.44321094       0.04810162 </v>
    <v>       0.44803742       0.89052979       0.95192758 </v>
    <v>       0.55717326       0.78123620       0.04773223 </v>
    <v>       0.77537961       0.21736343       0.95180851 </v>
    <v>       0.88677637       0.10654030       0.04682913 </v>
    <v>       0.77721289       0.55618470       0.95057094 </v>
    <v>       0.88870638       0.44431562       0.04956595 </v>
    <v>       0.77907200       0.89220159       0.95317122 </v>
    <v>       0.88984672       0.78163941       0.04803682 </v>
   </varray>
  </structure>
  <varray name="forces" >
   <v>      -0.02678683       0.02500794      -0.08286418 </v>
   <v>      -0.18930783       0.25542293       0.07503075 </v>
   <v>       0.01301646      -0.00011031      -0.08482133 </v>
   <v>       0.13550342       0.61365024       0.00656257 </v>
   <v>       0.42157715      -0.51840913       0.00534760 </v>
   <v>      -0.67550048       0.22317707       0.00631316 </v>
   <v>       0.12957745      -0.06749953      -0.10815284 </v>
   <v>      -0.42157850      -0.42533733       0.08692766 </v>
   <v>       0.56114229      -0.02560146       0.10572138 </v>
   <v>       0.06632995      -0.01218293      -0.25443347 </v>
   <v>      -0.06532317       0.00133599       0.40368008 </v>
   <v>      -0.00149331       0.01285468      -0.87892414 </v>
   <v>       0.07737229      -0.00116151       0.49241146 </v>
   <v>      -0.07151817       0.00763350      -0.35478944 </v>
   <v>       0.00424733       0.01339466       0.55876200 </v>
   <v>      -0.06191511      -0.00295659      -0.32660161 </v>
   <v>       0.07267071      -0.01893986       0.46160722 </v>
   <v>       0.01200335      -0.04403109      -0.31493879 </v>
   <v>      -0.04150355      -0.08533209       0.51733482 </v>
   <v>       0.04276419       0.06222007      -0.39385757 </v>
   <v>      -0.00955437       0.04015071       0.07625292 </v>
   <v>       0.05809665      -0.11536174      -0.66570805 </v>
   <v>       0.03228884      -0.06792384       0.35668225 </v>
   <v>      -0.02922349       0.00224012      -0.80558725 </v>
   <v>       0.02074670      -0.00750560       0.97496687 </v>
   <v>      -0.01021603       0.04548386      -0.32226602 </v>
   <v>      -0.04341593       0.08978122       0.46534394 </v>
  </varray>
  <varray name="stress" >
   <v>     -10.15057579      -0.00158575       0.04592429 </v>
   <v>      -0.00158580      -9.76517036       0.01310519 </v>
   <v>       0.04592422       0.01310509       6.49881889 </v>
  </varray>
  <energy>
   <i name="e_fr_energy">   -189.81853536 </i>
   <i name="e_wo_entrp">   -189.69913434 </i>
   <i name="e_0_energy">     -0.23880205 </i>
  </energy>
  <time name="totalsc">  382.59  383.60</time>
 </calculation>
 <calculation>
  <scstep>
   <time name="dav">   22.12   22.17</time>
   <time name="total">   22.64   22.70</time>
   <energy>
    <i name="alphaZ">     85.80412696 </i>
    <i name="ewald">  42825.93171687 </i>
    <i name="hartreedc"> -48842.40472329 </i>
    <i name="XCdc">   -232.96345375 </i>
    <i name="pawpsdc">   4039.28289369 </i>
    <i name="pawaedc">  -3455.00188955 </i>
    <i name="eentropy">     -0.21081623 </i>
    <i name="bandstr">  -1373.29097683 </i>
    <i name="atom">   6761.44252427 </i>
    <i name="e_fr_energy">   -191.41059787 </i>
    <i name="e_wo_entrp">   -191.19978164 </i>
    <i name="e_0_energy">   -191.30518975 </i>
   </energy>
  </scstep>
  <scstep>
   <time name="dav">   32.64   32.72</time>
   <time name="total">   33.16   33.24</time>
   <energy>
    <i name="e_fr_energy">   -191.22248541 </i>
    <i name="e_wo_entrp">   -191.01200048 </i>
    <i name="e_0_energy">   -191.11724295 </i>
   </energy>
  </scstep>
  <scstep>
   <time name="dav">   30.65   30.73</time>
   <time name="total">   31.16   31.25</time>
   <energy>
    <i name="e_fr_energy">   -191.37494312 </i>
    <i name="e_wo_entrp">   -191.14271311 </i>
    <i name="e_0_energy">   -191.25882811 </i>
   </energy>
  </scstep>
  <scstep>
   <time name="dav">   30.96   31.04</time>
   <time name="total">   31.48   31.57</time>
   <energy>
    <i name="e_fr_energy">   -190.99696102 </i>
    <i name="e_wo_entrp">   -190.78380788 </i>
    <i name="e_0_energy">   -190.89038445 </i>
   </energy>
  </scstep>
  <scstep>
   <time name="dav">   31.08   31.16</time>
   <time name="total">   31.60   31.69</time>
   <energy>
    <i name="e_fr_energy">   -190.91804570 </i>
    <i name="e_wo_entrp">   -190.70552327 </i>
    <i name="e_0_energy">   -190.81178448 </i>
   </energy>
  </scstep>
  <scstep>
   <time name="dav">   31.01   31.09</time>
   <time name="total">   31.53   31.62</time>
   <energy>
    <i name="e_fr_energy">   -190.86986523 </i>
    <i name="e_wo_entrp">   -190.65237399 </i>
    <i name="e_0_energy">   -190.76111961 </i>
   </energy>
  </scstep>
  <scstep>
   <time name="dav">   31.48   31.56</time>
   <time name="total">   32.00   32.09</time>
   <energy>
    <i name="e_fr_energy">   -190.84644149 </i>
    <i name="e_wo_entrp">   -190.63062477 </i>
    <i name="e_0_energy">   -190.73853313 </i>
   </energy>
  </scstep>
  <scstep>
   <time name="dav">   29.06   29.13</time>
   <time name="total">   29.58   29.66</time>
   <energy>
    <i name="e_fr_energy">   -190.84478536 </i>
    <i name="e_wo_entrp">   -190.62902292 </i>
    <i name="e_0_energy">   -190.73690414 </i>
   </energy>
  </scstep>
  <scstep>
   <time name="dav">   27.59   27.66</time>
   <time name="total">   28.11   28.19</time>
   <energy>
    <i name="e_fr_energy">   -190.84387450 </i>
    <i name="e_wo_entrp">   -190.62806447 </i>
    <i name="e_0_energy">   -190.73596948 </i>
   </energy>
  </scstep>
  <scstep>
   <time name="dav">   28.11   28.18</time>
   <time name="total">   28.63   28.71</time>
   <energy>
    <i name="e_fr_energy">   -190.84411455 </i>
    <i name="e_wo_entrp">   -190.62833578 </i>
    <i name="e_0_energy">   -190.73622516 </i>
   </energy>
  </scstep>
  <scstep>
   <time name="dav">   27.04   27.11</time>
   <time name="total">   27.56   27.63</time>
   <energy>
    <i name="e_fr_energy">   -190.84392597 </i>
    <i name="e_wo_entrp">   -190.62808569 </i>
    <i name="e_0_energy">   -190.73600583 </i>
   </energy>
  </scstep>
  <scstep>
   <time name="dav">   19.56   19.61</time>
   <time name="total">   19.60   19.65</time>
   <energy>
    <i name="alphaZ">     85.80412696 </i>
    <i name="ewald">  42825.93171687 </i>
    <i name="hartreedc"> -48814.00255742 </i>
    <i name="XCdc">   -234.27843318 </i>
    <i name="pawpsdc">   4064.59500211 </i>
    <i name="pawaedc">  -3480.50411298 </i>
    <i name="eentropy">     -0.21585591 </i>
    <i name="bandstr">  -1399.61634489 </i>
    <i name="atom">   6761.44252427 </i>
    <i name="e_fr_energy">   -190.84393415 </i>
    <i name="e_wo_entrp">   -190.62807825 </i>
    <i name="e_0_energy">   -190.73600620 </i>
   </energy>
  </scstep>
  <structure>
   <crystal>
    <varray name="basis" >
     <v>       8.48703120       4.89784025       0.00000000 </v>
     <v>      -8.48867232       4.90067007       0.00000000 </v>
     <v>       0.00000000       0.00000000      30.00000000 </v>
    </varray>
    <i name="volume">   2495.04902049 </i>
    <varray name="rec_basis" >
     <v>       0.05892473       0.10206620       0.00000000 </v>
     <v>      -0.05889071       0.10204647       0.00000000 </v>
     <v>       0.00000000       0.00000000       0.03333333 </v>
    </varray>
   </crystal>
   <varray name="positions" >
    <v>       0.00000436       0.00070303      -0.00025499 </v>
    <v>       0.66925723       0.00517901       0.00010333 </v>
    <v>       0.33305294       0.33300909      -0.00013207 </v>
    <v>       0.67492224       0.33894769       0.00015884 </v>
    <v>      -0.00348680       0.65778400       0.00000461 </v>
    <v>       0.99731976       0.33927212      -0.00003695 </v>
    <v>       0.33328236      -0.00089486      -0.00029668 </v>
    <v>       0.32499512       0.66364292       0.00011018 </v>
    <v>       0.67076178       0.66266412       0.00032274 </v>
    <v>       0.11340269       0.21952429       0.95231042 </v>
    <v>       0.22008848       0.11326207       0.04820517 </v>
    <v>       0.11212915       0.55614556       0.94820118 </v>
    <v>       0.22545278       0.44232847       0.04945650 </v>
    <v>       0.10919721       0.89198609       0.95099741 </v>
    <v>       0.22286094       0.77824773       0.05089414 </v>
    <v>       0.44120295       0.22393205       0.95109443 </v>
    <v>       0.55721862       0.10778345       0.04932935 </v>
    <v>       0.44223216       0.55133720       0.95098719 </v>
    <v>       0.55036401       0.44243794       0.04960156 </v>
    <v>       0.44901364       0.89093789       0.95067962 </v>
    <v>       0.55757536       0.78189452       0.04828111 </v>
    <v>       0.77478701       0.21626614       0.95001007 </v>
    <v>       0.88641301       0.10586087       0.04793709 </v>
    <v>       0.77725414       0.55616760       0.94841986 </v>
    <v>       0.88874676       0.44418680       0.05207102 </v>
    <v>       0.77950981       0.89292193       0.95212153 </v>
    <v>       0.89065678       0.78268672       0.04942324 </v>
   </varray>
  </structure>
  <varray name="forces" >
   <v>      -0.04907827       0.03358705      -0.04605511 </v>
   <v>      -0.21887014       0.26347010       0.07748639 </v>
   <v>       0.02411822       0.02177408      -0.07725775 </v>
   <v>       0.08481708       0.58566708      -0.02003896 </v>
   <v>       0.43272760      -0.48228531       0.01041831 </v>
   <v>      -0.62555810       0.25220261       0.00248342 </v>
   <v>       0.15325788      -0.07656769      -0.07078041 </v>
   <v>      -0.49510032      -0.46970644       0.04938559 </v>
   <v>       0.62749699      -0.00720453       0.07198271 </v>
   <v>      -0.08701171      -0.00849077      -0.18572660 </v>
   <v>      -0.02357661      -0.00861780       0.28351517 </v>
   <v>      -0.02683576      -0.04626917      -0.69310762 </v>
   <v>      -0.02797315      -0.07278591       0.32893783 </v>
   <v>       0.02571671      -0.08474280      -0.19845524 </v>
   <v>      -0.07788797      -0.07226642       0.40243070 </v>
   <v>       0.04671877       0.07039389      -0.16397230 </v>
   <v>      -0.02753113       0.05529006       0.28200096 </v>
   <v>      -0.01590073       0.00982743      -0.12088255 </v>
   <v>       0.06853891      -0.05181437       0.39335689 </v>
   <v>       0.07235458       0.00246027      -0.28201345 </v>
   <v>       0.02056636      -0.04331210      -0.08531541 </v>
   <v>      -0.00541361       0.03252737      -0.47928079 </v>
   <v>      -0.04306006       0.06069055       0.25430567 </v>
   <v>       0.06363187       0.01969241      -0.60198758 </v>
   <v>       0.00522778      -0.01120865       0.78202186 </v>
   <v>       0.02191086      -0.00867095      -0.21571835 </v>
   <v>       0.07671394       0.03636002       0.30226661 </v>
  </varray>
  <varray name="stress" >
   <v>      -5.58544790      -0.07851941      -0.12033113 </v>
   <v>      -0.07851951      -5.70529368      -0.09295418 </v>
   <v>      -0.12033097      -0.09295410       4.45499254 </v>
  </varray>
  <energy>
   <i name="e_fr_energy">   -190.84393415 </i>
   <i name="e_wo_entrp">   -190.73600620 </i>
   <i name="e_0_energy">     -0.21585591 </i>
  </energy>
  <time name="totalsc">  389.02  390.06</time>
 </calculation>
 <calculation>
  <scstep>
   <time name="dav">   22.07   22.13</time>
   <time name="total">   22.58   22.64</time>
   <energy>
    <i name="alphaZ">     89.97255877 </i>
    <i name="ewald">  44581.19357955 </i>
    <i name="hartreedc"> -50622.09443478 </i>
    <i name="XCdc">   -231.92955238 </i>
    <i name="pawpsdc">   4064.55679299 </i>
    <i name="pawaedc">  -3480.46186508 </i>
    <i name="eentropy">     -0.21422703 </i>
    <i name="bandstr">  -1354.62679198 </i>
    <i name="atom">   6761.44252427 </i>
    <i name="e_fr_energy">   -192.16141566 </i>
    <i name="e_wo_entrp">   -191.94718864 </i>
    <i name="e_0_energy">   -192.05430215 </i>
   </energy>
  </scstep>
  <scstep>
   <time name="dav">   27.90   27.97</time>
   <time name="total">   28.41   28.49</time>
   <energy>
    <i name="e_fr_energy">   -191.93212058 </i>
    <i name="e_wo_entrp">   -191.71616012 </i>
    <i name="e_0_energy">   -191.82414035 </i>
   </energy>
  </scstep>
  <scstep>
   <time name="dav">   29.94   30.01</time>
   <time name="total">   30.44   30.52</time>
   <energy>
    <i name="e_fr_energy">   -191.80809708 </i>
    <i name="e_wo_entrp">   -191.58167747 </i>
    <i name="e_0_energy">   -191.69488727 </i>
   </energy>
  </scstep>
  <scstep>
   <time name="dav">   31.20   31.28</time>
   <time name="total">   31.71   31.79</time>
   <energy>
    <i name="e_fr_energy">   -191.82834501 </i>
    <i name="e_wo_entrp">   -191.62382483 </i>
    <i name="e_0_energy">   -191.72608492 </i>
   </energy>
  </scstep>
  <scstep>
   <time name="dav">   30.86   30.94</time>
   <time name="total">   31.37   31.46</time>
   <energy>
    <i name="e_fr_energy">   -191.55309101 </i>
    <i name="e_wo_entrp">   -191.33156444 </i>
    <i name="e_0_energy">   -191.44232773 </i>
   </energy>
  </scstep>
  <scstep>
   <time name="dav">   30.21   30.28</time>
   <time name="total">   30.71   30.80</time>
   <energy>
    <i name="e_fr_energy">   -191.54476131 </i>
    <i name="e_wo_entrp">   -191.32364733 </i>
    <i name="e_0_energy">   -191.43420432 </i>
   </energy>
  </scstep>
  <scstep>
   <time name="dav">   30.42   30.50</time>
   <time name="total">   30.93   31.01</time>
   <energy>
    <i name="e_fr_energy">   -191.55101580 </i>
    <i name="e_wo_entrp">   -191.32995340 </i>
    <i name="e_0_energy">   -191.44048460 </i>
   </energy>
  </scstep>
  <scstep>
   <time name="dav">   29.77   29.84</time>
   <time name="total">   30.28   30.36</time>
   <energy>
    <i name="e_fr_energy">   -191.53848904 </i>
    <i name="e_wo_entrp">   -191.31764475 </i>
    <i name="e_0_energy">   -191.42806689 </i>
   </energy>
  </scstep>
  <scstep>
   <time name="dav">   27.60   27.66</time>
   <time name="total">   28.10   28.18</time>
   <energy>
    <i name="e_fr_energy">   -191.53886913 </i>
    <i name="e_wo_entrp">   -191.31812646 </i>
    <i name="e_0_energy">   -191.42849780 </i>
   </energy>
  </scstep>
  <scstep>
   <time name="dav">   30.46   30.53</time>
   <time name="total">   30.97   31.05</time>
   <energy>
    <i name="e_fr_energy">   -191.53904547 </i>
    <i name="e_wo_entrp">   -191.31791457 </i>
    <i name="e_0_energy">   -191.42848002 </i>
   </energy>
  </scstep>
  <scstep>
   <time name="dav">   25.04   25.10</time>
   <time name="total">   25.54   25.61</time>
   <energy>
    <i name="e_fr_energy">   -191.53865454 </i>
    <i name="e_wo_entrp">   -191.31779396 </i>
    <i name="e_0_energy">   -191.42822425 </i>
   </energy>
  </scstep>
  <scstep>
   <time name="dav">   17.47   17.51</time>
   <time name="total">   17.51   17.56</time>
   <energy>
    <i name="alphaZ">     89.97255877 </i>
    <i name="ewald">  44581.19357955 </i>
    <i name="hartreedc"> -50590.24871438 </i>
    <i name="XCdc">   -233.36627442 </i>
    <i name="pawpsdc">   4087.91923208 </i>
    <i name="pawaedc">  -3503.96233557 </i>
    <i name="eentropy">     -0.22096525 </i>
    <i name="bandstr">  -1384.26821461 </i>
    <i name="atom">   6761.44252427 </i>
    <i name="e_fr_energy">   -191.53860954 </i>
    <i name="e_wo_entrp">   -191.31764430 </i>
    <i name="e_0_energy">   -191.42812692 </i>
   </energy>
  </scstep>
  <structure>
   <crystal>
    <varray name="basis" >
     <v>       8.28811814       4.77763688       0.00000000 </v>
     <v>      -8.29438839       4.78848562       0.00000000 </v>
     <v>       0.00000000       0.00000000      30.00000000 </v>
    </varray>
    <i name="volume">   2379.45331167 </i>
    <varray name="rec_basis" >
     <v>       0.06037293       0.10457514       0.00000000 </v>
     <v>      -0.06023615       0.10449608       0.00000000 </v>
     <v>       0.00000000       0.00000000       0.03333333 </v>
    </varray>
   </crystal>
   <varray name="positions" >
    <v>       0.00008206       0.00134694      -0.00044847 </v>
    <v>       0.67075682       0.00971511       0.00041697 </v>
    <v>       0.33352783       0.33315479      -0.00044855 </v>
    <v>       0.68259804       0.34546265       0.00007259 </v>
    <v>      -0.00629627       0.64891036       0.00004024 </v>
    <v>       0.99603043       0.34683653      -0.00002185 </v>
    <v>       0.33344193      -0.00296302      -0.00058733 </v>
    <v>       0.31608680       0.66153682       0.00033487 </v>
    <v>       0.67483660       0.65820990       0.00061094 </v>
    <v>       0.11290400       0.21980468       0.95115388 </v>
    <v>       0.21954468       0.11361071       0.04980053 </v>
    <v>       0.11119499       0.55567650       0.94486702 </v>
    <v>       0.22451271       0.44124817       0.05128310 </v>
    <v>       0.10799716       0.89093303       0.94970160 </v>
    <v>       0.22138308       0.77788150       0.05305987 </v>
    <v>       0.44225761       0.22484442       0.94993272 </v>
    <v>       0.55803503       0.10848868       0.05096876 </v>
    <v>       0.44199445       0.55104406       0.94996772 </v>
    <v>       0.54971143       0.44096917       0.05166457 </v>
    <v>       0.45008349       0.89078111       0.94905134 </v>
    <v>       0.55750864       0.78180580       0.04846185 </v>
    <v>       0.77487382       0.21621787       0.94759102 </v>
    <v>       0.88664560       0.10645719       0.04938357 </v>
    <v>       0.77796052       0.55587146       0.94544602 </v>
    <v>       0.88868282       0.44400136       0.05574257 </v>
    <v>       0.77982229       0.89322119       0.95080858 </v>
    <v>       0.89203786       0.78314746       0.05114576 </v>
   </varray>
  </structure>
  <varray name="forces" >
   <v>      -0.13251533       0.04580474      -0.04506449 </v>
   <v>      -0.27225708       0.37702448       0.00526183 </v>
   <v>       0.05651308       0.02920808      -0.02110717 </v>
   <v>      -0.02801509       0.09352428       0.06756734 </v>
   <v>       0.04393334       0.02701857       0.02526707 </v>
   <v>      -0.04868927       0.02498866       0.04498750 </v>
   <v>       0.15361870      -0.13985787      -0.05113525 </v>
   <v>      -0.41538113      -0.34801822      -0.06508765 </v>
   <v>       0.58579098       0.03466877       0.01553274 </v>
   <v>      -0.22756667       0.01312004       0.02535010 </v>
   <v>       0.03924614      -0.00001751      -0.00253160 </v>
   <v>      -0.06089943      -0.05750764      -0.30052050 </v>
   <v>      -0.15507490      -0.09507375       0.02587141 </v>
   <v>       0.13303791      -0.14701512       0.09047958 </v>
   <v>      -0.15430839      -0.16222724       0.17367176 </v>
   <v>       0.17177268       0.10964291       0.09326614 </v>
   <v>      -0.13337703       0.11542062      -0.00950644 </v>
   <v>      -0.08778184       0.10257061       0.20367854 </v>
   <v>       0.16153326      -0.00216053       0.11186771 </v>
   <v>       0.09390038      -0.08104088      -0.00686321 </v>
   <v>       0.09055186      -0.19553986      -0.42109540 </v>
   <v>      -0.07188354       0.14893248      -0.12750405 </v>
   <v>      -0.11660932       0.18063731       0.01964282 </v>
   <v>       0.12146052       0.07501933      -0.25289463 </v>
   <v>      -0.01032297      -0.03186359       0.27875989 </v>
   <v>       0.03071398      -0.09253469       0.08675821 </v>
   <v>       0.23260917      -0.02472400       0.03534774 </v>
  </varray>
  <varray name="stress" >
   <v>       0.56404266      -0.22163448      -0.16542798 </v>
   <v>      -0.22163464       0.33646000      -0.30487443 </v>
   <v>      -0.16542800      -0.30487468      -0.66460791 </v>
  </varray>
  <energy>
   <i name="e_fr_energy">   -191.53860954 </i>
   <i name="e_wo_entrp">   -191.42812692 </i>
   <i name="e_0_energy">     -0.22096525 </i>
  </energy>
  <time name="totalsc">  380.55  381.56</time>
 </calculation>
 <calculation>
  <scstep>
   <time name="dav">   22.07   22.13</time>
   <time name="total">   22.58   22.64</time>
   <energy>
    <i name="alphaZ">     89.66956797 </i>
    <i name="ewald">  44432.41238261 </i>
    <i name="hartreedc"> -50438.63641375 </i>
    <i name="XCdc">   -233.62637280 </i>
    <i name="pawpsdc">   4087.78747112 </i>
    <i name="pawaedc">  -3503.82509237 </i>
    <i name="eentropy">     -0.22178244 </i>
    <i name="bandstr">  -1386.61358650 </i>
    <i name="atom">   6761.44252427 </i>
    <i name="e_fr_energy">   -191.61130189 </i>
    <i name="e_wo_entrp">   -191.38951945 </i>
    <i name="e_0_energy">   -191.50041067 </i>
   </energy>
  </scstep>
  <scstep>
   <time name="dav">   32.56   32.64</time>
   <time name="total">   33.07   33.16</time>
   <energy>
    <i name="e_fr_energy">   -191.66282081 </i>
    <i name="e_wo_entrp">   -191.43414030 </i>
    <i name="e_0_energy">   -191.54848055 </i>
   </energy>
  </scstep>
  <scstep>
   <time name="dav">   31.22   31.29</time>
   <time name="total">   31.73   31.81</time>
   <energy>
    <i name="e_fr_energy">   -191.62122307 </i>
    <i name="e_wo_entrp">   -191.39888975 </i>
    <i name="e_0_energy">   -191.51005641 </i>
   </energy>
  </scstep>
  <scstep>
   <time name="dav">   26.44   26.50</time>
   <time name="total">   26.95   27.02</time>
   <energy>
    <i name="e_fr_energy">   -191.62459195 </i>
    <i name="e_wo_entrp">   -191.40289881 </i>
    <i name="e_0_energy">   -191.51374538 </i>
   </energy>
  </scstep>
  <scstep>
   <time name="dav">   28.57   28.64</time>
   <time name="total">   29.08   29.15</time>
   <energy>
    <i name="e_fr_energy">   -191.61796483 </i>
    <i name="e_wo_entrp">   -191.39423645 </i>
    <i name="e_0_energy">   -191.50610064 </i>
   </energy>
  </scstep>
  <scstep>
   <time name="dav">   28.35   28.42</time>
   <time name="total">   28.85   28.93</time>
   <energy>
    <i name="e_fr_energy">   -191.61872485 </i>
    <i name="e_wo_entrp">   -191.39613540 </i>
    <i name="e_0_energy">   -191.50743012 </i>
   </energy>
  </scstep>
  <scstep>
   <time name="dav">   28.41   28.47</time>
   <time name="total">   28.91   28.99</time>
   <energy>
    <i name="e_fr_energy">   -191.61756614 </i>
    <i name="e_wo_entrp">   -191.39479894 </i>
    <i name="e_0_energy">   -191.50618254 </i>
   </energy>
  </scstep>
  <scstep>
   <time name="dav">   25.61   25.67</time>
   <time name="total">   26.12   26.19</time>
   <energy>
    <i name="e_fr_energy">   -191.61712013 </i>
    <i name="e_wo_entrp">   -191.39433466 </i>
    <i name="e_0_energy">   -191.50572740 </i>
   </energy>
  </scstep>
  <scstep>
   <time name="dav">   18.80   18.85</time>
   <time name="total">   18.84   18.89</time>
   <energy>
    <i name="alphaZ">     89.66956797 </i>
    <i name="ewald">  44432.41238261 </i>
    <i name="hartreedc"> -50442.04278011 </i>
    <i name="XCdc">   -233.50471156 </i>
    <i name="pawpsdc">   4083.87261184 </i>
    <i name="pawaedc">  -3499.85898083 </i>
    <i name="eentropy">     -0.22281631 </i>
    <i name="bandstr">  -1383.38491974 </i>
    <i name="atom">   6761.44252427 </i>
    <i name="e_fr_energy">   -191.61712186 </i>
    <i name="e_wo_entrp">   -191.39430555 </i>
    <i name="e_0_energy">   -191.50571371 </i>
   </energy>
  </scstep>
  <structure>
   <crystal>
    <varray name="basis" >
     <v>       8.30184956       4.78005268       0.00000000 </v>
     <v>      -8.31315709       4.79962744       0.00000000 </v>
     <v>       0.00000000       0.00000000      30.00000000 </v>
    </varray>
    <i name="volume">   2387.49341368 </i>
    <varray name="rec_basis" >
     <v>       0.06030962       0.10445881       0.00000000 </v>
     <v>      -0.06006365       0.10431672       0.00000000 </v>
     <v>       0.00000000       0.00000000       0.03333333 </v>
    </varray>
   </crystal>
   <varray name="positions" >
    <v>      -0.00006525       0.00189282      -0.00050685 </v>
    <v>       0.67172401       0.01201721       0.00041094 </v>
    <v>       0.33379493       0.33313120      -0.00046589 </v>
    <v>       0.68262557       0.34569067       0.00017723 </v>
    <v>      -0.00592919       0.64930512       0.00007650 </v>
    <v>       0.99607111       0.34675068       0.00004437 </v>
    <v>       0.33319531      -0.00393777      -0.00065054 </v>
    <v>       0.31371976       0.66111777       0.00022723 </v>
    <v>       0.67640879       0.65698801       0.00062143 </v>
    <v>       0.11236656       0.22047322       0.95125463 </v>
    <v>       0.21968240       0.11348116       0.04971311 </v>
    <v>       0.11080806       0.55559517       0.94458216 </v>
    <v>       0.22368663       0.44128046       0.05122640 </v>
    <v>       0.10773178       0.88992940       0.94990811 </v>
    <v>       0.22027440       0.77755623       0.05320718 </v>
    <v>       0.44319150       0.22484278       0.95013761 </v>
    <v>       0.55816894       0.10936092       0.05086754 </v>
    <v>       0.44225471       0.55178793       0.95033178 </v>
    <v>       0.55018074       0.44059892       0.05172626 </v>
    <v>       0.44989552       0.89014703       0.94912735 </v>
    <v>       0.55683247       0.78063516       0.04781106 </v>
    <v>       0.77538029       0.21712353       0.94752203 </v>
    <v>       0.88717120       0.10760209       0.04933668 </v>
    <v>       0.77860755       0.55591041       0.94521643 </v>
    <v>       0.88850774       0.44388879       0.05598073 </v>
    <v>       0.77945111       0.89267657       0.95100877 </v>
    <v>       0.89247781       0.78236896       0.05110767 </v>
   </varray>
  </structure>
  <varray name="forces" >
   <v>      -0.15956880       0.04570268      -0.05939939 </v>
   <v>      -0.29633086       0.46146815       0.00550472 </v>
   <v>       0.04364113       0.03875386      -0.03394350 </v>
   <v>      -0.01073640       0.19927586       0.01840243 </v>
   <v>       0.13021226      -0.06170108       0.02821529 </v>
   <v>      -0.15419801       0.03789088       0.02502405 </v>
   <v>       0.17408984      -0.19830290      -0.04860965 </v>
   <v>      -0.44901152      -0.38445993       0.00105920 </v>
   <v>       0.63614344       0.02603347       0.03294817 </v>
   <v>      -0.11002115       0.01475731       0.03484674 </v>
   <v>       0.02718227       0.00160172      -0.03779452 </v>
   <v>      -0.04936317      -0.07854980      -0.23458838 </v>
   <v>      -0.09787994      -0.03470123       0.01547921 </v>
   <v>       0.05055843      -0.07556041       0.06697712 </v>
   <v>      -0.09045943      -0.08521717       0.15984960 </v>
   <v>       0.11220318       0.03103606       0.10250386 </v>
   <v>      -0.08420578       0.05751325       0.00925152 </v>
   <v>      -0.05832110       0.07660981       0.21311333 </v>
   <v>       0.09663639      -0.01031843       0.10783097 </v>
   <v>       0.07238288      -0.05244412       0.01785970 </v>
   <v>       0.07692619      -0.13288311      -0.48116633 </v>
   <v>      -0.05061639       0.06993405      -0.12607836 </v>
   <v>      -0.07173562       0.09789384       0.04371816 </v>
   <v>       0.10986259       0.02884374      -0.20049944 </v>
   <v>      -0.00552449      -0.00665683       0.16620376 </v>
   <v>       0.01697696      -0.07443370       0.12026771 </v>
   <v>       0.14115709       0.00791404       0.05302403 </v>
  </varray>
  <varray name="stress" >
   <v>      -0.09471655       0.05814149      -0.11023876 </v>
   <v>       0.05814146      -0.25986045      -0.03780182 </v>
   <v>      -0.11023888      -0.03780206      -1.19545619 </v>
  </varray>
  <energy>
   <i name="e_fr_energy">   -191.61712186 </i>
   <i name="e_wo_entrp">   -191.50571371 </i>
   <i name="e_0_energy">     -0.22281631 </i>
  </energy>
  <time name="totalsc">  288.11  288.87</time>
 </calculation>
 <calculation>
  <scstep>
   <time name="dav">   22.03   22.09</time>
   <time name="total">   22.54   22.60</time>
   <energy>
    <i name="alphaZ">     89.75337397 </i>
    <i name="ewald">  44470.33767006 </i>
    <i name="hartreedc"> -50480.78188157 </i>
    <i name="XCdc">   -233.45071755 </i>
    <i name="pawpsdc">   4083.45457203 </i>
    <i name="pawaedc">  -3499.43664353 </i>
    <i name="eentropy">     -0.22153739 </i>
    <i name="bandstr">  -1382.78345688 </i>
    <i name="atom">   6761.44252427 </i>
    <i name="e_fr_energy">   -191.68609659 </i>
    <i name="e_wo_entrp">   -191.46455920 </i>
    <i name="e_0_energy">   -191.57532790 </i>
   </energy>
  </scstep>
  <scstep>
   <time name="dav">   32.54   32.61</time>
   <time name="total">   33.04   33.13</time>
   <energy>
    <i name="e_fr_energy">   -191.71485467 </i>
    <i name="e_wo_entrp">   -191.48714187 </i>
    <i name="e_0_energy">   -191.60099827 </i>
   </energy>
  </scstep>
  <scstep>
   <time name="dav">   31.18   31.25</time>
   <time name="total">   31.68   31.77</time>
   <energy>
    <i name="e_fr_energy">   -191.69233097 </i>
    <i name="e_wo_entrp">   -191.47045812 </i>
    <i name="e_0_energy">   -191.58139454 </i>
   </energy>
  </scstep>
  <scstep>
   <time name="dav">   27.82   27.88</time>
   <time name="total">   28.32   28.40</time>
   <energy>
    <i name="e_fr_energy">   -191.69275852 </i>
    <i name="e_wo_entrp">   -191.47175744 </i>
    <i name="e_0_energy">   -191.58225798 </i>
   </energy>
  </scstep>
  <scstep>
   <time name="dav">   28.43   28.50</time>
   <time name="total">   28.94   29.01</time>
   <energy>
    <i name="e_fr_energy">   -191.68998495 </i>
    <i name="e_wo_entrp">   -191.46691552 </i>
    <i name="e_0_energy">   -191.57845024 </i>
   </energy>
  </scstep>
  <scstep>
   <time name="dav">   28.86   28.93</time>
   <time name="total">   29.36   29.44</time>
   <energy>
    <i name="e_fr_energy">   -191.69001776 </i>
    <i name="e_wo_entrp">   -191.46757623 </i>
    <i name="e_0_energy">   -191.57879699 </i>
   </energy>
  </scstep>
  <scstep>
   <time name="dav">   26.42   26.49</time>
   <time name="total">   26.93   27.00</time>
   <energy>
    <i name="e_fr_energy">   -191.69005538 </i>
    <i name="e_wo_entrp">   -191.46742567 </i>
    <i name="e_0_energy">   -191.57874052 </i>
   </energy>
  </scstep>
  <scstep>
[...]
      <set comment="kpoint 31">
       <r>  -17.4870    1.0000 </r>
       <r>  -17.2519    1.0000 </r>
       <r>  -16.9212    1.0000 </r>
       <r>  -16.5854    1.0000 </r>
       <r>  -16.4967    1.0000 </r>
       <r>  -16.4101    1.0000 </r>
       <r>  -16.2814    1.0000 </r>
       <r>  -16.1609    1.0000 </r>
       <r>  -16.0885    1.0000 </r>
       <r>  -16.0295    1.0000 </r>
       <r>  -15.9150    1.0000 </r>
       <r>  -15.8619    1.0000 </r>
       <r>  -15.8351    1.0000 </r>
       <r>  -15.7394    1.0000 </r>
       <r>  -15.6603    1.0000 </r>
       <r>  -15.5528    1.0000 </r>
       <r>  -15.4351    1.0000 </r>
       <r>  -15.3124    1.0000 </r>
       <r>   -9.6927    1.0000 </r>
       <r>   -9.4189    1.0000 </r>
       <r>   -9.2953    1.0000 </r>
       <r>   -8.9026    1.0000 </r>
       <r>   -8.8263    1.0000 </r>
       <r>   -8.7022    1.0000 </r>
       <r>   -8.5409    1.0000 </r>
       <r>   -8.4917    1.0000 </r>
       <r>   -8.4195    1.0000 </r>
       <r>   -8.3285    1.0000 </r>
       <r>   -8.2790    1.0000 </r>
       <r>   -8.1828    1.0000 </r>
       <r>   -8.1590    1.0000 </r>
       <r>   -8.0979    1.0000 </r>
       <r>   -7.9996    1.0000 </r>
       <r>   -7.8756    1.0000 </r>
       <r>   -7.8018    1.0000 </r>
       <r>   -7.6443    1.0000 </r>
       <r>   -7.5821    1.0000 </r>
       <r>   -7.4260    1.0000 </r>
       <r>   -7.3121    1.0000 </r>
       <r>   -7.1709    1.0000 </r>
       <r>   -7.1187    1.0000 </r>
       <r>   -7.0755    1.0000 </r>
       <r>   -7.0081    1.0000 </r>
       <r>   -6.9718    1.0000 </r>
       <r>   -6.8586    1.0000 </r>
       <r>   -6.8400    1.0000 </r>
       <r>   -6.7221    1.0000 </r>
       <r>   -6.6056    1.0000 </r>
       <r>   -6.5626    1.0000 </r>
       <r>   -6.4808    1.0000 </r>
       <r>   -6.4042    1.0000 </r>
       <r>   -6.3837    1.0000 </r>
       <r>   -6.2716    1.0000 </r>
       <r>   -6.1888    1.0000 </r>
       <r>   -6.1435    1.0000 </r>
       <r>   -6.0561    1.0000 </r>
       <r>   -6.0221    1.0000 </r>
       <r>   -5.9196    1.0000 </r>
       <r>   -5.8750    1.0000 </r>
       <r>   -5.7969    1.0000 </r>
       <r>   -5.7103    1.0000 </r>
       <r>   -5.6386    1.0000 </r>
       <r>   -5.5486    1.0000 </r>
       <r>   -5.3636    1.0000 </r>
       <r>   -5.2572    1.0000 </r>
       <r>   -5.1893    1.0000 </r>
       <r>   -5.1158    1.0000 </r>
       <r>   -4.9022    1.0000 </r>
       <r>   -4.7659    1.0000 </r>
       <r>   -4.7492    1.0000 </r>
       <r>   -4.6282    1.0000 </r>
       <r>   -4.4401    1.0000 </r>
       <r>   -4.3975    1.0000 </r>
       <r>   -4.3134    1.0000 </r>
       <r>   -4.1814    1.0000 </r>
       <r>   -3.9559    1.0000 </r>
       <r>   -3.7958    0.9999 </r>
       <r>   -3.6583    0.9965 </r>
       <r>   -3.5264    0.9614 </r>
       <r>   -3.2800    0.5100 </r>
       <r>   -2.9801    0.0181 </r>
       <r>   -2.7874    0.0003 </r>
       <r>   -2.6171    0.0000 </r>
       <r>   -2.5090    0.0000 </r>
       <r>   -2.4566    0.0000 </r>
       <r>   -2.3477    0.0000 </r>
       <r>   -2.2931    0.0000 </r>
       <r>   -2.1344    0.0000 </r>
       <r>   -2.0550    0.0000 </r>
       <r>   -1.9401    0.0000 </r>
       <r>   -1.8489    0.0000 </r>
       <r>   -1.8088    0.0000 </r>
       <r>   -1.4718    0.0000 </r>
       <r>   -1.3352    0.0000 </r>
       <r>   -1.2484    0.0000 </r>
       <r>   -1.1722    0.0000 </r>
       <r>   -1.1458    0.0000 </r>
       <r>   -1.0530    0.0000 </r>
       <r>   -0.9745    0.0000 </r>
       <r>   -0.9435    0.0000 </r>
       <r>   -0.8540    0.0000 </r>
       <r>   -0.7399    0.0000 </r>
       <r>   -0.6510    0.0000 </r>
       <r>   -0.5363    0.0000 </r>
       <r>   -0.4484    0.0000 </r>
       <r>   -0.4109    0.0000 </r>
       <r>   -0.2901    0.0000 </r>
       <r>   -0.0684    0.0000 </r>
       <r>   -0.0460    0.0000 </r>
       <r>    0.1214    0.0000 </r>
       <r>    0.3545    0.0000 </r>
       <r>    0.5535    0.0000 </r>
       <r>    0.7241    0.0000 </r>
       <r>    0.9576    0.0000 </r>
       <r>    1.0740    0.0000 </r>
       <r>    1.4005    0.0000 </r>
       <r>    1.5442    0.0000 </r>
       <r>    2.1241    0.0000 </r>
       <r>    2.2858    0.0000 </r>
       <r>    2.3855    0.0000 </r>
      </set>
      <set comment="kpoint 32">
       <r>  -17.5069    1.0000 </r>
       <r>  -17.1323    1.0000 </r>
       <r>  -17.0748    1.0000 </r>
       <r>  -16.5882    1.0000 </r>
       <r>  -16.4192    1.0000 </r>
       <r>  -16.3570    1.0000 </r>
       <r>  -16.2665    1.0000 </r>
       <r>  -16.2045    1.0000 </r>
       <r>  -16.1105    1.0000 </r>
       <r>  -16.0075    1.0000 </r>
       <r>  -15.9438    1.0000 </r>
       <r>  -15.8997    1.0000 </r>
       <r>  -15.8373    1.0000 </r>
       <r>  -15.7386    1.0000 </r>
       <r>  -15.6535    1.0000 </r>
       <r>  -15.5656    1.0000 </r>
       <r>  -15.4170    1.0000 </r>
       <r>  -15.3022    1.0000 </r>
       <r>   -9.6038    1.0000 </r>
       <r>   -9.5411    1.0000 </r>
       <r>   -9.3733    1.0000 </r>
       <r>   -8.9090    1.0000 </r>
       <r>   -8.7502    1.0000 </r>
       <r>   -8.5281    1.0000 </r>
       <r>   -8.4785    1.0000 </r>
       <r>   -8.4612    1.0000 </r>
       <r>   -8.4077    1.0000 </r>
       <r>   -8.3440    1.0000 </r>
       <r>   -8.2858    1.0000 </r>
       <r>   -8.2461    1.0000 </r>
       <r>   -8.1896    1.0000 </r>
       <r>   -8.1497    1.0000 </r>
       <r>   -8.0330    1.0000 </r>
       <r>   -7.9512    1.0000 </r>
       <r>   -7.8184    1.0000 </r>
       <r>   -7.6120    1.0000 </r>
       <r>   -7.5386    1.0000 </r>
       <r>   -7.4528    1.0000 </r>
       <r>   -7.3232    1.0000 </r>
       <r>   -7.2122    1.0000 </r>
       <r>   -7.1226    1.0000 </r>
       <r>   -7.0787    1.0000 </r>
       <r>   -6.9704    1.0000 </r>
       <r>   -6.9496    1.0000 </r>
       <r>   -6.9448    1.0000 </r>
       <r>   -6.7983    1.0000 </r>
       <r>   -6.7154    1.0000 </r>
       <r>   -6.6020    1.0000 </r>
       <r>   -6.5277    1.0000 </r>
       <r>   -6.4882    1.0000 </r>
       <r>   -6.4155    1.0000 </r>
       <r>   -6.3679    1.0000 </r>
       <r>   -6.2645    1.0000 </r>
       <r>   -6.2110    1.0000 </r>
       <r>   -6.1420    1.0000 </r>
       <r>   -6.0929    1.0000 </r>
       <r>   -5.9923    1.0000 </r>
       <r>   -5.9130    1.0000 </r>
       <r>   -5.8684    1.0000 </r>
       <r>   -5.7180    1.0000 </r>
       <r>   -5.6685    1.0000 </r>
       <r>   -5.5986    1.0000 </r>
       <r>   -5.5086    1.0000 </r>
       <r>   -5.4300    1.0000 </r>
       <r>   -5.3072    1.0000 </r>
       <r>   -5.2047    1.0000 </r>
       <r>   -5.1228    1.0000 </r>
       <r>   -5.0388    1.0000 </r>
       <r>   -4.7715    1.0000 </r>
       <r>   -4.6719    1.0000 </r>
       <r>   -4.6051    1.0000 </r>
       <r>   -4.4784    1.0000 </r>
       <r>   -4.3888    1.0000 </r>
       <r>   -4.3233    1.0000 </r>
       <r>   -4.1952    1.0000 </r>
       <r>   -4.0059    1.0000 </r>
       <r>   -3.8005    0.9999 </r>
       <r>   -3.6523    0.9961 </r>
       <r>   -3.4517    0.8924 </r>
       <r>   -3.2649    0.4675 </r>
       <r>   -3.0558    0.0594 </r>
       <r>   -2.7377    0.0001 </r>
       <r>   -2.5785    0.0000 </r>
       <r>   -2.4983    0.0000 </r>
       <r>   -2.4413    0.0000 </r>
       <r>   -2.3396    0.0000 </r>
       <r>   -2.2520    0.0000 </r>
       <r>   -2.1388    0.0000 </r>
       <r>   -2.0573    0.0000 </r>
       <r>   -1.9361    0.0000 </r>
       <r>   -1.8766    0.0000 </r>
       <r>   -1.8183    0.0000 </r>
       <r>   -1.4891    0.0000 </r>
       <r>   -1.3723    0.0000 </r>
       <r>   -1.2541    0.0000 </r>
       <r>   -1.1700    0.0000 </r>
       <r>   -1.1405    0.0000 </r>
       <r>   -1.0485    0.0000 </r>
       <r>   -0.9710    0.0000 </r>
       <r>   -0.9208    0.0000 </r>
       <r>   -0.8311    0.0000 </r>
       <r>   -0.7451    0.0000 </r>
       <r>   -0.6532    0.0000 </r>
       <r>   -0.5641    0.0000 </r>
       <r>   -0.4608    0.0000 </r>
       <r>   -0.4379    0.0000 </r>
       <r>   -0.2496    0.0000 </r>
       <r>   -0.1218    0.0000 </r>
       <r>    0.0506    0.0000 </r>
       <r>    0.1674    0.0000 </r>
       <r>    0.3707    0.0000 </r>
       <r>    0.5734    0.0000 </r>
       <r>    0.7529    0.0000 </r>
       <r>    0.9242    0.0000 </r>
       <r>    1.0674    0.0000 </r>
       <r>    1.2909    0.0000 </r>
       <r>    1.4875    0.0000 </r>
       <r>    2.0883    0.0000 </r>
       <r>    2.2554    0.0000 </r>
       <r>    2.5494    0.0000 </r>
      </set>
      <set comment="kpoint 33">
       <r>  -17.4933    1.0000 </r>
       <r>  -17.2485    1.0000 </r>
       <r>  -16.9165    1.0000 </r>
       <r>  -16.5954    1.0000 </r>
       <r>  -16.5025    1.0000 </r>
       <r>  -16.3697    1.0000 </r>
       <r>  -16.2893    1.0000 </r>
       <r>  -16.1660    1.0000 </r>
       <r>  -16.0813    1.0000 </r>
       <r>  -15.9854    1.0000 </r>
       <r>  -15.9599    1.0000 </r>
       <r>  -15.8983    1.0000 </r>
       <r>  -15.8210    1.0000 </r>
       <r>  -15.7442    1.0000 </r>
       <r>  -15.6571    1.0000 </r>
       <r>  -15.5775    1.0000 </r>
       <r>  -15.4121    1.0000 </r>
       <r>  -15.3083    1.0000 </r>
       <r>   -9.6990    1.0000 </r>
       <r>   -9.3951    1.0000 </r>
       <r>   -9.2929    1.0000 </r>
       <r>   -8.9753    1.0000 </r>
       <r>   -8.8584    1.0000 </r>
       <r>   -8.7177    1.0000 </r>
       <r>   -8.4937    1.0000 </r>
       <r>   -8.4161    1.0000 </r>
       <r>   -8.3846    1.0000 </r>
       <r>   -8.3130    1.0000 </r>
       <r>   -8.2838    1.0000 </r>
       <r>   -8.2287    1.0000 </r>
       <r>   -8.1313    1.0000 </r>
       <r>   -8.0660    1.0000 </r>
       <r>   -8.0088    1.0000 </r>
       <r>   -7.8979    1.0000 </r>
       <r>   -7.8100    1.0000 </r>
       <r>   -7.6380    1.0000 </r>
       <r>   -7.6011    1.0000 </r>
       <r>   -7.4431    1.0000 </r>
       <r>   -7.2750    1.0000 </r>
       <r>   -7.2079    1.0000 </r>
       <r>   -7.1485    1.0000 </r>
       <r>   -7.0961    1.0000 </r>
       <r>   -6.9755    1.0000 </r>
       <r>   -6.9548    1.0000 </r>
       <r>   -6.9178    1.0000 </r>
       <r>   -6.7857    1.0000 </r>
       <r>   -6.6839    1.0000 </r>
       <r>   -6.5890    1.0000 </r>
       <r>   -6.5371    1.0000 </r>
       <r>   -6.5081    1.0000 </r>
       <r>   -6.4292    1.0000 </r>
       <r>   -6.3246    1.0000 </r>
       <r>   -6.2739    1.0000 </r>
       <r>   -6.2139    1.0000 </r>
       <r>   -6.1456    1.0000 </r>
       <r>   -6.0909    1.0000 </r>
       <r>   -6.0006    1.0000 </r>
       <r>   -5.9419    1.0000 </r>
       <r>   -5.9148    1.0000 </r>
       <r>   -5.8137    1.0000 </r>
       <r>   -5.7073    1.0000 </r>
       <r>   -5.6443    1.0000 </r>
       <r>   -5.5694    1.0000 </r>
       <r>   -5.3974    1.0000 </r>
       <r>   -5.2353    1.0000 </r>
       <r>   -5.1502    1.0000 </r>
       <r>   -5.0729    1.0000 </r>
       <r>   -4.9993    1.0000 </r>
       <r>   -4.7701    1.0000 </r>
       <r>   -4.6645    1.0000 </r>
       <r>   -4.5691    1.0000 </r>
       <r>   -4.5624    1.0000 </r>
       <r>   -4.3489    1.0000 </r>
       <r>   -4.2729    1.0000 </r>
       <r>   -4.1927    1.0000 </r>
       <r>   -4.0818    1.0000 </r>
       <r>   -3.8152    0.9999 </r>
       <r>   -3.6681    0.9972 </r>
       <r>   -3.4385    0.8741 </r>
       <r>   -3.3194    0.6195 </r>
       <r>   -3.0380    0.0459 </r>
       <r>   -2.6906    0.0000 </r>
       <r>   -2.5723    0.0000 </r>
       <r>   -2.5085    0.0000 </r>
       <r>   -2.4133    0.0000 </r>
       <r>   -2.3463    0.0000 </r>
       <r>   -2.2036    0.0000 </r>
       <r>   -2.1208    0.0000 </r>
       <r>   -2.0573    0.0000 </r>
       <r>   -1.9278    0.0000 </r>
       <r>   -1.8970    0.0000 </r>
       <r>   -1.8046    0.0000 </r>
       <r>   -1.4860    0.0000 </r>
       <r>   -1.4025    0.0000 </r>
       <r>   -1.2564    0.0000 </r>
       <r>   -1.1958    0.0000 </r>
       <r>   -1.1383    0.0000 </r>
       <r>   -1.0387    0.0000 </r>
       <r>   -0.9728    0.0000 </r>
       <r>   -0.9216    0.0000 </r>
       <r>   -0.8260    0.0000 </r>
       <r>   -0.7280    0.0000 </r>
       <r>   -0.7106    0.0000 </r>
       <r>   -0.5459    0.0000 </r>
       <r>   -0.5224    0.0000 </r>
       <r>   -0.3474    0.0000 </r>
       <r>   -0.2953    0.0000 </r>
       <r>   -0.1267    0.0000 </r>
       <r>    0.0577    0.0000 </r>
       <r>    0.2133    0.0000 </r>
       <r>    0.4042    0.0000 </r>
       <r>    0.5600    0.0000 </r>
       <r>    0.7932    0.0000 </r>
       <r>    0.9797    0.0000 </r>
       <r>    1.0852    0.0000 </r>
       <r>    1.1793    0.0000 </r>
       <r>    1.4473    0.0000 </r>
       <r>    2.1148    0.0000 </r>
       <r>    2.2862    0.0000 </r>
       <r>    2.3738    0.0000 </r>
      </set>
      <set comment="kpoint 34">
       <r>  -17.4723    1.0000 </r>
       <r>  -17.3124    1.0000 </r>
       <r>  -16.7379    1.0000 </r>
       <r>  -16.6889    1.0000 </r>
       <r>  -16.5798    1.0000 </r>
       <r>  -16.3776    1.0000 </r>
       <r>  -16.2861    1.0000 </r>
       <r>  -16.1676    1.0000 </r>
       <r>  -16.0325    1.0000 </r>
       <r>  -16.0101    1.0000 </r>
       <r>  -15.9533    1.0000 </r>
       <r>  -15.8897    1.0000 </r>
       <r>  -15.7898    1.0000 </r>
       <r>  -15.7333    1.0000 </r>
       <r>  -15.6870    1.0000 </r>
       <r>  -15.5825    1.0000 </r>
       <r>  -15.4084    1.0000 </r>
       <r>  -15.3178    1.0000 </r>
       <r>   -9.7387    1.0000 </r>
       <r>   -9.2788    1.0000 </r>
       <r>   -9.1527    1.0000 </r>
       <r>   -9.0643    1.0000 </r>
       <r>   -8.9809    1.0000 </r>
       <r>   -8.8498    1.0000 </r>
       <r>   -8.5048    1.0000 </r>
       <r>   -8.4228    1.0000 </r>
       <r>   -8.3983    1.0000 </r>
       <r>   -8.3043    1.0000 </r>
       <r>   -8.2626    1.0000 </r>
       <r>   -8.2005    1.0000 </r>
       <r>   -8.0871    1.0000 </r>
       <r>   -8.0514    1.0000 </r>
       <r>   -7.9396    1.0000 </r>
       <r>   -7.8991    1.0000 </r>
       <r>   -7.7914    1.0000 </r>
       <r>   -7.6838    1.0000 </r>
       <r>   -7.5113    1.0000 </r>
       <r>   -7.4492    1.0000 </r>
       <r>   -7.3336    1.0000 </r>
       <r>   -7.2020    1.0000 </r>
       <r>   -7.1444    1.0000 </r>
       <r>   -7.0418    1.0000 </r>
       <r>   -7.0183    1.0000 </r>
       <r>   -6.9490    1.0000 </r>
       <r>   -6.9203    1.0000 </r>
       <r>   -6.7627    1.0000 </r>
       <r>   -6.6864    1.0000 </r>
       <r>   -6.6415    1.0000 </r>
       <r>   -6.5312    1.0000 </r>
       <r>   -6.4879    1.0000 </r>
       <r>   -6.4038    1.0000 </r>
       <r>   -6.3114    1.0000 </r>
       <r>   -6.2599    1.0000 </r>
       <r>   -6.2340    1.0000 </r>
       <r>   -6.1502    1.0000 </r>
       <r>   -6.1059    1.0000 </r>
       <r>   -6.0184    1.0000 </r>
       <r>   -5.9656    1.0000 </r>
       <r>   -5.8995    1.0000 </r>
       <r>   -5.8809    1.0000 </r>
       <r>   -5.7802    1.0000 </r>
       <r>   -5.6490    1.0000 </r>
       <r>   -5.5607    1.0000 </r>
       <r>   -5.4555    1.0000 </r>
       <r>   -5.2580    1.0000 </r>
       <r>   -5.0886    1.0000 </r>
       <r>   -4.9359    1.0000 </r>
       <r>   -4.8949    1.0000 </r>
       <r>   -4.8325    1.0000 </r>
       <r>   -4.7014    1.0000 </r>
       <r>   -4.6094    1.0000 </r>
       <r>   -4.5464    1.0000 </r>
       <r>   -4.3366    1.0000 </r>
       <r>   -4.2155    1.0000 </r>
       <r>   -4.1782    1.0000 </r>
       <r>   -4.1305    1.0000 </r>
       <r>   -3.8284    1.0000 </r>
       <r>   -3.6486    0.9957 </r>
       <r>   -3.5212    0.9583 </r>
       <r>   -3.3221    0.6268 </r>
       <r>   -3.0084    0.0291 </r>
       <r>   -2.6718    0.0000 </r>
       <r>   -2.5779    0.0000 </r>
       <r>   -2.5118    0.0000 </r>
       <r>   -2.4024    0.0000 </r>
       <r>   -2.3578    0.0000 </r>
       <r>   -2.1782    0.0000 </r>
       <r>   -2.1117    0.0000 </r>
       <r>   -2.0520    0.0000 </r>
       <r>   -1.9238    0.0000 </r>
       <r>   -1.9075    0.0000 </r>
       <r>   -1.7897    0.0000 </r>
       <r>   -1.4808    0.0000 </r>
       <r>   -1.4107    0.0000 </r>
       <r>   -1.2544    0.0000 </r>
       <r>   -1.2109    0.0000 </r>
       <r>   -1.1398    0.0000 </r>
       <r>   -1.0217    0.0000 </r>
       <r>   -0.9714    0.0000 </r>
       <r>   -0.9367    0.0000 </r>
       <r>   -0.8443    0.0000 </r>
       <r>   -0.7494    0.0000 </r>
       <r>   -0.6870    0.0000 </r>
       <r>   -0.5872    0.0000 </r>
       <r>   -0.5034    0.0000 </r>
       <r>   -0.3401    0.0000 </r>
       <r>   -0.2847    0.0000 </r>
       <r>   -0.1270    0.0000 </r>
       <r>    0.0399    0.0000 </r>
       <r>    0.2304    0.0000 </r>
       <r>    0.4271    0.0000 </r>
       <r>    0.5377    0.0000 </r>
       <r>    0.8174    0.0000 </r>
       <r>    1.0504    0.0000 </r>
       <r>    1.0934    0.0000 </r>
       <r>    1.1138    0.0000 </r>
       <r>    1.4368    0.0000 </r>
       <r>    2.1861    0.0000 </r>
       <r>    2.2308    0.0000 </r>
       <r>    2.3769    0.0000 </r>
      </set>
     </set>
    </set>
   </array>
  </eigenvalues>
  <separator name="orbital magnetization" >
   <v name="MAGDIPOLOUT">      0.00000000      0.00000000      0.00000000</v>
  </separator>
 </calculation>
 <structure name="finalpos" >
  <crystal>
   <varray name="basis" >
    <v>       8.39128467       4.81839063       0.00000000 </v>
    <v>      -8.39672396       4.82769385       0.00000000 </v>
    <v>       0.00000000       0.00000000      30.00000000 </v>
   </varray>
   <i name="volume">   2429.07748025 </i>
   <varray name="rec_basis" >
    <v>       0.05962379       0.10370263       0.00000000 </v>
    <v>      -0.05950890       0.10363545       0.00000000 </v>
    <v>       0.00000000       0.00000000       0.03333333 </v>
   </varray>
  </crystal>
  <varray name="positions" >
   <v>      -0.00601709       0.02697126      -0.00091273 </v>
   <v>       0.67636804       0.03272192      -0.00012960 </v>
   <v>       0.35723826       0.31477079       0.00219677 </v>
   <v>       0.68940817       0.35455523      -0.00032725 </v>
   <v>      -0.00072672       0.64743629       0.00019594 </v>
   <v>       0.98426191       0.34235397      -0.00062331 </v>
   <v>       0.31412942      -0.03024262      -0.00038646 </v>
   <v>       0.30281334       0.66832022      -0.00128122 </v>
   <v>       0.68697124       0.64902968       0.00139210 </v>
   <v>       0.12350196       0.23149014       0.95287514 </v>
   <v>       0.21542279       0.10766566       0.05021566 </v>
   <v>       0.10706624       0.55209849       0.94275853 </v>
   <v>       0.22722192       0.43974267       0.04563327 </v>
   <v>       0.09900658       0.89003793       0.95181427 </v>
   <v>       0.21419390       0.77056437       0.05636908 </v>
   <v>       0.44672886       0.21383980       0.95043097 </v>
   <v>       0.55188015       0.11117277       0.04879244 </v>
   <v>       0.44151902       0.54868233       0.95681458 </v>
   <v>       0.55852094       0.44044220       0.05443480 </v>
   <v>       0.44651258       0.88795551       0.94838731 </v>
   <v>       0.55765117       0.78030832       0.04116911 </v>
   <v>       0.77641236       0.22249642       0.94495444 </v>
   <v>       0.88283752       0.11437844       0.05096395 </v>
   <v>       0.78422866       0.55720768       0.94362603 </v>
   <v>       0.88860009       0.44432742       0.05664654 </v>
   <v>       0.77467516       0.89292084       0.95409524 </v>
   <v>       0.89778797       0.78696672       0.04989430 </v>
  </varray>
 </structure>
</modeling>
