<?xml version="1.0" encoding="ISO-8859-1"?>
<modeling>
 <generator>
  <i name="program" type="string">vasp </i>
  <i name="version" type="string">5.4.1  </i>
  <i name="subversion" type="string">05Feb16 (build Jul 05 2020 17:13:04) complex                          parallel </i>
  <i name="platform" type="string">IFC91_ompi </i>
  <i name="date" type="string">2024 07 05 </i>
  <i name="time" type="string">11:43:30 </i>
 </generator>
 <incar>
  <i type="int" name="ISTART">     0</i>
  <i type="string" name="PREC">normal</i>
  <i type="string" name="ALGO"> Normal</i>
  <i type="int" name="ISPIN">     1</i>
  <i type="int" name="ICHARG">     2</i>
  <i type="int" name="IBRION">     1</i>
  <i type="int" name="NSW">   100</i>
  <i type="int" name="ISIF">     3</i>
  <i type="int" name="ISYM">     0</i>
  <i name="SYMPREC">      0.00000001</i>
  <i name="POTIM">      0.50000000</i>
  <i type="logical" name="LREAL"> F  </i>
  <i type="logical" name="LPLANE"> F  </i>
  <i type="int" name="ISMEAR">     0</i>
  <i type="logical" name="LWAVE"> F  </i>
  <i type="logical" name="LCHARG"> F  </i>
  <v type="int" name="KPOINT_BSE">    -1     0     0     0</v>
 </incar>
 <kpoints>
  <generation param="Gamma">
   <v type="int" name="divisions">       8        8        1 </v>
   <v name="usershift">      0.00000000       0.00000000       0.00000000 </v>
   <v name="genvec1">      0.12500000       0.00000000       0.00000000 </v>
   <v name="genvec2">     -0.00000000       0.12500000       0.00000000 </v>
   <v name="genvec3">      0.00000000       0.00000000       1.00000000 </v>
   <v name="shift">      0.00000000       0.00000000       0.00000000 </v>
  </generation>
  <varray name="kpointlist" >
   <v>       0.00000000       0.00000000       0.00000000 </v>
   <v>       0.12500000       0.00000000       0.00000000 </v>
   <v>       0.25000000       0.00000000       0.00000000 </v>
   <v>       0.37500000       0.00000000       0.00000000 </v>
   <v>       0.50000000       0.00000000       0.00000000 </v>
   <v>       0.00000000       0.12500000       0.00000000 </v>
   <v>       0.12500000       0.12500000       0.00000000 </v>
   <v>       0.25000000       0.12500000       0.00000000 </v>
   <v>       0.37500000       0.12500000       0.00000000 </v>
   <v>       0.50000000       0.12500000       0.00000000 </v>
   <v>      -0.37500000       0.12500000       0.00000000 </v>
   <v>      -0.25000000       0.12500000       0.00000000 </v>
   <v>      -0.12500000       0.12500000       0.00000000 </v>
   <v>       0.00000000       0.25000000       0.00000000 </v>
   <v>       0.12500000       0.25000000       0.00000000 </v>
   <v>       0.25000000       0.25000000       0.00000000 </v>
   <v>       0.37500000       0.25000000       0.00000000 </v>
   <v>       0.50000000       0.25000000       0.00000000 </v>
   <v>      -0.37500000       0.25000000       0.00000000 </v>
   <v>      -0.25000000       0.25000000       0.00000000 </v>
   <v>      -0.12500000       0.25000000       0.00000000 </v>
   <v>      -0.00000000       0.37500000       0.00000000 </v>
   <v>       0.12500000       0.37500000       0.00000000 </v>
   <v>       0.25000000       0.37500000       0.00000000 </v>
   <v>       0.37500000       0.37500000       0.00000000 </v>
   <v>       0.50000000       0.37500000       0.00000000 </v>
   <v>      -0.37500000       0.37500000       0.00000000 </v>
   <v>      -0.25000000       0.37500000       0.00000000 </v>
   <v>      -0.12500000       0.37500000       0.00000000 </v>
   <v>       0.00000000       0.50000000       0.00000000 </v>
   <v>       0.12500000       0.50000000       0.00000000 </v>
   <v>       0.25000000       0.50000000       0.00000000 </v>
   <v>       0.37500000       0.50000000       0.00000000 </v>
   <v>       0.50000000       0.50000000       0.00000000 </v>
  </varray>
  <varray name="weights" >
   <v>       0.01562500 </v>
   <v>       0.03125000 </v>
   <v>       0.03125000 </v>
   <v>       0.03125000 </v>
   <v>       0.01562500 </v>
   <v>       0.03125000 </v>
   <v>       0.03125000 </v>
   <v>       0.03125000 </v>
   <v>       0.03125000 </v>
   <v>       0.03125000 </v>
   <v>       0.03125000 </v>
   <v>       0.03125000 </v>
   <v>       0.03125000 </v>
   <v>       0.03125000 </v>
   <v>       0.03125000 </v>
   <v>       0.03125000 </v>
   <v>       0.03125000 </v>
   <v>       0.03125000 </v>
   <v>       0.03125000 </v>
   <v>       0.03125000 </v>
   <v>       0.03125000 </v>
   <v>       0.03125000 </v>
   <v>       0.03125000 </v>
   <v>       0.03125000 </v>
   <v>       0.03125000 </v>
   <v>       0.03125000 </v>
   <v>       0.03125000 </v>
   <v>       0.03125000 </v>
   <v>       0.03125000 </v>
   <v>       0.01562500 </v>
   <v>       0.03125000 </v>
   <v>       0.03125000 </v>
   <v>       0.03125000 </v>
   <v>       0.01562500 </v>
  </varray>
 </kpoints>
 <parameters>
  <separator name="general" >
   <i type="string" name="SYSTEM">unknown system</i>
   <i type="logical" name="LCOMPAT"> F  </i>
  </separator>
  <separator name="electronic" >
   <i type="string" name="PREC">normal</i>
   <i name="ENMAX">    280.00000000</i>
   <i name="ENAUG">    373.43800000</i>
   <i name="EDIFF">      0.00010000</i>
   <i type="int" name="IALGO">    38</i>
   <i type="int" name="IWAVPR">    11</i>
   <i type="int" name="NBANDS">   120</i>
   <i name="NELECT">    159.00000000</i>
   <i type="int" name="TURBO">     0</i>
   <i type="int" name="IRESTART">     0</i>
   <i type="int" name="NREBOOT">     0</i>
   <i type="int" name="NMIN">     0</i>
   <i name="EREF">      0.00000000</i>
   <separator name="electronic smearing" >
    <i type="int" name="ISMEAR">     0</i>
    <i name="SIGMA">      0.20000000</i>
    <i name="KSPACING">      0.50000000</i>
    <i type="logical" name="KGAMMA"> T  </i>
   </separator>
   <separator name="electronic projectors" >
    <i type="logical" name="LREAL"> F  </i>
    <v name="ROPT">      0.00000000      0.00000000      0.00000000      0.00000000</v>
    <i type="int" name="LMAXPAW">  -100</i>
    <i type="int" name="LMAXMIX">     2</i>
    <i type="logical" name="NLSPLINE"> F  </i>
   </separator>
   <separator name="electronic startup" >
    <i type="int" name="ISTART">     0</i>
    <i type="int" name="ICHARG">     2</i>
    <i type="int" name="INIWAV">     1</i>
   </separator>
   <separator name="electronic spin" >
    <i type="int" name="ISPIN">     1</i>
    <i type="logical" name="LNONCOLLINEAR"> F  </i>
    <v name="MAGMOM">      1.00000000      1.00000000      1.00000000      1.00000000      1.00000000      1.00000000      1.00000000      1.00000000      1.00000000      1.00000000      1.00000000      1.00000000      1.00000000      1.00000000      1.00000000      1.00000000      1.00000000      1.00000000      1.00000000      1.00000000
      1.00000000      1.00000000      1.00000000      1.00000000      1.00000000      1.00000000      1.00000000</v>
    <i name="NUPDOWN">     -1.00000000</i>
    <i type="logical" name="LSORBIT"> F  </i>
    <v name="SAXIS">      0.00000000      0.00000000      1.00000000</v>
    <i type="logical" name="LSPIRAL"> F  </i>
    <v name="QSPIRAL">      0.00000000      0.00000000      0.00000000</v>
    <i type="logical" name="LZEROZ"> F  </i>
   </separator>
   <separator name="electronic exchange-correlation" >
    <i type="logical" name="LASPH"> F  </i>
    <i type="logical" name="LMETAGGA"> F  </i>
   </separator>
   <separator name="electronic convergence" >
    <i type="int" name="NELM">    60</i>
    <i type="int" name="NELMDL">    -5</i>
    <i type="int" name="NELMIN">     2</i>
    <i name="ENINI">    280.00000000</i>
    <separator name="electronic convergence detail" >
     <i type="logical" name="LDIAG"> T  </i>
     <i type="logical" name="LSUBROT"> F  </i>
     <i name="WEIMIN">      0.00100000</i>
     <i name="EBREAK">      0.00000021</i>
     <i name="DEPER">      0.30000000</i>
     <i type="int" name="NRMM">     4</i>
     <i name="TIME">      0.40000000</i>
    </separator>
   </separator>
   <separator name="electronic mixer" >
    <i name="AMIX">      0.40000000</i>
    <i name="BMIX">      1.00000000</i>
    <i name="AMIN">      0.10000000</i>
    <i name="AMIX_MAG">      1.60000000</i>
    <i name="BMIX_MAG">      1.00000000</i>
    <separator name="electronic mixer details" >
     <i type="int" name="IMIX">     4</i>
     <i type="logical" name="MIXFIRST"> F  </i>
     <i type="int" name="MAXMIX">   -45</i>
     <i name="WC">    100.00000000</i>
     <i type="int" name="INIMIX">     1</i>
     <i type="int" name="MIXPRE">     1</i>
     <i type="int" name="MREMOVE">     5</i>
    </separator>
   </separator>
   <separator name="electronic dipolcorrection" >
    <i type="logical" name="LDIPOL"> F  </i>
    <i type="logical" name="LMONO"> F  </i>
    <i type="int" name="IDIPOL">     0</i>
    <i name="EPSILON">      1.00000000</i>
    <v name="DIPOL">   -100.00000000   -100.00000000   -100.00000000</v>
    <i name="EFIELD">      0.00000000</i>
   </separator>
  </separator>
  <separator name="grids" >
   <i type="int" name="NGX">    42</i>
   <i type="int" name="NGY">    42</i>
   <i type="int" name="NGZ">   126</i>
   <i type="int" name="NGXF">    84</i>
   <i type="int" name="NGYF">    84</i>
   <i type="int" name="NGZF">   252</i>
   <i type="logical" name="ADDGRID"> F  </i>
  </separator>
  <separator name="ionic" >
   <i type="int" name="NSW">   100</i>
   <i type="int" name="IBRION">     1</i>
   <i type="int" name="ISIF">     3</i>
   <i name="PSTRESS">      0.00000000</i>
   <i name="EDIFFG">      0.00100000</i>
   <i type="int" name="NFREE">     0</i>
   <i name="POTIM">      0.50000000</i>
   <i name="SMASS">     -3.00000000</i>
   <i name="SCALEE">      1.00000000</i>
  </separator>
  <separator name="ionic md" >
   <i name="TEBEG">      0.00010000</i>
   <i name="TEEND">      0.00010000</i>
   <i type="int" name="NBLOCK">     1</i>
   <i type="int" name="KBLOCK">   100</i>
   <i type="int" name="NPACO">   256</i>
   <i name="APACO">     16.00000000</i>
  </separator>
  <separator name="symmetry" >
   <i type="int" name="ISYM">     0</i>
   <i name="SYMPREC">      0.00000001</i>
  </separator>
  <separator name="dos" >
   <i type="logical" name="LORBIT"> F  </i>
   <v name="RWIGS">     -1.00000000     -1.00000000     -1.00000000     -1.00000000</v>
   <i type="int" name="NEDOS">   301</i>
   <i name="EMIN">     10.00000000</i>
   <i name="EMAX">    -10.00000000</i>
   <i name="EFERMI">      0.00000000</i>
  </separator>
  <separator name="writing" >
   <i type="int" name="NWRITE">     2</i>
   <i type="logical" name="LWAVE"> F  </i>
   <i type="logical" name="LCHARG"> F  </i>
   <i type="logical" name="LPARD"> F  </i>
   <i type="logical" name="LVTOT"> F  </i>
   <i type="logical" name="LVHAR"> F  </i>
   <i type="logical" name="LELF"> F  </i>
   <i type="logical" name="LOPTICS"> F  </i>
   <v name="STM">      0.00000000      0.00000000      0.00000000      0.00000000      0.00000000      0.00000000      0.00000000</v>
  </separator>
  <separator name="performance" >
   <i type="int" name="NPAR">    40</i>
   <i type="int" name="NSIM">     4</i>
   <i type="int" name="NBLK">    -1</i>
   <i type="logical" name="LPLANE"> F  </i>
   <i type="logical" name="LSCALAPACK"> T  </i>
   <i type="logical" name="LSCAAWARE"> F  </i>
   <i type="logical" name="LSCALU"> F  </i>
   <i type="logical" name="LASYNC"> F  </i>
   <i type="logical" name="LORBITALREAL"> F  </i>
  </separator>
  <separator name="miscellaneous" >
   <i type="int" name="IDIOT">     3</i>
   <i type="logical" name="LMUSIC"> F  </i>
   <v name="POMASS">     50.94100000     95.94000000    183.85000000     32.06600000</v>
   <v name="DARWINR">      0.00000000      0.00000000      0.00000000      0.00000000</v>
   <v name="DARWINV">      1.00000000      1.00000000      1.00000000      1.00000000</v>
   <i type="logical" name="LCORR"> T  </i>
  </separator>
  <i type="logical" name="GGA_COMPAT"> T  </i>
  <i type="logical" name="LBERRY"> F  </i>
  <i type="int" name="ICORELEVEL">     0</i>
  <i type="logical" name="LDAU"> F  </i>
  <i type="int" name="I_CONSTRAINED_M">     0</i>
  <separator name="electronic exchange-correlation" >
   <i type="string" name="GGA">--</i>
   <i type="int" name="VOSKOWN">     0</i>
   <i type="logical" name="LHFCALC"> F  </i>
   <i type="string" name="PRECFOCK"></i>
   <i type="logical" name="LSYMGRAD"> F  </i>
   <i type="logical" name="LHFONE"> F  </i>
   <i type="logical" name="LRHFCALC"> F  </i>
   <i type="logical" name="LTHOMAS"> F  </i>
   <i type="logical" name="LMODELHF"> F  </i>
   <i name="ENCUT4O">     -1.00000000</i>
   <i type="int" name="EXXOEP">     0</i>
   <i type="int" name="FOURORBIT">     0</i>
   <i name="AEXX">      0.00000000</i>
   <i name="HFALPHA">      0.00000000</i>
   <i name="MCALPHA">      0.00000000</i>
   <i name="ALDAX">      1.00000000</i>
   <i name="AGGAX">      1.00000000</i>
   <i name="ALDAC">      1.00000000</i>
   <i name="AGGAC">      1.00000000</i>
   <i type="int" name="NKREDX">     1</i>
   <i type="int" name="NKREDY">     1</i>
   <i type="int" name="NKREDZ">     1</i>
   <i type="logical" name="SHIFTRED"> F  </i>
   <i type="logical" name="ODDONLY"> F  </i>
   <i type="logical" name="EVENONLY"> F  </i>
   <i type="int" name="LMAXFOCK">     0</i>
   <i type="int" name="NMAXFOCKAE">     0</i>
   <i type="logical" name="LFOCKAEDFT"> F  </i>
   <i name="HFSCREEN">      0.00000000</i>
   <i name="HFSCREENC">      0.00000000</i>
   <i type="int" name="NBANDSGWLOW">     0</i>
  </separator>
  <separator name="vdW DFT" >
   <i type="logical" name="LUSE_VDW"> F  </i>
   <i name="Zab_VDW">     -0.84910000</i>
   <i name="PARAM1">      0.12340000</i>
   <i name="PARAM2">      1.00000000</i>
   <i name="PARAM3">      0.00000000</i>
  </separator>
  <separator name="model GW" >
   <i type="int" name="MODEL_GW">     0</i>
   <i name="MODEL_EPS0">     58.26239943</i>
   <i name="MODEL_ALPHA">      1.00000000</i>
  </separator>
  <separator name="linear response parameters" >
   <i type="logical" name="LEPSILON"> F  </i>
   <i type="logical" name="LRPA"> F  </i>
   <i type="logical" name="LNABLA"> F  </i>
   <i type="logical" name="LVEL"> F  </i>
   <i type="int" name="KINTER">     0</i>
   <i name="CSHIFT">      0.10000000</i>
   <i name="OMEGAMAX">     -1.00000000</i>
   <i name="DEG_THRESHOLD">      0.00200000</i>
  </separator>
  <separator name="orbital magnetization" >
   <i type="logical" name="NUCIND"> F  </i>
   <v name="MAGPOS">      0.00000000      0.00000000      0.00000000</v>
   <i type="logical" name="LNICSALL"> T  </i>
   <i type="logical" name="ORBITALMAG"> F  </i>
   <i type="logical" name="LMAGBLOCH"> F  </i>
   <i type="logical" name="LCHIMAG"> F  </i>
   <i type="logical" name="LGAUGE"> T  </i>
   <i type="int" name="MAGATOM">     0</i>
   <v name="MAGDIPOL">      0.00000000      0.00000000      0.00000000</v>
   <v name="AVECCONST">      0.00000000      0.00000000      0.00000000</v>
  </separator>
  <separator name="response functions" >
   <i type="logical" name="LADDER"> F  </i>
   <i type="logical" name="LFXC"> F  </i>
   <i type="logical" name="LHARTREE"> T  </i>
   <i type="int" name="IBSE">     0</i>
   <v type="int" name="KPOINT">    -1     0     0     0</v>
   <i type="logical" name="LTCTE"> F  </i>
   <i type="logical" name="LTETE"> F  </i>
   <i type="logical" name="LTRIPLET"> F  </i>
   <i type="logical" name="LFXCEPS"> F  </i>
   <i type="logical" name="LFXHEG"> F  </i>
   <i type="int" name="NATURALO">     0</i>
   <i type="logical" name="L2ORDER"> F  </i>
   <i type="logical" name="LUSEW"> F  </i>
   <i name="ENCUTGW">     -2.00000000</i>
   <i name="ENCUTGWSOFT">     -2.00000000</i>
   <i name="ENCUTLF">     -1.00000000</i>
   <i type="int" name="LMAXMP2">    -1</i>
   <i name="SCISSOR">      0.00000000</i>
   <i type="int" name="NOMEGA">     0</i>
   <i type="int" name="NOMEGAR">     0</i>
   <i type="int" name="NBANDSGW">    -1</i>
   <i type="int" name="NBANDSO">    -1</i>
   <i type="int" name="NBANDSV">    -1</i>
   <i type="int" name="NELM">     1</i>
   <i type="int" name="NELMHF">     1</i>
   <i type="int" name="DIM">     3</i>
   <i type="int" name="ANTIRES">     0</i>
   <i name="OMEGAMAX">    -30.00000000</i>
   <i name="OMEGAMIN">    -30.00000000</i>
   <i name="OMEGATL">   -200.00000000</i>
   <i type="int" name="OMEGAGRID">     0</i>
   <i name="CSHIFT">     -0.10000000</i>
   <i type="logical" name="SELFENERGY"> F  </i>
   <i type="logical" name="LSPECTRAL"> F  </i>
   <i type="logical" name="LSPECTRALGW"> F  </i>
   <i type="logical" name="LSINGLES"> F  </i>
   <i type="logical" name="LFERMIGW"> F  </i>
   <i type="logical" name="ODDONLYGW"> F  </i>
   <i type="logical" name="EVENONLYGW"> F  </i>
   <i type="int" name="NKREDLFX">     1</i>
   <i type="int" name="NKREDLFY">     1</i>
   <i type="int" name="NKREDLFZ">     1</i>
   <i type="int" name="MAXMEM">  1800</i>
   <i type="int" name="TELESCOPE">     0</i>
   <i type="int" name="TAUPAR">     1</i>
   <i type="int" name="OMEGAPAR">    -1</i>
   <i name="LAMBDA">      1.00000000</i>
  </separator>
  <separator name="External order field" >
   <i name="OFIELD_KAPPA">      0.00000000</i>
   <v name="OFIELD_K">      0.00000000      0.00000000      0.00000000</v>
   <i name="OFIELD_Q6_NEAR">      0.00000000</i>
   <i name="OFIELD_Q6_FAR">      0.00000000</i>
   <i name="OFIELD_A">      0.00000000</i>
  </separator>
 </parameters>
 <atominfo>
  <atoms>      27 </atoms>
  <types>       4 </types>
  <array name="atoms" >
   <dimension dim="1">ion</dimension>
   <field type="string">element</field>
   <field type="int">atomtype</field>
   <set>
    <rc><c>V </c><c>   1</c></rc>
    <rc><c>V </c><c>   1</c></rc>
    <rc><c>V </c><c>   1</c></rc>
    <rc><c>Mo</c><c>   2</c></rc>
    <rc><c>Mo</c><c>   2</c></rc>
    <rc><c>Mo</c><c>   2</c></rc>
    <rc><c>W </c><c>   3</c></rc>
    <rc><c>W </c><c>   3</c></rc>
    <rc><c>W </c><c>   3</c></rc>
    <rc><c>S </c><c>   4</c></rc>
    <rc><c>S </c><c>   4</c></rc>
    <rc><c>S </c><c>   4</c></rc>
    <rc><c>S </c><c>   4</c></rc>
    <rc><c>S </c><c>   4</c></rc>
    <rc><c>S </c><c>   4</c></rc>
    <rc><c>S </c><c>   4</c></rc>
    <rc><c>S </c><c>   4</c></rc>
    <rc><c>S </c><c>   4</c></rc>
    <rc><c>S </c><c>   4</c></rc>
    <rc><c>S </c><c>   4</c></rc>
    <rc><c>S </c><c>   4</c></rc>
    <rc><c>S </c><c>   4</c></rc>
    <rc><c>S </c><c>   4</c></rc>
    <rc><c>S </c><c>   4</c></rc>
    <rc><c>S </c><c>   4</c></rc>
    <rc><c>S </c><c>   4</c></rc>
    <rc><c>S </c><c>   4</c></rc>
   </set>
  </array>
  <array name="atomtypes" >
   <dimension dim="1">type</dimension>
   <field type="int">atomspertype</field>
   <field type="string">element</field>
   <field>mass</field>
   <field>valence</field>
   <field type="string">pseudopotential</field>
   <set>
    <rc><c>   3</c><c>V </c><c>     50.94100000</c><c>      5.00000000</c><c> PAW_PBE V 08Apr2002                    </c></rc>
    <rc><c>   3</c><c>Mo</c><c>     95.94000000</c><c>      6.00000000</c><c> PAW_PBE Mo 08Apr2002                   </c></rc>
    <rc><c>   3</c><c>W </c><c>    183.85000000</c><c>      6.00000000</c><c> PAW_PBE W 08Apr2002                    </c></rc>
    <rc><c>  18</c><c>S </c><c>     32.06600000</c><c>      6.00000000</c><c>  PAW_PBE S 17Jan2003                   </c></rc>
   </set>
  </array>
 </atominfo>
 <structure name="initialpos" >
  <crystal>
   <varray name="basis" >
    <v>       8.66999996       5.03999989       0.00000000 </v>
    <v>      -8.66999982       5.04000013       0.00000000 </v>
    <v>       0.00000000       0.00000000      30.00000000 </v>
   </varray>
   <i name="volume">   2621.80797419 </i>
   <varray name="rec_basis" >
    <v>       0.05767013       0.09920635       0.00000000 </v>
    <v>      -0.05767013       0.09920635       0.00000000 </v>
    <v>       0.00000000       0.00000000       0.03333333 </v>
   </varray>
  </crystal>
  <varray name="positions" >
   <v>       0.33333334       0.33333334       0.00000000 </v>
   <v>       0.33333334       0.00000000       0.00000000 </v>
   <v>       0.66666669       0.33333334       0.00000000 </v>
   <v>       0.33333334       0.66666669       0.00000000 </v>
   <v>       0.00000000       0.66666669       0.00000000 </v>
   <v>       0.66666669       0.66666669       0.00000000 </v>
   <v>       0.00000000       0.00000000       0.00000000 </v>
   <v>       1.00000000       0.33333334       0.00000000 </v>
   <v>       0.66666669       0.00000000       0.00000000 </v>
   <v>       0.11068511       0.22244981       0.95539999 </v>
   <v>       0.22244981       0.11068511       0.04460000 </v>
   <v>       0.11068511       0.55578315       0.95539999 </v>
   <v>       0.22244981       0.44401845       0.04460000 </v>
   <v>       0.11068511       0.88911647       0.95539999 </v>
   <v>       0.22244981       0.77735180       0.04460000 </v>
   <v>       0.44401845       0.22244981       0.95539999 </v>
   <v>       0.55578315       0.11068511       0.04460000 </v>
   <v>       0.44401845       0.55578315       0.95539999 </v>
   <v>       0.55578315       0.44401845       0.04460000 </v>
   <v>       0.44401845       0.88911647       0.95539999 </v>
   <v>       0.55578315       0.77735180       0.04460000 </v>
   <v>       0.77735180       0.22244981       0.95539999 </v>
   <v>       0.88911647       0.11068511       0.04460000 </v>
   <v>       0.77735180       0.55578315       0.95539999 </v>
   <v>       0.88911647       0.44401845       0.04460000 </v>
   <v>       0.77735180       0.88911647       0.95539999 </v>
   <v>       0.88911647       0.77735180       0.04460000 </v>
  </varray>
 </structure>
 <calculation>
  <scstep>
   <time name="dav">   21.62   21.67</time>
   <time name="total">   21.66   21.72</time>
   <energy>
    <i name="alphaZ">     81.65567618 </i>
    <i name="ewald">  41891.17179524 </i>
    <i name="hartreedc"> -47723.81769151 </i>
    <i name="XCdc">   -242.92468708 </i>
    <i name="pawpsdc">   3467.42045192 </i>
    <i name="pawaedc">  -2871.19716117 </i>
    <i name="eentropy">     -0.54625699 </i>
    <i name="bandstr">   -239.01097816 </i>
    <i name="atom">   6761.44252427 </i>
    <i name="e_fr_energy">   1124.19367270 </i>
    <i name="e_wo_entrp">   1124.73992968 </i>
    <i name="e_0_energy">   1124.46680119 </i>
   </energy>
  </scstep>
  <scstep>
   <time name="dav">   28.44   28.50</time>
   <time name="total">   28.44   28.51</time>
   <energy>
    <i name="e_fr_energy">     -5.35774655 </i>
    <i name="e_wo_entrp">     -5.14089776 </i>
    <i name="e_0_energy">     -5.24932216 </i>
   </energy>
  </scstep>
  <scstep>
   <time name="dav">   27.33   27.39</time>
   <time name="total">   27.33   27.40</time>
   <energy>
    <i name="e_fr_energy">   -200.06518464 </i>
    <i name="e_wo_entrp">   -199.80563944 </i>
    <i name="e_0_energy">   -199.93541204 </i>
   </energy>
  </scstep>
  <scstep>
   <time name="dav">   29.90   29.97</time>
   <time name="total">   29.90   29.98</time>
   <energy>
    <i name="e_fr_energy">   -208.99435102 </i>
    <i name="e_wo_entrp">   -208.70300434 </i>
    <i name="e_0_energy">   -208.84867768 </i>
   </energy>
  </scstep>
  <scstep>
   <time name="dav">   27.82   27.89</time>
   <time name="total">   28.29   28.36</time>
   <energy>
    <i name="e_fr_energy">   -209.30397496 </i>
    <i name="e_wo_entrp">   -209.01579055 </i>
    <i name="e_0_energy">   -209.15988276 </i>
   </energy>
  </scstep>
  <scstep>
   <time name="dav">   30.74   30.82</time>
   <time name="total">   31.24   31.32</time>
   <energy>
    <i name="e_fr_energy">   -237.86862224 </i>
    <i name="e_wo_entrp">   -237.61628919 </i>
    <i name="e_0_energy">   -237.74245572 </i>
   </energy>
  </scstep>
  <scstep>
   <time name="dav">   32.58   32.66</time>
   <time name="total">   33.09   33.17</time>
   <energy>
    <i name="e_fr_energy">   -196.56895435 </i>
    <i name="e_wo_entrp">   -196.21300494 </i>
    <i name="e_0_energy">   -196.39097964 </i>
   </energy>
  </scstep>
  <scstep>
   <time name="dav">   29.50   29.57</time>
   <time name="total">   30.01   30.09</time>
   <energy>
    <i name="e_fr_energy">   -189.47131491 </i>
    <i name="e_wo_entrp">   -189.15987936 </i>
    <i name="e_0_energy">   -189.31559713 </i>
   </energy>
  </scstep>
  <scstep>
   <time name="dav">   32.73   32.81</time>
   <time name="total">   33.25   33.33</time>
   <energy>
    <i name="e_fr_energy">   -188.12720892 </i>
    <i name="e_wo_entrp">   -187.80586327 </i>
    <i name="e_0_energy">   -187.96653609 </i>
   </energy>
  </scstep>
  <scstep>
   <time name="dav">   32.67   32.75</time>
   <time name="total">   33.20   33.29</time>
   <energy>
    <i name="e_fr_energy">   -186.93595050 </i>
    <i name="e_wo_entrp">   -186.58487138 </i>
    <i name="e_0_energy">   -186.76041094 </i>
   </energy>
  </scstep>
  <scstep>
   <time name="dav">   32.89   32.97</time>
   <time name="total">   33.43   33.52</time>
   <energy>
    <i name="e_fr_energy">   -187.02468557 </i>
    <i name="e_wo_entrp">   -186.68653489 </i>
    <i name="e_0_energy">   -186.85561023 </i>
   </energy>
  </scstep>
  <scstep>
   <time name="dav">   31.40   31.47</time>
   <time name="total">   31.93   32.01</time>
   <energy>
    <i name="e_fr_energy">   -186.94796302 </i>
    <i name="e_wo_entrp">   -186.61567268 </i>
    <i name="e_0_energy">   -186.78181785 </i>
   </energy>
  </scstep>
  <scstep>
   <time name="dav">   32.37   32.45</time>
   <time name="total">   32.90   32.99</time>
   <energy>
    <i name="e_fr_energy">   -186.86552115 </i>
    <i name="e_wo_entrp">   -186.53002868 </i>
    <i name="e_0_energy">   -186.69777491 </i>
   </energy>
  </scstep>
  <scstep>
   <time name="dav">   31.74   31.82</time>
   <time name="total">   32.28   32.36</time>
   <energy>
    <i name="e_fr_energy">   -186.82713679 </i>
    <i name="e_wo_entrp">   -186.48373398 </i>
    <i name="e_0_energy">   -186.65543538 </i>
   </energy>
  </scstep>
  <scstep>
   <time name="dav">   29.81   29.88</time>
   <time name="total">   30.34   30.43</time>
   <energy>
    <i name="e_fr_energy">   -186.82338179 </i>
    <i name="e_wo_entrp">   -186.48108426 </i>
    <i name="e_0_energy">   -186.65223303 </i>
   </energy>
  </scstep>
  <scstep>
   <time name="dav">   31.52   31.60</time>
   <time name="total">   32.06   32.14</time>
   <energy>
    <i name="e_fr_energy">   -186.82498009 </i>
    <i name="e_wo_entrp">   -186.48366847 </i>
    <i name="e_0_energy">   -186.65432428 </i>
   </energy>
  </scstep>
  <scstep>
   <time name="dav">   31.33   31.41</time>
   <time name="total">   31.87   31.95</time>
   <energy>
    <i name="e_fr_energy">   -186.82148269 </i>
    <i name="e_wo_entrp">   -186.48055099 </i>
    <i name="e_0_energy">   -186.65101684 </i>
   </energy>
  </scstep>
  <scstep>
   <time name="dav">   29.34   29.41</time>
   <time name="total">   29.88   29.96</time>
   <energy>
    <i name="e_fr_energy">   -186.82109194 </i>
    <i name="e_wo_entrp">   -186.47950052 </i>
    <i name="e_0_energy">   -186.65029623 </i>
   </energy>
  </scstep>
  <scstep>
   <time name="dav">   26.32   26.38</time>
   <time name="total">   26.86   26.93</time>
   <energy>
    <i name="e_fr_energy">   -186.82167644 </i>
    <i name="e_wo_entrp">   -186.48053506 </i>
    <i name="e_0_energy">   -186.65110575 </i>
   </energy>
  </scstep>
  <scstep>
   <time name="dav">   20.40   20.45</time>
   <time name="total">   20.94   21.00</time>
   <energy>
    <i name="e_fr_energy">   -186.82199799 </i>
    <i name="e_wo_entrp">   -186.48091532 </i>
    <i name="e_0_energy">   -186.65145665 </i>
   </energy>
  </scstep>
  <scstep>
   <time name="dav">   21.23   21.28</time>
   <time name="total">   21.80   21.86</time>
   <energy>
    <i name="e_fr_energy">   -186.82317124 </i>
    <i name="e_wo_entrp">   -186.48198337 </i>
    <i name="e_0_energy">   -186.65257731 </i>
   </energy>
  </scstep>
  <scstep>
   <time name="dav">   18.70   18.75</time>
   <time name="total">   19.24   19.29</time>
   <energy>
    <i name="e_fr_energy">   -186.82394683 </i>
    <i name="e_wo_entrp">   -186.48277450 </i>
    <i name="e_0_energy">   -186.65336067 </i>
   </energy>
  </scstep>
  <scstep>
   <time name="dav">   20.25   20.30</time>
   <time name="total">   20.79   20.85</time>
   <energy>
    <i name="e_fr_energy">   -186.82478079 </i>
    <i name="e_wo_entrp">   -186.48366613 </i>
    <i name="e_0_energy">   -186.65422346 </i>
   </energy>
  </scstep>
  <scstep>
   <time name="dav">   17.77   17.81</time>
   <time name="total">   18.31   18.36</time>
   <energy>
    <i name="e_fr_energy">   -186.82539079 </i>
    <i name="e_wo_entrp">   -186.48423351 </i>
    <i name="e_0_energy">   -186.65481215 </i>
   </energy>
  </scstep>
  <scstep>
   <time name="dav">   17.44   17.48</time>
   <time name="total">   17.98   18.03</time>
   <energy>
    <i name="e_fr_energy">   -186.82583585 </i>
    <i name="e_wo_entrp">   -186.48467157 </i>
    <i name="e_0_energy">   -186.65525371 </i>
   </energy>
  </scstep>
  <scstep>
   <time name="dav">   19.29   19.34</time>
   <time name="total">   19.83   19.89</time>
   <energy>
    <i name="e_fr_energy">   -186.82601304 </i>
    <i name="e_wo_entrp">   -186.48485326 </i>
    <i name="e_0_energy">   -186.65543315 </i>
   </energy>
  </scstep>
  <scstep>
   <time name="dav">   18.57   18.61</time>
   <time name="total">   19.10   19.16</time>
   <energy>
    <i name="e_fr_energy">   -186.82611736 </i>
    <i name="e_wo_entrp">   -186.48496128 </i>
    <i name="e_0_energy">   -186.65553932 </i>
   </energy>
  </scstep>
  <scstep>
   <time name="dav">   19.86   19.91</time>
   <time name="total">   19.90   19.95</time>
   <energy>
    <i name="alphaZ">     81.65567618 </i>
    <i name="ewald">  41891.17179524 </i>
    <i name="hartreedc"> -47833.70993733 </i>
    <i name="XCdc">   -231.60908197 </i>
    <i name="pawpsdc">   4192.07135480 </i>
    <i name="pawaedc">  -3610.06749884 </i>
    <i name="eentropy">     -0.34115710 </i>
    <i name="bandstr">  -1437.43984141 </i>
    <i name="atom">   6761.44252427 </i>
    <i name="e_fr_energy">   -186.82616616 </i>
    <i name="e_wo_entrp">   -186.48500906 </i>
    <i name="e_0_energy">   -186.65558761 </i>
   </energy>
  </scstep>
  <structure>
   <crystal>
    <varray name="basis" >
     <v>       8.66999996       5.03999989       0.00000000 </v>
     <v>      -8.66999982       5.04000013       0.00000000 </v>
     <v>       0.00000000       0.00000000      30.00000000 </v>
    </varray>
    <i name="volume">   2621.80797419 </i>
    <varray name="rec_basis" >
     <v>       0.05767013       0.09920635       0.00000000 </v>
     <v>      -0.05767013       0.09920635       0.00000000 </v>
     <v>       0.00000000       0.00000000       0.03333333 </v>
    </varray>
   </crystal>
   <varray name="positions" >
    <v>       0.33333334       0.33333334       0.00000000 </v>
    <v>       0.33333334       0.00000000       0.00000000 </v>
    <v>       0.66666669       0.33333334       0.00000000 </v>
    <v>       0.33333334       0.66666669       0.00000000 </v>
    <v>       0.00000000       0.66666669       0.00000000 </v>
    <v>       0.66666669       0.66666669       0.00000000 </v>
    <v>       0.00000000       0.00000000       0.00000000 </v>
    <v>       1.00000000       0.33333334       0.00000000 </v>
    <v>       0.66666669       0.00000000       0.00000000 </v>
    <v>       0.11068511       0.22244981       0.95539999 </v>
    <v>       0.22244981       0.11068511       0.04460000 </v>
    <v>       0.11068511       0.55578315       0.95539999 </v>
    <v>       0.22244981       0.44401845       0.04460000 </v>
    <v>       0.11068511       0.88911647       0.95539999 </v>
    <v>       0.22244981       0.77735180       0.04460000 </v>
    <v>       0.44401845       0.22244981       0.95539999 </v>
    <v>       0.55578315       0.11068511       0.04460000 </v>
    <v>       0.44401845       0.55578315       0.95539999 </v>
    <v>       0.55578315       0.44401845       0.04460000 </v>
    <v>       0.44401845       0.88911647       0.95539999 </v>
    <v>       0.55578315       0.77735180       0.04460000 </v>
    <v>       0.77735180       0.22244981       0.95539999 </v>
    <v>       0.88911647       0.11068511       0.04460000 </v>
    <v>       0.77735180       0.55578315       0.95539999 </v>
    <v>       0.88911647       0.44401845       0.04460000 </v>
    <v>       0.77735180       0.88911647       0.95539999 </v>
    <v>       0.88911647       0.77735180       0.04460000 </v>
   </varray>
  </structure>
  <varray name="forces" >
   <v>      -0.01991480       0.35211120      -0.04450342 </v>
   <v>       0.11899538      -0.20275816      -0.00905077 </v>
   <v>      -0.30600086       0.20095100      -0.03384933 </v>
   <v>      -0.00440416      -0.01437495       0.11690722 </v>
   <v>       0.00497765      -0.00693101       0.11825820 </v>
   <v>       0.01645868      -0.01190080      -0.13091519 </v>
   <v>       0.36051910      -0.38801500      -0.08261798 </v>
   <v>      -0.29273885       0.47940622       0.13187784 </v>
   <v>       0.15468009      -0.48508316      -0.06929390 </v>
   <v>       0.47197170       0.54851930      -2.12847989 </v>
   <v>       0.23597698       0.52843873       1.40071324 </v>
   <v>       0.20439701      -0.13873751      -2.88942161 </v>
   <v>       0.64595654      -0.15187837       2.14406693 </v>
   <v>       0.34132487       0.71120984      -2.16776019 </v>
   <v>      -0.51308069       0.68029290       2.15103626 </v>
   <v>       0.05913226       0.00993688      -0.76437815 </v>
   <v>      -0.74754172       0.00303363       1.44412919 </v>
   <v>       0.54428163      -0.67765714      -2.13295189 </v>
   <v>       0.32785279      -0.67693737       1.42606765 </v>
   <v>      -0.66224724       0.17928655      -2.12007074 </v>
   <v>      -0.22016476       0.12426291       2.89261935 </v>
   <v>      -0.58236794      -0.01300956      -2.08498446 </v>
   <v>      -0.15751580       0.04055926       2.86291317 </v>
   <v>       0.50191925      -0.70104594      -2.13707763 </v>
   <v>      -0.35220542      -0.68448597       2.18772880 </v>
   <v>       0.04451776       0.14516437      -2.97870522 </v>
   <v>      -0.17477945       0.14964216       2.89774252 </v>
  </varray>
  <varray name="stress" >
   <v>       7.25604098      -0.12904192      -1.53279922 </v>
   <v>      -0.12904175       4.49080734      -0.04154365 </v>
   <v>      -1.53279924      -0.04154364      30.31857745 </v>
  </varray>
  <energy>
   <i name="e_fr_energy">   -186.82616616 </i>
   <i name="e_wo_entrp">   -186.65558761 </i>
   <i name="e_0_energy">     -0.34115710 </i>
  </energy>
  <time name="totalsc">  797.74  799.89</time>
 </calculation>
 <calculation>
  <scstep>
   <time name="dav">   21.62   21.67</time>
   <time name="total">   22.16   22.21</time>
   <energy>
    <i name="alphaZ">     78.92299423 </i>
    <i name="ewald">  39379.92331041 </i>
    <i name="hartreedc"> -45337.26569898 </i>
    <i name="XCdc">   -239.07359018 </i>
    <i name="pawpsdc">   4192.05526226 </i>
    <i name="pawaedc">  -3610.05142840 </i>
    <i name="eentropy">     -0.27823622 </i>
    <i name="bandstr">  -1413.16688728 </i>
    <i name="atom">   6761.44252427 </i>
    <i name="e_fr_energy">   -187.49174988 </i>
    <i name="e_wo_entrp">   -187.21351366 </i>
    <i name="e_0_energy">   -187.35263177 </i>
   </energy>
  </scstep>
  <scstep>
   <time name="dav">   30.20   30.27</time>
   <time name="total">   30.74   30.82</time>
   <energy>
    <i name="e_fr_energy">   -189.35112244 </i>
    <i name="e_wo_entrp">   -189.03473016 </i>
    <i name="e_0_energy">   -189.19292630 </i>
   </energy>
  </scstep>
  <scstep>
   <time name="dav">   30.44   30.51</time>
   <time name="total">   30.99   31.07</time>
   <energy>
    <i name="e_fr_energy">   -189.34768499 </i>
    <i name="e_wo_entrp">   -189.08851120 </i>
    <i name="e_0_energy">   -189.21809810 </i>
   </energy>
  </scstep>
  <scstep>
   <time name="dav">   31.04   31.11</time>
   <time name="total">   31.58   31.66</time>
   <energy>
    <i name="e_fr_energy">   -188.74288877 </i>
    <i name="e_wo_entrp">   -188.46231577 </i>
    <i name="e_0_energy">   -188.60260227 </i>
   </energy>
  </scstep>
  <scstep>
   <time name="dav">   26.29   26.35</time>
   <time name="total">   26.83   26.90</time>
   <energy>
    <i name="e_fr_energy">   -188.72614872 </i>
    <i name="e_wo_entrp">   -188.44979010 </i>
    <i name="e_0_energy">   -188.58796941 </i>
   </energy>
  </scstep>
  <scstep>
   <time name="dav">   29.98   30.06</time>
   <time name="total">   30.53   30.61</time>
   <energy>
    <i name="e_fr_energy">   -188.69262457 </i>
    <i name="e_wo_entrp">   -188.41264822 </i>
    <i name="e_0_energy">   -188.55263639 </i>
   </energy>
  </scstep>
  <scstep>
   <time name="dav">   31.54   31.61</time>
   <time name="total">   32.08   32.17</time>
   <energy>
    <i name="e_fr_energy">   -188.70067254 </i>
    <i name="e_wo_entrp">   -188.42008538 </i>
    <i name="e_0_energy">   -188.56037896 </i>
   </energy>
  </scstep>
  <scstep>
   <time name="dav">   32.27   32.35</time>
   <time name="total">   32.81   32.90</time>
   <energy>
    <i name="e_fr_energy">   -188.65794770 </i>
    <i name="e_wo_entrp">   -188.38035717 </i>
    <i name="e_0_energy">   -188.51915243 </i>
   </energy>
  </scstep>
  <scstep>
   <time name="dav">   26.54   26.60</time>
   <time name="total">   27.08   27.15</time>
   <energy>
    <i name="e_fr_energy">   -188.65643687 </i>
    <i name="e_wo_entrp">   -188.37950075 </i>
    <i name="e_0_energy">   -188.51796881 </i>
   </energy>
  </scstep>
  <scstep>
   <time name="dav">   32.43   32.50</time>
   <time name="total">   32.97   33.06</time>
   <energy>
    <i name="e_fr_energy">   -188.65727278 </i>
    <i name="e_wo_entrp">   -188.38092057 </i>
    <i name="e_0_energy">   -188.51909667 </i>
   </energy>
  </scstep>
  <scstep>
   <time name="dav">   31.48   31.56</time>
   <time name="total">   32.03   32.11</time>
   <energy>
    <i name="e_fr_energy">   -188.65589078 </i>
    <i name="e_wo_entrp">   -188.37965757 </i>
    <i name="e_0_energy">   -188.51777418 </i>
   </energy>
  </scstep>
  <scstep>
   <time name="dav">   29.13   29.20</time>
   <time name="total">   29.16   29.24</time>
   <energy>
    <i name="alphaZ">     78.92299423 </i>
    <i name="ewald">  39379.92331041 </i>
    <i name="hartreedc"> -45348.33087413 </i>
    <i name="XCdc">   -237.97536227 </i>
    <i name="pawpsdc">   3952.64497345 </i>
    <i name="pawaedc">  -3367.17061577 </i>
    <i name="eentropy">     -0.27613912 </i>
    <i name="bandstr">  -1407.83663638 </i>
    <i name="atom">   6761.44252427 </i>
    <i name="e_fr_energy">   -188.65582530 </i>
    <i name="e_wo_entrp">   -188.37968617 </i>
    <i name="e_0_energy">   -188.51775574 </i>
   </energy>
  </scstep>
  <structure>
   <crystal>
    <varray name="basis" >
     <v>       8.85203851       5.10290654       0.00000000 </v>
     <v>      -8.85584156       5.10944920       0.00000000 </v>
     <v>       0.00000000       0.00000000      30.00000000 </v>
    </varray>
    <i name="volume">   2712.58718738 </i>
    <varray name="rec_basis" >
     <v>       0.05650822       0.09794164       0.00000000 </v>
     <v>      -0.05643586       0.09789958       0.00000000 </v>
     <v>       0.00000000       0.00000000       0.03333333 </v>
    </varray>
   </crystal>
   <varray name="positions" >
    <v>       0.33496313       0.33507395      -0.00007157 </v>
    <v>       0.33269401      -0.00130146      -0.00001455 </v>
    <v>       0.66677709       0.33514643      -0.00005443 </v>
    <v>       0.33325229       0.66661014       0.00018800 </v>
    <v>      -0.00001932       0.66661967       0.00019017 </v>
    <v>       0.66665552       0.66656394      -0.00021052 </v>
    <v>      -0.00085401      -0.00286005      -0.00013286 </v>
    <v>       1.00147998       0.33644222       0.00021207 </v>
    <v>       0.66477543      -0.00275194      -0.00011143 </v>
    <v>       0.11462341       0.22376191       0.95197721 </v>
    <v>       0.22563543       0.11255768       0.04685247 </v>
    <v>       0.11058978       0.55455049       0.95075354 </v>
    <v>       0.22352008       0.44149441       0.04804785 </v>
    <v>       0.11503856       0.89157068       0.95191404 </v>
    <v>       0.22427820       0.78203514       0.04805906 </v>
    <v>       0.44423053       0.22233285       0.95417080 </v>
    <v>       0.55371789       0.11277941       0.04692229 </v>
    <v>       0.44228948       0.55102562       0.95197001 </v>
    <v>       0.55345548       0.43986651       0.04689324 </v>
    <v>       0.44303404       0.89181701       0.95199073 </v>
    <v>       0.55576534       0.77855905       0.04925159 </v>
    <v>       0.77566929       0.22400779       0.95204715 </v>
    <v>       0.88887235       0.11131746       0.04920382 </v>
    <v>       0.77539303       0.55103154       0.95196338 </v>
    <v>       0.88486064       0.44172241       0.04811806 </v>
    <v>       0.77817041       0.88968736       0.95060997 </v>
    <v>       0.88934639       0.77855425       0.04925983 </v>
   </varray>
  </structure>
  <varray name="forces" >
   <v>      -0.09964552       0.28285613      -0.09322468 </v>
   <v>       0.11678132      -0.20348487       0.09813860 </v>
   <v>      -0.19036227       0.22963945      -0.08640312 </v>
   <v>      -0.01195154      -0.06179609       0.03121420 </v>
   <v>       0.06040813      -0.01973038       0.03077199 </v>
   <v>      -0.19489981       0.33574788      -0.05875571 </v>
   <v>       0.18058743      -0.59781932       0.05467304 </v>
   <v>      -0.31867636       0.55492505      -0.05550107 </v>
   <v>       0.42156686      -0.45776232       0.05874663 </v>
   <v>      -0.05631623      -0.07672737       0.26495947 </v>
   <v>      -0.04605284      -0.06295857      -0.23386209 </v>
   <v>       0.05386819      -0.10238955      -0.09491232 </v>
   <v>      -0.01477120      -0.09143909       0.11594951 </v>
   <v>      -0.10052241       0.05174103      -0.05195543 </v>
   <v>      -0.03257851       0.07661666       0.09450768 </v>
   <v>       0.01139942       0.00463290       0.20165630 </v>
   <v>       0.08943733      -0.00797873      -0.25336852 </v>
   <v>       0.03297135      -0.06999969      -0.05450799 </v>
   <v>       0.01011166      -0.05319247      -0.00716961 </v>
   <v>       0.02081947       0.10363748      -0.06994031 </v>
   <v>      -0.05196189       0.10253458       0.13687233 </v>
   <v>       0.10334952      -0.00959678       0.24096072 </v>
   <v>       0.01433880       0.00305904      -0.26420777 </v>
   <v>       0.02861085      -0.07422348      -0.05742045 </v>
   <v>       0.09391205      -0.04807142       0.10040481 </v>
   <v>      -0.06737279       0.08916614      -0.18794275 </v>
   <v>      -0.05305100       0.10261377       0.14031654 </v>
  </varray>
  <varray name="stress" >
   <v>     -19.99880747       0.01390613      -0.01433185 </v>
   <v>       0.01390612     -19.59525850       0.10004072 </v>
   <v>      -0.01433160       0.10004080      -1.84831671 </v>
  </varray>
  <energy>
   <i name="e_fr_energy">   -188.65582530 </i>
   <i name="e_wo_entrp">   -188.51775574 </i>
   <i name="e_0_energy">     -0.27613912 </i>
  </energy>
  <time name="totalsc">  400.93  401.99</time>
 </calculation>
 <calculation>
  <scstep>
   <time name="dav">   23.88   23.94</time>
   <time name="total">   24.41   24.47</time>
   <energy>
    <i name="alphaZ">     82.34926153 </i>
    <i name="ewald">  41304.25961921 </i>
    <i name="hartreedc"> -47303.21573793 </i>
    <i name="XCdc">   -233.85426623 </i>
    <i name="pawpsdc">   3950.51437418 </i>
    <i name="pawaedc">  -3365.01597048 </i>
    <i name="eentropy">     -0.23139393 </i>
    <i name="bandstr">  -1386.83224745 </i>
    <i name="atom">   6761.44252427 </i>
    <i name="e_fr_energy">   -190.58383682 </i>
    <i name="e_wo_entrp">   -190.35244289 </i>
    <i name="e_0_energy">   -190.46813985 </i>
   </energy>
  </scstep>
  <scstep>
   <time name="dav">   28.67   28.74</time>
   <time name="total">   29.20   29.28</time>
   <energy>
    <i name="e_fr_energy">   -190.51948115 </i>
    <i name="e_wo_entrp">   -190.30307576 </i>
    <i name="e_0_energy">   -190.41127845 </i>
   </energy>
  </scstep>
  <scstep>
   <time name="dav">   30.39   30.46</time>
   <time name="total">   30.94   31.02</time>
   <energy>
    <i name="e_fr_energy">   -190.07143351 </i>
    <i name="e_wo_entrp">   -189.82371878 </i>
    <i name="e_0_energy">   -189.94757614 </i>
   </energy>
  </scstep>
  <scstep>
   <time name="dav">   31.49   31.56</time>
   <time name="total">   32.02   32.10</time>
   <energy>
    <i name="e_fr_energy">   -189.85592395 </i>
    <i name="e_wo_entrp">   -189.63325956 </i>
    <i name="e_0_energy">   -189.74459176 </i>
   </energy>
  </scstep>
  <scstep>
   <time name="dav">   28.42   28.49</time>
   <time name="total">   28.95   29.03</time>
   <energy>
    <i name="e_fr_energy">   -189.76589779 </i>
    <i name="e_wo_entrp">   -189.53348304 </i>
    <i name="e_0_energy">   -189.64969042 </i>
   </energy>
  </scstep>
  <scstep>
   <time name="dav">   29.45   29.52</time>
   <time name="total">   29.98   30.06</time>
   <energy>
    <i name="e_fr_energy">   -189.75536014 </i>
    <i name="e_wo_entrp">   -189.52354010 </i>
    <i name="e_0_energy">   -189.63945012 </i>
   </energy>
  </scstep>
  <scstep>
   <time name="dav">   30.13   30.21</time>
   <time name="total">   30.66   30.74</time>
   <energy>
    <i name="e_fr_energy">   -189.75171626 </i>
    <i name="e_wo_entrp">   -189.52038030 </i>
    <i name="e_0_energy">   -189.63604828 </i>
   </energy>
  </scstep>
  <scstep>
   <time name="dav">   28.73   28.80</time>
   <time name="total">   29.26   29.34</time>
   <energy>
    <i name="e_fr_energy">   -189.75127770 </i>
    <i name="e_wo_entrp">   -189.51995719 </i>
    <i name="e_0_energy">   -189.63561745 </i>
   </energy>
  </scstep>
  <scstep>
   <time name="dav">   27.04   27.10</time>
   <time name="total">   27.57   27.64</time>
   <energy>
    <i name="e_fr_energy">   -189.75219450 </i>
    <i name="e_wo_entrp">   -189.52059063 </i>
    <i name="e_0_energy">   -189.63639257 </i>
   </energy>
  </scstep>
  <scstep>
   <time name="dav">   26.82   26.89</time>
   <time name="total">   27.36   27.43</time>
   <energy>
    <i name="e_fr_energy">   -189.75152352 </i>
    <i name="e_wo_entrp">   -189.51993506 </i>
    <i name="e_0_energy">   -189.63572929 </i>
   </energy>
  </scstep>
  <scstep>
   <time name="dav">   18.54   18.59</time>
   <time name="total">   18.57   18.63</time>
   <energy>
    <i name="alphaZ">     82.34926153 </i>
    <i name="ewald">  41304.25961921 </i>
    <i name="hartreedc"> -47276.32437952 </i>
    <i name="XCdc">   -235.24659170 </i>
    <i name="pawpsdc">   4038.45498939 </i>
    <i name="pawaedc">  -3454.15138210 </i>
    <i name="eentropy">     -0.23154536 </i>
    <i name="bandstr">  -1410.30397736 </i>
    <i name="atom">   6761.44252427 </i>
    <i name="e_fr_energy">   -189.75148164 </i>
    <i name="e_wo_entrp">   -189.51993628 </i>
    <i name="e_0_energy">   -189.63570896 </i>
   </energy>
  </scstep>
  <structure>
   <crystal>
    <varray name="basis" >
     <v>       8.66410954       4.99684594       0.00000000 </v>
     <v>      -8.66768100       5.00299092       0.00000000 </v>
     <v>       0.00000000       0.00000000      30.00000000 </v>
    </varray>
    <i name="volume">   2599.72583788 </i>
    <varray name="rec_basis" >
     <v>       0.05773291       0.10002225       0.00000000 </v>
     <v>      -0.05766199       0.09998104       0.00000000 </v>
     <v>       0.00000000       0.00000000       0.03333333 </v>
    </varray>
   </crystal>
   <varray name="positions" >
    <v>       0.33533696       0.33563817      -0.00012419 </v>
    <v>       0.33246825      -0.00175046       0.00004085 </v>
    <v>       0.66697582       0.33570913      -0.00010321 </v>
    <v>       0.33313835       0.66651911       0.00020562 </v>
    <v>       0.00000576       0.66652921       0.00020754 </v>
    <v>       0.66702592       0.66730690      -0.00024369 </v>
    <v>      -0.00167281      -0.00402386      -0.00010199 </v>
    <v>       1.00209548       0.33766689       0.00018074 </v>
    <v>       0.66441957      -0.00391386      -0.00007827 </v>
    <v>       0.11444225       0.22368852       0.95212678 </v>
    <v>       0.22548693       0.11249731       0.04672045 </v>
    <v>       0.11047150       0.55432924       0.95069996 </v>
    <v>       0.22335427       0.44135692       0.04811331 </v>
    <v>       0.11502819       0.89175255       0.95188471 </v>
    <v>       0.22437411       0.78219331       0.04811241 </v>
    <v>       0.44424912       0.22232964       0.95428464 </v>
    <v>       0.55379025       0.11268070       0.04677925 </v>
    <v>       0.44220492       0.55087805       0.95193924 </v>
    <v>       0.55337693       0.43976865       0.04688919 </v>
    <v>       0.44322587       0.89196894       0.95195125 </v>
    <v>       0.55588569       0.77877872       0.04932886 </v>
    <v>       0.77575228       0.22389309       0.95218318 </v>
    <v>       0.88889114       0.11130883       0.04905466 </v>
    <v>       0.77529729       0.55088113       0.95193096 </v>
    <v>       0.88487078       0.44155295       0.04817474 </v>
    <v>       0.77825383       0.88989960       0.95050387 </v>
    <v>       0.88946582       0.77877509       0.04933904 </v>
   </varray>
  </structure>
  <varray name="forces" >
   <v>      -0.16408127       0.25342201      -0.08048141 </v>
   <v>       0.12875323      -0.23057238       0.10105214 </v>
   <v>      -0.13516635       0.26829115      -0.07773440 </v>
   <v>      -0.01431494      -0.09655924       0.00483813 </v>
   <v>       0.08921460      -0.03301700       0.00410446 </v>
   <v>      -0.26034954       0.44712169      -0.02766467 </v>
   <v>       0.11765592      -0.66874041       0.06793858 </v>
   <v>      -0.32630414       0.57337914      -0.08381547 </v>
   <v>       0.51385015      -0.43928137       0.06796072 </v>
   <v>       0.02057903       0.03368550      -0.20423666 </v>
   <v>       0.02270017       0.07124618       0.20061625 </v>
   <v>       0.00340182      -0.01548602      -0.65889089 </v>
   <v>       0.11169693      -0.01376738       0.63896402 </v>
   <v>       0.02965843       0.10870250      -0.55916825 </v>
   <v>      -0.07293768       0.14237252       0.58898417 </v>
   <v>       0.01773707      -0.00321910      -0.20070004 </v>
   <v>      -0.06507466       0.00108549       0.18369323 </v>
   <v>       0.06785206      -0.12517230      -0.53931503 </v>
   <v>       0.03869396      -0.10121565       0.42943422 </v>
   <v>      -0.09404572       0.02105835      -0.57654892 </v>
   <v>       0.00146782       0.01610477       0.70014788 </v>
   <v>      -0.03090995      -0.01588143      -0.22484059 </v>
   <v>       0.00715640       0.01612858       0.25460497 </v>
   <v>       0.06308441      -0.12884035      -0.54006445 </v>
   <v>      -0.03951947      -0.11697206       0.62306857 </v>
   <v>      -0.02483122       0.02216178      -0.79293360 </v>
   <v>      -0.00596707       0.01396504       0.70098704 </v>
  </varray>
  <varray name="stress" >
   <v>     -10.15790986       0.03052740      -0.04743260 </v>
   <v>       0.03052731      -9.87409895       0.11960212 </v>
   <v>      -0.04743248       0.11960216       6.51023037 </v>
  </varray>
  <energy>
   <i name="e_fr_energy">   -189.75148164 </i>
   <i name="e_wo_entrp">   -189.63570896 </i>
   <i name="e_0_energy">     -0.23154536 </i>
  </energy>
  <time name="totalsc">  350.94  351.86</time>
 </calculation>
 <calculation>
  <scstep>
   <time name="dav">   21.60   21.65</time>
   <time name="total">   22.12   22.17</time>
   <energy>
    <i name="alphaZ">     85.81571937 </i>
    <i name="ewald">  42831.29588955 </i>
    <i name="hartreedc"> -48847.70606298 </i>
    <i name="XCdc">   -232.96830164 </i>
    <i name="pawpsdc">   4038.94369302 </i>
    <i name="pawaedc">  -3454.64115516 </i>
    <i name="eentropy">     -0.18914746 </i>
    <i name="bandstr">  -1373.33672487 </i>
    <i name="atom">   6761.44252427 </i>
    <i name="e_fr_energy">   -191.34356590 </i>
    <i name="e_wo_entrp">   -191.15441844 </i>
    <i name="e_0_energy">   -191.24899217 </i>
   </energy>
  </scstep>
  <scstep>
   <time name="dav">   32.45   32.52</time>
   <time name="total">   32.96   33.05</time>
   <energy>
    <i name="e_fr_energy">   -191.12900133 </i>
    <i name="e_wo_entrp">   -190.94578039 </i>
    <i name="e_0_energy">   -191.03739086 </i>
   </energy>
  </scstep>
  <scstep>
   <time name="dav">   29.99   30.06</time>
   <time name="total">   30.50   30.58</time>
   <energy>
    <i name="e_fr_energy">   -191.32443357 </i>
    <i name="e_wo_entrp">   -191.10617770 </i>
    <i name="e_0_energy">   -191.21530563 </i>
   </energy>
  </scstep>
  <scstep>
   <time name="dav">   31.55   31.63</time>
   <time name="total">   32.07   32.16</time>
   <energy>
    <i name="e_fr_energy">   -190.90770269 </i>
    <i name="e_wo_entrp">   -190.72460357 </i>
    <i name="e_0_energy">   -190.81615313 </i>
   </energy>
  </scstep>
  <scstep>
   <time name="dav">   27.40   27.47</time>
   <time name="total">   27.92   27.99</time>
   <energy>
    <i name="e_fr_energy">   -190.80721536 </i>
    <i name="e_wo_entrp">   -190.61426659 </i>
    <i name="e_0_energy">   -190.71074097 </i>
   </energy>
  </scstep>
  <scstep>
   <time name="dav">   30.96   31.04</time>
   <time name="total">   31.48   31.56</time>
   <energy>
    <i name="e_fr_energy">   -190.79623627 </i>
    <i name="e_wo_entrp">   -190.60165063 </i>
    <i name="e_0_energy">   -190.69894345 </i>
   </energy>
  </scstep>
  <scstep>
   <time name="dav">   29.66   29.73</time>
   <time name="total">   30.18   30.26</time>
   <energy>
    <i name="e_fr_energy">   -190.77655378 </i>
    <i name="e_wo_entrp">   -190.58497660 </i>
    <i name="e_0_energy">   -190.68076519 </i>
   </energy>
  </scstep>
  <scstep>
   <time name="dav">   25.75   25.81</time>
   <time name="total">   26.27   26.34</time>
   <energy>
    <i name="e_fr_energy">   -190.77245066 </i>
    <i name="e_wo_entrp">   -190.57987036 </i>
    <i name="e_0_energy">   -190.67616051 </i>
   </energy>
  </scstep>
  <scstep>
   <time name="dav">   26.75   26.81</time>
   <time name="total">   27.26   27.34</time>
   <energy>
    <i name="e_fr_energy">   -190.77288711 </i>
    <i name="e_wo_entrp">   -190.57998961 </i>
    <i name="e_0_energy">   -190.67643836 </i>
   </energy>
  </scstep>
  <scstep>
   <time name="dav">   26.70   26.77</time>
   <time name="total">   27.22   27.30</time>
   <energy>
    <i name="e_fr_energy">   -190.77260828 </i>
    <i name="e_wo_entrp">   -190.57986073 </i>
    <i name="e_0_energy">   -190.67623451 </i>
   </energy>
  </scstep>
  <scstep>
   <time name="dav">   19.99   20.04</time>
   <time name="total">   20.03   20.08</time>
   <energy>
    <i name="alphaZ">     85.81571937 </i>
    <i name="ewald">  42831.29588955 </i>
    <i name="hartreedc"> -48819.23266625 </i>
    <i name="XCdc">   -234.28963216 </i>
    <i name="pawpsdc">   4064.22171232 </i>
    <i name="pawaedc">  -3480.09718826 </i>
    <i name="eentropy">     -0.19278803 </i>
    <i name="bandstr">  -1399.73622292 </i>
    <i name="atom">   6761.44252427 </i>
    <i name="e_fr_energy">   -190.77265210 </i>
    <i name="e_wo_entrp">   -190.57986407 </i>
    <i name="e_0_energy">   -190.67625808 </i>
   </energy>
  </scstep>
  <structure>
   <crystal>
    <varray name="basis" >
     <v>       8.48445050       4.89812050       0.00000000 </v>
     <v>      -8.48657645       4.90176609       0.00000000 </v>
     <v>       0.00000000       0.00000000      30.00000000 </v>
    </varray>
    <i name="volume">   2494.71197702 </i>
    <varray name="rec_basis" >
     <v>       0.05894588       0.10205478       0.00000000 </v>
     <v>      -0.05890204       0.10202922       0.00000000 </v>
     <v>       0.00000000       0.00000000       0.03333333 </v>
    </varray>
   </crystal>
   <varray name="positions" >
    <v>       0.33616341       0.33783190      -0.00027964 </v>
    <v>       0.33144159      -0.00373935       0.00025202 </v>
    <v>       0.66834004       0.33788937      -0.00025643 </v>
    <v>       0.33239348       0.66588452       0.00019332 </v>
    <v>       0.00012958       0.66592722       0.00019348 </v>
    <v>       0.66906389       0.67140870      -0.00027455 </v>
    <v>      -0.00569427      -0.00871186       0.00004953 </v>
    <v>       1.00453669       0.34248177      -0.00001630 </v>
    <v>       0.66370620      -0.00859629       0.00006988 </v>
    <v>       0.11511141       0.22398886       0.95130841 </v>
    <v>       0.22644592       0.11309538       0.04750200 </v>
    <v>       0.11053049       0.55450817       0.94886247 </v>
    <v>       0.22404534       0.44088021       0.04987502 </v>
    <v>       0.11614259       0.89227990       0.95030115 </v>
    <v>       0.22510625       0.78356662       0.04974678 </v>
    <v>       0.44428258       0.22221704       0.95353006 </v>
    <v>       0.55336336       0.11316560       0.04752804 </v>
    <v>       0.44158037       0.54966463       0.95041563 </v>
    <v>       0.55280563       0.43883674       0.04814513 </v>
    <v>       0.44264849       0.89239881       0.95033230 </v>
    <v>       0.55585355       0.77858304       0.05125097 </v>
    <v>       0.77533352       0.22408179       0.95132512 </v>
    <v>       0.88903994       0.11142652       0.05001900 </v>
    <v>       0.77463340       0.54966394       0.95040763 </v>
    <v>       0.88363481       0.44098448       0.04990333 </v>
    <v>       0.77819730       0.88990034       0.94835487 </v>
    <v>       0.88937889       0.77859641       0.05126068 </v>
   </varray>
  </structure>
  <varray name="forces" >
   <v>      -0.18474555       0.25116051      -0.02468092 </v>
   <v>       0.11054524      -0.20085863       0.07004447 </v>
   <v>      -0.12988804       0.27669594      -0.02607665 </v>
   <v>      -0.03033783      -0.15730937      -0.02629868 </v>
   <v>       0.14596674      -0.04313097      -0.02521340 </v>
   <v>      -0.32229737       0.55376955       0.03411630 </v>
   <v>       0.12022549      -0.78065312       0.02624414 </v>
   <v>      -0.39999272       0.70726296      -0.03551587 </v>
   <v>       0.61502130      -0.49466543       0.02501885 </v>
   <v>       0.01869447      -0.03562304      -0.02325491 </v>
   <v>      -0.01948596      -0.01853546       0.07837176 </v>
   <v>      -0.04882482       0.08640671      -0.53590514 </v>
   <v>       0.03042906       0.03266364       0.47929451 </v>
   <v>       0.02327740       0.00422558      -0.36433368 </v>
   <v>      -0.01535233       0.02582316       0.44646602 </v>
   <v>       0.01118639      -0.00622919      -0.20078774 </v>
   <v>       0.02379549      -0.00465848       0.07528443 </v>
   <v>       0.02767727       0.01206241      -0.37827098 </v>
   <v>      -0.02943562       0.02369277       0.29376379 </v>
   <v>      -0.00137198      -0.01683408      -0.36627998 </v>
   <v>       0.03020464      -0.09344733       0.54244155 </v>
   <v>       0.03625633      -0.03381211      -0.02976386 </v>
   <v>      -0.02135647       0.03898348       0.04090012 </v>
   <v>      -0.02367363      -0.01360642      -0.38029462 </v>
   <v>      -0.04657715      -0.01640071       0.47437617 </v>
   <v>       0.01448779      -0.02350624      -0.71317320 </v>
   <v>       0.06557189      -0.07347612       0.54352751 </v>
  </varray>
  <varray name="stress" >
   <v>      -5.84930840      -0.15778460      -0.02858926 </v>
   <v>      -0.15778461      -5.66877607      -0.07335468 </v>
   <v>      -0.02858916      -0.07335456       4.55668402 </v>
  </varray>
  <energy>
   <i name="e_fr_energy">   -190.77265210 </i>
   <i name="e_wo_entrp">   -190.67625808 </i>
   <i name="e_0_energy">     -0.19278803 </i>
  </energy>
  <time name="totalsc">  350.32  351.24</time>
 </calculation>
 <calculation>
  <scstep>
   <time name="dav">   21.58   21.63</time>
   <time name="total">   22.09   22.14</time>
   <energy>
    <i name="alphaZ">     90.13573802 </i>
    <i name="ewald">  44650.22105300 </i>
    <i name="hartreedc"> -50692.68579074 </i>
    <i name="XCdc">   -231.86014229 </i>
    <i name="pawpsdc">   4064.25928782 </i>
    <i name="pawaedc">  -3480.13372910 </i>
    <i name="eentropy">     -0.16451007 </i>
    <i name="bandstr">  -1353.44322258 </i>
    <i name="atom">   6761.44252427 </i>
    <i name="e_fr_energy">   -192.22879166 </i>
    <i name="e_wo_entrp">   -192.06428159 </i>
    <i name="e_0_energy">   -192.14653663 </i>
   </energy>
  </scstep>
  <scstep>
   <time name="dav">   25.79   25.85</time>
   <time name="total">   26.29   26.36</time>
   <energy>
    <i name="e_fr_energy">   -191.94820787 </i>
    <i name="e_wo_entrp">   -191.77203310 </i>
    <i name="e_0_energy">   -191.86012049 </i>
   </energy>
  </scstep>
  <scstep>
   <time name="dav">   27.17   27.23</time>
   <time name="total">   27.68   27.75</time>
   <energy>
    <i name="e_fr_energy">   -191.75772127 </i>
    <i name="e_wo_entrp">   -191.59669713 </i>
    <i name="e_0_energy">   -191.67720920 </i>
   </energy>
  </scstep>
  <scstep>
   <time name="dav">   29.47   29.54</time>
   <time name="total">   29.97   30.05</time>
   <energy>
    <i name="e_fr_energy">   -191.78057051 </i>
    <i name="e_wo_entrp">   -191.59049600 </i>
    <i name="e_0_energy">   -191.68553325 </i>
   </energy>
  </scstep>
  <scstep>
   <time name="dav">   27.77   27.84</time>
   <time name="total">   28.28   28.35</time>
   <energy>
    <i name="e_fr_energy">   -191.63086330 </i>
    <i name="e_wo_entrp">   -191.45544386 </i>
    <i name="e_0_energy">   -191.54315358 </i>
   </energy>
  </scstep>
  <scstep>
   <time name="dav">   30.06   30.14</time>
   <time name="total">   30.57   30.65</time>
   <energy>
    <i name="e_fr_energy">   -191.60453245 </i>
    <i name="e_wo_entrp">   -191.43868861 </i>
    <i name="e_0_energy">   -191.52161053 </i>
   </energy>
  </scstep>
  <scstep>
   <time name="dav">   30.26   30.33</time>
   <time name="total">   30.76   30.84</time>
   <energy>
    <i name="e_fr_energy">   -191.58705380 </i>
    <i name="e_wo_entrp">   -191.41288496 </i>
    <i name="e_0_energy">   -191.49996938 </i>
   </energy>
  </scstep>
  <scstep>
   <time name="dav">   30.30   30.38</time>
   <time name="total">   30.81   30.89</time>
   <energy>
    <i name="e_fr_energy">   -191.57969731 </i>
    <i name="e_wo_entrp">   -191.40770022 </i>
    <i name="e_0_energy">   -191.49369877 </i>
   </energy>
  </scstep>
  <scstep>
   <time name="dav">   28.93   28.99</time>
   <time name="total">   29.43   29.51</time>
   <energy>
    <i name="e_fr_energy">   -191.58115437 </i>
    <i name="e_wo_entrp">   -191.40864645 </i>
    <i name="e_0_energy">   -191.49490041 </i>
   </energy>
  </scstep>
  <scstep>
   <time name="dav">   30.12   30.20</time>
   <time name="total">   30.63   30.71</time>
   <energy>
    <i name="e_fr_energy">   -191.57981365 </i>
    <i name="e_wo_entrp">   -191.40728159 </i>
    <i name="e_0_energy">   -191.49354762 </i>
   </energy>
  </scstep>
  <scstep>
   <time name="dav">   17.98   18.03</time>
   <time name="total">   18.02   18.07</time>
   <energy>
    <i name="alphaZ">     90.13573802 </i>
    <i name="ewald">  44650.22105300 </i>
    <i name="hartreedc"> -50659.33978463 </i>
    <i name="XCdc">   -233.34114449 </i>
    <i name="pawpsdc">   4088.74976081 </i>
    <i name="pawaedc">  -3504.73330809 </i>
    <i name="eentropy">     -0.17234840 </i>
    <i name="bandstr">  -1384.54230886 </i>
    <i name="atom">   6761.44252427 </i>
    <i name="e_fr_energy">   -191.57981835 </i>
    <i name="e_wo_entrp">   -191.40746996 </i>
    <i name="e_0_energy">   -191.49364415 </i>
   </energy>
  </scstep>
  <structure>
   <crystal>
    <varray name="basis" >
     <v>       8.26978800       4.77439960       0.00000000 </v>
     <v>      -8.28053604       4.79298049       0.00000000 </v>
     <v>       0.00000000       0.00000000      30.00000000 </v>
    </varray>
    <i name="volume">   2375.14561517 </i>
    <varray name="rec_basis" >
     <v>       0.06053920       0.10458983       0.00000000 </v>
     <v>      -0.06030451       0.10445408       0.00000000 </v>
     <v>       0.00000000       0.00000000       0.03333333 </v>
    </varray>
   </crystal>
   <varray name="positions" >
    <v>       0.33775630       0.34219334      -0.00039440 </v>
    <v>       0.32968498      -0.00712281       0.00054892 </v>
    <v>       0.67097683       0.34218068      -0.00037850 </v>
    <v>       0.33027629       0.66417200       0.00007978 </v>
    <v>       0.00060351       0.66436154       0.00008301 </v>
    <v>       0.67363318       0.68060505      -0.00014145 </v>
    <v>      -0.01447796      -0.01897254       0.00018824 </v>
    <v>       1.01022616       0.35367904      -0.00020977 </v>
    <v>       0.66220708      -0.01885233       0.00020047 </v>
    <v>       0.11536284       0.22372228       0.95066859 </v>
    <v>       0.22676227       0.11338132       0.04829629 </v>
    <v>       0.11128636       0.55601711       0.94612752 </v>
    <v>       0.22508520       0.44092563       0.05236498 </v>
    <v>       0.11690845       0.89228048       0.94826418 </v>
    <v>       0.22556874       0.78448496       0.05206998 </v>
    <v>       0.44428456       0.22202874       0.95234501 </v>
    <v>       0.55317258       0.11331278       0.04830535 </v>
    <v>       0.44163685       0.54914249       0.94836265 </v>
    <v>       0.55265839       0.43888186       0.04980304 </v>
    <v>       0.44198615       0.89230582       0.94828013 </v>
    <v>       0.55492176       0.77710614       0.05402930 </v>
    <v>       0.77490526       0.22370936       0.95065539 </v>
    <v>       0.88937931       0.11203594       0.05079382 </v>
    <v>       0.77409675       0.54918449       0.94834937 </v>
    <v>       0.88253665       0.44096462       0.05236770 </v>
    <v>       0.77792990       0.88936409       0.94489960 </v>
    <v>       0.88884606       0.77712238       0.05404068 </v>
   </varray>
  </structure>
  <varray name="forces" >
   <v>      -0.11297699       0.34548028      -0.01792017 </v>
   <v>       0.09162278      -0.15723149       0.01745442 </v>
   <v>      -0.24124524       0.27361514      -0.02050908 </v>
   <v>      -0.10983118      -0.12841707      -0.01337192 </v>
   <v>       0.16518960       0.01992399      -0.01053614 </v>
   <v>      -0.07753988       0.13912591       0.13340819 </v>
   <v>       0.13841082      -0.51198644      -0.11910120 </v>
   <v>      -0.31659120       0.53013272       0.11136062 </v>
   <v>       0.37712522      -0.37878054      -0.11898737 </v>
   <v>      -0.06378910      -0.19459253       0.33718195 </v>
   <v>      -0.11603502      -0.21781024      -0.17419053 </v>
   <v>      -0.12163963       0.21250291      -0.36720935 </v>
   <v>      -0.08294926       0.05583250       0.16026101 </v>
   <v>      -0.02914490      -0.09317393      -0.05541256 </v>
   <v>       0.04577985      -0.07986843       0.13011654 </v>
   <v>      -0.01180648       0.02668367       0.03040788 </v>
   <v>       0.24149445      -0.00192412      -0.17795287 </v>
   <v>      -0.00912409       0.17703418      -0.05506936 </v>
   <v>      -0.08097734       0.15618192       0.04597548 </v>
   <v>       0.09633252      -0.02321463      -0.05027074 </v>
   <v>       0.05093567      -0.21492356       0.25422760 </v>
   <v>       0.19664382      -0.03439434       0.34836806 </v>
   <v>      -0.06028690       0.10041492      -0.34101036 </v>
   <v>      -0.14124015       0.09183483      -0.04446401 </v>
   <v>      -0.00961839       0.09420758       0.14922822 </v>
   <v>       0.02197760      -0.03120082      -0.40711402 </v>
   <v>       0.15928343      -0.15545243       0.25512971 </v>
  </varray>
  <varray name="stress" >
   <v>      -0.00507237      -0.38414900       0.24517933 </v>
   <v>      -0.38414914       0.47521906      -0.45746881 </v>
   <v>       0.24517943      -0.45746884      -0.37606923 </v>
  </varray>
  <energy>
   <i name="e_fr_energy">   -191.57981835 </i>
   <i name="e_wo_entrp">   -191.49364415 </i>
   <i name="e_0_energy">     -0.17234840 </i>
  </energy>
  <time name="totalsc">  346.46  347.37</time>
 </calculation>
 <calculation>
  <scstep>
   <time name="dav">   21.61   21.66</time>
   <time name="total">   22.12   22.17</time>
   <energy>
    <i name="alphaZ">     89.99570501 </i>
    <i name="ewald">  44564.40746424 </i>
    <i name="hartreedc"> -50572.78954357 </i>
    <i name="XCdc">   -233.53460989 </i>
    <i name="pawpsdc">   4088.75326546 </i>
    <i name="pawaedc">  -3504.73303769 </i>
    <i name="eentropy">     -0.16707734 </i>
    <i name="bandstr">  -1385.06404917 </i>
    <i name="atom">   6761.44252427 </i>
    <i name="e_fr_energy">   -191.68935867 </i>
    <i name="e_wo_entrp">   -191.52228134 </i>
    <i name="e_0_energy">   -191.60582000 </i>
   </energy>
  </scstep>
  <scstep>
   <time name="dav">   31.86   31.94</time>
   <time name="total">   32.37   32.45</time>
   <energy>
    <i name="e_fr_energy">   -191.75999178 </i>
    <i name="e_wo_entrp">   -191.57389977 </i>
    <i name="e_0_energy">   -191.66694577 </i>
   </energy>
  </scstep>
  <scstep>
   <time name="dav">   30.26   30.33</time>
   <time name="total">   30.76   30.84</time>
   <energy>
    <i name="e_fr_energy">   -191.70806712 </i>
    <i name="e_wo_entrp">   -191.53923861 </i>
    <i name="e_0_energy">   -191.62365286 </i>
   </energy>
  </scstep>
  <scstep>
   <time name="dav">   28.07   28.14</time>
   <time name="total">   28.58   28.65</time>
   <energy>
    <i name="e_fr_energy">   -191.70863581 </i>
    <i name="e_wo_entrp">   -191.53898525 </i>
    <i name="e_0_energy">   -191.62381053 </i>
   </energy>
  </scstep>
  <scstep>
   <time name="dav">   28.60   28.66</time>
   <time name="total">   29.10   29.18</time>
   <energy>
    <i name="e_fr_energy">   -191.70545460 </i>
    <i name="e_wo_entrp">   -191.53395092 </i>
    <i name="e_0_energy">   -191.61970276 </i>
   </energy>
  </scstep>
  <scstep>
   <time name="dav">   28.50   28.57</time>
   <time name="total">   29.01   29.08</time>
   <energy>
    <i name="e_fr_energy">   -191.70495858 </i>
    <i name="e_wo_entrp">   -191.53405435 </i>
    <i name="e_0_energy">   -191.61950646 </i>
   </energy>
  </scstep>
  <scstep>
   <time name="dav">   27.82   27.89</time>
   <time name="total">   28.32   28.40</time>
   <energy>
    <i name="e_fr_energy">   -191.70478211 </i>
    <i name="e_wo_entrp">   -191.53416249 </i>
    <i name="e_0_energy">   -191.61947230 </i>
   </energy>
  </scstep>
  <scstep>
   <time name="dav">   23.51   23.56</time>
   <time name="total">   24.01   24.08</time>
   <energy>
    <i name="e_fr_energy">   -191.70463871 </i>
    <i name="e_wo_entrp">   -191.53410643 </i>
    <i name="e_0_energy">   -191.61937257 </i>
   </energy>
  </scstep>
  <scstep>
   <time name="dav">   18.07   18.11</time>
   <time name="total">   18.10   18.16</time>
   <energy>
    <i name="alphaZ">     89.99570501 </i>
    <i name="ewald">  44564.40746424 </i>
    <i name="hartreedc"> -50575.06831286 </i>
    <i name="XCdc">   -233.45705098 </i>
    <i name="pawpsdc">   4085.44769063 </i>
    <i name="pawaedc">  -3501.37229641 </i>
    <i name="eentropy">     -0.17063386 </i>
    <i name="bandstr">  -1382.92971298 </i>
    <i name="atom">   6761.44252427 </i>
    <i name="e_fr_energy">   -191.70462294 </i>
    <i name="e_wo_entrp">   -191.53398908 </i>
    <i name="e_0_energy">   -191.61930601 </i>
   </energy>
  </scstep>
  <structure>
   <crystal>
    <varray name="basis" >
     <v>       8.26640046       4.77289397       0.00000000 </v>
     <v>      -8.28660281       4.80785256       0.00000000 </v>
     <v>       0.00000000       0.00000000      30.00000000 </v>
    </varray>
    <i name="volume">   2378.84133376 </i>
    <varray name="rec_basis" >
     <v>       0.06063270       0.10450385       0.00000000 </v>
     <v>      -0.06019183       0.10424908       0.00000000 </v>
     <v>       0.00000000       0.00000000       0.03333333 </v>
    </varray>
   </crystal>
   <varray name="positions" >
    <v>       0.33912382       0.34416993      -0.00042115 </v>
    <v>       0.32919126      -0.00811915       0.00057276 </v>
    <v>       0.67160662       0.34416887      -0.00040923 </v>
    <v>       0.32935189       0.66387134       0.00006012 </v>
    <v>       0.00116947       0.66400763       0.00006780 </v>
    <v>       0.67404427       0.68140261       0.00006725 </v>
    <v>      -0.01650844      -0.02177475      -0.00000139 </v>
    <v>       1.01187494       0.35706890      -0.00003154 </v>
    <v>       0.66142961      -0.02167737       0.00001114 </v>
    <v>       0.11421051       0.22294388       0.95121201 </v>
    <v>       0.22534380       0.11263005       0.04800845 </v>
    <v>       0.11197970       0.55739463       0.94558609 </v>
    <v>       0.22510809       0.44143847       0.05258332 </v>
    <v>       0.11635074       0.89190250       0.94820575 </v>
    <v>       0.22529726       0.78394509       0.05224308 </v>
    <v>       0.44438270       0.22219669       0.95241011 </v>
    <v>       0.55385901       0.11260997       0.04801181 </v>
    <v>       0.44248782       0.55005285       0.94830463 </v>
    <v>       0.55320254       0.43988719       0.04985189 </v>
    <v>       0.44215855       0.89191677       0.94823005 </v>
    <v>       0.55401583       0.77591800       0.05439201 </v>
    <v>       0.77530532       0.22298086       0.95121683 </v>
    <v>       0.88969917       0.11269666       0.05024225 </v>
    <v>       0.77415462       0.55005031       0.94830811 </v>
    <v>       0.88299262       0.44145874       0.05256901 </v>
    <v>       0.77784236       0.88915489       0.94430394 </v>
    <v>       0.88854037       0.77591892       0.05440482 </v>
   </varray>
  </structure>
  <varray name="forces" >
   <v>      -0.10091689       0.37663027      -0.04216890 </v>
   <v>       0.08758464      -0.15348753       0.07013254 </v>
   <v>      -0.27791028       0.27402189      -0.04181607 </v>
   <v>      -0.13003067      -0.11278489      -0.01040643 </v>
   <v>       0.16314688       0.05372681      -0.01224368 </v>
   <v>      -0.07273594       0.12638057       0.06046716 </v>
   <v>       0.18327229      -0.52178683      -0.02381749 </v>
   <v>      -0.30706423       0.53187052       0.00292879 </v>
   <v>       0.36254930      -0.42259220      -0.02237378 </v>
   <v>      -0.05505093      -0.14440474       0.36370687 </v>
   <v>      -0.09304946      -0.15270250      -0.23188218 </v>
   <v>      -0.07019612       0.12266686      -0.23691609 </v>
   <v>      -0.05064209       0.06924835       0.14187203 </v>
   <v>       0.00307648      -0.06264825      -0.07974364 </v>
   <v>       0.02419400      -0.04390127       0.09610261 </v>
   <v>      -0.01372935       0.02494292       0.09395018 </v>
   <v>       0.17719462       0.00532684      -0.23284607 </v>
   <v>      -0.01407924       0.09808160      -0.02651326 </v>
   <v>      -0.04257950       0.07818531       0.09178323 </v>
   <v>       0.05373244      -0.03346643      -0.07990661 </v>
   <v>       0.01559313      -0.13001220       0.14781551 </v>
   <v>       0.15498051      -0.02256825       0.36426836 </v>
   <v>      -0.04873684       0.08157695      -0.36922786 </v>
   <v>      -0.07569939       0.06196657      -0.02694603 </v>
   <v>      -0.03701037       0.07570329       0.14439787 </v>
   <v>       0.06072271      -0.09995086      -0.28972831 </v>
   <v>       0.10338430      -0.08002281       0.14911124 </v>
  </varray>
  <varray name="stress" >
   <v>      -0.07488443      -0.02538212       0.01597198 </v>
   <v>      -0.02538222      -0.04218731      -0.06283935 </v>
   <v>       0.01597190      -0.06283927      -1.32006438 </v>
  </varray>
  <energy>
   <i name="e_fr_energy">   -191.70462294 </i>
   <i name="e_wo_entrp">   -191.61930601 </i>
   <i name="e_0_energy">     -0.17063386 </i>
  </energy>
  <time name="totalsc">  284.26  285.00</time>
 </calculation>
 <calculation>
  <scstep>
   <time name="dav">   21.62   21.67</time>
   <time name="total">   22.13   22.18</time>
   <energy>
    <i name="alphaZ">     90.04896423 </i>
    <i name="ewald">  44592.65385971 </i>
    <i name="hartreedc"> -50603.47896759 </i>
    <i name="XCdc">   -233.41611012 </i>
    <i name="pawpsdc">   4085.25223213 </i>
    <i name="pawaedc">  -3501.17515560 </i>
    <i name="eentropy">     -0.16050070 </i>
    <i name="bandstr">  -1383.00110376 </i>
    <i name="atom">   6761.44252427 </i>
    <i name="e_fr_energy">   -191.83425743 </i>
    <i name="e_wo_entrp">   -191.67375673 </i>
    <i name="e_0_energy">   -191.75400708 </i>
   </energy>
  </scstep>
  <scstep>
   <time name="dav">   30.33   30.40</time>
   <time name="total">   30.83   30.91</time>
   <energy>
    <i name="e_fr_energy">   -191.90237984 </i>
    <i name="e_wo_entrp">   -191.72423540 </i>
    <i name="e_0_energy">   -191.81330762 </i>
   </energy>
  </scstep>
  <scstep>
   <time name="dav">   30.58   30.65</time>
   <time name="total">   31.08   31.17</time>
   <energy>
    <i name="e_fr_energy">   -191.86483253 </i>
    <i name="e_wo_entrp">   -191.70462256 </i>
    <i name="e_0_energy">   -191.78472755 </i>
   </energy>
  </scstep>
  <scstep>
   <time name="dav">   30.31   30.38</time>
   <time name="total">   30.81   30.89</time>
   <energy>
    <i name="e_fr_energy">   -191.86352275 </i>
    <i name="e_wo_entrp">   -191.70187998 </i>
    <i name="e_0_energy">   -191.78270136 </i>
   </energy>
  </scstep>
  <scstep>
   <time name="dav">   30.22   30.29</time>
   <time name="total">   30.72   30.80</time>
   <energy>
    <i name="e_fr_energy">   -191.85816193 </i>
    <i name="e_wo_entrp">   -191.69413592 </i>
    <i name="e_0_energy">   -191.77614893 </i>
   </energy>
  </scstep>
  <scstep>
   <time name="dav">   30.41   30.48</time>
   <time name="total">   30.91   30.99</time>
   <energy>
    <i name="e_fr_energy">   -191.85740785 </i>
    <i name="e_wo_entrp">   -191.69364510 </i>
    <i name="e_0_energy">   -191.77552647 </i>
   </energy>
  </scstep>
  <scstep>
   <time name="dav">   26.62   26.68</time>
   <time name="total">   27.12   27.20</time>
   <energy>
    <i name="e_fr_energy">   -191.85677439 </i>
    <i name="e_wo_entrp">   -191.69344566 </i>
    <i name="e_0_energy">   -191.77511003 </i>
   </energy>
  </scstep>
  <scstep>
   <time name="dav">   21.25   21.30</time>
   <time name="total">   21.29   21.34</time>
   <energy>
    <i name="alphaZ">     90.04896423 </i>
    <i name="ewald">  44592.65385971 </i>
    <i name="hartreedc"> -50603.87487482 </i>
    <i name="XCdc">   -233.39680421 </i>
    <i name="pawpsdc">   4090.32953203 </i>
    <i name="pawaedc">  -3506.30889945 </i>
    <i name="eentropy">     -0.16329046 </i>
    <i name="bandstr">  -1382.58776220 </i>
    <i name="atom">   6761.44252427 </i>
    <i name="e_fr_energy">   -191.85675088 </i>
    <i name="e_wo_entrp">   -191.69346042 </i>
    <i name="e_0_energy">   -191.77510565 </i>
   </energy>
  </scstep>
  <structure>
   <crystal>
    <varray name="basis" >
     <v>       8.26286784       4.77092045       0.00000000 </v>
     <v>      -8.28409714       4.80765816       0.00000000 </v>
[...]
      <set comment="kpoint 31">
       <r>  -17.5239    1.0000 </r>
       <r>  -17.3108    1.0000 </r>
       <r>  -16.9143    1.0000 </r>
       <r>  -16.6580    1.0000 </r>
       <r>  -16.5206    1.0000 </r>
       <r>  -16.4017    1.0000 </r>
       <r>  -16.2870    1.0000 </r>
       <r>  -16.2196    1.0000 </r>
       <r>  -16.1368    1.0000 </r>
       <r>  -16.0647    1.0000 </r>
       <r>  -15.9299    1.0000 </r>
       <r>  -15.8308    1.0000 </r>
       <r>  -15.7971    1.0000 </r>
       <r>  -15.7170    1.0000 </r>
       <r>  -15.6456    1.0000 </r>
       <r>  -15.5166    1.0000 </r>
       <r>  -15.2870    1.0000 </r>
       <r>  -15.1571    1.0000 </r>
       <r>   -9.8427    1.0000 </r>
       <r>   -9.4641    1.0000 </r>
       <r>   -9.3096    1.0000 </r>
       <r>   -9.0114    1.0000 </r>
       <r>   -8.8887    1.0000 </r>
       <r>   -8.7264    1.0000 </r>
       <r>   -8.5273    1.0000 </r>
       <r>   -8.4804    1.0000 </r>
       <r>   -8.4049    1.0000 </r>
       <r>   -8.3311    1.0000 </r>
       <r>   -8.2483    1.0000 </r>
       <r>   -8.2215    1.0000 </r>
       <r>   -8.1689    1.0000 </r>
       <r>   -8.0980    1.0000 </r>
       <r>   -8.0215    1.0000 </r>
       <r>   -7.8795    1.0000 </r>
       <r>   -7.7733    1.0000 </r>
       <r>   -7.6990    1.0000 </r>
       <r>   -7.5980    1.0000 </r>
       <r>   -7.4327    1.0000 </r>
       <r>   -7.3520    1.0000 </r>
       <r>   -7.2304    1.0000 </r>
       <r>   -7.1581    1.0000 </r>
       <r>   -7.1358    1.0000 </r>
       <r>   -7.0816    1.0000 </r>
       <r>   -6.8936    1.0000 </r>
       <r>   -6.8282    1.0000 </r>
       <r>   -6.7730    1.0000 </r>
       <r>   -6.6530    1.0000 </r>
       <r>   -6.6087    1.0000 </r>
       <r>   -6.4952    1.0000 </r>
       <r>   -6.4340    1.0000 </r>
       <r>   -6.3320    1.0000 </r>
       <r>   -6.3249    1.0000 </r>
       <r>   -6.2655    1.0000 </r>
       <r>   -6.1712    1.0000 </r>
       <r>   -6.1241    1.0000 </r>
       <r>   -6.0829    1.0000 </r>
       <r>   -6.0508    1.0000 </r>
       <r>   -5.9566    1.0000 </r>
       <r>   -5.8559    1.0000 </r>
       <r>   -5.7843    1.0000 </r>
       <r>   -5.6441    1.0000 </r>
       <r>   -5.5882    1.0000 </r>
       <r>   -5.4954    1.0000 </r>
       <r>   -5.4139    1.0000 </r>
       <r>   -5.3094    1.0000 </r>
       <r>   -5.1839    1.0000 </r>
       <r>   -5.0472    1.0000 </r>
       <r>   -4.8142    1.0000 </r>
       <r>   -4.7749    1.0000 </r>
       <r>   -4.5546    1.0000 </r>
       <r>   -4.4813    1.0000 </r>
       <r>   -4.4262    1.0000 </r>
       <r>   -4.3205    1.0000 </r>
       <r>   -4.2462    1.0000 </r>
       <r>   -4.2046    1.0000 </r>
       <r>   -4.0675    1.0000 </r>
       <r>   -4.0298    1.0000 </r>
       <r>   -3.6813    0.9990 </r>
       <r>   -3.5503    0.9849 </r>
       <r>   -3.0577    0.0943 </r>
       <r>   -2.9260    0.0124 </r>
       <r>   -2.7528    0.0003 </r>
       <r>   -2.6560    0.0000 </r>
       <r>   -2.5097    0.0000 </r>
       <r>   -2.3804    0.0000 </r>
       <r>   -2.3401    0.0000 </r>
       <r>   -2.0494    0.0000 </r>
       <r>   -1.9643    0.0000 </r>
       <r>   -1.9294    0.0000 </r>
       <r>   -1.8623    0.0000 </r>
       <r>   -1.7226    0.0000 </r>
       <r>   -1.6295    0.0000 </r>
       <r>   -1.5296    0.0000 </r>
       <r>   -1.4511    0.0000 </r>
       <r>   -1.3536    0.0000 </r>
       <r>   -1.1536    0.0000 </r>
       <r>   -1.0694    0.0000 </r>
       <r>   -1.0028    0.0000 </r>
       <r>   -0.9534    0.0000 </r>
       <r>   -0.9189    0.0000 </r>
       <r>   -0.8043    0.0000 </r>
       <r>   -0.7486    0.0000 </r>
       <r>   -0.6634    0.0000 </r>
       <r>   -0.6017    0.0000 </r>
       <r>   -0.3438    0.0000 </r>
       <r>   -0.2642    0.0000 </r>
       <r>   -0.2261    0.0000 </r>
       <r>   -0.0011    0.0000 </r>
       <r>    0.0663    0.0000 </r>
       <r>    0.2731    0.0000 </r>
       <r>    0.4638    0.0000 </r>
       <r>    0.6799    0.0000 </r>
       <r>    0.7808    0.0000 </r>
       <r>    0.9001    0.0000 </r>
       <r>    1.0175    0.0000 </r>
       <r>    1.1624    0.0000 </r>
       <r>    1.2457    0.0000 </r>
       <r>    2.1417    0.0000 </r>
       <r>    2.3295    0.0000 </r>
       <r>    2.3836    0.0000 </r>
      </set>
      <set comment="kpoint 32">
       <r>  -17.5430    1.0000 </r>
       <r>  -17.2177    1.0000 </r>
       <r>  -17.0424    1.0000 </r>
       <r>  -16.6393    1.0000 </r>
       <r>  -16.5009    1.0000 </r>
       <r>  -16.3561    1.0000 </r>
       <r>  -16.2839    1.0000 </r>
       <r>  -16.1989    1.0000 </r>
       <r>  -16.1665    1.0000 </r>
       <r>  -16.0643    1.0000 </r>
       <r>  -15.9946    1.0000 </r>
       <r>  -15.8469    1.0000 </r>
       <r>  -15.7749    1.0000 </r>
       <r>  -15.7062    1.0000 </r>
       <r>  -15.6386    1.0000 </r>
       <r>  -15.4669    1.0000 </r>
       <r>  -15.3102    1.0000 </r>
       <r>  -15.1653    1.0000 </r>
       <r>   -9.7683    1.0000 </r>
       <r>   -9.5634    1.0000 </r>
       <r>   -9.4029    1.0000 </r>
       <r>   -8.9640    1.0000 </r>
       <r>   -8.7608    1.0000 </r>
       <r>   -8.6523    1.0000 </r>
       <r>   -8.5115    1.0000 </r>
       <r>   -8.4851    1.0000 </r>
       <r>   -8.4556    1.0000 </r>
       <r>   -8.3663    1.0000 </r>
       <r>   -8.2595    1.0000 </r>
       <r>   -8.2088    1.0000 </r>
       <r>   -8.1792    1.0000 </r>
       <r>   -8.0870    1.0000 </r>
       <r>   -8.0144    1.0000 </r>
       <r>   -7.9437    1.0000 </r>
       <r>   -7.8116    1.0000 </r>
       <r>   -7.7214    1.0000 </r>
       <r>   -7.5789    1.0000 </r>
       <r>   -7.4861    1.0000 </r>
       <r>   -7.3757    1.0000 </r>
       <r>   -7.2315    1.0000 </r>
       <r>   -7.1879    1.0000 </r>
       <r>   -7.1330    1.0000 </r>
       <r>   -7.0649    1.0000 </r>
       <r>   -6.9116    1.0000 </r>
       <r>   -6.8439    1.0000 </r>
       <r>   -6.7991    1.0000 </r>
       <r>   -6.6482    1.0000 </r>
       <r>   -6.5450    1.0000 </r>
       <r>   -6.4738    1.0000 </r>
       <r>   -6.4068    1.0000 </r>
       <r>   -6.3669    1.0000 </r>
       <r>   -6.3070    1.0000 </r>
       <r>   -6.2668    1.0000 </r>
       <r>   -6.1674    1.0000 </r>
       <r>   -6.1188    1.0000 </r>
       <r>   -6.0794    1.0000 </r>
       <r>   -5.9682    1.0000 </r>
       <r>   -5.8684    1.0000 </r>
       <r>   -5.7992    1.0000 </r>
       <r>   -5.7372    1.0000 </r>
       <r>   -5.6160    1.0000 </r>
       <r>   -5.5633    1.0000 </r>
       <r>   -5.5133    1.0000 </r>
       <r>   -5.4010    1.0000 </r>
       <r>   -5.3760    1.0000 </r>
       <r>   -5.1799    1.0000 </r>
       <r>   -5.1512    1.0000 </r>
       <r>   -4.8634    1.0000 </r>
       <r>   -4.7614    1.0000 </r>
       <r>   -4.6468    1.0000 </r>
       <r>   -4.5014    1.0000 </r>
       <r>   -4.4126    1.0000 </r>
       <r>   -4.3311    1.0000 </r>
       <r>   -4.2094    1.0000 </r>
       <r>   -4.1610    1.0000 </r>
       <r>   -4.0734    1.0000 </r>
       <r>   -3.9405    1.0000 </r>
       <r>   -3.6599    0.9984 </r>
       <r>   -3.5328    0.9796 </r>
       <r>   -3.0996    0.1543 </r>
       <r>   -2.9503    0.0191 </r>
       <r>   -2.8014    0.0009 </r>
       <r>   -2.7291    0.0001 </r>
       <r>   -2.5142    0.0000 </r>
       <r>   -2.4469    0.0000 </r>
       <r>   -2.3467    0.0000 </r>
       <r>   -2.0997    0.0000 </r>
       <r>   -1.9757    0.0000 </r>
       <r>   -1.9375    0.0000 </r>
       <r>   -1.8401    0.0000 </r>
       <r>   -1.7700    0.0000 </r>
       <r>   -1.6296    0.0000 </r>
       <r>   -1.4664    0.0000 </r>
       <r>   -1.3958    0.0000 </r>
       <r>   -1.2824    0.0000 </r>
       <r>   -1.1266    0.0000 </r>
       <r>   -1.0467    0.0000 </r>
       <r>   -0.9969    0.0000 </r>
       <r>   -0.9511    0.0000 </r>
       <r>   -0.9055    0.0000 </r>
       <r>   -0.8022    0.0000 </r>
       <r>   -0.7358    0.0000 </r>
       <r>   -0.6561    0.0000 </r>
       <r>   -0.5674    0.0000 </r>
       <r>   -0.4133    0.0000 </r>
       <r>   -0.3161    0.0000 </r>
       <r>   -0.1603    0.0000 </r>
       <r>   -0.1193    0.0000 </r>
       <r>    0.0699    0.0000 </r>
       <r>    0.1829    0.0000 </r>
       <r>    0.4769    0.0000 </r>
       <r>    0.5959    0.0000 </r>
       <r>    0.7426    0.0000 </r>
       <r>    0.9266    0.0000 </r>
       <r>    1.0909    0.0000 </r>
       <r>    1.2025    0.0000 </r>
       <r>    1.3677    0.0000 </r>
       <r>    2.1200    0.0000 </r>
       <r>    2.2928    0.0000 </r>
       <r>    2.5942    0.0000 </r>
      </set>
      <set comment="kpoint 33">
       <r>  -17.5273    1.0000 </r>
       <r>  -17.2896    1.0000 </r>
       <r>  -16.9294    1.0000 </r>
       <r>  -16.6169    1.0000 </r>
       <r>  -16.5458    1.0000 </r>
       <r>  -16.4838    1.0000 </r>
       <r>  -16.2977    1.0000 </r>
       <r>  -16.1796    1.0000 </r>
       <r>  -16.1113    1.0000 </r>
       <r>  -16.0992    1.0000 </r>
       <r>  -15.9242    1.0000 </r>
       <r>  -15.8523    1.0000 </r>
       <r>  -15.7608    1.0000 </r>
       <r>  -15.6972    1.0000 </r>
       <r>  -15.6423    1.0000 </r>
       <r>  -15.4367    1.0000 </r>
       <r>  -15.3304    1.0000 </r>
       <r>  -15.1913    1.0000 </r>
       <r>   -9.7853    1.0000 </r>
       <r>   -9.4844    1.0000 </r>
       <r>   -9.3608    1.0000 </r>
       <r>   -8.9388    1.0000 </r>
       <r>   -8.8417    1.0000 </r>
       <r>   -8.7472    1.0000 </r>
       <r>   -8.6495    1.0000 </r>
       <r>   -8.6130    1.0000 </r>
       <r>   -8.4342    1.0000 </r>
       <r>   -8.3095    1.0000 </r>
       <r>   -8.2562    1.0000 </r>
       <r>   -8.1492    1.0000 </r>
       <r>   -8.0881    1.0000 </r>
       <r>   -8.0711    1.0000 </r>
       <r>   -7.9492    1.0000 </r>
       <r>   -7.9059    1.0000 </r>
       <r>   -7.7787    1.0000 </r>
       <r>   -7.6808    1.0000 </r>
       <r>   -7.6326    1.0000 </r>
       <r>   -7.5795    1.0000 </r>
       <r>   -7.3877    1.0000 </r>
       <r>   -7.3176    1.0000 </r>
       <r>   -7.1637    1.0000 </r>
       <r>   -7.0258    1.0000 </r>
       <r>   -6.9637    1.0000 </r>
       <r>   -6.9060    1.0000 </r>
       <r>   -6.8760    1.0000 </r>
       <r>   -6.8000    1.0000 </r>
       <r>   -6.7011    1.0000 </r>
       <r>   -6.5621    1.0000 </r>
       <r>   -6.5212    1.0000 </r>
       <r>   -6.4263    1.0000 </r>
       <r>   -6.3643    1.0000 </r>
       <r>   -6.2780    1.0000 </r>
       <r>   -6.2232    1.0000 </r>
       <r>   -6.1742    1.0000 </r>
       <r>   -6.0952    1.0000 </r>
       <r>   -6.0139    1.0000 </r>
       <r>   -5.9820    1.0000 </r>
       <r>   -5.9251    1.0000 </r>
       <r>   -5.9067    1.0000 </r>
       <r>   -5.7013    1.0000 </r>
       <r>   -5.6440    1.0000 </r>
       <r>   -5.5549    1.0000 </r>
       <r>   -5.5211    1.0000 </r>
       <r>   -5.3926    1.0000 </r>
       <r>   -5.2784    1.0000 </r>
       <r>   -5.2329    1.0000 </r>
       <r>   -4.9451    1.0000 </r>
       <r>   -4.8647    1.0000 </r>
       <r>   -4.8240    1.0000 </r>
       <r>   -4.7494    1.0000 </r>
       <r>   -4.5353    1.0000 </r>
       <r>   -4.4264    1.0000 </r>
       <r>   -4.3385    1.0000 </r>
       <r>   -4.1732    1.0000 </r>
       <r>   -4.0832    1.0000 </r>
       <r>   -4.0369    1.0000 </r>
       <r>   -3.8404    1.0000 </r>
       <r>   -3.6975    0.9993 </r>
       <r>   -3.5290    0.9782 </r>
       <r>   -3.1833    0.3349 </r>
       <r>   -3.0593    0.0963 </r>
       <r>   -2.8458    0.0025 </r>
       <r>   -2.7028    0.0001 </r>
       <r>   -2.5667    0.0000 </r>
       <r>   -2.4642    0.0000 </r>
       <r>   -2.3356    0.0000 </r>
       <r>   -2.1601    0.0000 </r>
       <r>   -2.0641    0.0000 </r>
       <r>   -1.9334    0.0000 </r>
       <r>   -1.8415    0.0000 </r>
       <r>   -1.6864    0.0000 </r>
       <r>   -1.6043    0.0000 </r>
       <r>   -1.4097    0.0000 </r>
       <r>   -1.3620    0.0000 </r>
       <r>   -1.2194    0.0000 </r>
       <r>   -1.1084    0.0000 </r>
       <r>   -1.0435    0.0000 </r>
       <r>   -0.9916    0.0000 </r>
       <r>   -0.9323    0.0000 </r>
       <r>   -0.8735    0.0000 </r>
       <r>   -0.8352    0.0000 </r>
       <r>   -0.7272    0.0000 </r>
       <r>   -0.6699    0.0000 </r>
       <r>   -0.5533    0.0000 </r>
       <r>   -0.4510    0.0000 </r>
       <r>   -0.3595    0.0000 </r>
       <r>   -0.2758    0.0000 </r>
       <r>   -0.1144    0.0000 </r>
       <r>    0.0418    0.0000 </r>
       <r>    0.1606    0.0000 </r>
       <r>    0.3660    0.0000 </r>
       <r>    0.5919    0.0000 </r>
       <r>    0.7561    0.0000 </r>
       <r>    0.9949    0.0000 </r>
       <r>    1.1361    0.0000 </r>
       <r>    1.2847    0.0000 </r>
       <r>    1.5056    0.0000 </r>
       <r>    2.1593    0.0000 </r>
       <r>    2.3192    0.0000 </r>
       <r>    2.4264    0.0000 </r>
      </set>
      <set comment="kpoint 34">
       <r>  -17.5043    1.0000 </r>
       <r>  -17.3500    1.0000 </r>
       <r>  -16.7429    1.0000 </r>
       <r>  -16.7150    1.0000 </r>
       <r>  -16.5785    1.0000 </r>
       <r>  -16.5595    1.0000 </r>
       <r>  -16.2740    1.0000 </r>
       <r>  -16.1969    1.0000 </r>
       <r>  -16.1212    1.0000 </r>
       <r>  -16.0800    1.0000 </r>
       <r>  -15.8757    1.0000 </r>
       <r>  -15.8360    1.0000 </r>
       <r>  -15.7710    1.0000 </r>
       <r>  -15.6946    1.0000 </r>
       <r>  -15.6391    1.0000 </r>
       <r>  -15.4314    1.0000 </r>
       <r>  -15.3376    1.0000 </r>
       <r>  -15.2080    1.0000 </r>
       <r>   -9.8153    1.0000 </r>
       <r>   -9.3534    1.0000 </r>
       <r>   -9.3048    1.0000 </r>
       <r>   -9.0056    1.0000 </r>
       <r>   -8.9388    1.0000 </r>
       <r>   -8.8283    1.0000 </r>
       <r>   -8.6833    1.0000 </r>
       <r>   -8.6632    1.0000 </r>
       <r>   -8.4383    1.0000 </r>
       <r>   -8.2903    1.0000 </r>
       <r>   -8.2270    1.0000 </r>
       <r>   -8.1332    1.0000 </r>
       <r>   -8.0818    1.0000 </r>
       <r>   -8.0021    1.0000 </r>
       <r>   -7.9124    1.0000 </r>
       <r>   -7.8457    1.0000 </r>
       <r>   -7.7537    1.0000 </r>
       <r>   -7.6822    1.0000 </r>
       <r>   -7.6418    1.0000 </r>
       <r>   -7.6035    1.0000 </r>
       <r>   -7.4702    1.0000 </r>
       <r>   -7.3372    1.0000 </r>
       <r>   -7.0867    1.0000 </r>
       <r>   -7.0740    1.0000 </r>
       <r>   -6.9935    1.0000 </r>
       <r>   -6.8547    1.0000 </r>
       <r>   -6.8173    1.0000 </r>
       <r>   -6.7133    1.0000 </r>
       <r>   -6.6549    1.0000 </r>
       <r>   -6.5894    1.0000 </r>
       <r>   -6.5224    1.0000 </r>
       <r>   -6.4643    1.0000 </r>
       <r>   -6.4101    1.0000 </r>
       <r>   -6.3439    1.0000 </r>
       <r>   -6.2668    1.0000 </r>
       <r>   -6.1788    1.0000 </r>
       <r>   -6.1052    1.0000 </r>
       <r>   -6.0867    1.0000 </r>
       <r>   -6.0076    1.0000 </r>
       <r>   -5.8498    1.0000 </r>
       <r>   -5.8218    1.0000 </r>
       <r>   -5.7922    1.0000 </r>
       <r>   -5.6226    1.0000 </r>
       <r>   -5.5937    1.0000 </r>
       <r>   -5.5288    1.0000 </r>
       <r>   -5.4084    1.0000 </r>
       <r>   -5.2171    1.0000 </r>
       <r>   -5.0706    1.0000 </r>
       <r>   -4.9980    1.0000 </r>
       <r>   -4.9471    1.0000 </r>
       <r>   -4.8306    1.0000 </r>
       <r>   -4.6248    1.0000 </r>
       <r>   -4.5831    1.0000 </r>
       <r>   -4.4577    1.0000 </r>
       <r>   -4.3300    1.0000 </r>
       <r>   -4.1833    1.0000 </r>
       <r>   -4.0307    1.0000 </r>
       <r>   -4.0174    1.0000 </r>
       <r>   -3.8476    1.0000 </r>
       <r>   -3.6812    0.9990 </r>
       <r>   -3.5070    0.9687 </r>
       <r>   -3.3063    0.6711 </r>
       <r>   -2.9869    0.0348 </r>
       <r>   -2.9549    0.0206 </r>
       <r>   -2.6538    0.0000 </r>
       <r>   -2.6092    0.0000 </r>
       <r>   -2.4610    0.0000 </r>
       <r>   -2.3308    0.0000 </r>
       <r>   -2.1870    0.0000 </r>
       <r>   -2.1040    0.0000 </r>
       <r>   -1.9205    0.0000 </r>
       <r>   -1.8429    0.0000 </r>
       <r>   -1.6650    0.0000 </r>
       <r>   -1.5700    0.0000 </r>
       <r>   -1.3820    0.0000 </r>
       <r>   -1.3481    0.0000 </r>
       <r>   -1.1968    0.0000 </r>
       <r>   -1.0906    0.0000 </r>
       <r>   -1.0657    0.0000 </r>
       <r>   -0.9952    0.0000 </r>
       <r>   -0.9233    0.0000 </r>
       <r>   -0.8892    0.0000 </r>
       <r>   -0.8238    0.0000 </r>
       <r>   -0.7072    0.0000 </r>
       <r>   -0.6350    0.0000 </r>
       <r>   -0.6044    0.0000 </r>
       <r>   -0.4844    0.0000 </r>
       <r>   -0.4039    0.0000 </r>
       <r>   -0.2826    0.0000 </r>
       <r>   -0.1266    0.0000 </r>
       <r>    0.0257    0.0000 </r>
       <r>    0.1988    0.0000 </r>
       <r>    0.2802    0.0000 </r>
       <r>    0.5916    0.0000 </r>
       <r>    0.7763    0.0000 </r>
       <r>    1.0398    0.0000 </r>
       <r>    1.1424    0.0000 </r>
       <r>    1.3313    0.0000 </r>
       <r>    1.5682    0.0000 </r>
       <r>    2.2534    0.0000 </r>
       <r>    2.2683    0.0000 </r>
       <r>    2.4067    0.0000 </r>
      </set>
     </set>
    </set>
   </array>
  </eigenvalues>
  <separator name="orbital magnetization" >
   <v name="MAGDIPOLOUT">      0.00000000      0.00000000      0.00000000</v>
  </separator>
 </calculation>
 <structure name="finalpos" >
  <crystal>
   <varray name="basis" >
    <v>       8.28467929       4.78765498       0.00000000 </v>
    <v>      -8.30400019       4.82112709       0.00000000 </v>
    <v>       0.00000000       0.00000000      30.00000000 </v>
   </varray>
   <i name="volume">   2390.94538963 </i>
   <varray name="rec_basis" >
    <v>       0.06049231       0.10419310       0.00000000 </v>
    <v>      -0.06007233       0.10395067       0.00000000 </v>
    <v>       0.00000000       0.00000000       0.03333333 </v>
   </varray>
  </crystal>
  <varray name="positions" >
   <v>       0.35014153       0.36804022       0.00208532 </v>
   <v>       0.31681350      -0.03264570      -0.00197483 </v>
   <v>       0.68460399       0.36775798       0.00215508 </v>
   <v>       0.32618569       0.66626881       0.00016522 </v>
   <v>       0.00337056       0.66627798       0.00015347 </v>
   <v>       0.67444942       0.67577545       0.00033943 </v>
   <v>      -0.02130310      -0.03883666      -0.00247021 </v>
   <v>       1.01962748       0.37322617       0.00219254 </v>
   <v>       0.64907606      -0.03944308      -0.00254381 </v>
   <v>       0.11288199       0.22317319       0.95646250 </v>
   <v>       0.22332390       0.11084968       0.04270855 </v>
   <v>       0.11308927       0.56026889       0.94454933 </v>
   <v>       0.22661565       0.44769700       0.05573470 </v>
   <v>       0.11428781       0.88754020       0.94458773 </v>
   <v>       0.22428807       0.78257509       0.05393933 </v>
   <v>       0.44523194       0.22381033       0.95817606 </v>
   <v>       0.55412228       0.11060474       0.04257199 </v>
   <v>       0.44318418       0.55315870       0.94781014 </v>
   <v>       0.55539737       0.44366230       0.05343905 </v>
   <v>       0.43956148       0.88717695       0.94462230 </v>
   <v>       0.55194959       0.77232629       0.05458216 </v>
   <v>       0.77668901       0.22297856       0.95638692 </v>
   <v>       0.88915754       0.11190464       0.04429399 </v>
   <v>       0.77628259       0.55240092       0.94729468 </v>
   <v>       0.88712962       0.44746062       0.05579866 </v>
   <v>       0.77405107       0.88071109       0.94177990 </v>
   <v>       0.88800596       0.77349410       0.05515970 </v>
  </varray>
 </structure>
</modeling>
