   27   27  100    1
  0.9710400E+02  0.1002848E-08  0.1002848E-08  0.3000000E-08  0.5000000E-15
  1.000000000000000E-004
  CAR 
 unknown system                          
    159     34    120
 
  0.0000000E+00  0.0000000E+00  0.0000000E+00  0.1562500E-01
    1      -17.787837   1.000000
    2      -16.695877   1.000000
    3      -16.597870   1.000000
    4      -16.585059   1.000000
    5      -16.493390   1.000000
    6      -16.478231   1.000000
    7      -16.413258   1.000000
    8      -16.350109   1.000000
    9      -16.132499   1.000000
   10      -16.127075   1.000000
   11      -16.097726   1.000000
   12      -16.014302   1.000000
   13      -15.885893   1.000000
   14      -15.660184   1.000000
   15      -15.636049   1.000000
   16      -15.527452   1.000000
   17      -15.317789   1.000000
   18      -15.269114   1.000000
   19       -9.214896   1.000000
   20       -8.965371   1.000000
   21       -8.937653   1.000000
   22       -8.826782   1.000000
   23       -8.745965   1.000000
   24       -8.713704   1.000000
   25       -8.650054   1.000000
   26       -8.604057   1.000000
   27       -8.500885   1.000000
   28       -8.443585   1.000000
   29       -8.383704   1.000000
   30       -8.349736   1.000000
   31       -8.316921   1.000000
   32       -8.171990   1.000000
   33       -7.993939   1.000000
   34       -7.978396   1.000000
   35       -7.860688   1.000000
   36       -7.796520   1.000000
   37       -7.778501   1.000000
   38       -7.539500   1.000000
   39       -7.406998   1.000000
   40       -7.391734   1.000000
   41       -7.343166   1.000000
   42       -7.275361   1.000000
   43       -7.100081   1.000000
   44       -6.964206   1.000000
   45       -6.831550   1.000000
   46       -6.793438   1.000000
   47       -6.737038   1.000000
   48       -6.584761   1.000000
   49       -6.569427   1.000000
   50       -6.503860   1.000000
   51       -6.424838   1.000000
   52       -6.383560   1.000000
   53       -6.290902   1.000000
   54       -6.284558   1.000000
   55       -6.229683   1.000000
   56       -6.201953   1.000000
   57       -6.042869   1.000000
   58       -5.930394   1.000000
   59       -5.705888   1.000000
   60       -5.562795   1.000000
   61       -5.527717   1.000000
   62       -5.429904   1.000000
   63       -5.317033   1.000000
   64       -5.183283   1.000000
   65       -5.124164   1.000000
   66       -5.021802   1.000000
   67       -4.994801   1.000000
   68       -4.841374   1.000000
   69       -4.812736   1.000000
   70       -4.737437   1.000000
   71       -4.653432   1.000000
   72       -4.576056   1.000000
   73       -4.478508   1.000000
   74       -4.189476   1.000000
   75       -4.159827   1.000000
   76       -4.053264   1.000000
   77       -3.728234   0.999602
   78       -3.539215   0.978189
   79       -3.524072   0.971974
   80       -3.420142   0.880148
   81       -3.316913   0.672126
   82       -2.879337   0.004044
   83       -2.631041   0.000005
   84       -2.582659   0.000001
   85       -2.441718   0.000000
   86       -2.420759   0.000000
   87       -2.248389   0.000000
   88       -2.172244   0.000000
   89       -2.139697   0.000000
   90       -2.032337   0.000000
   91       -1.968337   0.000000
   92       -1.873019   0.000000
   93       -1.455381   0.000000
   94       -1.219801   0.000000
   95       -1.113160   0.000000
   96       -1.048896   0.000000
   97       -0.996579   0.000000
   98       -0.847965   0.000000
   99       -0.713494   0.000000
  100       -0.675379   0.000000
  101       -0.654208   0.000000
  102       -0.441346   0.000000
  103       -0.405806   0.000000
  104       -0.384668   0.000000
  105       -0.266889   0.000000
  106       -0.104839   0.000000
  107       -0.076879   0.000000
  108        0.028836   0.000000
  109        0.059309   0.000000
  110        0.196679   0.000000
  111        0.316838   0.000000
  112        0.413001   0.000000
  113        0.728036   0.000000
  114        0.870980   0.000000
  115        0.994147   0.000000
  116        1.096918   0.000000
  117        1.154062   0.000000
  118        1.629724   0.000000
  119        1.823416   0.000000
  120        2.133243   0.000000
 
  0.1250000E+00  0.2775558E-16  0.0000000E+00  0.3125000E-01
    1      -17.763494   1.000000
    2      -16.742474   1.000000
    3      -16.696150   1.000000
    4      -16.612515   1.000000
    5      -16.534978   1.000000
    6      -16.428965   1.000000
    7      -16.369328   1.000000
    8      -16.287390   1.000000
    9      -16.168592   1.000000
   10      -16.121785   1.000000
   11      -16.055023   1.000000
   12      -15.970245   1.000000
   13      -15.862938   1.000000
   14      -15.674707   1.000000
   15      -15.637452   1.000000
   16      -15.535537   1.000000
   17      -15.322788   1.000000
   18      -15.274920   1.000000
   19       -9.232931   1.000000
   20       -9.068344   1.000000
   21       -9.002358   1.000000
   22       -8.938847   1.000000
   23       -8.795254   1.000000
   24       -8.747892   1.000000
   25       -8.679624   1.000000
   26       -8.590820   1.000000
   27       -8.490420   1.000000
   28       -8.439823   1.000000
   29       -8.393863   1.000000
   30       -8.245433   1.000000
   31       -8.184845   1.000000
   32       -8.059626   1.000000
   33       -7.972610   1.000000
   34       -7.882964   1.000000
   35       -7.827161   1.000000
   36       -7.754091   1.000000
   37       -7.702245   1.000000
   38       -7.572078   1.000000
   39       -7.475400   1.000000
   40       -7.411116   1.000000
   41       -7.308499   1.000000
   42       -7.224057   1.000000
   43       -7.127509   1.000000
   44       -7.009302   1.000000
   45       -6.875547   1.000000
   46       -6.828206   1.000000
   47       -6.750716   1.000000
   48       -6.620208   1.000000
   49       -6.550045   1.000000
   50       -6.449106   1.000000
   51       -6.426644   1.000000
   52       -6.392769   1.000000
   53       -6.325495   1.000000
   54       -6.268389   1.000000
   55       -6.207131   1.000000
   56       -6.182237   1.000000
   57       -5.969195   1.000000
   58       -5.937051   1.000000
   59       -5.709434   1.000000
   60       -5.576583   1.000000
   61       -5.540395   1.000000
   62       -5.439538   1.000000
   63       -5.310952   1.000000
   64       -5.286492   1.000000
   65       -5.212859   1.000000
   66       -5.076598   1.000000
   67       -5.027493   1.000000
   68       -4.859730   1.000000
   69       -4.794861   1.000000
   70       -4.712158   1.000000
   71       -4.599984   1.000000
   72       -4.495465   1.000000
   73       -4.451481   1.000000
   74       -4.163837   1.000000
   75       -4.072522   1.000000
   76       -4.052183   1.000000
   77       -3.895108   0.999997
   78       -3.699874   0.999194
   79       -3.472855   0.939245
   80       -3.399854   0.849028
   81       -3.191850   0.330496
   82       -2.852092   0.002249
   83       -2.623382   0.000004
   84       -2.577321   0.000001
   85       -2.435240   0.000000
   86       -2.403495   0.000000
   87       -2.234129   0.000000
   88       -2.153000   0.000000
   89       -2.131723   0.000000
   90       -2.020318   0.000000
   91       -1.966205   0.000000
   92       -1.883037   0.000000
   93       -1.455360   0.000000
   94       -1.219440   0.000000
   95       -1.107768   0.000000
   96       -1.055271   0.000000
   97       -0.991527   0.000000
   98       -0.844021   0.000000
   99       -0.788129   0.000000
  100       -0.723198   0.000000
  101       -0.679475   0.000000
  102       -0.520872   0.000000
  103       -0.466517   0.000000
  104       -0.440449   0.000000
  105       -0.308133   0.000000
  106       -0.194350   0.000000
  107       -0.121921   0.000000
  108        0.025449   0.000000
  109        0.147352   0.000000
  110        0.240360   0.000000
  111        0.369405   0.000000
  112        0.434495   0.000000
  113        0.659613   0.000000
  114        0.874812   0.000000
  115        0.988310   0.000000
  116        1.158295   0.000000
  117        1.195803   0.000000
  118        1.673680   0.000000
  119        1.862441   0.000000
  120        2.168138   0.000000
 
  0.2500000E+00  0.5551115E-16  0.0000000E+00  0.3125000E-01
    1      -17.692228   1.000000
    2      -16.954138   1.000000
    3      -16.724223   1.000000
    4      -16.650391   1.000000
    5      -16.586276   1.000000
    6      -16.374448   1.000000
    7      -16.339335   1.000000
    8      -16.223281   1.000000
    9      -16.146126   1.000000
   10      -16.086893   1.000000
   11      -16.025745   1.000000
   12      -15.914931   1.000000
   13      -15.797369   1.000000
   14      -15.701778   1.000000
   15      -15.635283   1.000000
   16      -15.555608   1.000000
   17      -15.337497   1.000000
   18      -15.288330   1.000000
   19       -9.443547   1.000000
   20       -9.143474   1.000000
   21       -9.100111   1.000000
   22       -9.034734   1.000000
   23       -8.901290   1.000000
   24       -8.825535   1.000000
   25       -8.640867   1.000000
   26       -8.540459   1.000000
   27       -8.483475   1.000000
   28       -8.370827   1.000000
   29       -8.303269   1.000000
   30       -8.175912   1.000000
   31       -8.145484   1.000000
   32       -8.026416   1.000000
   33       -7.860750   1.000000
   34       -7.785491   1.000000
   35       -7.744013   1.000000
   36       -7.681510   1.000000
   37       -7.598438   1.000000
   38       -7.500496   1.000000
   39       -7.462859   1.000000
   40       -7.393796   1.000000
   41       -7.323856   1.000000
   42       -7.172410   1.000000
   43       -7.125471   1.000000
   44       -7.032013   1.000000
   45       -6.907362   1.000000
   46       -6.869706   1.000000
   47       -6.769901   1.000000
   48       -6.639598   1.000000
   49       -6.571928   1.000000
   50       -6.465141   1.000000
   51       -6.437620   1.000000
   52       -6.376693   1.000000
   53       -6.282425   1.000000
   54       -6.231567   1.000000
   55       -6.181538   1.000000
   56       -6.072421   1.000000
   57       -5.974278   1.000000
   58       -5.893092   1.000000
   59       -5.734597   1.000000
   60       -5.673175   1.000000
   61       -5.636544   1.000000
   62       -5.574594   1.000000
   63       -5.528583   1.000000
   64       -5.307537   1.000000
   65       -5.227894   1.000000
   66       -5.092588   1.000000
   67       -5.046229   1.000000
   68       -4.899352   1.000000
   69       -4.769153   1.000000
   70       -4.642145   1.000000
   71       -4.507269   1.000000
   72       -4.389952   1.000000
   73       -4.367973   1.000000
   74       -4.276386   1.000000
   75       -4.104201   1.000000
   76       -4.028775   1.000000
   77       -3.958462   1.000000
   78       -3.843399   0.999985
   79       -3.439928   0.905852
   80       -3.368093   0.790364
   81       -3.044888   0.069742
   82       -2.792551   0.000553
   83       -2.619121   0.000004
   84       -2.540627   0.000000
   85       -2.424784   0.000000
   86       -2.373328   0.000000
   87       -2.235192   0.000000
   88       -2.121261   0.000000
   89       -2.056330   0.000000
   90       -2.012902   0.000000
   91       -1.946606   0.000000
   92       -1.867772   0.000000
   93       -1.461585   0.000000
   94       -1.229689   0.000000
   95       -1.099544   0.000000
   96       -1.076568   0.000000
   97       -0.998630   0.000000
   98       -0.957669   0.000000
   99       -0.858780   0.000000
  100       -0.809311   0.000000
  101       -0.755652   0.000000
  102       -0.680087   0.000000
  103       -0.569702   0.000000
  104       -0.537735   0.000000
  105       -0.412296   0.000000
  106       -0.263018   0.000000
  107       -0.210592   0.000000
  108       -0.019015   0.000000
  109        0.195805   0.000000
  110        0.245122   0.000000
  111        0.407655   0.000000
  112        0.520756   0.000000
  113        0.607197   0.000000
  114        0.891290   0.000000
  115        0.998217   0.000000
  116        1.239058   0.000000
  117        1.329061   0.000000
  118        1.796119   0.000000
  119        1.973767   0.000000
  120        2.271620   0.000000
 
  0.3750000E+00  0.0000000E+00  0.0000000E+00  0.3125000E-01
    1      -17.582603   1.000000
    2      -17.161973   1.000000
    3      -16.759360   1.000000
    4      -16.671655   1.000000
    5      -16.597615   1.000000
    6      -16.395443   1.000000
    7      -16.311976   1.000000
    8      -16.173796   1.000000
    9      -16.109462   1.000000
   10      -16.008190   1.000000
   11      -15.990885   1.000000
   12      -15.906117   1.000000
   13      -15.784127   1.000000
   14      -15.742807   1.000000
   15      -15.583208   1.000000
   16      -15.567356   1.000000
   17      -15.363061   1.000000
   18      -15.298221   1.000000
   19       -9.649444   1.000000
   20       -9.235485   1.000000
   21       -9.182425   1.000000
   22       -9.000818   1.000000
   23       -8.970694   1.000000
   24       -8.875554   1.000000
   25       -8.585714   1.000000
   26       -8.452310   1.000000
   27       -8.403790   1.000000
   28       -8.320401   1.000000
   29       -8.283210   1.000000
   30       -8.214721   1.000000
   31       -8.141781   1.000000
   32       -7.993914   1.000000
   33       -7.921347   1.000000
   34       -7.789196   1.000000
   35       -7.750950   1.000000
   36       -7.642827   1.000000
   37       -7.561585   1.000000
   38       -7.464550   1.000000
   39       -7.410774   1.000000
   40       -7.262363   1.000000
   41       -7.218690   1.000000
   42       -7.146979   1.000000
   43       -7.064515   1.000000
   44       -7.015742   1.000000
   45       -6.876321   1.000000
   46       -6.820704   1.000000
   47       -6.691983   1.000000
   48       -6.592658   1.000000
   49       -6.575197   1.000000
   50       -6.520109   1.000000
   51       -6.418787   1.000000
   52       -6.339513   1.000000
   53       -6.251947   1.000000
   54       -6.191868   1.000000
   55       -6.156141   1.000000
   56       -6.071130   1.000000
   57       -5.992274   1.000000
   58       -5.956017   1.000000
   59       -5.862559   1.000000
   60       -5.826508   1.000000
   61       -5.763956   1.000000
   62       -5.679158   1.000000
   63       -5.567412   1.000000
   64       -5.383370   1.000000
   65       -5.199023   1.000000
   66       -5.025712   1.000000
   67       -4.999472   1.000000
   68       -4.900084   1.000000
   69       -4.827028   1.000000
   70       -4.705403   1.000000
   71       -4.548582   1.000000
   72       -4.434734   1.000000
   73       -4.304655   1.000000
   74       -4.226256   1.000000
   75       -4.156082   1.000000
   76       -4.074766   1.000000
   77       -3.944674   0.999999
   78       -3.728845   0.999608
   79       -3.469934   0.936721
   80       -3.332916   0.711901
   81       -2.940491   0.013349
   82       -2.750527   0.000186
   83       -2.601574   0.000002
   84       -2.516479   0.000000
   85       -2.413586   0.000000
   86       -2.332628   0.000000
   87       -2.259933   0.000000
   88       -2.090401   0.000000
   89       -2.020644   0.000000
   90       -1.967402   0.000000
   91       -1.908431   0.000000
   92       -1.795282   0.000000
   93       -1.478607   0.000000
   94       -1.249847   0.000000
   95       -1.166007   0.000000
   96       -1.113207   0.000000
   97       -1.087995   0.000000
   98       -0.984064   0.000000
   99       -0.936695   0.000000
  100       -0.876213   0.000000
  101       -0.842710   0.000000
  102       -0.768354   0.000000
  103       -0.672166   0.000000
  104       -0.612551   0.000000
  105       -0.453561   0.000000
  106       -0.329631   0.000000
  107       -0.276572   0.000000
  108       -0.080411   0.000000
  109        0.146555   0.000000
  110        0.202458   0.000000
  111        0.402652   0.000000
  112        0.585186   0.000000
  113        0.640676   0.000000
  114        0.941175   0.000000
  115        1.020786   0.000000
  116        1.306093   0.000000
  117        1.451041   0.000000
  118        1.979081   0.000000
  119        2.145555   0.000000
  120        2.440603   0.000000
 
  0.5000000E+00  0.1110223E-15  0.0000000E+00  0.1562500E-01
    1      -17.494982   1.000000
    2      -17.284009   1.000000
    3      -16.773180   1.000000
    4      -16.681425   1.000000
    5      -16.594468   1.000000
    6      -16.410475   1.000000
    7      -16.304311   1.000000
    8      -16.158080   1.000000
    9      -16.086105   1.000000
   10      -15.984203   1.000000
   11      -15.940276   1.000000
   12      -15.917025   1.000000
   13      -15.795144   1.000000
   14      -15.776392   1.000000
   15      -15.585722   1.000000
   16      -15.528072   1.000000
   17      -15.382535   1.000000
   18      -15.300521   1.000000
   19       -9.724830   1.000000
   20       -9.272348   1.000000
   21       -9.214448   1.000000
   22       -9.014097   1.000000
   23       -8.974754   1.000000
   24       -8.860502   1.000000
   25       -8.555734   1.000000
   26       -8.431844   1.000000
   27       -8.385592   1.000000
   28       -8.284205   1.000000
   29       -8.278804   1.000000
   30       -8.225848   1.000000
   31       -8.104130   1.000000
   32       -8.039012   1.000000
   33       -7.920213   1.000000
   34       -7.836041   1.000000
   35       -7.803739   1.000000
   36       -7.627804   1.000000
   37       -7.568112   1.000000
   38       -7.446912   1.000000
   39       -7.413825   1.000000
   40       -7.199098   1.000000
   41       -7.146991   1.000000
   42       -7.120620   1.000000
   43       -7.040692   1.000000
   44       -6.972555   1.000000
   45       -6.857402   1.000000
   46       -6.725840   1.000000
   47       -6.635773   1.000000
   48       -6.600426   1.000000
   49       -6.553982   1.000000
   50       -6.468211   1.000000
   51       -6.369840   1.000000
   52       -6.355560   1.000000
   53       -6.291340   1.000000
   54       -6.281903   1.000000
   55       -6.248630   1.000000
   56       -6.136433   1.000000
   57       -5.991769   1.000000
   58       -5.940634   1.000000
   59       -5.879231   1.000000
   60       -5.816443   1.000000
   61       -5.745993   1.000000
   62       -5.646988   1.000000
   63       -5.601133   1.000000
   64       -5.449595   1.000000
   65       -5.245427   1.000000
   66       -5.062734   1.000000
   67       -4.974481   1.000000
   68       -4.957906   1.000000
   69       -4.884764   1.000000
   70       -4.679840   1.000000
   71       -4.545614   1.000000
   72       -4.403667   1.000000
   73       -4.280713   1.000000
   74       -4.241334   1.000000
   75       -4.200681   1.000000
   76       -4.059933   1.000000
   77       -3.915906   0.999999
   78       -3.647767   0.997326
   79       -3.514658   0.967413
   80       -3.319068   0.677610
   81       -2.898357   0.005971
   82       -2.747099   0.000170
   83       -2.553506   0.000000
   84       -2.549198   0.000000
   85       -2.400926   0.000000
   86       -2.300568   0.000000
   87       -2.279994   0.000000
   88       -2.089093   0.000000
   89       -2.005020   0.000000
   90       -1.944406   0.000000
   91       -1.886865   0.000000
   92       -1.746156   0.000000
   93       -1.487579   0.000000
   94       -1.272608   0.000000
   95       -1.198092   0.000000
   96       -1.153854   0.000000
   97       -1.114672   0.000000
   98       -1.027094   0.000000
   99       -0.946809   0.000000
  100       -0.894929   0.000000
  101       -0.863949   0.000000
  102       -0.792627   0.000000
  103       -0.727548   0.000000
  104       -0.634639   0.000000
  105       -0.463230   0.000000
  106       -0.364729   0.000000
  107       -0.289093   0.000000
  108       -0.111751   0.000000
  109        0.120249   0.000000
  110        0.170251   0.000000
  111        0.408690   0.000000
  112        0.596538   0.000000
  113        0.664084   0.000000
  114        0.972701   0.000000
  115        1.025724   0.000000
  116        1.332484   0.000000
  117        1.497608   0.000000
  118        2.201163   0.000000
  119        2.219046   0.000000
  120        2.368554   0.000000
 
  0.0000000E+00  0.1250000E+00  0.0000000E+00  0.3125000E-01
    1      -17.762714   1.000000
    2      -16.773153   1.000000
    3      -16.676044   1.000000
    4      -16.602778   1.000000
    5      -16.516890   1.000000
    6      -16.435161   1.000000
    7      -16.371251   1.000000
    8      -16.292094   1.000000
    9      -16.196581   1.000000
   10      -16.110963   1.000000
   11      -16.031651   1.000000
   12      -15.983029   1.000000
   13      -15.861317   1.000000
   14      -15.677280   1.000000
   15      -15.636674   1.000000
   16      -15.533311   1.000000
   17      -15.324457   1.000000
   18      -15.273762   1.000000
   19       -9.213943   1.000000
   20       -9.133639   1.000000
   21       -8.996680   1.000000
   22       -8.933088   1.000000
   23       -8.776896   1.000000
   24       -8.720083   1.000000
   25       -8.685644   1.000000
   26       -8.550123   1.000000
   27       -8.488377   1.000000
   28       -8.448215   1.000000
   29       -8.395526   1.000000
   30       -8.265241   1.000000
   31       -8.202805   1.000000
   32       -8.063836   1.000000
   33       -7.976920   1.000000
   34       -7.889604   1.000000
   35       -7.823070   1.000000
   36       -7.748784   1.000000
   37       -7.710580   1.000000
   38       -7.570907   1.000000
   39       -7.480678   1.000000
   40       -7.383308   1.000000
   41       -7.294840   1.000000
   42       -7.238557   1.000000
   43       -7.140109   1.000000
   44       -7.010747   1.000000
   45       -6.874676   1.000000
   46       -6.824000   1.000000
   47       -6.753460   1.000000
   48       -6.623213   1.000000
   49       -6.546169   1.000000
   50       -6.449286   1.000000
   51       -6.432582   1.000000
   52       -6.385096   1.000000
   53       -6.332794   1.000000
   54       -6.264466   1.000000
   55       -6.211492   1.000000
   56       -6.171817   1.000000
   57       -5.967001   1.000000
   58       -5.942478   1.000000
   59       -5.710959   1.000000
   60       -5.567818   1.000000
   61       -5.550919   1.000000
   62       -5.438364   1.000000
   63       -5.305709   1.000000
   64       -5.295608   1.000000
   65       -5.202766   1.000000
   66       -5.082471   1.000000
   67       -5.013981   1.000000
   68       -4.854559   1.000000
   69       -4.815076   1.000000
   70       -4.710533   1.000000
   71       -4.604380   1.000000
   72       -4.490045   1.000000
   73       -4.450664   1.000000
   74       -4.170822   1.000000
   75       -4.074401   1.000000
   76       -4.040182   1.000000
   77       -3.893479   0.999997
   78       -3.697961   0.999156
   79       -3.471543   0.938121
   80       -3.414284   0.871667
   81       -3.181929   0.305484
   82       -2.848388   0.002071
   83       -2.623959   0.000004
   84       -2.586671   0.000001
   85       -2.429195   0.000000
   86       -2.409596   0.000000
   87       -2.232827   0.000000
   88       -2.155210   0.000000
   89       -2.132153   0.000000
   90       -2.024239   0.000000
   91       -1.966598   0.000000
   92       -1.875305   0.000000
   93       -1.455396   0.000000
   94       -1.230672   0.000000
   95       -1.105186   0.000000
   96       -1.046942   0.000000
   97       -0.988590   0.000000
   98       -0.860937   0.000000
   99       -0.764505   0.000000
  100       -0.728278   0.000000
  101       -0.661861   0.000000
  102       -0.510208   0.000000
  103       -0.480159   0.000000
  104       -0.432069   0.000000
  105       -0.307503   0.000000
  106       -0.177519   0.000000
  107       -0.131775   0.000000
  108       -0.011297   0.000000
  109        0.099189   0.000000
  110        0.208210   0.000000
  111        0.391798   0.000000
  112        0.493025   0.000000
  113        0.695358   0.000000
  114        0.863886   0.000000
  115        1.024614   0.000000
  116        1.101939   0.000000
  117        1.194318   0.000000
  118        1.673763   0.000000
  119        1.862877   0.000000
  120        2.168201   0.000000
 
  0.1250000E+00  0.1250000E+00  0.0000000E+00  0.3125000E-01
    1      -17.714554   1.000000
    2      -16.880669   1.000000
    3      -16.775781   1.000000
    4      -16.654799   1.000000
    5      -16.456747   1.000000
    6      -16.416564   1.000000
    7      -16.347665   1.000000
    8      -16.264374   1.000000
    9      -16.172244   1.000000
   10      -16.111261   1.000000
   11      -15.988354   1.000000
   12      -15.947436   1.000000
   13      -15.801540   1.000000
   14      -15.711459   1.000000
   15      -15.623301   1.000000
   16      -15.559635   1.000000
   17      -15.338576   1.000000
   18      -15.276694   1.000000
   19       -9.308179   1.000000
   20       -9.267161   1.000000
   21       -9.095100   1.000000
   22       -9.000263   1.000000
   23       -8.827252   1.000000
   24       -8.695970   1.000000
   25       -8.668141   1.000000
   26       -8.571693   1.000000
   27       -8.494959   1.000000
   28       -8.383778   1.000000
   29       -8.297390   1.000000
   30       -8.270274   1.000000
   31       -8.126033   1.000000
   32       -8.072056   1.000000
   33       -7.859126   1.000000
   34       -7.831071   1.000000
   35       -7.786181   1.000000
   36       -7.726625   1.000000
   37       -7.587985   1.000000
   38       -7.507589   1.000000
   39       -7.461918   1.000000
   40       -7.330332   1.000000
   41       -7.302238   1.000000
   42       -7.214492   1.000000
   43       -7.184125   1.000000
   44       -7.063647   1.000000
   45       -6.869961   1.000000
   46       -6.857096   1.000000
   47       -6.785891   1.000000
   48       -6.698674   1.000000
   49       -6.548992   1.000000
   50       -6.464880   1.000000
   51       -6.416952   1.000000
   52       -6.372479   1.000000
   53       -6.334502   1.000000
   54       -6.239436   1.000000
   55       -6.165222   1.000000
   56       -6.088245   1.000000
   57       -5.935166   1.000000
   58       -5.911641   1.000000
   59       -5.689023   1.000000
   60       -5.646626   1.000000
   61       -5.604618   1.000000
   62       -5.586901   1.000000
   63       -5.393498   1.000000
   64       -5.325188   1.000000
   65       -5.216057   1.000000
   66       -5.174725   1.000000
   67       -5.046599   1.000000
   68       -4.837599   1.000000
   69       -4.802575   1.000000
   70       -4.679350   1.000000
   71       -4.496867   1.000000
   72       -4.414137   1.000000
   73       -4.356928   1.000000
   74       -4.173878   1.000000
   75       -4.104623   1.000000
   76       -4.039965   1.000000
   77       -3.997814   1.000000
   78       -3.850744   0.999988
   79       -3.416203   0.874490
   80       -3.374997   0.804141
   81       -3.119570   0.171148
   82       -2.799005   0.000649
   83       -2.616390   0.000003
   84       -2.558378   0.000000
   85       -2.412706   0.000000
   86       -2.393922   0.000000
   87       -2.188788   0.000000
   88       -2.183703   0.000000
   89       -2.073457   0.000000
   90       -2.004532   0.000000
   91       -1.929162   0.000000
   92       -1.896928   0.000000
   93       -1.467818   0.000000
   94       -1.246345   0.000000
   95       -1.087260   0.000000
   96       -1.061279   0.000000
   97       -0.988484   0.000000
   98       -0.917319   0.000000
   99       -0.837390   0.000000
  100       -0.772987   0.000000
  101       -0.702204   0.000000
  102       -0.604985   0.000000
  103       -0.578407   0.000000
  104       -0.548982   0.000000
  105       -0.325340   0.000000
  106       -0.288092   0.000000
  107       -0.243965   0.000000
  108       -0.016878   0.000000
  109        0.160529   0.000000
  110        0.266892   0.000000
  111        0.385932   0.000000
  112        0.524389   0.000000
  113        0.609440   0.000000
  114        0.891717   0.000000
  115        1.036989   0.000000
  116        1.184463   0.000000
  117        1.315053   0.000000
  118        1.756505   0.000000
  119        1.939081   0.000000
  120        2.237237   0.000000
 
  0.2500000E+00  0.1250000E+00  0.0000000E+00  0.3125000E-01
    1      -17.622495   1.000000
    2      -17.055653   1.000000
    3      -16.885843   1.000000
    4      -16.637743   1.000000
    5      -16.475181   1.000000
    6      -16.386483   1.000000
    7      -16.323890   1.000000
    8      -16.226493   1.000000
    9      -16.112585   1.000000
   10      -16.088805   1.000000
   11      -15.968705   1.000000
   12      -15.903612   1.000000
   13      -15.775345   1.000000
   14      -15.738322   1.000000
   15      -15.598582   1.000000
   16      -15.571831   1.000000
   17      -15.358617   1.000000
   18      -15.285459   1.000000
   19       -9.537606   1.000000
   20       -9.372830   1.000000
   21       -9.198712   1.000000
   22       -8.998206   1.000000
   23       -8.853914   1.000000
   24       -8.716150   1.000000
   25       -8.582942   1.000000
   26       -8.510464   1.000000
   27       -8.417284   1.000000
   28       -8.357315   1.000000
   29       -8.252043   1.000000
   30       -8.221037   1.000000
   31       -8.169091   1.000000
   32       -8.070983   1.000000
   33       -7.941462   1.000000
   34       -7.857784   1.000000
   35       -7.767214   1.000000
   36       -7.621189   1.000000
   37       -7.521694   1.000000
   38       -7.433612   1.000000
   39       -7.372115   1.000000
   40       -7.317532   1.000000
   41       -7.202332   1.000000
   42       -7.156138   1.000000
   43       -7.102926   1.000000
   44       -7.049430   1.000000
   45       -6.920888   1.000000
   46       -6.819074   1.000000
   47       -6.760870   1.000000