       N       E                     dE             d eps       ncg     rms          rms(c)
DAV:   1     0.112355015081E+04    0.11236E+04   -0.35868E+04  8160   0.577E+02
DAV:   2    -0.472019044529E+01   -0.11283E+04   -0.10874E+04 11280   0.173E+02
DAV:   3    -0.199940385216E+03   -0.19522E+03   -0.18780E+03 10880   0.819E+01
DAV:   4    -0.208973040193E+03   -0.90327E+01   -0.87626E+01 11880   0.260E+01
DAV:   5    -0.209319966891E+03   -0.34693E+00   -0.34600E+00 11440   0.384E+00    0.275E+01
DAV:   6    -0.237940925655E+03   -0.28621E+02   -0.10705E+02 12560   0.601E+01    0.595E+01
DAV:   7    -0.196566741554E+03    0.41374E+02   -0.17560E+02 13480   0.153E+02    0.200E+01
DAV:   8    -0.189484597030E+03    0.70821E+01   -0.17870E+01 11800   0.127E+01    0.125E+01
DAV:   9    -0.188162140492E+03    0.13225E+01   -0.31209E+00 13520   0.626E+00    0.922E+00
DAV:  10    -0.186957767933E+03    0.12044E+01   -0.17348E+00 13400   0.769E+00    0.215E+00
DAV:  11    -0.187052491702E+03   -0.94724E-01   -0.58191E-01 13600   0.288E+00    0.370E+00
DAV:  12    -0.186994258074E+03    0.58234E-01   -0.74715E-01 12760   0.428E+00    0.361E+00
DAV:  13    -0.186888705609E+03    0.10555E+00   -0.30678E-01 13120   0.302E+00    0.188E+00
DAV:  14    -0.186851011123E+03    0.37694E-01   -0.10324E-01 13240   0.172E+00    0.849E-01
DAV:  15    -0.186849582995E+03    0.14281E-02   -0.28697E-02 12800   0.908E-01    0.853E-01
DAV:  16    -0.186843632812E+03    0.59502E-02   -0.12040E-02 13360   0.560E-01    0.291E-01
DAV:  17    -0.186842321546E+03    0.13113E-02   -0.46571E-03 12640   0.300E-01    0.185E-01
DAV:  18    -0.186842090172E+03    0.23137E-03   -0.18316E-03 11960   0.150E-01    0.131E-01
DAV:  19    -0.186841887406E+03    0.20277E-03   -0.82984E-04 10960   0.903E-02    0.600E-02
DAV:  20    -0.186842626468E+03   -0.73906E-03   -0.68564E-04  9120   0.761E-02    0.561E-02
DAV:  21    -0.186843405097E+03   -0.77863E-03   -0.23341E-04  8240   0.466E-02    0.338E-02
DAV:  22    -0.186844404426E+03   -0.99933E-03   -0.16976E-04  7440   0.414E-02    0.313E-02
DAV:  23    -0.186845567731E+03   -0.11633E-02   -0.10799E-04  7440   0.374E-02    0.121E-02
DAV:  24    -0.186846124379E+03   -0.55665E-03   -0.24532E-05  6800   0.142E-02    0.473E-03
DAV:  25    -0.186846517519E+03   -0.39314E-03   -0.15764E-05  5440   0.936E-03    0.312E-03
DAV:  26    -0.186846761649E+03   -0.24413E-03   -0.91848E-06  6800   0.687E-03    0.159E-03
DAV:  27    -0.186846848284E+03   -0.86635E-04   -0.32170E-06  7560   0.403E-03
   1 F= -.18684685E+03 E0= -.18667584E+03  d E =-.186847E+03
       N       E                     dE             d eps       ncg     rms          rms(c)
DAV:   1    -0.187499007648E+03   -0.65225E+00   -0.27189E+02  8160   0.350E+01    0.460E+00
DAV:   2    -0.189379901590E+03   -0.18809E+01   -0.19912E+01 12240   0.151E+01    0.911E+00
DAV:   3    -0.189353583692E+03    0.26318E-01   -0.46957E+00 12400   0.124E+01    0.635E+00
DAV:   4    -0.188753804193E+03    0.59978E+00   -0.56597E-01 11880   0.452E+00    0.192E+00
DAV:   5    -0.188868319413E+03   -0.11452E+00   -0.44244E-01 11760   0.374E+00    0.527E+00
DAV:   6    -0.188737507082E+03    0.13081E+00   -0.75580E-01 12640   0.434E+00    0.236E+00
DAV:   7    -0.188686060236E+03    0.51447E-01   -0.18439E-01 11880   0.194E+00    0.175E+00
DAV:   8    -0.188683941799E+03    0.21184E-02   -0.11998E-01 12440   0.196E+00    0.187E+00
DAV:   9    -0.188655745061E+03    0.28197E-01   -0.55956E-02 11680   0.120E+00    0.453E-01
DAV:  10    -0.188654811770E+03    0.93329E-03   -0.58208E-03 12880   0.317E-01    0.208E-01
DAV:  11    -0.188654373976E+03    0.43779E-03   -0.21872E-03 12520   0.157E-01    0.154E-01
DAV:  12    -0.188654388801E+03   -0.14826E-04   -0.86724E-04 11200   0.877E-02
   2 F= -.18865439E+03 E0= -.18851552E+03  d E =-.180754E+01
       N       E                     dE             d eps       ncg     rms          rms(c)
DAV:   1    -0.190575898718E+03   -0.19215E+01   -0.31010E+01  9200   0.142E+01    0.445E+00
DAV:   2    -0.190525235449E+03    0.50663E-01   -0.27682E+00 11480   0.944E+00    0.718E+00
DAV:   3    -0.190059487166E+03    0.46575E+00   -0.12890E+00 12320   0.860E+00    0.423E+00
DAV:   4    -0.189848319833E+03    0.21117E+00   -0.67387E-01 13000   0.429E+00    0.251E+00
DAV:   5    -0.189810859294E+03    0.37461E-01   -0.35541E-01 12240   0.299E+00    0.262E+00
DAV:   6    -0.189747230276E+03    0.63629E-01   -0.13455E-01 12720   0.235E+00    0.676E-01
DAV:   7    -0.189742419363E+03    0.48109E-02   -0.13205E-02 11600   0.548E-01    0.344E-01
DAV:   8    -0.189742702155E+03   -0.28279E-03   -0.55951E-03 12640   0.451E-01    0.368E-01
DAV:   9    -0.189741664994E+03    0.10372E-02   -0.22781E-03 11320   0.268E-01    0.113E-01
DAV:  10    -0.189741921572E+03   -0.25658E-03   -0.63400E-04  9920   0.929E-02    0.741E-02
DAV:  11    -0.189741839955E+03    0.81617E-04   -0.21716E-04  7960   0.511E-02
   3 F= -.18974184E+03 E0= -.18962548E+03  d E =-.108745E+01
       N       E                     dE             d eps       ncg     rms          rms(c)
DAV:   1    -0.191317153638E+03   -0.15752E+01   -0.75022E+01  8160   0.198E+01    0.461E+00
DAV:   2    -0.191117899308E+03    0.19925E+00   -0.53267E+00 13400   0.758E+00    0.444E+00
DAV:   3    -0.191311783415E+03   -0.19388E+00   -0.15050E+00 12240   0.911E+00    0.729E+00
DAV:   4    -0.190900350804E+03    0.41143E+00   -0.16847E+00 11880   0.852E+00    0.342E+00
DAV:   5    -0.190902617639E+03   -0.22668E-02   -0.65000E-01 11120   0.534E+00    0.354E+00
DAV:   6    -0.190732466927E+03    0.17015E+00   -0.20943E-01 12120   0.321E+00    0.652E-01
DAV:   7    -0.190732566670E+03   -0.99744E-04   -0.31369E-02 12480   0.760E-01    0.552E-01
DAV:   8    -0.190730277800E+03    0.22889E-02   -0.12127E-02 11680   0.692E-01    0.492E-01
DAV:   9    -0.190728137579E+03    0.21402E-02   -0.42805E-03 11520   0.448E-01    0.168E-01
DAV:  10    -0.190728404118E+03   -0.26654E-03   -0.13829E-03 10960   0.153E-01    0.113E-01
DAV:  11    -0.190728217246E+03    0.18687E-03   -0.63131E-04 10160   0.945E-02    0.429E-02
DAV:  12    -0.190728220480E+03   -0.32333E-05   -0.10128E-04  7120   0.356E-02
   4 F= -.19072822E+03 E0= -.19063063E+03  d E =-.986381E+00
       N       E                     dE             d eps       ncg     rms          rms(c)
DAV:   1    -0.192166248294E+03   -0.14380E+01   -0.17300E+02  8160   0.293E+01    0.580E+00
DAV:   2    -0.191885380433E+03    0.28087E+00   -0.97280E+00 10960   0.804E+00    0.402E+00
DAV:   3    -0.192364083123E+03   -0.47870E+00   -0.27969E+00 12160   0.109E+01    0.858E+00
DAV:   4    -0.191680939211E+03    0.68314E+00   -0.22615E+00 11600   0.108E+01    0.349E+00
DAV:   5    -0.191627318436E+03    0.53621E-01   -0.57404E-01 12200   0.565E+00    0.435E+00
DAV:   6    -0.191473523566E+03    0.15379E+00   -0.61846E-01 12320   0.519E+00    0.166E+00
DAV:   7    -0.191464751570E+03    0.87720E-02   -0.10940E-01 12600   0.199E+00    0.130E+00
DAV:   8    -0.191445843732E+03    0.18908E-01   -0.35479E-02 12320   0.144E+00    0.439E-01
DAV:   9    -0.191443278111E+03    0.25656E-02   -0.68020E-03 11280   0.450E-01    0.192E-01
DAV:  10    -0.191443442508E+03   -0.16440E-03   -0.27767E-03 11560   0.205E-01    0.102E-01
DAV:  11    -0.191443367997E+03    0.74511E-04   -0.58051E-04 10320   0.914E-02
   5 F= -.19144337E+03 E0= -.19135028E+03  d E =-.715148E+00
       N       E                     dE             d eps       ncg     rms          rms(c)
DAV:   1    -0.191522927013E+03   -0.79485E-01   -0.76942E+00  8160   0.582E+00    0.765E-01
DAV:   2    -0.191604173376E+03   -0.81246E-01   -0.34243E-01 13600   0.357E+00    0.249E+00
DAV:   3    -0.191534293728E+03    0.69880E-01   -0.12375E-01 12600   0.271E+00    0.384E-01
DAV:   4    -0.191537862055E+03   -0.35683E-02   -0.15237E-02 11600   0.836E-01    0.759E-01
DAV:   5    -0.191532439548E+03    0.54225E-02   -0.11160E-02 11520   0.748E-01    0.218E-01
DAV:   6    -0.191533273431E+03   -0.83388E-03   -0.39920E-03 11360   0.361E-01    0.332E-01
DAV:   7    -0.191532548516E+03    0.72492E-03   -0.39894E-03 11280   0.440E-01    0.222E-01
DAV:   8    -0.191531989676E+03    0.55884E-03   -0.10514E-03 10440   0.205E-01    0.367E-02
DAV:   9    -0.191532004245E+03   -0.14570E-04   -0.10562E-04  6560   0.400E-02
   6 F= -.19153200E+03 E0= -.19143714E+03  d E =-.886362E-01
       N       E                     dE             d eps       ncg     rms          rms(c)
DAV:   1    -0.191637900378E+03   -0.10591E+00   -0.19598E+01  8160   0.924E+00    0.108E+00
DAV:   2    -0.191776971046E+03   -0.13907E+00   -0.61309E-01 13120   0.455E+00    0.329E+00
DAV:   3    -0.191657829297E+03    0.11914E+00   -0.24063E-01 12400   0.373E+00    0.658E-01
DAV:   4    -0.191666683536E+03   -0.88542E-02   -0.38490E-02 12080   0.135E+00    0.121E+00
DAV:   5    -0.191652660389E+03    0.14023E-01   -0.28079E-02 11680   0.118E+00    0.331E-01
DAV:   6    -0.191655293206E+03   -0.26328E-02   -0.10852E-02 11560   0.642E-01    0.592E-01
DAV:   7    -0.191652639215E+03    0.26540E-02   -0.10229E-02 11600   0.708E-01    0.295E-01
DAV:   8    -0.191651534781E+03    0.11044E-02   -0.21079E-03 10800   0.271E-01    0.525E-02
DAV:   9    -0.191651531042E+03    0.37397E-05   -0.26167E-04  8160   0.571E-02
   7 F= -.19165153E+03 E0= -.19155585E+03  d E =-.119527E+00
       N       E                     dE             d eps       ncg     rms          rms(c)
DAV:   1    -0.191712911071E+03   -0.61376E-01   -0.65089E+00  8160   0.541E+00    0.713E-01
DAV:   2    -0.191763621881E+03   -0.50711E-01   -0.25411E-01 13560   0.290E+00    0.201E+00
DAV:   3    -0.191718480783E+03    0.45141E-01   -0.87808E-02 12440   0.227E+00    0.377E-01
DAV:   4    -0.191721475232E+03   -0.29944E-02   -0.14615E-02 12360   0.824E-01    0.737E-01
DAV:   5    -0.191716236443E+03    0.52388E-02   -0.11470E-02 10960   0.795E-01    0.255E-01
DAV:   6    -0.191715941017E+03    0.29543E-03   -0.32932E-03 10840   0.275E-01    0.147E-01
DAV:   7    -0.191715568561E+03    0.37246E-03   -0.12053E-03 10800   0.155E-01    0.974E-02
DAV:   8    -0.191715546264E+03    0.22297E-04   -0.49770E-04  8840   0.145E-01
   8 F= -.19171555E+03 E0= -.19161960E+03  d E =-.640152E-01
       N       E                     dE             d eps       ncg     rms          rms(c)
DAV:   1    -0.191781225314E+03   -0.65657E-01   -0.10653E+01  8160   0.692E+00    0.746E-01
DAV:   2    -0.191825511410E+03   -0.44286E-01   -0.34348E-01 12360   0.261E+00    0.166E+00
DAV:   3    -0.191799933004E+03    0.25578E-01   -0.89302E-02 12400   0.208E+00    0.670E-01
DAV:   4    -0.191802215271E+03   -0.22823E-02   -0.27160E-02 12400   0.111E+00    0.894E-01
DAV:   5    -0.191794160442E+03    0.80548E-02   -0.16367E-02 12040   0.940E-01    0.271E-01
DAV:   6    -0.191794588297E+03   -0.42785E-03   -0.57252E-03 10360   0.402E-01    0.298E-01
DAV:   7    -0.191794508546E+03    0.79751E-04   -0.50092E-03 11600   0.501E-01    0.340E-01
DAV:   8    -0.191793321530E+03    0.11870E-02   -0.19625E-03 10120   0.303E-01    0.480E-02
DAV:   9    -0.191793310876E+03    0.10655E-04   -0.13035E-04  6120   0.462E-02
   9 F= -.19179331E+03 E0= -.19169810E+03  d E =-.777646E-01
       N       E                     dE             d eps       ncg     rms          rms(c)
DAV:   1    -0.191791532542E+03    0.17890E-02   -0.20253E-01  8160   0.978E-01    0.143E-01
DAV:   2    -0.191791401031E+03    0.13151E-03   -0.55166E-03 10320   0.217E-01    0.106E-01
DAV:   3    -0.191791521585E+03   -0.12055E-03   -0.13625E-03 11000   0.238E-01    0.186E-01
DAV:   4    -0.191791165375E+03    0.35621E-03   -0.79811E-04  8800   0.217E-01    0.801E-02
DAV:   5    -0.191791287044E+03   -0.12167E-03   -0.63233E-04  8680   0.173E-01    0.142E-01
DAV:   6    -0.191791070295E+03    0.21675E-03   -0.42265E-04  8440   0.145E-01    0.267E-02
DAV:   7    -0.191791073977E+03   -0.36822E-05   -0.56361E-05  6240   0.420E-02
  10 F= -.19179107E+03 E0= -.19169566E+03  d E =0.223690E-02
       N       E                     dE             d eps       ncg     rms          rms(c)
DAV:   1    -0.191832524250E+03   -0.41454E-01   -0.31660E+00  8160   0.380E+00    0.411E-01
DAV:   2    -0.191843861365E+03   -0.11337E-01   -0.10114E-01 12040   0.127E+00    0.877E-01
DAV:   3    -0.191838278376E+03    0.55830E-02   -0.27422E-02 12200   0.107E+00    0.447E-01
DAV:   4    -0.191837527319E+03    0.75106E-03   -0.72834E-03 12320   0.575E-01    0.379E-01
DAV:   5    -0.191836000702E+03    0.15266E-02   -0.36642E-03 11280   0.486E-01    0.182E-01
DAV:   6    -0.191836046771E+03   -0.46069E-04   -0.21648E-03 10360   0.278E-01    0.180E-01
DAV:   7    -0.191836008828E+03    0.37944E-04   -0.16332E-03 10240   0.293E-01    0.194E-01
DAV:   8    -0.191835604870E+03    0.40396E-03   -0.61086E-04  8280   0.175E-01    0.252E-02
DAV:   9    -0.191835608047E+03   -0.31768E-05   -0.47799E-05  5800   0.272E-02
  11 F= -.19183561E+03 E0= -.19174093E+03  d E =-.445341E-01
       N       E                     dE             d eps       ncg     rms          rms(c)
DAV:   1    -0.191850528534E+03   -0.14924E-01   -0.34671E-01  8160   0.127E+00    0.162E-01
DAV:   2    -0.191852061385E+03   -0.15329E-02   -0.13441E-02 11800   0.480E-01    0.357E-01
DAV:   3    -0.191851074087E+03    0.98730E-03   -0.41444E-03 11520   0.423E-01    0.172E-01
DAV:   4    -0.191850923153E+03    0.15093E-03   -0.10246E-03  9680   0.214E-01    0.131E-01
DAV:   5    -0.191850768841E+03    0.15431E-03   -0.53833E-04  8760   0.190E-01    0.819E-02
DAV:   6    -0.191850729768E+03    0.39073E-04   -0.32604E-04  7440   0.116E-01
  12 F= -.19185073E+03 E0= -.19175631E+03  d E =-.151217E-01
       N       E                     dE             d eps       ncg     rms          rms(c)
DAV:   1    -0.191903254482E+03   -0.52486E-01   -0.50136E+00  8160   0.482E+00    0.562E-01
DAV:   2    -0.191924656630E+03   -0.21402E-01   -0.17847E-01 11240   0.167E+00    0.130E+00
DAV:   3    -0.191912463724E+03    0.12193E-01   -0.52445E-02 12440   0.149E+00    0.572E-01
DAV:   4    -0.191909398751E+03    0.30650E-02   -0.90196E-03 12240   0.567E-01    0.311E-01
DAV:   5    -0.191908899097E+03    0.49965E-03   -0.46905E-03 11800   0.525E-01    0.313E-01
DAV:   6    -0.191908696013E+03    0.20308E-03   -0.44318E-03 10920   0.473E-01    0.265E-01
DAV:   7    -0.191908239123E+03    0.45689E-03   -0.23088E-03 11200   0.353E-01    0.202E-01
DAV:   8    -0.191907785435E+03    0.45369E-03   -0.76328E-04  8800   0.205E-01    0.335E-02
DAV:   9    -0.191907778589E+03    0.68460E-05   -0.65678E-05  6560   0.362E-02
  13 F= -.19190778E+03 E0= -.19181421E+03  d E =-.570488E-01
       N       E                     dE             d eps       ncg     rms          rms(c)
DAV:   1    -0.191987319109E+03   -0.79534E-01   -0.16045E+01  8160   0.865E+00    0.102E+00
DAV:   2    -0.192073035739E+03   -0.85717E-01   -0.58986E-01 10960   0.319E+00    0.269E+00
DAV:   3    -0.192017204019E+03    0.55832E-01   -0.19715E-01 12320   0.292E+00    0.947E-01
DAV:   4    -0.192011019993E+03    0.61840E-02   -0.31410E-02 12200   0.110E+00    0.743E-01
DAV:   5    -0.192005893970E+03    0.51260E-02   -0.21514E-02 12040   0.113E+00    0.524E-01
DAV:   6    -0.192005572183E+03    0.32179E-03   -0.11926E-02 12480   0.778E-01    0.495E-01
DAV:   7    -0.192004383685E+03    0.11885E-02   -0.85670E-03 11680   0.717E-01    0.377E-01
DAV:   8    -0.192002596017E+03    0.17877E-02   -0.27262E-03 10800   0.391E-01    0.611E-02
DAV:   9    -0.192002569219E+03    0.26798E-04   -0.27922E-04  8640   0.642E-02
  14 F= -.19200257E+03 E0= -.19191042E+03  d E =-.947906E-01
       N       E                     dE             d eps       ncg     rms          rms(c)
DAV:   1    -0.192060417179E+03   -0.57821E-01   -0.19149E+01  8160   0.942E+00    0.115E+00
DAV:   2    -0.192182783905E+03   -0.12237E+00   -0.77932E-01 11320   0.379E+00    0.315E+00
DAV:   3    -0.192102873058E+03    0.79911E-01   -0.25870E-01 12240   0.346E+00    0.107E+00
DAV:   4    -0.192097719243E+03    0.51538E-02   -0.44216E-02 12200   0.148E+00    0.963E-01
DAV:   5    -0.192086528617E+03    0.11191E-01   -0.26353E-02 12400   0.131E+00    0.404E-01
DAV:   6    -0.192086768144E+03   -0.23953E-03   -0.10449E-02 12560   0.630E-01    0.435E-01
DAV:   7    -0.192086599217E+03    0.16893E-03   -0.92418E-03 12440   0.748E-01    0.470E-01
DAV:   8    -0.192084160690E+03    0.24385E-02   -0.36436E-03 11400   0.463E-01    0.684E-02
DAV:   9    -0.192084118674E+03    0.42015E-04   -0.33939E-04  9000   0.710E-02
  15 F= -.19208412E+03 E0= -.19199328E+03  d E =-.815495E-01
       N       E                     dE             d eps       ncg     rms          rms(c)
DAV:   1    -0.192091858264E+03   -0.76976E-02   -0.17697E+00  8160   0.289E+00    0.357E-01
DAV:   2    -0.192096598997E+03   -0.47407E-02   -0.57182E-02 11320   0.945E-01    0.551E-01
DAV:   3    -0.192094798346E+03    0.18007E-02   -0.11755E-02 12040   0.846E-01    0.411E-01
DAV:   4    -0.192093633915E+03    0.11644E-02   -0.41883E-03 11480   0.513E-01    0.290E-01
DAV:   5    -0.192093038985E+03    0.59493E-03   -0.31346E-03 10760   0.448E-01    0.204E-01
DAV:   6    -0.192092816422E+03    0.22256E-03   -0.17180E-03 12480   0.269E-01    0.151E-01
DAV:   7    -0.192092697466E+03    0.11896E-03   -0.90157E-04  9400   0.229E-01    0.119E-01
DAV:   8    -0.192092538313E+03    0.15915E-03   -0.24189E-04  6800   0.116E-01    0.210E-02
DAV:   9    -0.192092543317E+03   -0.50043E-05   -0.39181E-05  6520   0.246E-02
  16 F= -.19209254E+03 E0= -.19200360E+03  d E =-.842464E-02
       N       E                     dE             d eps       ncg     rms          rms(c)
DAV:   1    -0.192124367683E+03   -0.31829E-01   -0.17219E+01  8160   0.895E+00    0.108E+00
DAV:   2    -0.192217906024E+03   -0.93538E-01   -0.64312E-01 11440   0.341E+00    0.267E+00
DAV:   3    -0.192158633121E+03    0.59273E-01   -0.19294E-01 12240   0.316E+00    0.104E+00
DAV:   4    -0.192153097804E+03    0.55353E-02   -0.37491E-02 12120   0.138E+00    0.889E-01
DAV:   5    -0.192143496772E+03    0.96010E-02   -0.22538E-02 12360   0.124E+00    0.378E-01
DAV:   6    -0.192142992292E+03    0.50448E-03   -0.86722E-03 12200   0.538E-01    0.307E-01
DAV:   7    -0.192142580258E+03    0.41203E-03   -0.52706E-03 12080   0.528E-01    0.343E-01
DAV:   8    -0.192141347726E+03    0.12325E-02   -0.20830E-03 10720   0.370E-01    0.743E-02
DAV:   9    -0.192141280760E+03    0.66965E-04   -0.23650E-04  6800   0.735E-02
  17 F= -.19214128E+03 E0= -.19205296E+03  d E =-.487374E-01
       N       E                     dE             d eps       ncg     rms          rms(c)
DAV:   1    -0.192147420944E+03   -0.60732E-02   -0.47039E-01  8160   0.150E+00    0.187E-01
DAV:   2    -0.192148046694E+03   -0.62575E-03   -0.13440E-02 11440   0.384E-01    0.213E-01
DAV:   3    -0.192148229887E+03   -0.18319E-03   -0.29157E-03 12480   0.418E-01    0.261E-01
DAV:   4    -0.192147556710E+03    0.67318E-03   -0.14985E-03 10120   0.295E-01    0.121E-01
DAV:   5    -0.192147513925E+03    0.42785E-04   -0.66548E-04  9520   0.215E-01
  18 F= -.19214751E+03 E0= -.19206006E+03  d E =-.623316E-02
       N       E                     dE             d eps       ncg     rms          rms(c)
DAV:   1    -0.192149719588E+03   -0.21629E-02   -0.30423E-02  8160   0.402E-01    0.873E-02
DAV:   2    -0.192150987584E+03   -0.12680E-02   -0.28180E-03 12760   0.389E-01    0.345E-01
DAV:   3    -0.192149696111E+03    0.12915E-02   -0.15764E-03 10200   0.345E-01    0.496E-02
DAV:   4    -0.192149706079E+03   -0.99677E-05   -0.11889E-04  6560   0.729E-02
  19 F= -.19214971E+03 E0= -.19206222E+03  d E =-.219215E-02
       N       E                     dE             d eps       ncg     rms          rms(c)
DAV:   1    -0.192156477214E+03   -0.67811E-02   -0.33145E-01  8160   0.123E+00    0.159E-01
DAV:   2    -0.192158467626E+03   -0.19904E-02   -0.12332E-02 11240   0.509E-01    0.386E-01
DAV:   3    -0.192157062732E+03    0.14049E-02   -0.36396E-03 12360   0.472E-01    0.146E-01
DAV:   4    -0.192156997039E+03    0.65692E-04   -0.71040E-04  9360   0.190E-01
  20 F= -.19215700E+03 E0= -.19206958E+03  d E =-.729096E-02
       N       E                     dE             d eps       ncg     rms          rms(c)
DAV:   1    -0.192151311454E+03    0.57513E-02   -0.29212E-01  8160   0.119E+00    0.158E-01
DAV:   2    -0.192153464538E+03   -0.21531E-02   -0.12947E-02 12160   0.532E-01    0.368E-01
DAV:   3    -0.192151869606E+03    0.15949E-02   -0.36241E-03 12200   0.496E-01    0.123E-01
DAV:   4    -0.192151960437E+03   -0.90831E-04   -0.80758E-04  8920   0.211E-01
  21 F= -.19215196E+03 E0= -.19206558E+03  d E =0.503660E-02
       N       E                     dE             d eps       ncg     rms          rms(c)
DAV:   1    -0.192162262211E+03   -0.10393E-01   -0.71021E-01  8160   0.182E+00    0.215E-01
DAV:   2    -0.192164928155E+03   -0.26659E-02   -0.23707E-02 12000   0.636E-01    0.386E-01
DAV:   3    -0.192163510635E+03    0.14175E-02   -0.48008E-03 12360   0.569E-01    0.200E-01
DAV:   4    -0.192163525378E+03   -0.14743E-04   -0.14580E-03 10120   0.308E-01    0.220E-01
DAV:   5    -0.192163054837E+03    0.47054E-03   -0.96767E-04 10000   0.252E-01    0.765E-02
DAV:   6    -0.192163034311E+03    0.20526E-04   -0.32142E-04  9040   0.902E-02
  22 F= -.19216303E+03 E0= -.19207656E+03  d E =-.110739E-01
       N       E                     dE             d eps       ncg     rms          rms(c)
DAV:   1    -0.192163706696E+03   -0.65186E-03   -0.25608E-03  8600   0.117E-01    0.232E-02
DAV:   2    -0.192163732802E+03   -0.26106E-04   -0.12447E-04  7400   0.666E-02
  23 F= -.19216373E+03 E0= -.19207748E+03  d E =-.698491E-03
       N       E                     dE             d eps       ncg     rms          rms(c)
DAV:   1    -0.192172669651E+03   -0.89630E-02   -0.58816E-01  8160   0.167E+00    0.195E-01
DAV:   2    -0.192173418694E+03   -0.74904E-03   -0.11624E-02 11480   0.399E-01    0.259E-01
DAV:   3    -0.192173222158E+03    0.19654E-03   -0.29747E-03 11840   0.450E-01    0.245E-01
DAV:   4    -0.192172789196E+03    0.43296E-03   -0.13997E-03 10120   0.288E-01    0.146E-01
DAV:   5    -0.192172636966E+03    0.15223E-03   -0.87207E-04 10040   0.239E-01    0.109E-01
DAV:   6    -0.192172529776E+03    0.10719E-03   -0.36665E-04  8920   0.145E-01    0.514E-02
DAV:   7    -0.192172525050E+03    0.47260E-05   -0.12949E-04  7040   0.926E-02
  24 F= -.19217253E+03 E0= -.19208655E+03  d E =-.879225E-02
       N       E                     dE             d eps       ncg     rms          rms(c)
DAV:   1    -0.192192102255E+03   -0.19572E-01   -0.23127E+00  8160   0.330E+00    0.387E-01
DAV:   2    -0.192195833766E+03   -0.37315E-02   -0.53149E-02 11120   0.825E-01    0.472E-01
DAV:   3    -0.192194507928E+03    0.13258E-02   -0.11172E-02 12600   0.868E-01    0.383E-01
DAV:   4    -0.192193125550E+03    0.13824E-02   -0.35193E-03 12240   0.484E-01    0.229E-01
DAV:   5    -0.192193135746E+03   -0.10197E-04   -0.26336E-03 10720   0.418E-01    0.265E-01
DAV:   6    -0.192192547674E+03    0.58807E-03   -0.16756E-03 10360   0.313E-01    0.101E-01
DAV:   7    -0.192192373695E+03    0.17398E-03   -0.34765E-04  8800   0.965E-02    0.192E-02
DAV:   8    -0.192192373157E+03    0.53798E-06   -0.45657E-05  7440   0.274E-02
  25 F= -.19219237E+03 E0= -.19210633E+03  d E =-.198481E-01
       N       E                     dE             d eps       ncg     rms          rms(c)
DAV:   1    -0.192171680021E+03    0.20694E-01   -0.32123E+00  8160   0.388E+00    0.480E-01
DAV:   2    -0.192182164816E+03   -0.10485E-01   -0.77273E-02 11640   0.141E+00    0.937E-01
DAV:   3    -0.192173644225E+03    0.85206E-02   -0.21878E-02 12240   0.129E+00    0.415E-01
DAV:   4    -0.192173773907E+03   -0.12968E-03   -0.74652E-03 11920   0.675E-01    0.451E-01
DAV:   5    -0.192171691875E+03    0.20820E-02   -0.50085E-03 10760   0.586E-01    0.210E-01
DAV:   6    -0.192171230870E+03    0.46101E-03   -0.17351E-03 10720   0.263E-01    0.101E-01
DAV:   7    -0.192171069747E+03    0.16112E-03   -0.47022E-04 10880   0.120E-01    0.658E-02
DAV:   8    -0.192171041806E+03    0.27941E-04   -0.14465E-04  7360   0.974E-02
  26 F= -.19217104E+03 E0= -.19208464E+03  d E =0.213314E-01
       N       E                     dE             d eps       ncg     rms          rms(c)
DAV:   1    -0.192180059131E+03   -0.89894E-02   -0.41642E-01  8160   0.139E+00    0.187E-01
DAV:   2    -0.192182100679E+03   -0.20415E-02   -0.15209E-02 10720   0.642E-01    0.380E-01
DAV:   3    -0.192180459736E+03    0.16409E-02   -0.38091E-03 12400   0.500E-01    0.133E-01
DAV:   4    -0.192180541161E+03   -0.81425E-04   -0.86972E-04 10160   0.240E-01
  27 F= -.19218054E+03 E0= -.19209453E+03  d E =-.949936E-02
       N       E                     dE             d eps       ncg     rms          rms(c)
DAV:   1    -0.192188338863E+03   -0.78791E-02   -0.31236E-01  8160   0.123E+00    0.175E-01
DAV:   2    -0.192189502271E+03   -0.11634E-02   -0.92143E-03 11440   0.406E-01    0.327E-01
DAV:   3    -0.192188594391E+03    0.90788E-03   -0.30973E-03 12160   0.452E-01    0.177E-01
DAV:   4    -0.192188343059E+03    0.25133E-03   -0.71253E-04  9640   0.174E-01    0.777E-02
DAV:   5    -0.192188275335E+03    0.67725E-04   -0.38995E-04  9520   0.108E-01
  28 F= -.19218828E+03 E0= -.19210207E+03  d E =-.773417E-02
       N       E                     dE             d eps       ncg     rms          rms(c)
DAV:   1    -0.192194353062E+03   -0.60100E-02   -0.20745E-01  8160   0.987E-01    0.145E-01
DAV:   2    -0.192196335217E+03   -0.19822E-02   -0.83424E-03 12360   0.488E-01    0.421E-01
DAV:   3    -0.192194545798E+03    0.17894E-02   -0.29651E-03 12240   0.461E-01    0.979E-02
DAV:   4    -0.192194512956E+03    0.32841E-04   -0.32584E-04  8560   0.117E-01
  29 F= -.19219451E+03 E0= -.19210820E+03  d E =-.623762E-02
       N       E                     dE             d eps       ncg     rms          rms(c)
DAV:   1    -0.192191398324E+03    0.31475E-02   -0.46637E-02  8160   0.491E-01    0.834E-02
DAV:   2    -0.192192478060E+03   -0.10797E-02   -0.31903E-03 11640   0.393E-01    0.282E-01
DAV:   3    -0.192191422401E+03    0.10557E-02   -0.14572E-03 10080   0.325E-01    0.371E-02
DAV:   4    -0.192191449807E+03   -0.27406E-04   -0.86218E-05  5760   0.782E-02
  30 F= -.19219145E+03 E0= -.19210545E+03  d E =0.306315E-02
       N       E                     dE             d eps       ncg     rms          rms(c)
DAV:   1    -0.192182417349E+03    0.90051E-02   -0.55707E-01  8160   0.164E+00    0.247E-01
DAV:   2    -0.192183606676E+03   -0.11893E-02   -0.17894E-02 10840   0.525E-01    0.359E-01
DAV:   3    -0.192182800445E+03    0.80623E-03   -0.52483E-03 11200   0.613E-01    0.280E-01
DAV:   4    -0.192182297170E+03    0.50328E-03   -0.22814E-03 11400   0.363E-01    0.216E-01
DAV:   5    -0.192181831225E+03    0.46594E-03   -0.13615E-03  9880   0.301E-01    0.103E-01
DAV:   6    -0.192181721949E+03    0.10928E-03   -0.38457E-04  8920   0.125E-01    0.446E-02
DAV:   7    -0.192181746935E+03   -0.24986E-04   -0.15354E-04  8200   0.995E-02
  31 F= -.19218175E+03 E0= -.19209599E+03  d E =0.970287E-02
       N       E                     dE             d eps       ncg     rms          rms(c)
DAV:   1    -0.192203134224E+03   -0.21412E-01   -0.23004E+00  8160   0.330E+00    0.410E-01
DAV:   2    -0.192209040970E+03   -0.59067E-02   -0.67688E-02 11120   0.920E-01    0.594E-01
DAV:   3    -0.192206334754E+03    0.27062E-02   -0.15274E-02 11960   0.990E-01    0.436E-01
DAV:   4    -0.192205145064E+03    0.11897E-02   -0.46385E-03 12120   0.559E-01    0.340E-01
DAV:   5    -0.192204064391E+03    0.10807E-02   -0.28710E-03 11360   0.492E-01    0.174E-01
DAV:   6    -0.192203782055E+03    0.28234E-03   -0.99118E-04 10640   0.187E-01    0.630E-02
DAV:   7    -0.192203718312E+03    0.63742E-04   -0.26255E-04  8480   0.887E-02
  32 F= -.19220372E+03 E0= -.19211760E+03  d E =-.219714E-01
       N       E                     dE             d eps       ncg     rms          rms(c)
DAV:   1    -0.192216134986E+03   -0.12353E-01   -0.77658E-01  8160   0.190E+00    0.242E-01
DAV:   2    -0.192219324696E+03   -0.31897E-02   -0.25269E-02 11400   0.678E-01    0.466E-01
DAV:   3    -0.192217153066E+03    0.21716E-02   -0.71413E-03 12560   0.648E-01    0.223E-01
DAV:   4    -0.192217143027E+03    0.10039E-04   -0.16886E-03 10360   0.337E-01    0.216E-01
DAV:   5    -0.192216643759E+03    0.49927E-03   -0.10196E-03 10200   0.294E-01    0.943E-02
DAV:   6    -0.192216604103E+03    0.39656E-04   -0.38358E-04  9160   0.118E-01
  33 F= -.19221660E+03 E0= -.19212983E+03  d E =-.128858E-01
       N       E                     dE             d eps       ncg     rms          rms(c)
DAV:   1    -0.192215135581E+03    0.15082E-02   -0.96234E-03  8160   0.221E-01    0.471E-02
DAV:   2    -0.192215566527E+03   -0.43095E-03   -0.87985E-04 11560   0.232E-01    0.198E-01
DAV:   3    -0.192215120360E+03    0.44617E-03   -0.46942E-04  8640   0.200E-01    0.185E-02
DAV:   4    -0.192215128421E+03   -0.80603E-05   -0.26042E-05  5960   0.272E-02
  34 F= -.19221513E+03 E0= -.19212852E+03  d E =0.147568E-02
       N       E                     dE             d eps       ncg     rms          rms(c)
DAV:   1    -0.192217684807E+03   -0.25644E-02   -0.13775E-01  8160   0.807E-01    0.131E-01
DAV:   2    -0.192218437367E+03   -0.75256E-03   -0.62232E-03 11320   0.391E-01    0.274E-01
DAV:   3    -0.192217680629E+03    0.75674E-03   -0.23111E-03 11480   0.366E-01    0.133E-01
DAV:   4    -0.192217527860E+03    0.15277E-03   -0.52814E-04  8400   0.171E-01    0.787E-02
DAV:   5    -0.192217489323E+03    0.38537E-04   -0.29278E-04  7120   0.130E-01
  35 F= -.19221749E+03 E0= -.19213110E+03  d E =-.236090E-02
       N       E                     dE             d eps       ncg     rms          rms(c)
DAV:   1    -0.192227673624E+03   -0.10146E-01   -0.50988E-01  8160   0.158E+00    0.234E-01
DAV:   2    -0.192229381847E+03   -0.17082E-02   -0.18353E-02 11000   0.535E-01    0.354E-01
DAV:   3    -0.192228053384E+03    0.13285E-02   -0.50107E-03 12440   0.572E-01    0.219E-01
DAV:   4    -0.192227691206E+03    0.36218E-03   -0.16985E-03 10680   0.284E-01    0.157E-01
DAV:   5    -0.192227561949E+03    0.12926E-03   -0.10634E-03 10120   0.273E-01    0.144E-01
DAV:   6    -0.192227360041E+03    0.20191E-03   -0.44536E-04  8560   0.171E-01    0.500E-02
DAV:   7    -0.192227320785E+03    0.39256E-04   -0.12103E-04  6320   0.568E-02
  36 F= -.19222732E+03 E0= -.19214001E+03  d E =-.983146E-02
       N       E                     dE             d eps       ncg     rms          rms(c)
DAV:   1    -0.192238919633E+03   -0.11560E-01   -0.71484E-01  8160   0.181E+00    0.231E-01
DAV:   2    -0.192241822875E+03   -0.29032E-02   -0.23644E-02 10840   0.701E-01    0.440E-01
DAV:   3    -0.192239765406E+03    0.20575E-02   -0.63681E-03 12240   0.610E-01    0.195E-01
DAV:   4    -0.192239845501E+03   -0.80095E-04   -0.15050E-03 10160   0.320E-01    0.218E-01
DAV:   5    -0.192239351011E+03    0.49449E-03   -0.94692E-04  9880   0.285E-01    0.879E-02
DAV:   6    -0.192239311425E+03    0.39586E-04   -0.36427E-04  8880   0.109E-01
  37 F= -.19223931E+03 E0= -.19215132E+03  d E =-.119906E-01
       N       E                     dE             d eps       ncg     rms          rms(c)
DAV:   1    -0.192247533570E+03   -0.81826E-02   -0.38073E-01  8160   0.133E+00    0.170E-01
DAV:   2    -0.192249154350E+03   -0.16208E-02   -0.12644E-02 10920   0.479E-01    0.338E-01
DAV:   3    -0.192248021025E+03    0.11333E-02   -0.37956E-03 12400   0.466E-01    0.158E-01
DAV:   4    -0.192247975677E+03    0.45348E-04   -0.76409E-04  9920   0.224E-01
  38 F= -.19224798E+03 E0= -.19215937E+03  d E =-.866425E-02
       N       E                     dE             d eps       ncg     rms          rms(c)
DAV:   1    -0.192241439361E+03    0.65817E-02   -0.23085E-01  8160   0.107E+00    0.134E-01
DAV:   2    -0.192242893162E+03   -0.14538E-02   -0.80781E-03 11640   0.467E-01    0.309E-01
DAV:   3    -0.192241656591E+03    0.12366E-02   -0.22223E-03 11440   0.418E-01    0.834E-02
DAV:   4    -0.192241693949E+03   -0.37358E-04   -0.37808E-04  8200   0.146E-01
  39 F= -.19224169E+03 E0= -.19215399E+03  d E =0.628173E-02
       N       E                     dE             d eps       ncg     rms          rms(c)
DAV:   1    -0.192249424556E+03   -0.77680E-02   -0.40721E-01  8160   0.137E+00    0.195E-01
DAV:   2    -0.192251627442E+03   -0.22029E-02   -0.17069E-02 11240   0.661E-01    0.405E-01
DAV:   3    -0.192249707753E+03    0.19197E-02   -0.47990E-03 12160   0.540E-01    0.134E-01
DAV:   4    -0.192249799248E+03   -0.91495E-04   -0.10834E-03  9920   0.252E-01    0.179E-01
DAV:   5    -0.192249495200E+03    0.30405E-03   -0.71422E-04  9520   0.241E-01    0.832E-02
DAV:   6    -0.192249430640E+03    0.64560E-04   -0.26206E-04  7320   0.942E-02
  40 F= -.19224943E+03 E0= -.19216140E+03  d E =-.773669E-02
       N       E                     dE             d eps       ncg     rms          rms(c)
DAV:   1    -0.192253518719E+03   -0.40235E-02   -0.85611E-02  8160   0.651E-01    0.113E-01
DAV:   2    -0.192253615853E+03   -0.97135E-04   -0.32401E-03 10280   0.215E-01    0.155E-01
DAV:   3    -0.192253527173E+03    0.88681E-04   -0.13556E-03 11000   0.276E-01    0.151E-01
DAV:   4    -0.192253295643E+03    0.23153E-03   -0.41067E-04  8240   0.165E-01    0.577E-02
DAV:   5    -0.192253275029E+03    0.20614E-04   -0.20493E-04  7480   0.110E-01
  41 F= -.19225328E+03 E0= -.19216482E+03  d E =-.384439E-02
       N       E                     dE             d eps       ncg     rms          rms(c)
DAV:   1    -0.192266829933E+03   -0.13534E-01   -0.12300E+00  8160   0.238E+00    0.304E-01
DAV:   2    -0.192272612412E+03   -0.57825E-02   -0.41271E-02 11200   0.897E-01    0.651E-01
DAV:   3    -0.192268241480E+03    0.43709E-02   -0.13647E-02 12520   0.862E-01    0.269E-01
DAV:   4    -0.192268094797E+03    0.14668E-03   -0.23100E-03 10640   0.393E-01    0.247E-01
DAV:   5    -0.192267387919E+03    0.70688E-03   -0.13935E-03 10320   0.347E-01    0.107E-01
DAV:   6    -0.192267321565E+03    0.66354E-04   -0.61450E-04 10520   0.143E-01
  42 F= -.19226732E+03 E0= -.19217753E+03  d E =-.140465E-01
       N       E                     dE             d eps       ncg     rms          rms(c)
DAV:   1    -0.192283365186E+03   -0.15977E-01   -0.25900E+00  8160   0.343E+00    0.416E-01
DAV:   2    -0.192291956684E+03   -0.85915E-02   -0.83217E-02 11160   0.108E+00    0.678E-01
DAV:   3    -0.192287536235E+03    0.44204E-02   -0.21572E-02 12440   0.106E+00    0.398E-01
DAV:   4    -0.192287058789E+03    0.47745E-03   -0.53014E-03 12360   0.567E-01    0.359E-01
DAV:   5    -0.192285739788E+03    0.13190E-02   -0.28489E-03 10200   0.488E-01    0.164E-01
DAV:   6    -0.192285635566E+03    0.10422E-03   -0.13953E-03 10400   0.210E-01    0.102E-01
DAV:   7    -0.192285422028E+03    0.21354E-03   -0.47953E-04 10640   0.100E-01    0.364E-02
DAV:   8    -0.192285424953E+03   -0.29253E-05   -0.64839E-05  7280   0.715E-02
  43 F= -.19228542E+03 E0= -.19219472E+03  d E =-.181034E-01
       N       E                     dE             d eps       ncg     rms          rms(c)
DAV:   1    -0.192296027446E+03   -0.10605E-01   -0.14666E+00  8160   0.257E+00    0.319E-01
DAV:   2    -0.192302332364E+03   -0.63049E-02   -0.52519E-02 11080   0.101E+00    0.614E-01
DAV:   3    -0.192298245587E+03    0.40868E-02   -0.14622E-02 12440   0.869E-01    0.277E-01
DAV:   4    -0.192298134788E+03    0.11080E-03   -0.30181E-03 11400   0.431E-01    0.266E-01
DAV:   5    -0.192297440741E+03    0.69405E-03   -0.16932E-03  9920   0.373E-01    0.135E-01
DAV:   6    -0.192297298328E+03    0.14241E-03   -0.80065E-04 10560   0.172E-01    0.705E-02
DAV:   7    -0.192297242990E+03    0.55338E-04   -0.28095E-04  8720   0.933E-02
  44 F= -.19229724E+03 E0= -.19220670E+03  d E =-.118180E-01
       N       E                     dE             d eps       ncg     rms          rms(c)
DAV:   1    -0.192300560154E+03   -0.32618E-02   -0.17442E-01  8160   0.895E-01    0.112E-01
DAV:   2    -0.192300943939E+03   -0.38378E-03   -0.68334E-03 11560   0.242E-01    0.959E-02
DAV:   3    -0.192301054011E+03   -0.11007E-03   -0.10950E-03 10920   0.223E-01    0.151E-01
DAV:   4    -0.192300816180E+03    0.23783E-03   -0.48815E-04  8800   0.185E-01    0.590E-02
DAV:   5    -0.192300786031E+03    0.30148E-04   -0.11936E-04  5880   0.751E-02
  45 F= -.19230079E+03 E0= -.19221018E+03  d E =-.354304E-02
       N       E                     dE             d eps       ncg     rms          rms(c)
DAV:   1    -0.192305120575E+03   -0.43044E-02   -0.30676E-01  8160   0.118E+00    0.136E-01
DAV:   2    -0.192305967236E+03   -0.84666E-03   -0.97415E-03 11080   0.346E-01    0.194E-01
DAV:   3    -0.192305778148E+03    0.18909E-03   -0.18665E-03 11960   0.336E-01    0.157E-01
DAV:   4    -0.192305545957E+03    0.23219E-03   -0.52066E-04  8560   0.182E-01    0.689E-02
DAV:   5    -0.192305531739E+03    0.14218E-04   -0.22072E-04  7720   0.129E-01
  46 F= -.19230553E+03 E0= -.19221535E+03  d E =-.474571E-02
       N       E                     dE             d eps       ncg     rms          rms(c)
DAV:   1    -0.192307756689E+03   -0.22107E-02   -0.80146E-02  8160   0.609E-01    0.965E-02
DAV:   2    -0.192308378364E+03   -0.62168E-03   -0.34601E-03 10840   0.330E-01    0.219E-01
DAV:   3    -0.192307782681E+03    0.59568E-03   -0.10255E-03 10320   0.281E-01    0.574E-02
DAV:   4    -0.192307848387E+03   -0.65705E-04   -0.21379E-04  8640   0.126E-01
  47 F= -.19230785E+03 E0= -.19221804E+03  d E =-.231665E-02
       N       E                     dE             d eps       ncg     rms          rms(c)
DAV:   1    -0.192311543397E+03   -0.37607E-02   -0.29963E-01  8160   0.117E+00    0.135E-01
DAV:   2    -0.192312208562E+03   -0.66517E-03   -0.91021E-03 12120   0.317E-01    0.155E-01
DAV:   3    -0.192312209034E+03   -0.47111E-06   -0.18438E-03 11920   0.307E-01    0.169E-01
DAV:   4    -0.192311955726E+03    0.25331E-03   -0.65426E-04  9080   0.202E-01    0.885E-02
DAV:   5    -0.192311905161E+03    0.50565E-04   -0.26331E-04  8480   0.143E-01
  48 F= -.19231191E+03 E0= -.19222251E+03  d E =-.405677E-02
       N       E                     dE             d eps       ncg     rms          rms(c)
DAV:   1    -0.192315734394E+03   -0.37787E-02   -0.34913E-01  8160   0.126E+00    0.156E-01
DAV:   2    -0.192316876761E+03   -0.11424E-02   -0.12077E-02 11440   0.428E-01    0.234E-01
DAV:   3    -0.192316339503E+03    0.53726E-03   -0.23061E-03 12400   0.384E-01    0.125E-01
DAV:   4    -0.192316166683E+03    0.17282E-03   -0.47426E-04  8720   0.151E-01    0.752E-02
DAV:   5    -0.192316206822E+03   -0.40139E-04   -0.35364E-04  8960   0.162E-01
  49 F= -.19231621E+03 E0= -.19222763E+03  d E =-.430166E-02
       N       E                     dE             d eps       ncg     rms          rms(c)
DAV:   1    -0.192319611137E+03   -0.34445E-02   -0.35829E-01  8160   0.128E+00    0.146E-01
DAV:   2    -0.192320453276E+03   -0.84214E-03   -0.11340E-02 11920   0.336E-01    0.170E-01
DAV:   3    -0.192320462081E+03   -0.88049E-05   -0.22620E-03 12440   0.349E-01    0.183E-01
DAV:   4    -0.192320133154E+03    0.32893E-03   -0.71795E-04  8560   0.213E-01    0.885E-02
DAV:   5    -0.192320092377E+03    0.40777E-04   -0.28261E-04  8440   0.149E-01
  50 F= -.19232009E+03 E0= -.19223226E+03  d E =-.388555E-02
       N       E                     dE             d eps       ncg     rms          rms(c)
DAV:   1    -0.192323368485E+03   -0.32353E-02   -0.37562E-01  8160   0.131E+00    0.153E-01
DAV:   2    -0.192324344082E+03   -0.97560E-03   -0.11847E-02 11440   0.388E-01    0.196E-01
DAV:   3    -0.192324089761E+03    0.25432E-03   -0.17738E-03 12320   0.360E-01    0.142E-01
DAV:   4    -0.192323868326E+03    0.22144E-03   -0.48424E-04  9160   0.179E-01    0.783E-02
DAV:   5    -0.192323895789E+03   -0.27463E-04   -0.38352E-04  9200   0.158E-01
  51 F= -.19232390E+03 E0= -.19223696E+03  d E =-.380341E-02
       N       E                     dE             d eps       ncg     rms          rms(c)
DAV:   1    -0.192328167321E+03   -0.42990E-02   -0.14313E+00  8160   0.254E+00    0.285E-01
DAV:   2    -0.192331866853E+03   -0.36995E-02   -0.45630E-02 12160   0.722E-01    0.341E-01
DAV:   3    -0.192331582966E+03    0.28389E-03   -0.64381E-03 11880   0.662E-01    0.329E-01
DAV:   4    -0.192330624005E+03    0.95896E-03   -0.27082E-03 10840   0.419E-01    0.190E-01
DAV:   5    -0.192330328698E+03    0.29531E-03   -0.13434E-03 10280   0.278E-01    0.118E-01
DAV:   6    -0.192330304119E+03    0.24579E-04   -0.68063E-04 10320   0.181E-01
  52 F= -.19233030E+03 E0= -.19224580E+03  d E =-.640833E-02
       N       E                     dE             d eps       ncg     rms          rms(c)
DAV:   1    -0.192330605489E+03   -0.27679E-03   -0.23010E-02  8320   0.335E-01    0.679E-02
DAV:   2    -0.192330809759E+03   -0.20427E-03   -0.13465E-03 12520   0.216E-01    0.154E-01
DAV:   3    -0.192330555822E+03    0.25394E-03   -0.54716E-04  8600   0.198E-01    0.517E-02
DAV:   4    -0.192330523123E+03    0.32699E-04   -0.80600E-05  6080   0.694E-02
  53 F= -.19233052E+03 E0= -.19224596E+03  d E =-.219004E-03
       N       E                     dE             d eps       ncg     rms          rms(c)
DAV:   1    -0.192331978847E+03   -0.14230E-02   -0.10902E-01  8160   0.706E-01    0.953E-02
DAV:   2    -0.192332837688E+03   -0.85884E-03   -0.43289E-03 12960   0.344E-01    0.241E-01
DAV:   3    -0.192332131184E+03    0.70650E-03   -0.11851E-03 11040   0.298E-01    0.688E-02
DAV:   4    -0.192332136967E+03   -0.57825E-05   -0.18465E-04  7280   0.110E-01
  54 F= -.19233214E+03 E0= -.19224831E+03  d E =-.161384E-02
       N       E                     dE             d eps       ncg     rms          rms(c)
DAV:   1    -0.192332251201E+03   -0.12002E-03   -0.12165E-03  8640   0.121E-01    0.359E-02
DAV:   2    -0.192332391720E+03   -0.14052E-03   -0.30975E-04  9440   0.143E-01    0.108E-01
DAV:   3    -0.192332239442E+03    0.15228E-03   -0.19968E-04  7760   0.129E-01    0.256E-02
DAV:   4    -0.192332240078E+03   -0.63560E-06   -0.26186E-05  6000   0.379E-02
  55 F= -.19233224E+03 E0= -.19224851E+03  d E =-.103111E-03
       N       E                     dE             d eps       ncg     rms          rms(c)
DAV:   1    -0.192333582645E+03   -0.13432E-02   -0.98882E-02  8160   0.671E-01    0.912E-02
DAV:   2    -0.192334000515E+03   -0.41787E-03   -0.38051E-03 12520   0.283E-01    0.154E-01
DAV:   3    -0.192333703354E+03    0.29716E-03   -0.79812E-04 11040   0.232E-01    0.652E-02
DAV:   4    -0.192333674863E+03    0.28491E-04   -0.14819E-04  7080   0.914E-02
  56 F= -.19233367E+03 E0= -.19225079E+03  d E =-.143479E-02
       N       E                     dE             d eps       ncg     rms          rms(c)
DAV:   1    -0.192334861403E+03   -0.11580E-02   -0.88504E-02  8160   0.639E-01    0.921E-02
DAV:   2    -0.192335437222E+03   -0.57582E-03   -0.32524E-03 13320   0.286E-01    0.209E-01
DAV:   3    -0.192334954456E+03    0.48277E-03   -0.92642E-04 10240   0.274E-01    0.710E-02
DAV:   4    -0.192334919031E+03    0.35425E-04   -0.11523E-04  5920   0.726E-02
  57 F= -.19233492E+03 E0= -.19225280E+03  d E =-.124417E-02
       N       E                     dE             d eps       ncg     rms          rms(c)
DAV:   1    -0.192335785944E+03   -0.83149E-03   -0.51211E-02  8160   0.486E-01    0.643E-02
DAV:   2    -0.192335971607E+03   -0.18566E-03   -0.16780E-03 12880   0.168E-01    0.112E-01
DAV:   3    -0.192335863151E+03    0.10846E-03   -0.38952E-04  9000   0.167E-01    0.625E-02
DAV:   4    -0.192335829498E+03    0.33653E-04   -0.79519E-05  6080   0.717E-02
  58 F= -.19233583E+03 E0= -.19225410E+03  d E =-.910467E-03
       N       E                     dE             d eps       ncg     rms          rms(c)
DAV:   1    -0.192337611653E+03   -0.17485E-02   -0.40465E-01  8160   0.136E+00    0.153E-01
DAV:   2    -0.192338511559E+03   -0.89991E-03   -0.12412E-02 12160   0.330E-01    0.153E-01
DAV:   3    -0.192338584609E+03   -0.73050E-04   -0.16538E-03 12360   0.337E-01    0.187E-01
DAV:   4    -0.192338220757E+03    0.36385E-03   -0.57980E-04  9600   0.226E-01    0.807E-02
DAV:   5    -0.192338191375E+03    0.29382E-04   -0.31691E-04  8400   0.134E-01
  59 F= -.19233819E+03 E0= -.19225791E+03  d E =-.236188E-02
       N       E                     dE             d eps       ncg     rms          rms(c)
DAV:   1    -0.192338631858E+03   -0.41110E-03   -0.19482E-02  8240   0.316E-01    0.729E-02
DAV:   2    -0.192339174231E+03   -0.54237E-03   -0.16884E-03 11720   0.315E-01    0.206E-01
DAV:   3    -0.192338580396E+03    0.59384E-03   -0.76903E-04  9680   0.250E-01    0.317E-02
DAV:   4    -0.192338600334E+03   -0.19939E-04   -0.76970E-05  5840   0.640E-02
  60 F= -.19233860E+03 E0= -.19225859E+03  d E =-.408960E-03
