 vasp.5.4.1 05Feb16 (build Jul 05 2020 17:13:04) complex                        
  
 executed on           IFC91_ompi date 2024.08.02  06:28:30
 running on   40 total cores
 distrk:  each k-point on   40 cores,    1 groups
 distr:  one band on NCORES_PER_BAND=   1 cores,   40 groups


--------------------------------------------------------------------------------------------------------


 INCAR:
 POTCAR:   PAW_PBE V 08Apr2002                    
 POTCAR:   PAW_PBE Mo 08Apr2002                   
 POTCAR:   PAW_PBE W 08Apr2002                    
 POTCAR:    PAW_PBE S 17Jan2003                   

 ----------------------------------------------------------------------------- 
|                                                                             |
|           W    W    AA    RRRRR   N    N  II  N    N   GGGG   !!!           |
|           W    W   A  A   R    R  NN   N  II  NN   N  G    G  !!!           |
|           W    W  A    A  R    R  N N  N  II  N N  N  G       !!!           |
|           W WW W  AAAAAA  RRRRR   N  N N  II  N  N N  G  GGG   !            |
|           WW  WW  A    A  R   R   N   NN  II  N   NN  G    G                |
|           W    W  A    A  R    R  N    N  II  N    N   GGGG   !!!           |
|                                                                             |
|      For optimal performance we recommend to set                            |
|        NCORE= 4 - approx SQRT( number of cores)                             |
|      NCORE specifies how many cores store one orbital (NPAR=cpu/NCORE).     |
|      This setting can  greatly improve the performance of VASP for DFT.     |
|      The default, NPAR=number of cores might be grossly inefficient         |
|      on modern multi-core architectures or massively parallel machines.     |
|      Do your own testing !!!!                                               |
|      Unfortunately you need to use the default for GW and RPA calculations. |
|      (for HF NCORE is supported but not extensively tested yet)             |
|                                                                             |
 ----------------------------------------------------------------------------- 

 POTCAR:   PAW_PBE V 08Apr2002                    
   VRHFIN =V: p6 d4 s1                                                          
   LEXCH  = PE                                                                  
   EATOM  =   170.8679 eV,   12.5584 Ry                                         
                                                                                
   TITEL  = PAW_PBE V 08Apr2002                                                 
   LULTRA =        F    use ultrasoft PP ?                                      
   IUNSCR =        1    unscreen: 0-lin 1-nonlin 2-no                           
   RPACOR =    2.000    partial core radius                                     
   POMASS =   50.941; ZVAL   =    5.000    mass and valenz                      
   RCORE  =    2.700    outmost cutoff radius                                   
   RWIGS  =    2.500; RWIGS  =    1.323    wigner-seitz radius (au A)           
   ENMAX  =  192.543; ENMIN  =  144.408 eV                                      
   RCLOC  =    1.779    cutoff for local pot                                    
   LCOR   =        T    correct aug charges                                     
   LPAW   =        T    paw PP                                                  
   EAUG   =  358.662                                                            
   DEXC   =    -.034                                                            
   RMAX   =    3.323    core radius for proj-oper                               
   RAUG   =    1.300    factor for augmentation sphere                          
   RDEP   =    2.762    radius for radial grids                                 
   QCUT   =   -3.762; QGAM   =    7.524    optimization parameters              
                                                                                
   Description                                                                  
     l     E      TYP  RCUT    TYP  RCUT                                        
     2   .000     23  2.700                                                     
     2   .000     23  2.700                                                     
     0   .000     23  2.700                                                     
     0  2.000     23  2.700                                                     
     1   .000     23  2.700                                                     
     1  2.000     23  2.700                                                     
     3   .000      7   .000                                                     
  local pseudopotential read in
  partial core-charges read in
  atomic valenz-charges read in
  non local Contribution for L=           2  read in
    real space projection operators read in
  non local Contribution for L=           2  read in
    real space projection operators read in
  non local Contribution for L=           0  read in
    real space projection operators read in
  non local Contribution for L=           0  read in
    real space projection operators read in
  non local Contribution for L=           1  read in
    real space projection operators read in
  non local Contribution for L=           1  read in
    real space projection operators read in
    PAW grid and wavefunctions read in
 
   number of l-projection  operators is LMAX  =           6
   number of lm-projection operators is LMMAX =          18
 
 POTCAR:   PAW_PBE Mo 08Apr2002                   
   VRHFIN =Mo: 4p5s4d                                                           
   LEXCH  = PE                                                                  
   EATOM  =   217.5180 eV,   15.9871 Ry                                         
                                                                                
   TITEL  = PAW_PBE Mo 08Apr2002                                                
   LULTRA =        F    use ultrasoft PP ?                                      
   IUNSCR =        1    unscreen: 0-lin 1-nonlin 2-no                           
   RPACOR =    2.200    partial core radius                                     
   POMASS =   95.940; ZVAL   =    6.000    mass and valenz                      
   RCORE  =    2.750    outmost cutoff radius                                   
   RWIGS  =    2.750; RWIGS  =    1.455    wigner-seitz radius (au A)           
   ENMAX  =  224.584; ENMIN  =  168.438 eV                                      
   RCLOC  =    2.111    cutoff for local pot                                    
   LCOR   =        T    correct aug charges                                     
   LPAW   =        T    paw PP                                                  
   EAUG   =  345.278                                                            
   DEXC   =    -.088                                                            
   RMAX   =    3.077    core radius for proj-oper                               
   RAUG   =    1.300    factor for augmentation sphere                          
   RDEP   =    2.815    radius for radial grids                                 
   QCUT   =   -4.063; QGAM   =    8.126    optimization parameters              
                                                                                
   Description                                                                  
     l     E      TYP  RCUT    TYP  RCUT                                        
     2   .000     23  2.500                                                     
     2   .000     23  2.500                                                     
     0   .000     23  2.600                                                     
     0  1.000     23  2.600                                                     
     1   .400     23  2.750                                                     
     1  2.000     23  2.750                                                     
     3   .000      7   .000                                                     
  local pseudopotential read in
  partial core-charges read in
  atomic valenz-charges read in
  non local Contribution for L=           2  read in
    real space projection operators read in
  non local Contribution for L=           2  read in
    real space projection operators read in
  non local Contribution for L=           0  read in
    real space projection operators read in
  non local Contribution for L=           0  read in
    real space projection operators read in
  non local Contribution for L=           1  read in
    real space projection operators read in
  non local Contribution for L=           1  read in
    real space projection operators read in
    PAW grid and wavefunctions read in
 
   number of l-projection  operators is LMAX  =           6
   number of lm-projection operators is LMMAX =          18
 
 POTCAR:   PAW_PBE W 08Apr2002                    
   VRHFIN =W : 6s5d                                                             
   LEXCH  = PE                                                                  
   EATOM  =   204.6100 eV,   15.0384 Ry                                         
                                                                                
   TITEL  = PAW_PBE W 08Apr2002                                                 
   LULTRA =        F    use ultrasoft PP ?                                      
   IUNSCR =        1    unscreen: 0-lin 1-nonlin 2-no                           
   RPACOR =    2.330    partial core radius                                     
   POMASS =  183.850; ZVAL   =    6.000    mass and valenz                      
   RCORE  =    2.750    outmost cutoff radius                                   
   RWIGS  =    2.750; RWIGS  =    1.455    wigner-seitz radius (au A)           
   ENMAX  =  223.057; ENMIN  =  167.293 eV                                      
   RCLOC  =    2.147    cutoff for local pot                                    
   LCOR   =        T    correct aug charges                                     
   LPAW   =        T    paw PP                                                  
   EAUG   =  373.438                                                            
   DEXC   =    -.060                                                            
   RMAX   =    3.087    core radius for proj-oper                               
   RAUG   =    1.300    factor for augmentation sphere                          
   RDEP   =    2.886    radius for radial grids                                 
   QCUT   =   -4.049; QGAM   =    8.098    optimization parameters              
                                                                                
   Description                                                                  
     l     E      TYP  RCUT    TYP  RCUT                                        
     2   .000     23  2.500                                                     
     2   .000     23  2.500                                                     
     0   .000     23  2.500                                                     
     0   .000     23  2.500                                                     
     1   .200     23  2.750                                                     
     1  2.000     23  2.750                                                     
     3   .000      7   .000                                                     
  local pseudopotential read in
  partial core-charges read in
  atomic valenz-charges read in
  non local Contribution for L=           2  read in
    real space projection operators read in
  non local Contribution for L=           2  read in
    real space projection operators read in
  non local Contribution for L=           0  read in
    real space projection operators read in
  non local Contribution for L=           0  read in
    real space projection operators read in
  non local Contribution for L=           1  read in
    real space projection operators read in
  non local Contribution for L=           1  read in
    real space projection operators read in
    PAW grid and wavefunctions read in
 
   number of l-projection  operators is LMAX  =           6
   number of lm-projection operators is LMMAX =          18
 
 POTCAR:    PAW_PBE S 17Jan2003                   
   VRHFIN =S : s2p4                                                             
   LEXCH  = PE                                                                  
   EATOM  =   276.8230 eV,   20.3459 Ry                                         
                                                                                
   TITEL  = PAW_PBE S 17Jan2003                                                 
   LULTRA =        F    use ultrasoft PP ?                                      
   IUNSCR =        1    unscreen: 0-lin 1-nonlin 2-no                           
   RPACOR =    1.500    partial core radius                                     
   POMASS =   32.066; ZVAL   =    6.000    mass and valenz                      
   RCORE  =    1.900    outmost cutoff radius                                   
   RWIGS  =    2.200; RWIGS  =    1.164    wigner-seitz radius (au A)           
   ENMAX  =  280.000; ENMIN  =  194.016 eV                                      
   ICORE  =        2    local potential                                         
   LCOR   =        T    correct aug charges                                     
   LPAW   =        T    paw PP                                                  
   EAUG   =  335.092                                                            
   DEXC   =     .000                                                            
   RMAX   =    2.867    core radius for proj-oper                               
   RAUG   =    1.300    factor for augmentation sphere                          
   RDEP   =    1.954    radius for radial grids                                 
   QCUT   =   -4.360; QGAM   =    8.721    optimization parameters              
                                                                                
   Description                                                                  
     l     E      TYP  RCUT    TYP  RCUT                                        
     0   .000     23  1.900                                                     
     0   .000     23  1.900                                                     
     1   .000     23  1.900                                                     
     1   .000     23  1.900                                                     
     2   .000     23  1.900                                                     
  local pseudopotential read in
  partial core-charges read in
  atomic valenz-charges read in
  non local Contribution for L=           0  read in
    real space projection operators read in
  non local Contribution for L=           0  read in
    real space projection operators read in
  non local Contribution for L=           1  read in
    real space projection operators read in
  non local Contribution for L=           1  read in
    real space projection operators read in
    PAW grid and wavefunctions read in
 
   number of l-projection  operators is LMAX  =           4
   number of lm-projection operators is LMMAX =           8
 

 ----------------------------------------------------------------------------- 
|                                                                             |
|  ADVICE TO THIS USER RUNNING 'VASP/VAMP'   (HEAR YOUR MASTER'S VOICE ...):  |
|                                                                             |
|      You have a (more or less) 'large supercell' and for larger cells       |
|      it might be more efficient to use real space projection operators      |
|      So try LREAL= Auto  in the INCAR   file.                               |
|      Mind: If you want to do a very accurate calculations keep the          |
|      reciprocal projection scheme          (i.e. LREAL=.FALSE.)             |
|                                                                             |
 ----------------------------------------------------------------------------- 

 PAW_PBE V 08Apr2002                    :
 energy of atom  1       EATOM= -170.8679
 kinetic energy error for atom=    0.0047 (will be added to EATOM!!)
 PAW_PBE Mo 08Apr2002                   :
 energy of atom  2       EATOM= -217.5180
 kinetic energy error for atom=    0.0215 (will be added to EATOM!!)
 PAW_PBE W 08Apr2002                    :
 energy of atom  3       EATOM= -204.6100
 kinetic energy error for atom=    0.0205 (will be added to EATOM!!)
  PAW_PBE S 17Jan2003                   :
 energy of atom  4       EATOM= -276.8230
 kinetic energy error for atom=    0.0122 (will be added to EATOM!!)
 
 
 POSCAR: crystal structure from VMoWS2 with Hexag
  positions in cartesian coordinates
  No initial velocities read in
 exchange correlation table for  LEXCH =        8
   RHO(1)=    0.500       N(1)  =     2000
   RHO(2)=  100.500       N(2)  =     4000
 


--------------------------------------------------------------------------------------------------------


 ion  position               nearest neighbor table
   1  0.333  0.000  0.000-  11 2.34  20 2.34  17 2.36  16 2.36  15 2.36  14 2.36
   2  0.333  0.333  0.000-  13 2.34  16 2.34  19 2.36  18 2.36  11 2.36  10 2.36
   3  0.000  0.000  0.000-  23 2.34  14 2.34  11 2.36  10 2.36  27 2.36  26 2.36
   4  0.667  0.333  0.000-  19 2.34  22 2.34  25 2.36  24 2.36  17 2.36  16 2.36   7 3.34   5 3.34
                             6 3.34   8 3.36
   5  0.667  0.667  0.000-  21 2.34  24 2.34  27 2.36  26 2.36  19 2.36  18 2.36   8 3.34   6 3.34
                             4 3.34   9 3.34
   6  0.667  0.000  0.000-  17 2.34  26 2.34  23 2.36  22 2.36  21 2.36  20 2.36   5 3.34   4 3.34
                             7 3.36   9 3.36
   7  1.000  0.333  0.000-  25 2.34  10 2.34  13 2.36  12 2.36  22 2.36  23 2.36   4 3.34   8 3.34
                             6 3.36   9 3.36
   8  0.000  0.667  0.000-  27 2.34  12 2.34  14 2.36  15 2.36  24 2.36  25 2.36   5 3.34   7 3.34
                             9 3.34   4 3.36
   9  0.333  0.667  0.000-  15 2.34  18 2.34  20 2.36  21 2.36  13 2.36  12 2.36   8 3.34   5 3.34
                             6 3.36   7 3.36
  10  0.111  0.222  0.955-   7 2.34   3 2.36   2 2.36
  11  0.222  0.111  0.045-   1 2.34   3 2.36   2 2.36
  12  0.111  0.556  0.955-   8 2.34   7 2.36   9 2.36
  13  0.222  0.444  0.045-   2 2.34   7 2.36   9 2.36
  14  0.111  0.889  0.955-   3 2.34   8 2.36   1 2.36
  15  0.222  0.777  0.045-   9 2.34   8 2.36   1 2.36
  16  0.444  0.222  0.955-   2 2.34   1 2.36   4 2.36
  17  0.556  0.111  0.045-   6 2.34   1 2.36   4 2.36
  18  0.444  0.556  0.955-   9 2.34   2 2.36   5 2.36
  19  0.556  0.444  0.045-   4 2.34   2 2.36   5 2.36
  20  0.444  0.889  0.955-   1 2.34   9 2.36   6 2.36
  21  0.556  0.777  0.045-   5 2.34   9 2.36   6 2.36
  22  0.777  0.222  0.955-   4 2.34   6 2.36   7 2.36
  23  0.889  0.111  0.045-   3 2.34   6 2.36   7 2.36
  24  0.777  0.556  0.955-   5 2.34   4 2.36   8 2.36
  25  0.889  0.444  0.045-   7 2.34   4 2.36   8 2.36
  26  0.777  0.889  0.955-   6 2.34   5 2.36   3 2.36
  27  0.889  0.777  0.045-   8 2.34   5 2.36   3 2.36
 

IMPORTANT INFORMATION: All symmetrisations will be switched off!
NOSYMM: (Re-)initialisation of all symmetry stuff for point group C_1.

 
 
 KPOINTS: K-POINTS 	#supercell of CrS2 in hexagona

Automatic generation of k-mesh.
Space group operators:
 irot       det(A)        alpha          n_x          n_y          n_z        tau_x        tau_y        tau_z
    1     1.000000     0.000000     1.000000     0.000000     0.000000     0.000000     0.000000     0.000000
 
 Subroutine IBZKPT returns following result:
 ===========================================
 
 Found     34 irreducible k-points:
 
 Following reciprocal coordinates:
            Coordinates               Weight
  0.000000  0.000000  0.000000      1.000000
  0.125000  0.000000  0.000000      2.000000
  0.250000  0.000000  0.000000      2.000000
  0.375000  0.000000  0.000000      2.000000
  0.500000  0.000000  0.000000      1.000000
  0.000000  0.125000  0.000000      2.000000
  0.125000  0.125000  0.000000      2.000000
  0.250000  0.125000  0.000000      2.000000
  0.375000  0.125000  0.000000      2.000000
  0.500000  0.125000  0.000000      2.000000
 -0.375000  0.125000  0.000000      2.000000
 -0.250000  0.125000  0.000000      2.000000
 -0.125000  0.125000  0.000000      2.000000
  0.000000  0.250000  0.000000      2.000000
  0.125000  0.250000  0.000000      2.000000
  0.250000  0.250000  0.000000      2.000000
  0.375000  0.250000  0.000000      2.000000
  0.500000  0.250000  0.000000      2.000000
 -0.375000  0.250000  0.000000      2.000000
 -0.250000  0.250000  0.000000      2.000000
 -0.125000  0.250000  0.000000      2.000000
 -0.000000  0.375000  0.000000      2.000000
  0.125000  0.375000  0.000000      2.000000
  0.250000  0.375000  0.000000      2.000000
  0.375000  0.375000  0.000000      2.000000
  0.500000  0.375000  0.000000      2.000000
 -0.375000  0.375000  0.000000      2.000000
 -0.250000  0.375000  0.000000      2.000000
 -0.125000  0.375000  0.000000      2.000000
  0.000000  0.500000  0.000000      1.000000
  0.125000  0.500000  0.000000      2.000000
  0.250000  0.500000  0.000000      2.000000
  0.375000  0.500000  0.000000      2.000000
  0.500000  0.500000  0.000000      1.000000
 
 Following cartesian coordinates:
            Coordinates               Weight
  0.000000  0.000000  0.000000      1.000000
  0.007209  0.012401  0.000000      2.000000
  0.014418  0.024802  0.000000      2.000000
  0.021626  0.037202  0.000000      2.000000
  0.028835  0.049603  0.000000      1.000000
 -0.007209  0.012401  0.000000      2.000000
  0.000000  0.024802  0.000000      2.000000
  0.007209  0.037202  0.000000      2.000000
  0.014418  0.049603  0.000000      2.000000
  0.021626  0.062004  0.000000      2.000000
 -0.028835 -0.024802  0.000000      2.000000
 -0.021626 -0.012401  0.000000      2.000000
 -0.014418  0.000000  0.000000      2.000000
 -0.014418  0.024802  0.000000      2.000000
 -0.007209  0.037202  0.000000      2.000000
  0.000000  0.049603  0.000000      2.000000
  0.007209  0.062004  0.000000      2.000000
  0.014418  0.074405  0.000000      2.000000
 -0.036044 -0.012401  0.000000      2.000000
 -0.028835  0.000000  0.000000      2.000000
 -0.021626  0.012401  0.000000      2.000000
 -0.021626  0.037202  0.000000      2.000000
 -0.014418  0.049603  0.000000      2.000000
 -0.007209  0.062004  0.000000      2.000000
  0.000000  0.074405  0.000000      2.000000
  0.007209  0.086806  0.000000      2.000000
 -0.043253  0.000000  0.000000      2.000000
 -0.036044  0.012401  0.000000      2.000000
 -0.028835  0.024802  0.000000      2.000000
 -0.028835  0.049603  0.000000      1.000000
 -0.021626  0.062004  0.000000      2.000000
 -0.014418  0.074405  0.000000      2.000000
 -0.007209  0.086806  0.000000      2.000000
  0.000000  0.099206  0.000000      1.000000
 


--------------------------------------------------------------------------------------------------------




 Dimension of arrays:
   k-points           NKPTS =     34   k-points in BZ     NKDIM =     34   number of bands    NBANDS=    120
   number of dos      NEDOS =    301   number of ions     NIONS =     27
   non local maximal  LDIM  =      6   non local SUM 2l+1 LMDIM =     18
   total plane-waves  NPLWV = 222264
   max r-space proj   IRMAX =      1   max aug-charges    IRDMAX=   5642
   dimension x,y,z NGX =    42 NGY =   42 NGZ =  126
   dimension x,y,z NGXF=    84 NGYF=   84 NGZF=  252
   support grid    NGXF=    84 NGYF=   84 NGZF=  252
   ions per type =               3   3   3  18
 NGX,Y,Z   is equivalent  to a cutoff of   6.96,  6.96,  6.98 a.u.
 NGXF,Y,Z  is equivalent  to a cutoff of  13.92, 13.92, 13.96 a.u.


 I would recommend the setting:
   dimension x,y,z NGX =    41 NGY =   41 NGZ =  123
 SYSTEM =  unknown system                          
 POSCAR =  crystal structure from VMoWS2 with Hexag

 Startparameter for this run:
   NWRITE =      2    write-flag & timer
   PREC   = normal    normal or accurate (medium, high low for compatibility)
   ISTART =      0    job   : 0-new  1-cont  2-samecut
   ICHARG =      2    charge: 1-file 2-atom 10-const
   ISPIN  =      1    spin polarized calculation?
   LNONCOLLINEAR =      F non collinear calculations
   LSORBIT =      F    spin-orbit coupling
   INIWAV =      1    electr: 0-lowe 1-rand  2-diag
   LASPH  =      F    aspherical Exc in radial PAW
   METAGGA=      F    non-selfconsistent MetaGGA calc.

 Electronic Relaxation 1
   ENCUT  =  280.0 eV  20.58 Ry    4.54 a.u.  13.68 13.68 40.93*2*pi/ulx,y,z
   ENINI  =  280.0     initial cutoff
   ENAUG  =  373.4 eV  augmentation charge cutoff
   NELM   =     60;   NELMIN=  2; NELMDL= -5     # of ELM steps 
   EDIFF  = 0.1E-03   stopping-criterion for ELM
   LREAL  =      F    real-space projection
   NLSPLINE    = F    spline interpolate recip. space projectors
   LCOMPAT=      F    compatible to vasp.4.4
   GGA_COMPAT  = T    GGA compatible to vasp.4.4-vasp.4.6
   LMAXPAW     = -100 max onsite density
   LMAXMIX     =    2 max onsite mixed and CHGCAR
   VOSKOWN=      0    Vosko Wilk Nusair interpolation
   ROPT   =    0.00000   0.00000   0.00000   0.00000
 Ionic relaxation
   EDIFFG = 0.1E-02   stopping-criterion for IOM
   NSW    =    100    number of steps for IOM
   NBLOCK =      1;   KBLOCK =    100    inner block; outer block 
   IBRION =      1    ionic relax: 0-MD 1-quasi-New 2-CG
   NFREE  =      0    steps in history (QN), initial steepest desc. (CG)
   ISIF   =      3    stress and relaxation
   IWAVPR =     11    prediction:  0-non 1-charg 2-wave 3-comb
   ISYM   =      0    0-nonsym 1-usesym 2-fastsym
   LCORR  =      T    Harris-Foulkes like correction to forces

   POTIM  = 0.5000    time-step for ionic-motion
   TEIN   =    0.0    initial temperature
   TEBEG  =    0.0;   TEEND  =   0.0 temperature during run
   SMASS  =  -3.00    Nose mass-parameter (am)
   estimated Nose-frequenzy (Omega)   =  0.10E-29 period in steps =****** mass=  -0.230E-26a.u.
   SCALEE = 1.0000    scale energy and forces
   NPACO  =    256;   APACO  = 16.0  distance and # of slots for P.C.
   PSTRESS=    0.0 pullay stress

  Mass of Ions in am
   POMASS =  50.94 95.94183.85 32.07
  Ionic Valenz
   ZVAL   =   5.00  6.00  6.00  6.00
  Atomic Wigner-Seitz radii
   RWIGS  =  -1.00 -1.00 -1.00 -1.00
  virtual crystal weights 
   VCA    =   1.00  1.00  1.00  1.00
   NELECT =     159.0000    total number of electrons
   NUPDOWN=      -1.0000    fix difference up-down

 DOS related values:
   EMIN   =  10.00;   EMAX   =-10.00  energy-range for DOS
   EFERMI =   0.00
   ISMEAR =     0;   SIGMA  =   0.20  broadening in eV -4-tet -1-fermi 0-gaus

 Electronic relaxation 2 (details)
   IALGO  =     38    algorithm
   LDIAG  =      T    sub-space diagonalisation (order eigenvalues)
   LSUBROT=      F    optimize rotation matrix (better conditioning)
   TURBO    =      0    0=normal 1=particle mesh
   IRESTART =      0    0=no restart 2=restart with 2 vectors
   NREBOOT  =      0    no. of reboots
   NMIN     =      0    reboot dimension
   EREF     =   0.00    reference energy to select bands
   IMIX   =      4    mixing-type and parameters
     AMIX     =   0.40;   BMIX     =  1.00
     AMIX_MAG =   1.60;   BMIX_MAG =  1.00
     AMIN     =   0.10
     WC   =   100.;   INIMIX=   1;  MIXPRE=   1;  MAXMIX= -45

 Intra band minimization:
   WEIMIN = 0.0010     energy-eigenvalue tresh-hold
   EBREAK =  0.21E-06  absolut break condition
   DEPER  =   0.30     relativ break condition  

   TIME   =   0.40     timestep for ELM

  volume/ion in A,a.u.               =      97.10       655.29
  Fermi-wavevector in a.u.,A,eV,Ry     =   0.643191  1.215456  5.628665  0.413695
  Thomas-Fermi vector in A             =   1.710110
 
 Write flags
   LWAVE  =      F    write WAVECAR
   LCHARG =      F    write CHGCAR
   LVTOT  =      F    write LOCPOT, total local potential
   LVHAR  =      F    write LOCPOT, Hartree potential only
   LELF   =      F    write electronic localiz. function (ELF)
   LORBIT =      0    0 simple, 1 ext, 2 COOP (PROOUT)


 Dipole corrections
   LMONO  =      F    monopole corrections only (constant potential shift)
   LDIPOL =      F    correct potential (dipole corrections)
   IDIPOL =      0    1-x, 2-y, 3-z, 4-all directions 
   EPSILON=  1.0000000 bulk dielectric constant

 Exchange correlation treatment:
   GGA     =    --    GGA type
   LEXCH   =     8    internal setting for exchange type
   VOSKOWN=      0    Vosko Wilk Nusair interpolation
   LHFCALC =     F    Hartree Fock is set to
   LHFONE  =     F    Hartree Fock one center treatment
   AEXX    =    0.0000 exact exchange contribution

 Linear response parameters
   LEPSILON=     F    determine dielectric tensor
   LRPA    =     F    only Hartree local field effects (RPA)
   LNABLA  =     F    use nabla operator in PAW spheres
   LVEL    =     F    velocity operator in full k-point grid
   LINTERFAST=   F  fast interpolation
   KINTER  =     0    interpolate to denser k-point grid
   CSHIFT  =0.1000    complex shift for real part using Kramers Kronig
   OMEGAMAX=  -1.0    maximum frequency
   DEG_THRESHOLD= 0.2000000E-02 threshold for treating states as degnerate
   RTIME   =    0.100 relaxation time in fs

 Orbital magnetization related:
   ORBITALMAG=     F  switch on orbital magnetization
   LCHIMAG   =     F  perturbation theory with respect to B field
   DQ        =  0.001000  dq finite difference perturbation B field



--------------------------------------------------------------------------------------------------------


 quasi-Newton-method for relaxation of ions
 charge density and potential will be updated during run
 non-spin polarized calculation
 Variant of blocked Davidson
 Davidson routine will perform the subspace rotation
 perform sub-space diagonalisation
    after iterative eigenvector-optimisation
 modified Broyden-mixing scheme, WC =      100.0
 initial mixing is a Kerker type mixing with AMIX =  0.4000 and BMIX =      1.0000
 Hartree-type preconditioning will be used
 using additional bands           40
 reciprocal scheme for non local part
 use partial core corrections
 calculate Harris-corrections to forces 
   (improved forces if not selfconsistent)
 use gradient corrections 
 use of overlap-Matrix (Vanderbilt PP)
 Gauss-broadening in eV      SIGMA  =   0.20


--------------------------------------------------------------------------------------------------------


  energy-cutoff  :      280.00
  volume of cell :     2621.81
      direct lattice vectors                 reciprocal lattice vectors
     8.669999960  5.039999894  0.000000000     0.057670129  0.099206348  0.000000000
    -8.669999821  5.040000133  0.000000000    -0.057670126  0.099206350  0.000000000
     0.000000000  0.000000000 30.000000000     0.000000000  0.000000000  0.033333333

  length of vectors
    10.028484344 10.028484344 30.000000000     0.114750788  0.114750788  0.033333333


 
 k-points in units of 2pi/SCALE and weight: K-POINTS 	#supercell of CrS2 in hexagona
   0.00000000  0.00000000  0.00000000       0.016
   0.00720877  0.01240079  0.00000000       0.031
   0.01441753  0.02480159  0.00000000       0.031
   0.02162630  0.03720238  0.00000000       0.031
   0.02883506  0.04960317  0.00000000       0.016
  -0.00720877  0.01240079  0.00000000       0.031
   0.00000000  0.02480159  0.00000000       0.031
   0.00720877  0.03720238  0.00000000       0.031
   0.01441753  0.04960317  0.00000000       0.031
   0.02162630  0.06200397  0.00000000       0.031
  -0.02883506 -0.02480159  0.00000000       0.031
  -0.02162630 -0.01240079  0.00000000       0.031
  -0.01441753  0.00000000  0.00000000       0.031
  -0.01441753  0.02480159  0.00000000       0.031
  -0.00720877  0.03720238  0.00000000       0.031
   0.00000000  0.04960317  0.00000000       0.031
   0.00720877  0.06200397  0.00000000       0.031
   0.01441753  0.07440476  0.00000000       0.031
  -0.03604383 -0.01240079  0.00000000       0.031
  -0.02883506  0.00000000  0.00000000       0.031
  -0.02162630  0.01240079  0.00000000       0.031
  -0.02162630  0.03720238  0.00000000       0.031
  -0.01441753  0.04960317  0.00000000       0.031
  -0.00720877  0.06200397  0.00000000       0.031
   0.00000000  0.07440476  0.00000000       0.031
   0.00720877  0.08680556  0.00000000       0.031
  -0.04325260  0.00000000  0.00000000       0.031
  -0.03604383  0.01240079  0.00000000       0.031
  -0.02883506  0.02480159  0.00000000       0.031
  -0.02883506  0.04960317  0.00000000       0.016
  -0.02162630  0.06200397  0.00000000       0.031
  -0.01441753  0.07440476  0.00000000       0.031
  -0.00720876  0.08680556  0.00000000       0.031
   0.00000000  0.09920635  0.00000000       0.016
 
 k-points in reciprocal lattice and weights: K-POINTS 	#supercell of CrS2 in hexagona
   0.00000000  0.00000000  0.00000000       0.016
   0.12500000  0.00000000  0.00000000       0.031
   0.25000000  0.00000000  0.00000000       0.031
   0.37500000  0.00000000  0.00000000       0.031
   0.50000000  0.00000000  0.00000000       0.016
   0.00000000  0.12500000  0.00000000       0.031
   0.12500000  0.12500000  0.00000000       0.031
   0.25000000  0.12500000  0.00000000       0.031
   0.37500000  0.12500000  0.00000000       0.031
   0.50000000  0.12500000  0.00000000       0.031
  -0.37500000  0.12500000  0.00000000       0.031
  -0.25000000  0.12500000  0.00000000       0.031
  -0.12500000  0.12500000  0.00000000       0.031
   0.00000000  0.25000000  0.00000000       0.031
   0.12500000  0.25000000  0.00000000       0.031
   0.25000000  0.25000000  0.00000000       0.031
   0.37500000  0.25000000  0.00000000       0.031
   0.50000000  0.25000000  0.00000000       0.031
  -0.37500000  0.25000000  0.00000000       0.031
  -0.25000000  0.25000000  0.00000000       0.031
  -0.12500000  0.25000000  0.00000000       0.031
  -0.00000000  0.37500000  0.00000000       0.031
   0.12500000  0.37500000  0.00000000       0.031
   0.25000000  0.37500000  0.00000000       0.031
   0.37500000  0.37500000  0.00000000       0.031
   0.50000000  0.37500000  0.00000000       0.031
  -0.37500000  0.37500000  0.00000000       0.031
  -0.25000000  0.37500000  0.00000000       0.031
  -0.12500000  0.37500000  0.00000000       0.031
   0.00000000  0.50000000  0.00000000       0.016
   0.12500000  0.50000000  0.00000000       0.031
   0.25000000  0.50000000  0.00000000       0.031
   0.37500000  0.50000000  0.00000000       0.031
   0.50000000  0.50000000  0.00000000       0.016
 
 position of ions in fractional coordinates (direct lattice) 
   0.33333334  0.00000000  0.00000000
   0.33333334  0.33333334  0.00000000
   0.00000000  0.00000000  0.00000000
   0.66666669  0.33333334  0.00000000
   0.66666669  0.66666669  0.00000000
   0.66666669  0.00000000  0.00000000
   1.00000000  0.33333334  0.00000000
   0.00000000  0.66666669  0.00000000
   0.33333334  0.66666669  0.00000000
   0.11068511  0.22244981  0.95539999
   0.22244981  0.11068511  0.04460000
   0.11068511  0.55578315  0.95539999
   0.22244981  0.44401845  0.04460000
   0.11068511  0.88911647  0.95539999
   0.22244981  0.77735180  0.04460000
   0.44401845  0.22244981  0.95539999
   0.55578315  0.11068511  0.04460000
   0.44401845  0.55578315  0.95539999
   0.55578315  0.44401845  0.04460000
   0.44401845  0.88911647  0.95539999
   0.55578315  0.77735180  0.04460000
   0.77735180  0.22244981  0.95539999
   0.88911647  0.11068511  0.04460000
   0.77735180  0.55578315  0.95539999
   0.88911647  0.44401845  0.04460000
   0.77735180  0.88911647  0.95539999
   0.88911647  0.77735180  0.04460000
 
 position of ions in cartesian coordinates  (Angst):
   2.89000007  1.68000002  0.00000000
   0.00000005  3.36000011  0.00000000
   0.00000000  0.00000000  0.00000000
   2.89000012  5.04000012  0.00000000
   0.00000009  6.72000022  0.00000000
   5.78000015  3.36000003  0.00000000
   5.77999993  6.71999999  0.00000000
  -5.78000005  3.36000019  0.00000000
  -2.88999998  5.04000020  0.00000000
  -0.96899991  1.67900001 28.66199970
   0.96899995  1.67899998  1.33799996
  -3.85899993  3.35900011 28.66199970
  -1.92100007  3.35900008  1.33799996
  -6.74899970  5.03900005 28.66199970
  -4.81100010  5.03900017  1.33799996
   1.92100017  3.35900003 28.66199970
   3.85900003  3.35900000  1.33799996
  -0.96899986  5.03900012 28.66199970
   0.96900000  5.03900009  1.33799996
  -3.85899963  6.71900006 28.66199970
  -1.92100003  6.71900019  1.33799996
   4.81100024  5.03900004 28.66199970
   6.74899984  5.03899987  1.33799996
   1.92100021  6.71900014 28.66199970
   3.85899981  6.71899996  1.33799996
  -0.96899956  8.39900008 28.66199970
   0.96899979  8.39900005  1.33799996
 


--------------------------------------------------------------------------------------------------------


 k-point  1 :   0.0000 0.0000 0.0000  plane waves:   27959
 k-point  2 :   0.1250 0.0000 0.0000  plane waves:   27889
 k-point  3 :   0.2500 0.0000 0.0000  plane waves:   27875
 k-point  4 :   0.3750 0.0000 0.0000  plane waves:   27893
 k-point  5 :   0.5000 0.0000 0.0000  plane waves:   27932
 k-point  6 :   0.0000 0.1250 0.0000  plane waves:   27889
 k-point  7 :   0.1250 0.1250 0.0000  plane waves:   27906
 k-point  8 :   0.2500 0.1250 0.0000  plane waves:   27898
 k-point  9 :   0.3750 0.1250 0.0000  plane waves:   27888
 k-point 10 :   0.5000 0.1250 0.0000  plane waves:   27873
 k-point 11 :  -0.3750 0.1250 0.0000  plane waves:   27874
 k-point 12 :  -0.2500 0.1250 0.0000  plane waves:   27895
 k-point 13 :  -0.1250 0.1250 0.0000  plane waves:   27879
 k-point 14 :   0.0000 0.2500 0.0000  plane waves:   27875
 k-point 15 :   0.1250 0.2500 0.0000  plane waves:   27898
 k-point 16 :   0.2500 0.2500 0.0000  plane waves:   27920
 k-point 17 :   0.3750 0.2500 0.0000  plane waves:   27901
 k-point 18 :   0.5000 0.2500 0.0000  plane waves:   27875
 k-point 19 :  -0.3750 0.2500 0.0000  plane waves:   27894
 k-point 20 :  -0.2500 0.2500 0.0000  plane waves:   27870
 k-point 21 :  -0.1250 0.2500 0.0000  plane waves:   27895
 k-point 22 :  -0.0000 0.3750 0.0000  plane waves:   27893
 k-point 23 :   0.1250 0.3750 0.0000  plane waves:   27888
 k-point 24 :   0.2500 0.3750 0.0000  plane waves:   27901
 k-point 25 :   0.3750 0.3750 0.0000  plane waves:   27860
 k-point 26 :   0.5000 0.3750 0.0000  plane waves:   27895
 k-point 27 :  -0.3750 0.3750 0.0000  plane waves:   27858
 k-point 28 :  -0.2500 0.3750 0.0000  plane waves:   27894
 k-point 29 :  -0.1250 0.3750 0.0000  plane waves:   27874
 k-point 30 :   0.0000 0.5000 0.0000  plane waves:   27932
 k-point 31 :   0.1250 0.5000 0.0000  plane waves:   27873
 k-point 32 :   0.2500 0.5000 0.0000  plane waves:   27875
 k-point 33 :   0.3750 0.5000 0.0000  plane waves:   27895
 k-point 34 :   0.5000 0.5000 0.0000  plane waves:   27910

 maximum and minimum number of plane-waves per node :     27959    27858

 maximum number of plane-waves:     27959
 maximum index in each direction: 
   IXMAX=   14   IYMAX=   13   IZMAX=   40
   IXMIN=  -14   IYMIN=  -14   IZMIN=  -40

 WARNING: aliasing errors must be expected set NGX to  58 to avoid them
 WARNING: aliasing errors must be expected set NGY to  56 to avoid them
 WARNING: aliasing errors must be expected set NGZ to 162 to avoid them
 aliasing errors are usually negligible using standard VASP settings
 and one can safely disregard these warnings

 serial   3D FFT for wavefunctions

 total amount of memory used by VASP on root node   650782. kBytes
========================================================================

   base      :      30000. kBytes
   nonl-proj :     559647. kBytes
   fftplans  :       2414. kBytes
   grid      :      12150. kBytes
   one-center:        419. kBytes
   wavefun   :      46152. kBytes
 
     INWAV:  cpu time    0.0000: real time    0.0000
 Broyden mixing: mesh for mixing (old mesh)
   NGX = 27   NGY = 27   NGZ = 81
  (NGX  = 84   NGY  = 84   NGZ  =252)
  gives a total of  59049 points

 initial charge density was supplied:
 charge density of overlapping atoms calculated
 number of electron     159.0000000 magnetization 
 keeping initial charge density in first step


--------------------------------------------------------------------------------------------------------


 Maximum index for augmentation-charges          146 (set IRDMAX)


--------------------------------------------------------------------------------------------------------


 First call to EWALD:  gamma=   0.129
 Maximum number of real-space cells 4x 4x 2
 Maximum number of reciprocal cells 2x 2x 5

 FEWALD executed in parallel
    FEWALD:  cpu time    0.0016: real time    0.0015


----------------------------------------- Iteration    1(   1)  ---------------------------------------


    POTLOK:  cpu time    0.0371: real time    0.0372
    SETDIJ:  cpu time    0.0032: real time    0.0033
     EDDAV:  cpu time   21.7976: real time   21.8520
       DOS:  cpu time    0.0014: real time    0.0015
    --------------------------------------------
      LOOP:  cpu time   21.8446: real time   21.9014

 eigenvalue-minimisations  :  8160
 total energy-change (2. order) : 0.1126279E+04  (-0.3597964E+04)
 number of electron     159.0000000 magnetization 
 augmentation part      159.0000000 magnetization 

 Free energy of the ion-electron system (eV)
  ---------------------------------------------------
  alpha Z        PSCENC =        81.65567618
  Ewald energy   TEWEN  =     41891.17178796
  -Hartree energ DENC   =    -47723.81768508
  -exchange      EXHF   =         0.00000000
  -V(xc)+E(xc)   XCENC  =      -242.92468715
  PAW double counting   =      3467.42045192    -2871.19716117
  entropy T*S    EENTRO =        -0.54176419
  eigenvalues    EBANDS =      -236.92976717
  atomic energy  EATOM  =      6761.44252427
  Solvation  Ediel_sol  =         0.00000000
  ---------------------------------------------------
  free energy    TOTEN  =      1126.27937556 eV

  energy without entropy =     1126.82113976  energy(sigma->0) =     1126.55025766


--------------------------------------------------------------------------------------------------------




----------------------------------------- Iteration    1(   2)  ---------------------------------------


     EDDAV:  cpu time   28.0127: real time   28.0809
       DOS:  cpu time    0.0009: real time    0.0009
    --------------------------------------------
      LOOP:  cpu time   28.0147: real time   28.0890

 eigenvalue-minimisations  : 11200
 total energy-change (2. order) :-0.1128828E+04  (-0.1087629E+04)
 number of electron     159.0000000 magnetization 
 augmentation part      159.0000000 magnetization 

 Free energy of the ion-electron system (eV)
  ---------------------------------------------------
  alpha Z        PSCENC =        81.65567618
  Ewald energy   TEWEN  =     41891.17178796
  -Hartree energ DENC   =    -47723.81768508
  -exchange      EXHF   =         0.00000000
  -V(xc)+E(xc)   XCENC  =      -242.92468715
  PAW double counting   =      3467.42045192    -2871.19716117
  entropy T*S    EENTRO =        -0.20822855
  eigenvalues    EBANDS =     -1366.09141746
  atomic energy  EATOM  =      6761.44252427
  Solvation  Ediel_sol  =         0.00000000
  ---------------------------------------------------
  free energy    TOTEN  =        -2.54873908 eV

  energy without entropy =       -2.34051053  energy(sigma->0) =       -2.44462481


--------------------------------------------------------------------------------------------------------




----------------------------------------- Iteration    1(   3)  ---------------------------------------


     EDDAV:  cpu time   27.4511: real time   27.5181
       DOS:  cpu time    0.0010: real time    0.0010
    --------------------------------------------
      LOOP:  cpu time   27.4533: real time   27.5257

 eigenvalue-minimisations  : 10880
 total energy-change (2. order) :-0.1971529E+03  (-0.1891687E+03)
 number of electron     159.0000000 magnetization 
 augmentation part      159.0000000 magnetization 

 Free energy of the ion-electron system (eV)
  ---------------------------------------------------
  alpha Z        PSCENC =        81.65567618
  Ewald energy   TEWEN  =     41891.17178796
  -Hartree energ DENC   =    -47723.81768508
  -exchange      EXHF   =         0.00000000
  -V(xc)+E(xc)   XCENC  =      -242.92468715
  PAW double counting   =      3467.42045192    -2871.19716117
  entropy T*S    EENTRO =        -0.26099035
  eigenvalues    EBANDS =     -1563.19152573
  atomic energy  EATOM  =      6761.44252427
  Solvation  Ediel_sol  =         0.00000000
  ---------------------------------------------------
  free energy    TOTEN  =      -199.70160915 eV

  energy without entropy =     -199.44061880  energy(sigma->0) =     -199.57111398


--------------------------------------------------------------------------------------------------------




----------------------------------------- Iteration    1(   4)  ---------------------------------------


     EDDAV:  cpu time   30.0583: real time   30.1318
       DOS:  cpu time    0.0010: real time    0.0010
    --------------------------------------------
      LOOP:  cpu time   30.0602: real time   30.1394

 eigenvalue-minimisations  : 12160
 total energy-change (2. order) :-0.9277509E+01  (-0.8990576E+01)
 number of electron     159.0000000 magnetization 
 augmentation part      159.0000000 magnetization 

 Free energy of the ion-electron system (eV)
  ---------------------------------------------------
  alpha Z        PSCENC =        81.65567618
  Ewald energy   TEWEN  =     41891.17178796
  -Hartree energ DENC   =    -47723.81768508
  -exchange      EXHF   =         0.00000000
  -V(xc)+E(xc)   XCENC  =      -242.92468715
  PAW double counting   =      3467.42045192    -2871.19716117
  entropy T*S    EENTRO =        -0.29122055
  eigenvalues    EBANDS =     -1572.43880411
  atomic energy  EATOM  =      6761.44252427
  Solvation  Ediel_sol  =         0.00000000
  ---------------------------------------------------
  free energy    TOTEN  =      -208.97911774 eV

  energy without entropy =     -208.68789719  energy(sigma->0) =     -208.83350746


--------------------------------------------------------------------------------------------------------




----------------------------------------- Iteration    1(   5)  ---------------------------------------


     EDDAV:  cpu time   28.7138: real time   28.7831
       DOS:  cpu time    0.0010: real time    0.0010
    CHARGE:  cpu time    0.4629: real time    0.4641
    MIXING:  cpu time    0.0018: real time    0.0019
    --------------------------------------------
      LOOP:  cpu time   29.1804: real time   29.2569

 eigenvalue-minimisations  : 11560
 total energy-change (2. order) :-0.3258562E+00  (-0.3249064E+00)
 number of electron     159.0000110 magnetization 
 augmentation part       -9.8044880 magnetization 

 Broyden mixing:
  rms(total) = 0.27510E+01    rms(broyden)= 0.27505E+01
  rms(prec ) = 0.29368E+01
  weight for this iteration     100.00

 Free energy of the ion-electron system (eV)
  ---------------------------------------------------
  alpha Z        PSCENC =        81.65567618
  Ewald energy   TEWEN  =     41891.17178796
  -Hartree energ DENC   =    -47723.81768508
  -exchange      EXHF   =         0.00000000
  -V(xc)+E(xc)   XCENC  =      -242.92468715
  PAW double counting   =      3467.42045192    -2871.19716117
  entropy T*S    EENTRO =        -0.28820058
  eigenvalues    EBANDS =     -1572.76768027
  atomic energy  EATOM  =      6761.44252427
  Solvation  Ediel_sol  =         0.00000000
  ---------------------------------------------------
  free energy    TOTEN  =      -209.30497392 eV

  energy without entropy =     -209.01677334  energy(sigma->0) =     -209.16087363


--------------------------------------------------------------------------------------------------------




----------------------------------------- Iteration    1(   6)  ---------------------------------------


    POTLOK:  cpu time    0.0348: real time    0.0348
    SETDIJ:  cpu time    0.0026: real time    0.0026
     EDDAV:  cpu time   30.5886: real time   30.6626
       DOS:  cpu time    0.0010: real time    0.0010
    CHARGE:  cpu time    0.4597: real time    0.4608
    MIXING:  cpu time    0.0017: real time    0.0017
    --------------------------------------------
      LOOP:  cpu time   31.0892: real time   31.1725

 eigenvalue-minimisations  : 12480
 total energy-change (2. order) :-0.2857166E+02  (-0.1080411E+02)
 number of electron     159.0000107 magnetization 
 augmentation part        7.0804931 magnetization 

 Broyden mixing:
  rms(total) = 0.59494E+01    rms(broyden)= 0.59488E+01
  rms(prec ) = 0.65607E+01
  weight for this iteration     100.00

 eigenvalues of (default mixing * dielectric matrix)
  average eigenvalue GAMMA=   0.2937
  0.2937

 Free energy of the ion-electron system (eV)
  ---------------------------------------------------
  alpha Z        PSCENC =        81.65567618
  Ewald energy   TEWEN  =     41891.17178796
  -Hartree energ DENC   =    -47702.22775855
  -exchange      EXHF   =         0.00000000
  -V(xc)+E(xc)   XCENC  =      -233.61751861
  PAW double counting   =      3676.52689959    -3082.61807678
  entropy T*S    EENTRO =        -0.25236150
  eigenvalues    EBANDS =     -1629.95780659
  atomic energy  EATOM  =      6761.44252427
  Solvation  Ediel_sol  =         0.00000000
  ---------------------------------------------------
  free energy    TOTEN  =      -237.87663404 eV

  energy without entropy =     -237.62427254  energy(sigma->0) =     -237.75045329


--------------------------------------------------------------------------------------------------------




----------------------------------------- Iteration    1(   7)  ---------------------------------------


    POTLOK:  cpu time    0.0350: real time    0.0351
    SETDIJ:  cpu time    0.0023: real time    0.0023
     EDDAV:  cpu time   32.6807: real time   32.7599
       DOS:  cpu time    0.0010: real time    0.0010
    CHARGE:  cpu time    0.4674: real time    0.4685
    MIXING:  cpu time    0.0012: real time    0.0012
    --------------------------------------------
      LOOP:  cpu time   33.1889: real time   33.2852

 eigenvalue-minimisations  : 13440
 total energy-change (2. order) : 0.4130702E+02  (-0.1753455E+02)
 number of electron     159.0000088 magnetization 
 augmentation part       -6.2622109 magnetization 

 Broyden mixing:
  rms(total) = 0.20020E+01    rms(broyden)= 0.20001E+01
  rms(prec ) = 0.22237E+01
  weight for this iteration     100.00

 eigenvalues of (default mixing * dielectric matrix)
  average eigenvalue GAMMA=   0.5521
  0.8930  0.2112

 Free energy of the ion-electron system (eV)
  ---------------------------------------------------
  alpha Z        PSCENC =        81.65567618
  Ewald energy   TEWEN  =     41891.17178796
  -Hartree energ DENC   =    -47739.22493187
  -exchange      EXHF   =         0.00000000
  -V(xc)+E(xc)   XCENC  =      -234.98916602
  PAW double counting   =      3763.78558146    -3177.82072338
  entropy T*S    EENTRO =        -0.35591038
  eigenvalues    EBANDS =     -1542.23445616
  atomic energy  EATOM  =      6761.44252427
  Solvation  Ediel_sol  =         0.00000000
  ---------------------------------------------------
  free energy    TOTEN  =      -196.56961794 eV

  energy without entropy =     -196.21370756  energy(sigma->0) =     -196.39166275


--------------------------------------------------------------------------------------------------------




----------------------------------------- Iteration    1(   8)  ---------------------------------------


    POTLOK:  cpu time    0.0308: real time    0.0311
    SETDIJ:  cpu time    0.0025: real time    0.0025
     EDDAV:  cpu time   29.9524: real time   30.0241
       DOS:  cpu time    0.0003: real time    0.0011
    CHARGE:  cpu time    0.4776: real time    0.4788
    MIXING:  cpu time    0.0011: real time    0.0011
    --------------------------------------------
      LOOP:  cpu time   30.4667: real time   30.5478

 eigenvalue-minimisations  : 12120
 total energy-change (2. order) : 0.7097008E+01  (-0.1763394E+01)
 number of electron     159.0000095 magnetization 
 augmentation part       -6.3740531 magnetization 

 Broyden mixing:
  rms(total) = 0.12526E+01    rms(broyden)= 0.12523E+01
  rms(prec ) = 0.13530E+01
  weight for this iteration     100.00

 eigenvalues of (default mixing * dielectric matrix)
  average eigenvalue GAMMA=   0.5861
  1.1354  0.2312  0.3917

 Free energy of the ion-electron system (eV)
  ---------------------------------------------------
  alpha Z        PSCENC =        81.65567618
  Ewald energy   TEWEN  =     41891.17178796
  -Hartree energ DENC   =    -47762.34514992
  -exchange      EXHF   =         0.00000000
  -V(xc)+E(xc)   XCENC  =      -235.00517467
  PAW double counting   =      3907.11410469    -3322.78002223
  entropy T*S    EENTRO =        -0.31143169
  eigenvalues    EBANDS =     -1510.41492463
  atomic energy  EATOM  =      6761.44252427
  Solvation  Ediel_sol  =         0.00000000
  ---------------------------------------------------
  free energy    TOTEN  =      -189.47261004 eV

  energy without entropy =     -189.16117835  energy(sigma->0) =     -189.31689419


--------------------------------------------------------------------------------------------------------




----------------------------------------- Iteration    1(   9)  ---------------------------------------


    POTLOK:  cpu time    0.0309: real time    0.0312
    SETDIJ:  cpu time    0.0024: real time    0.0024
     EDDAV:  cpu time   32.7848: real time   32.8643
       DOS:  cpu time    0.0001: real time    0.0009
    CHARGE:  cpu time    0.4840: real time    0.4852
    MIXING:  cpu time    0.0012: real time    0.0012
    --------------------------------------------
      LOOP:  cpu time   33.3053: real time   33.3932

 eigenvalue-minimisations  : 13480
 total energy-change (2. order) : 0.1344651E+01  (-0.3030185E+00)
 number of electron     159.0000091 magnetization 
 augmentation part       -5.5502931 magnetization 

 Broyden mixing:
  rms(total) = 0.91188E+00    rms(broyden)= 0.91165E+00
  rms(prec ) = 0.98916E+00
  weight for this iteration     100.00

 eigenvalues of (default mixing * dielectric matrix)
  average eigenvalue GAMMA=   0.7414
  1.8136  0.6218  0.2201  0.3103

 Free energy of the ion-electron system (eV)
  ---------------------------------------------------
  alpha Z        PSCENC =        81.65567618
  Ewald energy   TEWEN  =     41891.17178796
  -Hartree energ DENC   =    -47766.98917504
  -exchange      EXHF   =         0.00000000
  -V(xc)+E(xc)   XCENC  =      -234.11055469
  PAW double counting   =      3977.15019291    -3393.68789389
  entropy T*S    EENTRO =        -0.32133923
  eigenvalues    EBANDS =     -1504.43917734
  atomic energy  EATOM  =      6761.44252427
  Solvation  Ediel_sol  =         0.00000000
  ---------------------------------------------------
  free energy    TOTEN  =      -188.12795888 eV

  energy without entropy =     -187.80661965  energy(sigma->0) =     -187.96728926


--------------------------------------------------------------------------------------------------------




----------------------------------------- Iteration    1(  10)  ---------------------------------------


    POTLOK:  cpu time    0.0317: real time    0.0318
    SETDIJ:  cpu time    0.0025: real time    0.0025
     EDDAV:  cpu time   32.8563: real time   32.9352
       DOS:  cpu time    0.0010: real time    0.0010
    CHARGE:  cpu time    0.4977: real time    0.4989
    MIXING:  cpu time    0.0013: real time    0.0013
    --------------------------------------------
      LOOP:  cpu time   33.3915: real time   33.4796

 eigenvalue-minimisations  : 13520
 total energy-change (2. order) : 0.1191928E+01  (-0.1726429E+00)
 number of electron     159.0000092 magnetization 
 augmentation part       -4.2542244 magnetization 

 Broyden mixing:
  rms(total) = 0.21520E+00    rms(broyden)= 0.21462E+00
  rms(prec ) = 0.22712E+00
  weight for this iteration     100.00

 eigenvalues of (default mixing * dielectric matrix)
  average eigenvalue GAMMA=   0.8383
  1.8540  1.1870  0.6412  0.2205  0.2889

 Free energy of the ion-electron system (eV)
  ---------------------------------------------------
  alpha Z        PSCENC =        81.65567618
  Ewald energy   TEWEN  =     41891.17178796
  -Hartree energ DENC   =    -47780.20377967
  -exchange      EXHF   =         0.00000000
  -V(xc)+E(xc)   XCENC  =      -232.57346500
  PAW double counting   =      4105.41958043    -3523.56292113
  entropy T*S    EENTRO =        -0.35107977
  eigenvalues    EBANDS =     -1489.93435394
  atomic energy  EATOM  =      6761.44252427
  Solvation  Ediel_sol  =         0.00000000
  ---------------------------------------------------
  free energy    TOTEN  =      -186.93603067 eV

  energy without entropy =     -186.58495091  energy(sigma->0) =     -186.76049079


--------------------------------------------------------------------------------------------------------




----------------------------------------- Iteration    1(  11)  ---------------------------------------


    POTLOK:  cpu time    0.0304: real time    0.0307
    SETDIJ:  cpu time    0.0024: real time    0.0024
     EDDAV:  cpu time   33.0551: real time   33.1355
       DOS:  cpu time    0.0010: real time    0.0010
    CHARGE:  cpu time    0.4999: real time    0.5011
    MIXING:  cpu time    0.0012: real time    0.0012
    --------------------------------------------
      LOOP:  cpu time   33.5912: real time   33.6804

 eigenvalue-minimisations  : 13600
 total energy-change (2. order) :-0.8944282E-01  (-0.5906749E-01)
 number of electron     159.0000090 magnetization 
 augmentation part       -4.4475660 magnetization 

 Broyden mixing:
  rms(total) = 0.37076E+00    rms(broyden)= 0.37054E+00
  rms(prec ) = 0.41038E+00
  weight for this iteration     100.00

 eigenvalues of (default mixing * dielectric matrix)
  average eigenvalue GAMMA=   0.8529
  1.8591  1.8591  0.6390  0.2185  0.2843  0.2576

 Free energy of the ion-electron system (eV)
  ---------------------------------------------------
  alpha Z        PSCENC =        81.65567618
  Ewald energy   TEWEN  =     41891.17178796
  -Hartree energ DENC   =    -47790.09060632
  -exchange      EXHF   =         0.00000000
  -V(xc)+E(xc)   XCENC  =      -232.24420332
  PAW double counting   =      4151.60706311    -3569.86725325
  entropy T*S    EENTRO =        -0.33814117
  eigenvalues    EBANDS =     -1480.36232095
  atomic energy  EATOM  =      6761.44252427
  Solvation  Ediel_sol  =         0.00000000
  ---------------------------------------------------
  free energy    TOTEN  =      -187.02547349 eV

  energy without entropy =     -186.68733232  energy(sigma->0) =     -186.85640290


--------------------------------------------------------------------------------------------------------




----------------------------------------- Iteration    1(  12)  ---------------------------------------


    POTLOK:  cpu time    0.0306: real time    0.0319
    SETDIJ:  cpu time    0.0023: real time    0.0023
     EDDAV:  cpu time   31.3660: real time   31.4413
       DOS:  cpu time    0.0010: real time    0.0010
    CHARGE:  cpu time    0.4981: real time    0.4993
    MIXING:  cpu time    0.0014: real time    0.0014
    --------------------------------------------
      LOOP:  cpu time   31.9016: real time   31.9860

 eigenvalue-minimisations  : 12800
 total energy-change (2. order) : 0.7650670E-01  (-0.7052340E-01)
 number of electron     159.0000088 magnetization 
 augmentation part       -4.4528442 magnetization 

 Broyden mixing:
  rms(total) = 0.32713E+00    rms(broyden)= 0.32692E+00
  rms(prec ) = 0.36251E+00
  weight for this iteration     100.00

 eigenvalues of (default mixing * dielectric matrix)
  average eigenvalue GAMMA=   0.8066
  1.9635  1.9635  0.6386  0.3976  0.2983  0.2197  0.1646

 Free energy of the ion-electron system (eV)
  ---------------------------------------------------
  alpha Z        PSCENC =        81.65567618
  Ewald energy   TEWEN  =     41891.17178796
  -Hartree energ DENC   =    -47797.29922491
  -exchange      EXHF   =         0.00000000
  -V(xc)+E(xc)   XCENC  =      -232.04228455
  PAW double counting   =      4179.39731095    -3597.63938581
  entropy T*S    EENTRO =        -0.33230992
  eigenvalues    EBANDS =     -1473.30306096
  atomic energy  EATOM  =      6761.44252427
  Solvation  Ediel_sol  =         0.00000000
  ---------------------------------------------------
  free energy    TOTEN  =      -186.94896679 eV

  energy without entropy =     -186.61665687  energy(sigma->0) =     -186.78281183


--------------------------------------------------------------------------------------------------------




----------------------------------------- Iteration    1(  13)  ---------------------------------------


    POTLOK:  cpu time    0.0322: real time    0.0326
    SETDIJ:  cpu time    0.0024: real time    0.0025
     EDDAV:  cpu time   32.2028: real time   32.2810
       DOS:  cpu time    0.0010: real time    0.0010
    CHARGE:  cpu time    0.5012: real time    0.5025
    MIXING:  cpu time    0.0013: real time    0.0013
    --------------------------------------------
      LOOP:  cpu time   32.7423: real time   32.8295

 eigenvalue-minimisations  : 13200
 total energy-change (2. order) : 0.8355316E-01  (-0.2454289E-01)
 number of electron     159.0000088 magnetization 
 augmentation part       -4.3732038 magnetization 

 Broyden mixing:
  rms(total) = 0.18220E+00    rms(broyden)= 0.18206E+00
  rms(prec ) = 0.20442E+00
  weight for this iteration     100.00

 eigenvalues of (default mixing * dielectric matrix)
  average eigenvalue GAMMA=   0.7914
  2.2281  1.7370  0.8112  0.6358  0.2994  0.2200  0.2564  0.1431

 Free energy of the ion-electron system (eV)
  ---------------------------------------------------
  alpha Z        PSCENC =        81.65567618
  Ewald energy   TEWEN  =     41891.17178796
  -Hartree energ DENC   =    -47800.42246010
  -exchange      EXHF   =         0.00000000
  -V(xc)+E(xc)   XCENC  =      -231.95962995
  PAW double counting   =      4187.91316620    -3606.12470531
  entropy T*S    EENTRO =        -0.33545727
  eigenvalues    EBANDS =     -1470.20631559
  atomic energy  EATOM  =      6761.44252427
  Solvation  Ediel_sol  =         0.00000000
  ---------------------------------------------------
  free energy    TOTEN  =      -186.86541363 eV

  energy without entropy =     -186.52995635  energy(sigma->0) =     -186.69768499


--------------------------------------------------------------------------------------------------------




----------------------------------------- Iteration    1(  14)  ---------------------------------------


    POTLOK:  cpu time    0.0302: real time    0.0305
    SETDIJ:  cpu time    0.0024: real time    0.0024
     EDDAV:  cpu time   31.7783: real time   31.8543
       DOS:  cpu time    0.0010: real time    0.0010
    CHARGE:  cpu time    0.4985: real time    0.4997
    MIXING:  cpu time    0.0015: real time    0.0015
    --------------------------------------------
      LOOP:  cpu time   32.3131: real time   32.3981

 eigenvalue-minimisations  : 13040
 total energy-change (2. order) : 0.3827487E-01  (-0.9107228E-02)
 number of electron     159.0000089 magnetization 
 augmentation part       -4.1396731 magnetization 

 Broyden mixing:
  rms(total) = 0.60832E-01    rms(broyden)= 0.60638E-01
  rms(prec ) = 0.68636E-01
  weight for this iteration     100.00

 eigenvalues of (default mixing * dielectric matrix)
  average eigenvalue GAMMA=   0.7790
  2.2355  1.7968  0.9561  0.5878  0.5233  0.2981  0.2203  0.2520  0.1412

 Free energy of the ion-electron system (eV)
  ---------------------------------------------------
  alpha Z        PSCENC =        81.65567618
  Ewald energy   TEWEN  =     41891.17178796
  -Hartree energ DENC   =    -47804.04986647
  -exchange      EXHF   =         0.00000000
  -V(xc)+E(xc)   XCENC  =      -231.87482148
  PAW double counting   =      4191.91395379    -3610.06768533
  entropy T*S    EENTRO =        -0.34340620
  eigenvalues    EBANDS =     -1466.67530149
  atomic energy  EATOM  =      6761.44252427
  Solvation  Ediel_sol  =         0.00000000
  ---------------------------------------------------
  free energy    TOTEN  =      -186.82713875 eV

  energy without entropy =     -186.48373256  energy(sigma->0) =     -186.65543566


--------------------------------------------------------------------------------------------------------




----------------------------------------- Iteration    1(  15)  ---------------------------------------


    POTLOK:  cpu time    0.0307: real time    0.0308
    SETDIJ:  cpu time    0.0025: real time    0.0025
     EDDAV:  cpu time   29.3990: real time   29.4702
       DOS:  cpu time    0.0010: real time    0.0010
    CHARGE:  cpu time    0.5010: real time    0.5022
    MIXING:  cpu time    0.0016: real time    0.0016
    --------------------------------------------
      LOOP:  cpu time   29.9369: real time   30.0177

 eigenvalue-minimisations  : 11880
 total energy-change (2. order) : 0.3753614E-02  (-0.1060749E-02)
 number of electron     159.0000089 magnetization 
 augmentation part       -4.1622393 magnetization 

 Broyden mixing:
  rms(total) = 0.33157E-01    rms(broyden)= 0.33138E-01
  rms(prec ) = 0.38180E-01
  weight for this iteration     100.00

 eigenvalues of (default mixing * dielectric matrix)
  average eigenvalue GAMMA=   0.8048
  2.2749  1.9647  1.2078  0.6711  0.6711  0.3494  0.2982  0.2203  0.2496  0.1414

 Free energy of the ion-electron system (eV)
  ---------------------------------------------------
  alpha Z        PSCENC =        81.65567618
  Ewald energy   TEWEN  =     41891.17178796
  -Hartree energ DENC   =    -47806.89858732
  -exchange      EXHF   =         0.00000000
  -V(xc)+E(xc)   XCENC  =      -231.83254524
  PAW double counting   =      4193.04348098    -3611.15677771
  entropy T*S    EENTRO =        -0.34229743
  eigenvalues    EBANDS =     -1463.90664684
  atomic energy  EATOM  =      6761.44252427
  Solvation  Ediel_sol  =         0.00000000
  ---------------------------------------------------
  free energy    TOTEN  =      -186.82338514 eV

  energy without entropy =     -186.48108771  energy(sigma->0) =     -186.65223643


--------------------------------------------------------------------------------------------------------




----------------------------------------- Iteration    1(  16)  ---------------------------------------


    POTLOK:  cpu time    0.0305: real time    0.0305
    SETDIJ:  cpu time    0.0024: real time    0.0024
     EDDAV:  cpu time   31.4382: real time   31.5141
       DOS:  cpu time    0.0010: real time    0.0010
    CHARGE:  cpu time    0.4995: real time    0.5007
    MIXING:  cpu time    0.0016: real time    0.0016
    --------------------------------------------
      LOOP:  cpu time   31.9742: real time   32.0593

 eigenvalue-minimisations  : 12880
 total energy-change (2. order) :-0.1599158E-02  (-0.1127584E-02)
 number of electron     159.0000089 magnetization 
 augmentation part       -4.1973509 magnetization 

 Broyden mixing:
  rms(total) = 0.64415E-01    rms(broyden)= 0.64390E-01
  rms(prec ) = 0.71567E-01
  weight for this iteration     100.00

 eigenvalues of (default mixing * dielectric matrix)
  average eigenvalue GAMMA=   0.7999
  2.4133  2.1285  1.3934  0.7619  0.6559  0.4010  0.2985  0.2203  0.2506  0.1414
  0.1338

 Free energy of the ion-electron system (eV)
  ---------------------------------------------------
  alpha Z        PSCENC =        81.65567618
  Ewald energy   TEWEN  =     41891.17178796
  -Hartree energ DENC   =    -47811.01200886
  -exchange      EXHF   =         0.00000000
  -V(xc)+E(xc)   XCENC  =      -231.77828516
  PAW double counting   =      4194.36441173    -3612.43303053
  entropy T*S    EENTRO =        -0.34131311
  eigenvalues    EBANDS =     -1459.89474677
  atomic energy  EATOM  =      6761.44252427
  Solvation  Ediel_sol  =         0.00000000
  ---------------------------------------------------
  free energy    TOTEN  =      -186.82498430 eV

  energy without entropy =     -186.48367118  energy(sigma->0) =     -186.65432774


--------------------------------------------------------------------------------------------------------




----------------------------------------- Iteration    1(  17)  ---------------------------------------


    POTLOK:  cpu time    0.0327: real time    0.0328
    SETDIJ:  cpu time    0.0023: real time    0.0023
     EDDAV:  cpu time   31.5933: real time   31.6697
       DOS:  cpu time    0.0010: real time    0.0010
    CHARGE:  cpu time    0.5014: real time    0.5026
    MIXING:  cpu time    0.0017: real time    0.0018
    --------------------------------------------
      LOOP:  cpu time   32.1334: real time   32.2191

 eigenvalue-minimisations  : 12920
 total energy-change (2. order) : 0.3500755E-02  (-0.8405197E-03)
 number of electron     159.0000089 magnetization 
 augmentation part       -4.2153995 magnetization 

 Broyden mixing:
  rms(total) = 0.20088E-01    rms(broyden)= 0.20037E-01
  rms(prec ) = 0.23452E-01
  weight for this iteration     100.00

 eigenvalues of (default mixing * dielectric matrix)
  average eigenvalue GAMMA=   0.8204
  2.3049  2.3049  1.3573  1.1484  0.6588  0.6588  0.3772  0.2975  0.2202  0.2504
  0.1414  0.1242

 Free energy of the ion-electron system (eV)
  ---------------------------------------------------
  alpha Z        PSCENC =        81.65567618
  Ewald energy   TEWEN  =     41891.17178796
  -Hartree energ DENC   =    -47813.86005157
  -exchange      EXHF   =         0.00000000
  -V(xc)+E(xc)   XCENC  =      -231.74238121
  PAW double counting   =      4195.06605051    -3613.10674106
  entropy T*S    EENTRO =        -0.34093085
  eigenvalues    EBANDS =     -1457.10741777
  atomic energy  EATOM  =      6761.44252427
  Solvation  Ediel_sol  =         0.00000000
  ---------------------------------------------------
  free energy    TOTEN  =      -186.82148354 eV

  energy without entropy =     -186.48055269  energy(sigma->0) =     -186.65101812


--------------------------------------------------------------------------------------------------------




----------------------------------------- Iteration    1(  18)  ---------------------------------------


    POTLOK:  cpu time    0.0312: real time    0.0316
    SETDIJ:  cpu time    0.0024: real time    0.0025
     EDDAV:  cpu time   29.5168: real time   29.5880
       DOS:  cpu time    0.0011: real time    0.0011
    CHARGE:  cpu time    0.5001: real time    0.5013
    MIXING:  cpu time    0.0018: real time    0.0018
    --------------------------------------------
      LOOP:  cpu time   30.0547: real time   30.1352

 eigenvalue-minimisations  : 11960
 total energy-change (2. order) : 0.3892497E-03  (-0.1335123E-03)
 number of electron     159.0000089 magnetization 
 augmentation part       -4.1860505 magnetization 

 Broyden mixing:
  rms(total) = 0.65911E-02    rms(broyden)= 0.65781E-02
  rms(prec ) = 0.94668E-02
  weight for this iteration     100.00

 eigenvalues of (default mixing * dielectric matrix)
  average eigenvalue GAMMA=   0.8793
  2.4888  2.4888  1.5360  1.2634  0.9651  0.6397  0.6397  0.3751  0.2976  0.2202
  0.2504  0.1414  0.1240

 Free energy of the ion-electron system (eV)
  ---------------------------------------------------
  alpha Z        PSCENC =        81.65567618
  Ewald energy   TEWEN  =     41891.17178796
  -Hartree energ DENC   =    -47817.23857111
  -exchange      EXHF   =         0.00000000
  -V(xc)+E(xc)   XCENC  =      -231.71008169
  PAW double counting   =      4194.69109828    -3612.71110322
  entropy T*S    EENTRO =        -0.34159148
  eigenvalues    EBANDS =     -1453.78083348
  atomic energy  EATOM  =      6761.44252427
  Solvation  Ediel_sol  =         0.00000000
  ---------------------------------------------------
  free energy    TOTEN  =      -186.82109429 eV

  energy without entropy =     -186.47950281  energy(sigma->0) =     -186.65029855


--------------------------------------------------------------------------------------------------------




----------------------------------------- Iteration    1(  19)  ---------------------------------------


    POTLOK:  cpu time    0.0319: real time    0.0323
    SETDIJ:  cpu time    0.0024: real time    0.0024
     EDDAV:  cpu time   27.0452: real time   27.1105
       DOS:  cpu time    0.0010: real time    0.0010
    CHARGE:  cpu time    0.5013: real time    0.5025
    MIXING:  cpu time    0.0018: real time    0.0018
    --------------------------------------------
      LOOP:  cpu time   27.5847: real time   27.6595

 eigenvalue-minimisations  : 10760
 total energy-change (2. order) :-0.5604114E-03  (-0.8023651E-04)
 number of electron     159.0000089 magnetization 
 augmentation part       -4.1962069 magnetization 

 Broyden mixing:
  rms(total) = 0.86793E-02    rms(broyden)= 0.86727E-02
  rms(prec ) = 0.10728E-01
  weight for this iteration     100.00

 eigenvalues of (default mixing * dielectric matrix)
  average eigenvalue GAMMA=   0.8737
  2.6257  2.6257  1.6370  1.3380  1.0077  0.6455  0.6455  0.3754  0.2202  0.2505
  0.2985  0.2964  0.1414  0.1241

 Free energy of the ion-electron system (eV)
  ---------------------------------------------------
  alpha Z        PSCENC =        81.65567618
  Ewald energy   TEWEN  =     41891.17178796
  -Hartree energ DENC   =    -47822.07994938
  -exchange      EXHF   =         0.00000000
  -V(xc)+E(xc)   XCENC  =      -231.67016280
  PAW double counting   =      4193.56932786    -3611.57050353
  entropy T*S    EENTRO =        -0.34118972
  eigenvalues    EBANDS =     -1448.99916554
  atomic energy  EATOM  =      6761.44252427
  Solvation  Ediel_sol  =         0.00000000
  ---------------------------------------------------
  free energy    TOTEN  =      -186.82165471 eV

  energy without entropy =     -186.48046499  energy(sigma->0) =     -186.65105985


--------------------------------------------------------------------------------------------------------




----------------------------------------- Iteration    1(  20)  ---------------------------------------


    POTLOK:  cpu time    0.0322: real time    0.0324
    SETDIJ:  cpu time    0.0025: real time    0.0025
     EDDAV:  cpu time   21.8352: real time   21.8878
       DOS:  cpu time    0.0003: real time    0.0011
    CHARGE:  cpu time    0.4991: real time    0.5003
    MIXING:  cpu time    0.0020: real time    0.0020
    --------------------------------------------
      LOOP:  cpu time   22.3733: real time   22.4359

 eigenvalue-minimisations  :  8200
 total energy-change (2. order) :-0.2990534E-03  (-0.3684454E-04)
 number of electron     159.0000089 magnetization 
 augmentation part       -4.1978382 magnetization 

 Broyden mixing:
  rms(total) = 0.56119E-02    rms(broyden)= 0.56045E-02
  rms(prec ) = 0.70778E-02
  weight for this iteration     100.00

 eigenvalues of (default mixing * dielectric matrix)
  average eigenvalue GAMMA=   0.9537
  3.2891  2.5254  1.7832  1.7522  1.0032  1.0032  0.6432  0.6432  0.3754  0.2976
  0.2202  0.1414  0.2505  0.2534  0.1241

 Free energy of the ion-electron system (eV)
  ---------------------------------------------------
  alpha Z        PSCENC =        81.65567618
  Ewald energy   TEWEN  =     41891.17178796
  -Hartree energ DENC   =    -47824.32803170
  -exchange      EXHF   =         0.00000000
  -V(xc)+E(xc)   XCENC  =      -231.65269325
  PAW double counting   =      4193.09433208    -3611.08932263
  entropy T*S    EENTRO =        -0.34107756
  eigenvalues    EBANDS =     -1446.77514911
  atomic energy  EATOM  =      6761.44252427
  Solvation  Ediel_sol  =         0.00000000
  ---------------------------------------------------
  free energy    TOTEN  =      -186.82195376 eV

  energy without entropy =     -186.48087620  energy(sigma->0) =     -186.65141498


--------------------------------------------------------------------------------------------------------




----------------------------------------- Iteration    1(  21)  ---------------------------------------


    POTLOK:  cpu time    0.0314: real time    0.0315
    SETDIJ:  cpu time    0.0023: real time    0.0023
     EDDAV:  cpu time   22.6709: real time   22.7259
       DOS:  cpu time    0.0010: real time    0.0010
    CHARGE:  cpu time    0.5038: real time    0.5050
    MIXING:  cpu time    0.0019: real time    0.0019
    --------------------------------------------
      LOOP:  cpu time   23.2123: real time   23.2766

 eigenvalue-minimisations  :  8680
 total energy-change (2. order) :-0.1213628E-02  (-0.3092283E-04)
 number of electron     159.0000089 magnetization 
 augmentation part       -4.1893019 magnetization 

 Broyden mixing:
  rms(total) = 0.25178E-02    rms(broyden)= 0.25135E-02
  rms(prec ) = 0.33717E-02
  weight for this iteration     100.00

 eigenvalues of (default mixing * dielectric matrix)
  average eigenvalue GAMMA=   0.9940
  3.7600  2.4834  2.1394  1.6664  1.0819  1.0819  0.7585  0.6351  0.6351  0.3754
  0.2976  0.2202  0.1414  0.2505  0.2528  0.1241

 Free energy of the ion-electron system (eV)
  ---------------------------------------------------
  alpha Z        PSCENC =        81.65567618
  Ewald energy   TEWEN  =     41891.17178796
  -Hartree energ DENC   =    -47828.43229157
  -exchange      EXHF   =         0.00000000
  -V(xc)+E(xc)   XCENC  =      -231.62461838
  PAW double counting   =      4192.45640397    -3610.44901008
  entropy T*S    EENTRO =        -0.34118844
  eigenvalues    EBANDS =     -1442.70245130
  atomic energy  EATOM  =      6761.44252427
  Solvation  Ediel_sol  =         0.00000000
  ---------------------------------------------------
  free energy    TOTEN  =      -186.82316739 eV

  energy without entropy =     -186.48197895  energy(sigma->0) =     -186.65257317


--------------------------------------------------------------------------------------------------------




----------------------------------------- Iteration    1(  22)  ---------------------------------------


    POTLOK:  cpu time    0.0304: real time    0.0307
    SETDIJ:  cpu time    0.0024: real time    0.0024
     EDDAV:  cpu time   18.6650: real time   18.7099
       DOS:  cpu time    0.0012: real time    0.0012
    CHARGE:  cpu time    0.4988: real time    0.4999
    MIXING:  cpu time    0.0020: real time    0.0020
    --------------------------------------------
      LOOP:  cpu time   19.2010: real time   19.2549

 eigenvalue-minimisations  :  6640
 total energy-change (2. order) :-0.7891231E-03  (-0.7683900E-05)
 number of electron     159.0000089 magnetization 
 augmentation part       -4.1897094 magnetization 

 Broyden mixing:
  rms(total) = 0.24396E-02    rms(broyden)= 0.24377E-02
  rms(prec ) = 0.30433E-02
  weight for this iteration     100.00

 eigenvalues of (default mixing * dielectric matrix)
  average eigenvalue GAMMA=   1.0676
  4.7612  2.4906  2.4906  1.6300  1.4156  1.0150  1.0150  0.6398  0.6398  0.3754
  0.3897  0.2976  0.2202  0.2505  0.2526  0.1414  0.1241

 Free energy of the ion-electron system (eV)
  ---------------------------------------------------
  alpha Z        PSCENC =        81.65567618
  Ewald energy   TEWEN  =     41891.17178796
  -Hartree energ DENC   =    -47830.22631145
[...]
    104      -0.5567      0.00000
    105      -0.4816      0.00000
    106      -0.4048      0.00000
    107      -0.3447      0.00000
    108      -0.1101      0.00000
    109       0.0109      0.00000
    110       0.1336      0.00000
    111       0.3577      0.00000
    112       0.5862      0.00000
    113       0.7511      0.00000
    114       0.9881      0.00000
    115       1.1803      0.00000
    116       1.3069      0.00000
    117       1.5761      0.00000
    118       2.1633      0.00000
    119       2.3117      0.00000
    120       2.4217      0.00000

 k-point    34 :       0.5000    0.5000    0.0000
  band No.  band energies     occupation 
      1     -17.5065      2.00000
      2     -17.3496      2.00000
      3     -16.7462      2.00000
      4     -16.7177      2.00000
      5     -16.5832      2.00000
      6     -16.5498      2.00000
      7     -16.2790      2.00000
      8     -16.1984      2.00000
      9     -16.1166      2.00000
     10     -16.0831      2.00000
     11     -15.8801      2.00000
     12     -15.8344      2.00000
     13     -15.7691      2.00000
     14     -15.6988      2.00000
     15     -15.6423      2.00000
     16     -15.4311      2.00000
     17     -15.3395      2.00000
     18     -15.2161      2.00000
     19      -9.8141      2.00000
     20      -9.3528      2.00000
     21      -9.3031      2.00000
     22      -9.0084      2.00000
     23      -8.9406      2.00000
     24      -8.8331      2.00000
     25      -8.6774      2.00000
     26      -8.6623      2.00000
     27      -8.4415      2.00000
     28      -8.2933      2.00000
     29      -8.2304      2.00000
     30      -8.1326      2.00000
     31      -8.0842      2.00000
     32      -8.0154      2.00000
     33      -7.9254      2.00000
     34      -7.8479      2.00000
     35      -7.7445      2.00000
     36      -7.6821      2.00000
     37      -7.6435      2.00000
     38      -7.5948      2.00000
     39      -7.4670      2.00000
     40      -7.3374      2.00000
     41      -7.0948      2.00000
     42      -7.0723      2.00000
     43      -7.0048      2.00000
     44      -6.8527      2.00000
     45      -6.8273      2.00000
     46      -6.7135      2.00000
     47      -6.6509      2.00000
     48      -6.5899      2.00000
     49      -6.5210      2.00000
     50      -6.4608      2.00000
     51      -6.4139      2.00000
     52      -6.3472      2.00000
     53      -6.2717      2.00000
     54      -6.1846      2.00000
     55      -6.1137      2.00000
     56      -6.0995      2.00000
     57      -6.0115      2.00000
     58      -5.8457      2.00000
     59      -5.8146      2.00000
     60      -5.7927      2.00000
     61      -5.6328      2.00000
     62      -5.5991      2.00000
     63      -5.5356      2.00000
     64      -5.4097      2.00000
     65      -5.2267      2.00000
     66      -5.0689      2.00000
     67      -5.0012      2.00000
     68      -4.9565      2.00000
     69      -4.8335      2.00000
     70      -4.6325      2.00000
     71      -4.5775      2.00000
     72      -4.4466      2.00000
     73      -4.3367      2.00000
     74      -4.1769      2.00000
     75      -4.0395      2.00000
     76      -4.0100      2.00000
     77      -3.8632      1.99999
     78      -3.6861      1.99796
     79      -3.4674      1.87588
     80      -3.3416      1.48275
     81      -2.9944      0.07068
     82      -2.9553      0.03716
     83      -2.6645      0.00003
     84      -2.6139      0.00001
     85      -2.4601      0.00000
     86      -2.3462      0.00000
     87      -2.1915      0.00000
     88      -2.1020      0.00000
     89      -1.9284      0.00000
     90      -1.8469      0.00000
     91      -1.6580      0.00000
     92      -1.5657      0.00000
     93      -1.3921      0.00000
     94      -1.3718      0.00000
     95      -1.2005      0.00000
     96      -1.0905      0.00000
     97      -1.0743      0.00000
     98      -1.0007      0.00000
     99      -0.9327      0.00000
    100      -0.8966      0.00000
    101      -0.8230      0.00000
    102      -0.7091      0.00000
    103      -0.6325      0.00000
    104      -0.5990      0.00000
    105      -0.4806      0.00000
    106      -0.4084      0.00000
    107      -0.2999      0.00000
    108      -0.1181      0.00000
    109       0.0188      0.00000
    110       0.1979      0.00000
    111       0.2740      0.00000
    112       0.5859      0.00000
    113       0.7709      0.00000
    114       1.0469      0.00000
    115       1.1418      0.00000
    116       1.3265      0.00000
    117       1.5725      0.00000
    118       2.2528      0.00000
    119       2.2667      0.00000
    120       2.4071      0.00000


--------------------------------------------------------------------------------------------------------


 soft charge-density along one line, spin component           1
         0         1         2         3         4         5         6         7         8         9
 total charge-density along one line
 
 pseudopotential strength for first ion, spin component:           1
 -7.222  -0.012  -0.023   0.010   0.001   0.675   0.003   0.007
 -0.012  -7.131   0.004   0.017  -0.010   0.003   0.647  -0.001
 -0.023   0.004  -7.081  -0.004  -0.006   0.007  -0.001   0.634
  0.010   0.017  -0.004  -7.122   0.004  -0.003  -0.005   0.001
  0.001  -0.010  -0.006   0.004  -7.221  -0.000   0.003   0.002
  0.675   0.003   0.007  -0.003  -0.000   0.333  -0.000  -0.002
  0.003   0.647  -0.001  -0.005   0.003  -0.000   0.341   0.001
  0.007  -0.001   0.634   0.001   0.002  -0.002   0.001   0.344
 -0.003  -0.005   0.001   0.644  -0.000   0.001   0.001  -0.000
 -0.000   0.003   0.002  -0.000   0.674   0.000  -0.001  -0.001
 -0.007  -0.003  -0.021   0.001  -0.001   0.002   0.001   0.005
 -0.002  -0.001  -0.007   0.001  -0.000   0.001   0.000   0.002
  0.004   0.003  -0.001   0.003  -0.006   0.000  -0.001  -0.001
  0.003   0.010   0.001   0.006  -0.001  -0.000  -0.000  -0.000
  0.006   0.003  -0.002   0.000   0.004   0.000  -0.000  -0.000
  0.003   0.002   0.000   0.003  -0.003  -0.001  -0.000  -0.000
  0.003   0.007  -0.000   0.005  -0.001  -0.000  -0.001   0.000
  0.004   0.003  -0.001  -0.001   0.003  -0.001  -0.000   0.000
 total augmentation occupancy for first ion, spin component:           1
  0.806   0.155  -0.048  -0.003   0.034   0.436   0.224  -0.004  -0.002   0.007   0.031  -0.001  -0.011   0.063   0.003  -0.002
  0.155   1.070   0.034  -0.014  -0.020   0.222   0.637   0.035  -0.007  -0.004   0.006   0.003   0.046   0.078   0.060   0.002
 -0.048   0.034   0.857  -0.001  -0.011  -0.002   0.035   0.344   0.021  -0.001   0.148   0.005   0.071  -0.001   0.036   0.003
 -0.003  -0.014  -0.001   1.075  -0.147  -0.002  -0.007   0.020   0.653  -0.202   0.016   0.002   0.071   0.029  -0.009   0.002
  0.034  -0.020  -0.011  -0.147   0.832   0.008  -0.005  -0.001  -0.205   0.443  -0.015   0.002   0.019  -0.025  -0.009   0.002
  0.436   0.222  -0.002  -0.002   0.008   0.376   0.225   0.004  -0.000  -0.004  -0.012  -0.001   0.014   0.066   0.026  -0.001
  0.224   0.637   0.035  -0.007  -0.005   0.225   0.574   0.024  -0.001  -0.007   0.024   0.004   0.046   0.089   0.064   0.004
 -0.004   0.035   0.344   0.020  -0.001   0.004   0.024   0.275   0.013  -0.005   0.040   0.009   0.020   0.003   0.011   0.004
 -0.002  -0.007   0.021   0.653  -0.205  -0.000  -0.001   0.013   0.579  -0.209   0.032   0.004   0.061   0.047  -0.024   0.005
  0.007  -0.004  -0.001  -0.202   0.443  -0.004  -0.007  -0.005  -0.209   0.364   0.009   0.001  -0.027  -0.037   0.010   0.000
  0.031   0.006   0.148   0.016  -0.015  -0.012   0.024   0.040   0.032   0.009   1.389   0.138   0.045   0.021   0.007   0.002
 -0.001   0.003   0.005   0.002   0.002  -0.001   0.004   0.009   0.004   0.001   0.138   0.026   0.009   0.001   0.005   0.001
 -0.011   0.046   0.071   0.071   0.019   0.014   0.046   0.020   0.061  -0.027   0.045   0.009   0.357   0.005   0.006   0.026
  0.063   0.078  -0.001   0.029  -0.025   0.066   0.089   0.003   0.047  -0.037   0.021   0.001   0.005   0.420   0.008  -0.000
  0.003   0.060   0.036  -0.009  -0.009   0.026   0.064   0.011  -0.024   0.010   0.007   0.005   0.006   0.008   0.352  -0.000
 -0.002   0.002   0.003   0.002   0.002  -0.001   0.004   0.004   0.005   0.000   0.002   0.001   0.026  -0.000  -0.000   0.003
  0.003  -0.001   0.001  -0.001  -0.001   0.005   0.005   0.000   0.002  -0.003   0.001   0.000  -0.000   0.029   0.000   0.000
 -0.003   0.002   0.002   0.000  -0.002  -0.001   0.005   0.003  -0.002  -0.001   0.001   0.000  -0.000   0.000   0.027  -0.000


------------------------ aborting loop because EDIFF is reached ----------------------------------------


    CHARGE:  cpu time    0.4521: real time    0.4532
    FORLOC:  cpu time    0.0063: real time    0.0063
    FORNL :  cpu time    5.2536: real time    5.2662
    STRESS:  cpu time   32.4106: real time   32.4881
    FORCOR:  cpu time    0.0333: real time    0.0338
    FORHAR:  cpu time    0.0123: real time    0.0123
    MIXING:  cpu time    0.0012: real time    0.0012
    OFIELD:  cpu time    0.0000: real time    0.0000

  FORCE on cell =-STRESS in cart. coord.  units (eV):
  Direction    XX          YY          ZZ          XY          YZ          ZX
  --------------------------------------------------------------------------------------
  Alpha Z    89.50085    89.50085    89.50085
  Ewald   49354.29899 49308.65859-54271.80773   -39.34912    21.03574    12.03038
  Hartree 50060.56276 50031.62537-49692.49349   -24.98841    11.74777     6.75984
  E(xc)    -609.58697  -610.63433  -617.86274    -0.90871    -0.94463    -0.54338
  Local  ************************101402.04889    57.50222   -40.95182   -23.49872
  n-local  1213.70666  1215.56779  1248.95531     1.64168    -2.29466    -1.34934
  augment  -213.14866  -212.63427  -214.45034     0.44197     0.98090     0.57304
  Kinetic  2008.09971  2014.66527  2054.54067     5.69118    10.22485     5.91016
  Fock        0.00000     0.00000     0.00000     0.00000     0.00000     0.00000
  -------------------------------------------------------------------------------------
  Total       0.08406     0.11652    -1.56856     0.03081    -0.20184    -0.11801
  in kB       0.05631     0.07805    -1.05064     0.02064    -0.13520    -0.07904
  external pressure =       -0.31 kB  Pullay stress =        0.00 kB


 VOLUME and BASIS-vectors are now :
 -----------------------------------------------------------------------------
  energy-cutoff  :      280.00
  volume of cell :     2391.99
      direct lattice vectors                 reciprocal lattice vectors
     8.309170236  4.822867606  0.000000000     0.060018634  0.103941264  0.000000000
    -8.287562766  4.785473766  0.000000000    -0.060487621  0.104212262  0.000000000
     0.000000000  0.000000000 30.000000000     0.000000000  0.000000000  0.033333333

  length of vectors
     9.607411824  9.569976791 30.000000000     0.120025092  0.120494596  0.033333333


 FORCES acting on ions
    electron-ion (+dipol)            ewald-force                    non-local-force                 convergence-correction
 -----------------------------------------------------------------------------------------------
   0.128E+02 0.204E+02 0.143E+02   -.139E+02 -.216E+02 -.141E+02   0.104E+01 0.119E+01 -.254E+00   0.440E-01 -.180E-01 0.216E-01
   0.113E+02 0.214E+02 0.143E+02   -.118E+02 -.229E+02 -.141E+02   0.507E+00 0.149E+01 -.253E+00   -.368E-01 0.288E-01 0.218E-01
   -.132E+02 -.229E+02 -.120E+02   0.140E+02 0.243E+02 0.117E+02   -.765E+00 -.133E+01 0.303E+00   -.217E-01 -.392E-01 -.225E-01
   0.640E+01 0.115E+02 0.352E+01   -.636E+01 -.114E+02 -.351E+01   -.111E+00 -.192E+00 -.128E-01   0.567E-01 0.985E-01 0.988E-02
   -.637E+01 0.306E+01 0.204E+01   0.614E+01 -.300E+01 -.206E+01   0.254E+00 -.128E+00 0.218E-01   -.562E-02 0.394E-01 -.909E-03
   0.601E+01 -.411E+01 0.206E+01   -.583E+01 0.394E+01 -.208E+01   -.239E+00 0.156E+00 0.218E-01   0.361E-01 0.136E-01 -.862E-03
   -.184E+02 -.271E+02 -.225E+02   0.191E+02 0.278E+02 0.223E+02   -.568E+00 -.702E+00 0.220E+00   -.528E-01 -.377E-02 -.249E-02
   -.143E+02 -.296E+02 -.225E+02   0.146E+02 0.305E+02 0.223E+02   -.323E+00 -.838E+00 0.219E+00   0.225E-01 -.469E-01 -.285E-02
   0.172E+02 0.298E+02 0.187E+02   -.176E+02 -.305E+02 -.186E+02   0.378E+00 0.651E+00 -.163E+00   0.432E-02 0.907E-02 0.522E-02
   -.803E+01 -.113E+02 0.488E+03   0.849E+01 0.113E+02 -.493E+03   -.357E+00 0.820E-01 0.488E+01   -.967E-01 -.417E-01 -.545E-01
   0.376E+01 0.651E+01 -.481E+03   -.361E+01 -.624E+01 0.485E+03   -.119E+00 -.208E+00 -.459E+01   -.274E-01 -.488E-01 0.111E+00
   -.627E+01 -.108E+02 0.505E+03   0.611E+01 0.105E+02 -.511E+03   0.177E+00 0.303E+00 0.524E+01   -.185E-01 -.289E-01 0.244E-01
   0.142E+01 0.933E+01 -.497E+03   -.870E+00 -.894E+01 0.502E+03   -.438E+00 -.385E+00 -.506E+01   -.998E-01 -.255E-02 0.353E-01
   -.583E+01 -.127E+02 0.488E+03   0.556E+01 0.131E+02 -.493E+03   0.248E+00 -.268E+00 0.488E+01   0.134E-01 -.106E+00 -.534E-01
   0.737E+01 0.584E+01 -.497E+03   -.731E+01 -.516E+01 0.502E+03   -.116E+00 -.572E+00 -.506E+01   0.466E-01 -.883E-01 0.339E-01
   0.115E+02 0.201E+02 0.586E+03   -.122E+02 -.212E+02 -.589E+03   0.592E+00 0.103E+01 0.322E+01   0.387E-01 0.656E-01 -.132E+00
   0.983E+01 0.117E+02 -.590E+03   -.110E+02 -.133E+02 0.593E+03   0.103E+01 0.157E+01 -.312E+01   0.769E-01 0.753E-01 0.658E-01
   0.694E+01 0.240E+02 0.610E+03   -.722E+01 -.248E+02 -.613E+03   0.335E+00 0.753E+00 0.363E+01   -.532E-01 0.865E-01 -.501E-01
   0.526E+01 0.145E+02 -.590E+03   -.613E+01 -.163E+02 0.593E+03   0.837E+00 0.167E+01 -.312E+01   0.277E-01 0.105E+00 0.670E-01
   0.174E+02 0.180E+02 0.610E+03   -.179E+02 -.186E+02 -.613E+03   0.484E+00 0.666E+00 0.363E+01   0.101E+00 -.257E-02 -.490E-01
   0.746E+01 0.129E+02 -.621E+03   -.813E+01 -.140E+02 0.624E+03   0.661E+00 0.113E+01 -.348E+01   0.597E-02 0.114E-01 -.248E-01
   -.671E+01 -.701E+01 0.613E+03   0.714E+01 0.829E+01 -.616E+03   -.440E+00 -.129E+01 0.351E+01   0.229E-01 0.254E-01 0.242E-01
   -.128E+02 -.200E+02 -.605E+03   0.135E+02 0.207E+02 0.609E+03   -.582E+00 -.650E+00 -.364E+01   -.699E-01 -.132E-01 0.153E-01
   -.279E+01 -.938E+01 0.613E+03   0.369E+01 0.104E+02 -.617E+03   -.903E+00 -.102E+01 0.351E+01   0.116E-01 0.341E-01 0.248E-01
   -.109E+02 -.188E+02 -.633E+03   0.111E+02 0.191E+02 0.637E+03   -.204E+00 -.351E+00 -.401E+01   0.390E-02 0.955E-02 -.267E-01
   -.853E+01 -.148E+02 0.607E+03   0.925E+01 0.161E+02 -.610E+03   -.678E+00 -.119E+01 0.320E+01   -.277E-01 -.477E-01 -.725E-02
   -.109E+02 -.212E+02 -.605E+03   0.111E+02 0.221E+02 0.609E+03   -.273E+00 -.831E+00 -.364E+01   0.255E-01 -.670E-01 0.143E-01
 -----------------------------------------------------------------------------------------------
   -.452E+00 -.784E+00 -.115E+00   0.817E-13 -.888E-13 -.114E-12   0.425E+00 0.738E+00 0.773E-01   0.277E-01 0.476E-01 0.474E-01
 
 
 POSITION                                       TOTAL-FORCE (eV/Angst)
 -----------------------------------------------------------------------------------
      2.91877      1.85301     -0.05254         0.000552      0.012365     -0.032622
      0.14539      3.45432     -0.05268         0.010441      0.006347     -0.032554
     -0.13360     -0.23258      0.04718        -0.004355     -0.007497      0.036074
      2.81234      4.87453     -0.01004        -0.008246     -0.003615     -0.001437
     -0.03492      6.43318     -0.00621         0.015268     -0.026151      0.002438
      5.59013      3.18522     -0.00626        -0.025689     -0.002446      0.002291
      5.36563      6.14430      0.06940         0.010139      0.002236      0.019974
     -5.67107      2.89661      0.06932        -0.002580      0.011481      0.019957
     -2.58893      5.08536     -0.06098        -0.000803     -0.002769     -0.015305
     -0.91021      1.59445     28.71763         0.002368     -0.008938      0.006406
      0.93173      1.61339      1.25979         0.003079      0.005630     -0.015940
     -3.67694      3.20077     28.66909        -0.000226     -0.001148      0.005543
     -1.82521      3.19548      1.30980         0.014788      0.006463     -0.007124
     -6.45116      4.79405     28.71726        -0.008869     -0.002028      0.006381
     -4.60738      4.80209      1.30961        -0.001862      0.015930     -0.006812
      1.84451      3.19468     28.40644         0.010163      0.019567     -0.018100
      3.69117      3.19486      1.57573        -0.021482     -0.015588     -0.014877
     -0.87351      4.80703     28.33449         0.006607      0.002308     -0.017914
      0.92117      4.79389      1.57668        -0.004041     -0.027590     -0.013923
     -3.68753      6.43213     28.33468        -0.000413      0.006804     -0.019137
     -1.80788      6.43839      1.66645        -0.003715     -0.007783     -0.003252
      4.60656      4.76853     28.35299         0.010225      0.014751      0.003518
      6.49801      4.79281      1.65283        -0.016085     -0.014893      0.026305
      1.82656      6.37437     28.35207         0.008009      0.017819      0.000530
      3.66825      6.35421      1.74109         0.004276      0.008627      0.021816
     -0.88519      8.03642     28.37318         0.006655      0.010685      0.021685
      0.90173      8.02431      1.65301        -0.004205     -0.020566      0.026080
 -----------------------------------------------------------------------------------
    total drift:                                0.001414      0.002121      0.009344


--------------------------------------------------------------------------------------------------------



  FREE ENERGIE OF THE ION-ELECTRON SYSTEM (eV)
  ---------------------------------------------------
  free  energy   TOTEN  =      -192.33529331 eV

  energy  without entropy=     -192.20068446  energy(sigma->0) =     -192.26798889
 
 d Force =-0.1029493E-02[-0.114E-02,-0.917E-03]  d Energy =-0.9472939E-03-0.822E-04
 d Force =-0.1217273E+01[-0.120E+01,-0.123E+01]  d Ewald  =-0.2051197E+02 0.193E+02


--------------------------------------------------------------------------------------------------------


    POTLOK:  cpu time    0.0344: real time    0.0345


--------------------------------------------------------------------------------------------------------


 Quasi-Newton relaxation of ions (Broydens 2nd method)
  g(Force)  = 0.760E-03   g(Stress)= 0.403E-04

 retain information from N=  1 steps
 eigenvalues of (default step * inverse Hessian matrix)
  average eigenvalue of G=   0.4354
 eigenvalue spectrum of G is  0.4354


--------------------------------------------------------------------------------------------------------


  
 reached required accuracy - stopping structural energy minimisation
     LOOP+:  cpu time  159.9259: real time  160.3302
    4ORBIT:  cpu time    0.0000: real time    0.0000

 total amount of memory used by VASP on root node   650782. kBytes
========================================================================

   base      :      30000. kBytes
   nonl-proj :     559647. kBytes
   fftplans  :       2414. kBytes
   grid      :      12150. kBytes
   one-center:        419. kBytes
   wavefun   :      46152. kBytes
 
  
  
 General timing and accounting informations for this job:
 ========================================================
  
                  Total CPU time used (sec):     6077.403
                            User time (sec):     6052.433
                          System time (sec):       24.970
                         Elapsed time (sec):     6093.350
  
                   Maximum memory used (kb):      740024.
                   Average memory used (kb):           0.
  
                          Minor page faults:      1002586
                          Major page faults:            2
                 Voluntary context switches:         4680
