<?xml version="1.0" encoding="ISO-8859-1"?>
<modeling>
 <generator>
  <i name="program" type="string">vasp </i>
  <i name="version" type="string">5.4.1  </i>
  <i name="subversion" type="string">05Feb16 (build Jul 05 2020 17:13:04) complex                          parallel </i>
  <i name="platform" type="string">IFC91_ompi </i>
  <i name="date" type="string">2024 07 05 </i>
  <i name="time" type="string">03:41:55 </i>
 </generator>
 <incar>
  <i type="int" name="ISTART">     0</i>
  <i type="string" name="PREC">normal</i>
  <i type="string" name="ALGO"> Normal</i>
  <i type="int" name="ISPIN">     1</i>
  <i type="int" name="ICHARG">     2</i>
  <i type="int" name="IBRION">     1</i>
  <i type="int" name="NSW">   100</i>
  <i type="int" name="ISIF">     3</i>
  <i type="int" name="ISYM">     0</i>
  <i name="SYMPREC">      0.00000001</i>
  <i name="POTIM">      0.50000000</i>
  <i type="logical" name="LREAL"> F  </i>
  <i type="logical" name="LPLANE"> F  </i>
  <i type="int" name="ISMEAR">     0</i>
  <i type="logical" name="LWAVE"> F  </i>
  <i type="logical" name="LCHARG"> F  </i>
  <v type="int" name="KPOINT_BSE">    -1     0     0     0</v>
 </incar>
 <kpoints>
  <generation param="Gamma">
   <v type="int" name="divisions">       8        8        1 </v>
   <v name="usershift">      0.00000000       0.00000000       0.00000000 </v>
   <v name="genvec1">      0.12500000       0.00000000       0.00000000 </v>
   <v name="genvec2">     -0.00000000       0.12500000       0.00000000 </v>
   <v name="genvec3">      0.00000000       0.00000000       1.00000000 </v>
   <v name="shift">      0.00000000       0.00000000       0.00000000 </v>
  </generation>
  <varray name="kpointlist" >
   <v>       0.00000000       0.00000000       0.00000000 </v>
   <v>       0.12500000       0.00000000       0.00000000 </v>
   <v>       0.25000000       0.00000000       0.00000000 </v>
   <v>       0.37500000       0.00000000       0.00000000 </v>
   <v>       0.50000000       0.00000000       0.00000000 </v>
   <v>       0.00000000       0.12500000       0.00000000 </v>
   <v>       0.12500000       0.12500000       0.00000000 </v>
   <v>       0.25000000       0.12500000       0.00000000 </v>
   <v>       0.37500000       0.12500000       0.00000000 </v>
   <v>       0.50000000       0.12500000       0.00000000 </v>
   <v>      -0.37500000       0.12500000       0.00000000 </v>
   <v>      -0.25000000       0.12500000       0.00000000 </v>
   <v>      -0.12500000       0.12500000       0.00000000 </v>
   <v>       0.00000000       0.25000000       0.00000000 </v>
   <v>       0.12500000       0.25000000       0.00000000 </v>
   <v>       0.25000000       0.25000000       0.00000000 </v>
   <v>       0.37500000       0.25000000       0.00000000 </v>
   <v>       0.50000000       0.25000000       0.00000000 </v>
   <v>      -0.37500000       0.25000000       0.00000000 </v>
   <v>      -0.25000000       0.25000000       0.00000000 </v>
   <v>      -0.12500000       0.25000000       0.00000000 </v>
   <v>      -0.00000000       0.37500000       0.00000000 </v>
   <v>       0.12500000       0.37500000       0.00000000 </v>
   <v>       0.25000000       0.37500000       0.00000000 </v>
   <v>       0.37500000       0.37500000       0.00000000 </v>
   <v>       0.50000000       0.37500000       0.00000000 </v>
   <v>      -0.37500000       0.37500000       0.00000000 </v>
   <v>      -0.25000000       0.37500000       0.00000000 </v>
   <v>      -0.12500000       0.37500000       0.00000000 </v>
   <v>       0.00000000       0.50000000       0.00000000 </v>
   <v>       0.12500000       0.50000000       0.00000000 </v>
   <v>       0.25000000       0.50000000       0.00000000 </v>
   <v>       0.37500000       0.50000000       0.00000000 </v>
   <v>       0.50000000       0.50000000       0.00000000 </v>
  </varray>
  <varray name="weights" >
   <v>       0.01562500 </v>
   <v>       0.03125000 </v>
   <v>       0.03125000 </v>
   <v>       0.03125000 </v>
   <v>       0.01562500 </v>
   <v>       0.03125000 </v>
   <v>       0.03125000 </v>
   <v>       0.03125000 </v>
   <v>       0.03125000 </v>
   <v>       0.03125000 </v>
   <v>       0.03125000 </v>
   <v>       0.03125000 </v>
   <v>       0.03125000 </v>
   <v>       0.03125000 </v>
   <v>       0.03125000 </v>
   <v>       0.03125000 </v>
   <v>       0.03125000 </v>
   <v>       0.03125000 </v>
   <v>       0.03125000 </v>
   <v>       0.03125000 </v>
   <v>       0.03125000 </v>
   <v>       0.03125000 </v>
   <v>       0.03125000 </v>
   <v>       0.03125000 </v>
   <v>       0.03125000 </v>
   <v>       0.03125000 </v>
   <v>       0.03125000 </v>
   <v>       0.03125000 </v>
   <v>       0.03125000 </v>
   <v>       0.01562500 </v>
   <v>       0.03125000 </v>
   <v>       0.03125000 </v>
   <v>       0.03125000 </v>
   <v>       0.01562500 </v>
  </varray>
 </kpoints>
 <parameters>
  <separator name="general" >
   <i type="string" name="SYSTEM">unknown system</i>
   <i type="logical" name="LCOMPAT"> F  </i>
  </separator>
  <separator name="electronic" >
   <i type="string" name="PREC">normal</i>
   <i name="ENMAX">    280.00000000</i>
   <i name="ENAUG">    373.43800000</i>
   <i name="EDIFF">      0.00010000</i>
   <i type="int" name="IALGO">    38</i>
   <i type="int" name="IWAVPR">    11</i>
   <i type="int" name="NBANDS">   120</i>
   <i name="NELECT">    159.00000000</i>
   <i type="int" name="TURBO">     0</i>
   <i type="int" name="IRESTART">     0</i>
   <i type="int" name="NREBOOT">     0</i>
   <i type="int" name="NMIN">     0</i>
   <i name="EREF">      0.00000000</i>
   <separator name="electronic smearing" >
    <i type="int" name="ISMEAR">     0</i>
    <i name="SIGMA">      0.20000000</i>
    <i name="KSPACING">      0.50000000</i>
    <i type="logical" name="KGAMMA"> T  </i>
   </separator>
   <separator name="electronic projectors" >
    <i type="logical" name="LREAL"> F  </i>
    <v name="ROPT">      0.00000000      0.00000000      0.00000000      0.00000000</v>
    <i type="int" name="LMAXPAW">  -100</i>
    <i type="int" name="LMAXMIX">     2</i>
    <i type="logical" name="NLSPLINE"> F  </i>
   </separator>
   <separator name="electronic startup" >
    <i type="int" name="ISTART">     0</i>
    <i type="int" name="ICHARG">     2</i>
    <i type="int" name="INIWAV">     1</i>
   </separator>
   <separator name="electronic spin" >
    <i type="int" name="ISPIN">     1</i>
    <i type="logical" name="LNONCOLLINEAR"> F  </i>
    <v name="MAGMOM">      1.00000000      1.00000000      1.00000000      1.00000000      1.00000000      1.00000000      1.00000000      1.00000000      1.00000000      1.00000000      1.00000000      1.00000000      1.00000000      1.00000000      1.00000000      1.00000000      1.00000000      1.00000000      1.00000000      1.00000000
      1.00000000      1.00000000      1.00000000      1.00000000      1.00000000      1.00000000      1.00000000</v>
    <i name="NUPDOWN">     -1.00000000</i>
    <i type="logical" name="LSORBIT"> F  </i>
    <v name="SAXIS">      0.00000000      0.00000000      1.00000000</v>
    <i type="logical" name="LSPIRAL"> F  </i>
    <v name="QSPIRAL">      0.00000000      0.00000000      0.00000000</v>
    <i type="logical" name="LZEROZ"> F  </i>
   </separator>
   <separator name="electronic exchange-correlation" >
    <i type="logical" name="LASPH"> F  </i>
    <i type="logical" name="LMETAGGA"> F  </i>
   </separator>
   <separator name="electronic convergence" >
    <i type="int" name="NELM">    60</i>
    <i type="int" name="NELMDL">    -5</i>
    <i type="int" name="NELMIN">     2</i>
    <i name="ENINI">    280.00000000</i>
    <separator name="electronic convergence detail" >
     <i type="logical" name="LDIAG"> T  </i>
     <i type="logical" name="LSUBROT"> F  </i>
     <i name="WEIMIN">      0.00100000</i>
     <i name="EBREAK">      0.00000021</i>
     <i name="DEPER">      0.30000000</i>
     <i type="int" name="NRMM">     4</i>
     <i name="TIME">      0.40000000</i>
    </separator>
   </separator>
   <separator name="electronic mixer" >
    <i name="AMIX">      0.40000000</i>
    <i name="BMIX">      1.00000000</i>
    <i name="AMIN">      0.10000000</i>
    <i name="AMIX_MAG">      1.60000000</i>
    <i name="BMIX_MAG">      1.00000000</i>
    <separator name="electronic mixer details" >
     <i type="int" name="IMIX">     4</i>
     <i type="logical" name="MIXFIRST"> F  </i>
     <i type="int" name="MAXMIX">   -45</i>
     <i name="WC">    100.00000000</i>
     <i type="int" name="INIMIX">     1</i>
     <i type="int" name="MIXPRE">     1</i>
     <i type="int" name="MREMOVE">     5</i>
    </separator>
   </separator>
   <separator name="electronic dipolcorrection" >
    <i type="logical" name="LDIPOL"> F  </i>
    <i type="logical" name="LMONO"> F  </i>
    <i type="int" name="IDIPOL">     0</i>
    <i name="EPSILON">      1.00000000</i>
    <v name="DIPOL">   -100.00000000   -100.00000000   -100.00000000</v>
    <i name="EFIELD">      0.00000000</i>
   </separator>
  </separator>
  <separator name="grids" >
   <i type="int" name="NGX">    42</i>
   <i type="int" name="NGY">    42</i>
   <i type="int" name="NGZ">   126</i>
   <i type="int" name="NGXF">    84</i>
   <i type="int" name="NGYF">    84</i>
   <i type="int" name="NGZF">   252</i>
   <i type="logical" name="ADDGRID"> F  </i>
  </separator>
  <separator name="ionic" >
   <i type="int" name="NSW">   100</i>
   <i type="int" name="IBRION">     1</i>
   <i type="int" name="ISIF">     3</i>
   <i name="PSTRESS">      0.00000000</i>
   <i name="EDIFFG">      0.00100000</i>
   <i type="int" name="NFREE">     0</i>
   <i name="POTIM">      0.50000000</i>
   <i name="SMASS">     -3.00000000</i>
   <i name="SCALEE">      1.00000000</i>
  </separator>
  <separator name="ionic md" >
   <i name="TEBEG">      0.00010000</i>
   <i name="TEEND">      0.00010000</i>
   <i type="int" name="NBLOCK">     1</i>
   <i type="int" name="KBLOCK">   100</i>
   <i type="int" name="NPACO">   256</i>
   <i name="APACO">     16.00000000</i>
  </separator>
  <separator name="symmetry" >
   <i type="int" name="ISYM">     0</i>
   <i name="SYMPREC">      0.00000001</i>
  </separator>
  <separator name="dos" >
   <i type="logical" name="LORBIT"> F  </i>
   <v name="RWIGS">     -1.00000000     -1.00000000     -1.00000000     -1.00000000</v>
   <i type="int" name="NEDOS">   301</i>
   <i name="EMIN">     10.00000000</i>
   <i name="EMAX">    -10.00000000</i>
   <i name="EFERMI">      0.00000000</i>
  </separator>
  <separator name="writing" >
   <i type="int" name="NWRITE">     2</i>
   <i type="logical" name="LWAVE"> F  </i>
   <i type="logical" name="LCHARG"> F  </i>
   <i type="logical" name="LPARD"> F  </i>
   <i type="logical" name="LVTOT"> F  </i>
   <i type="logical" name="LVHAR"> F  </i>
   <i type="logical" name="LELF"> F  </i>
   <i type="logical" name="LOPTICS"> F  </i>
   <v name="STM">      0.00000000      0.00000000      0.00000000      0.00000000      0.00000000      0.00000000      0.00000000</v>
  </separator>
  <separator name="performance" >
   <i type="int" name="NPAR">    40</i>
   <i type="int" name="NSIM">     4</i>
   <i type="int" name="NBLK">    -1</i>
   <i type="logical" name="LPLANE"> F  </i>
   <i type="logical" name="LSCALAPACK"> T  </i>
   <i type="logical" name="LSCAAWARE"> F  </i>
   <i type="logical" name="LSCALU"> F  </i>
   <i type="logical" name="LASYNC"> F  </i>
   <i type="logical" name="LORBITALREAL"> F  </i>
  </separator>
  <separator name="miscellaneous" >
   <i type="int" name="IDIOT">     3</i>
   <i type="logical" name="LMUSIC"> F  </i>
   <v name="POMASS">     50.94100000     95.94000000    183.85000000     32.06600000</v>
   <v name="DARWINR">      0.00000000      0.00000000      0.00000000      0.00000000</v>
   <v name="DARWINV">      1.00000000      1.00000000      1.00000000      1.00000000</v>
   <i type="logical" name="LCORR"> T  </i>
  </separator>
  <i type="logical" name="GGA_COMPAT"> T  </i>
  <i type="logical" name="LBERRY"> F  </i>
  <i type="int" name="ICORELEVEL">     0</i>
  <i type="logical" name="LDAU"> F  </i>
  <i type="int" name="I_CONSTRAINED_M">     0</i>
  <separator name="electronic exchange-correlation" >
   <i type="string" name="GGA">--</i>
   <i type="int" name="VOSKOWN">     0</i>
   <i type="logical" name="LHFCALC"> F  </i>
   <i type="string" name="PRECFOCK"></i>
   <i type="logical" name="LSYMGRAD"> F  </i>
   <i type="logical" name="LHFONE"> F  </i>
   <i type="logical" name="LRHFCALC"> F  </i>
   <i type="logical" name="LTHOMAS"> F  </i>
   <i type="logical" name="LMODELHF"> F  </i>
   <i name="ENCUT4O">     -1.00000000</i>
   <i type="int" name="EXXOEP">     0</i>
   <i type="int" name="FOURORBIT">     0</i>
   <i name="AEXX">      0.00000000</i>
   <i name="HFALPHA">      0.00000000</i>
   <i name="MCALPHA">      0.00000000</i>
   <i name="ALDAX">      1.00000000</i>
   <i name="AGGAX">      1.00000000</i>
   <i name="ALDAC">      1.00000000</i>
   <i name="AGGAC">      1.00000000</i>
   <i type="int" name="NKREDX">     1</i>
   <i type="int" name="NKREDY">     1</i>
   <i type="int" name="NKREDZ">     1</i>
   <i type="logical" name="SHIFTRED"> F  </i>
   <i type="logical" name="ODDONLY"> F  </i>
   <i type="logical" name="EVENONLY"> F  </i>
   <i type="int" name="LMAXFOCK">     0</i>
   <i type="int" name="NMAXFOCKAE">     0</i>
   <i type="logical" name="LFOCKAEDFT"> F  </i>
   <i name="HFSCREEN">      0.00000000</i>
   <i name="HFSCREENC">      0.00000000</i>
   <i type="int" name="NBANDSGWLOW">     0</i>
  </separator>
  <separator name="vdW DFT" >
   <i type="logical" name="LUSE_VDW"> F  </i>
   <i name="Zab_VDW">     -0.84910000</i>
   <i name="PARAM1">      0.12340000</i>
   <i name="PARAM2">      1.00000000</i>
   <i name="PARAM3">      0.00000000</i>
  </separator>
  <separator name="model GW" >
   <i type="int" name="MODEL_GW">     0</i>
   <i name="MODEL_EPS0">     58.26239943</i>
   <i name="MODEL_ALPHA">      1.00000000</i>
  </separator>
  <separator name="linear response parameters" >
   <i type="logical" name="LEPSILON"> F  </i>
   <i type="logical" name="LRPA"> F  </i>
   <i type="logical" name="LNABLA"> F  </i>
   <i type="logical" name="LVEL"> F  </i>
   <i type="int" name="KINTER">     0</i>
   <i name="CSHIFT">      0.10000000</i>
   <i name="OMEGAMAX">     -1.00000000</i>
   <i name="DEG_THRESHOLD">      0.00200000</i>
  </separator>
  <separator name="orbital magnetization" >
   <i type="logical" name="NUCIND"> F  </i>
   <v name="MAGPOS">      0.00000000      0.00000000      0.00000000</v>
   <i type="logical" name="LNICSALL"> T  </i>
   <i type="logical" name="ORBITALMAG"> F  </i>
   <i type="logical" name="LMAGBLOCH"> F  </i>
   <i type="logical" name="LCHIMAG"> F  </i>
   <i type="logical" name="LGAUGE"> T  </i>
   <i type="int" name="MAGATOM">     0</i>
   <v name="MAGDIPOL">      0.00000000      0.00000000      0.00000000</v>
   <v name="AVECCONST">      0.00000000      0.00000000      0.00000000</v>
  </separator>
  <separator name="response functions" >
   <i type="logical" name="LADDER"> F  </i>
   <i type="logical" name="LFXC"> F  </i>
   <i type="logical" name="LHARTREE"> T  </i>
   <i type="int" name="IBSE">     0</i>
   <v type="int" name="KPOINT">    -1     0     0     0</v>
   <i type="logical" name="LTCTE"> F  </i>
   <i type="logical" name="LTETE"> F  </i>
   <i type="logical" name="LTRIPLET"> F  </i>
   <i type="logical" name="LFXCEPS"> F  </i>
   <i type="logical" name="LFXHEG"> F  </i>
   <i type="int" name="NATURALO">     0</i>
   <i type="logical" name="L2ORDER"> F  </i>
   <i type="logical" name="LUSEW"> F  </i>
   <i name="ENCUTGW">     -2.00000000</i>
   <i name="ENCUTGWSOFT">     -2.00000000</i>
   <i name="ENCUTLF">     -1.00000000</i>
   <i type="int" name="LMAXMP2">    -1</i>
   <i name="SCISSOR">      0.00000000</i>
   <i type="int" name="NOMEGA">     0</i>
   <i type="int" name="NOMEGAR">     0</i>
   <i type="int" name="NBANDSGW">    -1</i>
   <i type="int" name="NBANDSO">    -1</i>
   <i type="int" name="NBANDSV">    -1</i>
   <i type="int" name="NELM">     1</i>
   <i type="int" name="NELMHF">     1</i>
   <i type="int" name="DIM">     3</i>
   <i type="int" name="ANTIRES">     0</i>
   <i name="OMEGAMAX">    -30.00000000</i>
   <i name="OMEGAMIN">    -30.00000000</i>
   <i name="OMEGATL">   -200.00000000</i>
   <i type="int" name="OMEGAGRID">     0</i>
   <i name="CSHIFT">     -0.10000000</i>
   <i type="logical" name="SELFENERGY"> F  </i>
   <i type="logical" name="LSPECTRAL"> F  </i>
   <i type="logical" name="LSPECTRALGW"> F  </i>
   <i type="logical" name="LSINGLES"> F  </i>
   <i type="logical" name="LFERMIGW"> F  </i>
   <i type="logical" name="ODDONLYGW"> F  </i>
   <i type="logical" name="EVENONLYGW"> F  </i>
   <i type="int" name="NKREDLFX">     1</i>
   <i type="int" name="NKREDLFY">     1</i>
   <i type="int" name="NKREDLFZ">     1</i>
   <i type="int" name="MAXMEM">  1800</i>
   <i type="int" name="TELESCOPE">     0</i>
   <i type="int" name="TAUPAR">     1</i>
   <i type="int" name="OMEGAPAR">    -1</i>
   <i name="LAMBDA">      1.00000000</i>
  </separator>
  <separator name="External order field" >
   <i name="OFIELD_KAPPA">      0.00000000</i>
   <v name="OFIELD_K">      0.00000000      0.00000000      0.00000000</v>
   <i name="OFIELD_Q6_NEAR">      0.00000000</i>
   <i name="OFIELD_Q6_FAR">      0.00000000</i>
   <i name="OFIELD_A">      0.00000000</i>
  </separator>
 </parameters>
 <atominfo>
  <atoms>      27 </atoms>
  <types>       4 </types>
  <array name="atoms" >
   <dimension dim="1">ion</dimension>
   <field type="string">element</field>
   <field type="int">atomtype</field>
   <set>
    <rc><c>V </c><c>   1</c></rc>
    <rc><c>V </c><c>   1</c></rc>
    <rc><c>V </c><c>   1</c></rc>
    <rc><c>Mo</c><c>   2</c></rc>
    <rc><c>Mo</c><c>   2</c></rc>
    <rc><c>Mo</c><c>   2</c></rc>
    <rc><c>W </c><c>   3</c></rc>
    <rc><c>W </c><c>   3</c></rc>
    <rc><c>W </c><c>   3</c></rc>
    <rc><c>S </c><c>   4</c></rc>
    <rc><c>S </c><c>   4</c></rc>
    <rc><c>S </c><c>   4</c></rc>
    <rc><c>S </c><c>   4</c></rc>
    <rc><c>S </c><c>   4</c></rc>
    <rc><c>S </c><c>   4</c></rc>
    <rc><c>S </c><c>   4</c></rc>
    <rc><c>S </c><c>   4</c></rc>
    <rc><c>S </c><c>   4</c></rc>
    <rc><c>S </c><c>   4</c></rc>
    <rc><c>S </c><c>   4</c></rc>
    <rc><c>S </c><c>   4</c></rc>
    <rc><c>S </c><c>   4</c></rc>
    <rc><c>S </c><c>   4</c></rc>
    <rc><c>S </c><c>   4</c></rc>
    <rc><c>S </c><c>   4</c></rc>
    <rc><c>S </c><c>   4</c></rc>
    <rc><c>S </c><c>   4</c></rc>
   </set>
  </array>
  <array name="atomtypes" >
   <dimension dim="1">type</dimension>
   <field type="int">atomspertype</field>
   <field type="string">element</field>
   <field>mass</field>
   <field>valence</field>
   <field type="string">pseudopotential</field>
   <set>
    <rc><c>   3</c><c>V </c><c>     50.94100000</c><c>      5.00000000</c><c> PAW_PBE V 08Apr2002                    </c></rc>
    <rc><c>   3</c><c>Mo</c><c>     95.94000000</c><c>      6.00000000</c><c> PAW_PBE Mo 08Apr2002                   </c></rc>
    <rc><c>   3</c><c>W </c><c>    183.85000000</c><c>      6.00000000</c><c> PAW_PBE W 08Apr2002                    </c></rc>
    <rc><c>  18</c><c>S </c><c>     32.06600000</c><c>      6.00000000</c><c>  PAW_PBE S 17Jan2003                   </c></rc>
   </set>
  </array>
 </atominfo>
 <structure name="initialpos" >
  <crystal>
   <varray name="basis" >
    <v>       8.66999996       5.03999989       0.00000000 </v>
    <v>      -8.66999982       5.04000013       0.00000000 </v>
    <v>       0.00000000       0.00000000      30.00000000 </v>
   </varray>
   <i name="volume">   2621.80797419 </i>
   <varray name="rec_basis" >
    <v>       0.05767013       0.09920635       0.00000000 </v>
    <v>      -0.05767013       0.09920635       0.00000000 </v>
    <v>       0.00000000       0.00000000       0.03333333 </v>
   </varray>
  </crystal>
  <varray name="positions" >
   <v>       0.00000000       0.66666669       0.00000000 </v>
   <v>       0.66666669       0.66666669       0.00000000 </v>
   <v>       0.33333334       0.33333334       0.00000000 </v>
   <v>       0.00000000       0.00000000       0.00000000 </v>
   <v>       0.66666669       0.33333334       0.00000000 </v>
   <v>       0.66666669       0.00000000       0.00000000 </v>
   <v>       1.00000000       0.33333334       0.00000000 </v>
   <v>       0.33333334       0.00000000       0.00000000 </v>
   <v>       0.33333334       0.66666669       0.00000000 </v>
   <v>       0.11068511       0.22244981       0.95539999 </v>
   <v>       0.22244981       0.11068511       0.04460000 </v>
   <v>       0.11068511       0.55578315       0.95539999 </v>
   <v>       0.22244981       0.44401845       0.04460000 </v>
   <v>       0.11068511       0.88911647       0.95539999 </v>
   <v>       0.22244981       0.77735180       0.04460000 </v>
   <v>       0.44401845       0.22244981       0.95539999 </v>
   <v>       0.55578315       0.11068511       0.04460000 </v>
   <v>       0.44401845       0.55578315       0.95539999 </v>
   <v>       0.55578315       0.44401845       0.04460000 </v>
   <v>       0.44401845       0.88911647       0.95539999 </v>
   <v>       0.55578315       0.77735180       0.04460000 </v>
   <v>       0.77735180       0.22244981       0.95539999 </v>
   <v>       0.88911647       0.11068511       0.04460000 </v>
   <v>       0.77735180       0.55578315       0.95539999 </v>
   <v>       0.88911647       0.44401845       0.04460000 </v>
   <v>       0.77735180       0.88911647       0.95539999 </v>
   <v>       0.88911647       0.77735180       0.04460000 </v>
  </varray>
 </structure>
 <calculation>
  <scstep>
   <time name="dav">   22.68   22.74</time>
   <time name="total">   22.73   22.79</time>
   <energy>
    <i name="alphaZ">     81.65567618 </i>
    <i name="ewald">  41890.23010383 </i>
    <i name="hartreedc"> -47722.86569377 </i>
    <i name="XCdc">   -242.92872169 </i>
    <i name="pawpsdc">   3467.42045192 </i>
    <i name="pawaedc">  -2871.19716117 </i>
    <i name="eentropy">     -0.51949135 </i>
    <i name="bandstr">   -239.49048494 </i>
    <i name="atom">   6761.44252427 </i>
    <i name="e_fr_energy">   1123.74720327 </i>
    <i name="e_wo_entrp">   1124.26669462 </i>
    <i name="e_0_energy">   1124.00694895 </i>
   </energy>
  </scstep>
  <scstep>
   <time name="dav">   29.98   30.06</time>
   <time name="total">   29.99   30.06</time>
   <energy>
    <i name="e_fr_energy">     -6.34720301 </i>
    <i name="e_wo_entrp">     -6.14157895 </i>
    <i name="e_0_energy">     -6.24439098 </i>
   </energy>
  </scstep>
  <scstep>
   <time name="dav">   28.86   28.93</time>
   <time name="total">   28.86   28.94</time>
   <energy>
    <i name="e_fr_energy">   -200.12600639 </i>
    <i name="e_wo_entrp">   -199.85484642 </i>
    <i name="e_0_energy">   -199.99042641 </i>
   </energy>
  </scstep>
  <scstep>
   <time name="dav">   31.71   31.78</time>
   <time name="total">   31.71   31.79</time>
   <energy>
    <i name="e_fr_energy">   -209.00152846 </i>
    <i name="e_wo_entrp">   -208.68504314 </i>
    <i name="e_0_energy">   -208.84328580 </i>
   </energy>
  </scstep>
  <scstep>
   <time name="dav">   29.58   29.65</time>
   <time name="total">   30.04   30.12</time>
   <energy>
    <i name="e_fr_energy">   -209.28908023 </i>
    <i name="e_wo_entrp">   -208.97490606 </i>
    <i name="e_0_energy">   -209.13199315 </i>
   </energy>
  </scstep>
  <scstep>
   <time name="dav">   32.70   32.78</time>
   <time name="total">   33.20   33.29</time>
   <energy>
    <i name="e_fr_energy">   -236.81182597 </i>
    <i name="e_wo_entrp">   -236.52448709 </i>
    <i name="e_0_energy">   -236.66815653 </i>
   </energy>
  </scstep>
  <scstep>
   <time name="dav">   33.58   33.66</time>
   <time name="total">   34.09   34.17</time>
   <energy>
    <i name="e_fr_energy">   -196.66887260 </i>
    <i name="e_wo_entrp">   -196.34696894 </i>
    <i name="e_0_energy">   -196.50792077 </i>
   </energy>
  </scstep>
  <scstep>
   <time name="dav">   30.69   30.77</time>
   <time name="total">   31.20   31.29</time>
   <energy>
    <i name="e_fr_energy">   -190.02909953 </i>
    <i name="e_wo_entrp">   -189.75518598 </i>
    <i name="e_0_energy">   -189.89214275 </i>
   </energy>
  </scstep>
  <scstep>
   <time name="dav">   30.92   31.00</time>
   <time name="total">   31.44   31.53</time>
   <energy>
    <i name="e_fr_energy">   -188.23930334 </i>
    <i name="e_wo_entrp">   -187.90081316 </i>
    <i name="e_0_energy">   -188.07005825 </i>
   </energy>
  </scstep>
  <scstep>
   <time name="dav">   33.94   34.02</time>
   <time name="total">   34.47   34.56</time>
   <energy>
    <i name="e_fr_energy">   -187.05650957 </i>
    <i name="e_wo_entrp">   -186.71275653 </i>
    <i name="e_0_energy">   -186.88463305 </i>
   </energy>
  </scstep>
  <scstep>
   <time name="dav">   32.38   32.46</time>
   <time name="total">   32.93   33.02</time>
   <energy>
    <i name="e_fr_energy">   -186.99937697 </i>
    <i name="e_wo_entrp">   -186.64796628 </i>
    <i name="e_0_energy">   -186.82367163 </i>
   </energy>
  </scstep>
  <scstep>
   <time name="dav">   31.95   32.03</time>
   <time name="total">   32.50   32.58</time>
   <energy>
    <i name="e_fr_energy">   -187.08523093 </i>
    <i name="e_wo_entrp">   -186.75136373 </i>
    <i name="e_0_energy">   -186.91829733 </i>
   </energy>
  </scstep>
  <scstep>
   <time name="dav">   33.09   33.17</time>
   <time name="total">   33.66   33.75</time>
   <energy>
    <i name="e_fr_energy">   -186.90908931 </i>
    <i name="e_wo_entrp">   -186.57091416 </i>
    <i name="e_0_energy">   -186.74000173 </i>
   </energy>
  </scstep>
  <scstep>
   <time name="dav">   33.38   33.46</time>
   <time name="total">   33.93   34.01</time>
   <energy>
    <i name="e_fr_energy">   -186.89806395 </i>
    <i name="e_wo_entrp">   -186.55408481 </i>
    <i name="e_0_energy">   -186.72607438 </i>
   </energy>
  </scstep>
  <scstep>
   <time name="dav">   32.52   32.60</time>
   <time name="total">   33.07   33.15</time>
   <energy>
    <i name="e_fr_energy">   -186.87233290 </i>
    <i name="e_wo_entrp">   -186.52559202 </i>
    <i name="e_0_energy">   -186.69896246 </i>
   </energy>
  </scstep>
  <scstep>
   <time name="dav">   31.81   31.89</time>
   <time name="total">   32.36   32.44</time>
   <energy>
    <i name="e_fr_energy">   -186.86785078 </i>
    <i name="e_wo_entrp">   -186.52213110 </i>
    <i name="e_0_energy">   -186.69499094 </i>
   </energy>
  </scstep>
  <scstep>
   <time name="dav">   32.56   32.64</time>
   <time name="total">   33.12   33.20</time>
   <energy>
    <i name="e_fr_energy">   -186.86608790 </i>
    <i name="e_wo_entrp">   -186.52188928 </i>
    <i name="e_0_energy">   -186.69398859 </i>
   </energy>
  </scstep>
  <scstep>
   <time name="dav">   30.27   30.34</time>
   <time name="total">   30.82   30.90</time>
   <energy>
    <i name="e_fr_energy">   -186.86542833 </i>
    <i name="e_wo_entrp">   -186.52107693 </i>
    <i name="e_0_energy">   -186.69325263 </i>
   </energy>
  </scstep>
  <scstep>
   <time name="dav">   26.51   26.57</time>
   <time name="total">   27.06   27.13</time>
   <energy>
    <i name="e_fr_energy">   -186.86530248 </i>
    <i name="e_wo_entrp">   -186.52071172 </i>
    <i name="e_0_energy">   -186.69300710 </i>
   </energy>
  </scstep>
  <scstep>
   <time name="dav">   24.35   24.40</time>
   <time name="total">   24.90   24.97</time>
   <energy>
    <i name="e_fr_energy">   -186.86614570 </i>
    <i name="e_wo_entrp">   -186.52174744 </i>
    <i name="e_0_energy">   -186.69394657 </i>
   </energy>
  </scstep>
  <scstep>
   <time name="dav">   22.80   22.86</time>
   <time name="total">   23.35   23.42</time>
   <energy>
    <i name="e_fr_energy">   -186.86683051 </i>
    <i name="e_wo_entrp">   -186.52250910 </i>
    <i name="e_0_energy">   -186.69466980 </i>
   </energy>
  </scstep>
  <scstep>
   <time name="dav">   21.25   21.31</time>
   <time name="total">   21.81   21.87</time>
   <energy>
    <i name="e_fr_energy">   -186.86785262 </i>
    <i name="e_wo_entrp">   -186.52339692 </i>
    <i name="e_0_energy">   -186.69562477 </i>
   </energy>
  </scstep>
  <scstep>
   <time name="dav">   21.14   21.19</time>
   <time name="total">   21.69   21.75</time>
   <energy>
    <i name="e_fr_energy">   -186.86901257 </i>
    <i name="e_wo_entrp">   -186.52468874 </i>
    <i name="e_0_energy">   -186.69685065 </i>
   </energy>
  </scstep>
  <scstep>
   <time name="dav">   19.88   19.93</time>
   <time name="total">   20.43   20.49</time>
   <energy>
    <i name="e_fr_energy">   -186.86958687 </i>
    <i name="e_wo_entrp">   -186.52521489 </i>
    <i name="e_0_energy">   -186.69740088 </i>
   </energy>
  </scstep>
  <scstep>
   <time name="dav">   16.98   17.02</time>
   <time name="total">   17.53   17.58</time>
   <energy>
    <i name="e_fr_energy">   -186.86995112 </i>
    <i name="e_wo_entrp">   -186.52555778 </i>
    <i name="e_0_energy">   -186.69775445 </i>
   </energy>
  </scstep>
  <scstep>
   <time name="dav">   19.92   19.97</time>
   <time name="total">   20.47   20.53</time>
   <energy>
    <i name="e_fr_energy">   -186.87019517 </i>
    <i name="e_wo_entrp">   -186.52581915 </i>
    <i name="e_0_energy">   -186.69800716 </i>
   </energy>
  </scstep>
  <scstep>
   <time name="dav">   20.92   20.97</time>
   <time name="total">   20.95   21.01</time>
   <energy>
    <i name="alphaZ">     81.65567618 </i>
    <i name="ewald">  41890.23010383 </i>
    <i name="hartreedc"> -47832.99256676 </i>
    <i name="XCdc">   -231.60402500 </i>
    <i name="pawpsdc">   4192.12462193 </i>
    <i name="pawaedc">  -3610.13959509 </i>
    <i name="eentropy">     -0.34438136 </i>
    <i name="bandstr">  -1437.24264297 </i>
    <i name="atom">   6761.44252427 </i>
    <i name="e_fr_energy">   -186.87028498 </i>
    <i name="e_wo_entrp">   -186.52590362 </i>
    <i name="e_0_energy">   -186.69809430 </i>
   </energy>
  </scstep>
  <structure>
   <crystal>
    <varray name="basis" >
     <v>       8.66999996       5.03999989       0.00000000 </v>
     <v>      -8.66999982       5.04000013       0.00000000 </v>
     <v>       0.00000000       0.00000000      30.00000000 </v>
    </varray>
    <i name="volume">   2621.80797419 </i>
    <varray name="rec_basis" >
     <v>       0.05767013       0.09920635       0.00000000 </v>
     <v>      -0.05767013       0.09920635       0.00000000 </v>
     <v>       0.00000000       0.00000000       0.03333333 </v>
    </varray>
   </crystal>
   <varray name="positions" >
    <v>       0.00000000       0.66666669       0.00000000 </v>
    <v>       0.66666669       0.66666669       0.00000000 </v>
    <v>       0.33333334       0.33333334       0.00000000 </v>
    <v>       0.00000000       0.00000000       0.00000000 </v>
    <v>       0.66666669       0.33333334       0.00000000 </v>
    <v>       0.66666669       0.00000000       0.00000000 </v>
    <v>       1.00000000       0.33333334       0.00000000 </v>
    <v>       0.33333334       0.00000000       0.00000000 </v>
    <v>       0.33333334       0.66666669       0.00000000 </v>
    <v>       0.11068511       0.22244981       0.95539999 </v>
    <v>       0.22244981       0.11068511       0.04460000 </v>
    <v>       0.11068511       0.55578315       0.95539999 </v>
    <v>       0.22244981       0.44401845       0.04460000 </v>
    <v>       0.11068511       0.88911647       0.95539999 </v>
    <v>       0.22244981       0.77735180       0.04460000 </v>
    <v>       0.44401845       0.22244981       0.95539999 </v>
    <v>       0.55578315       0.11068511       0.04460000 </v>
    <v>       0.44401845       0.55578315       0.95539999 </v>
    <v>       0.55578315       0.44401845       0.04460000 </v>
    <v>       0.44401845       0.88911647       0.95539999 </v>
    <v>       0.55578315       0.77735180       0.04460000 </v>
    <v>       0.77735180       0.22244981       0.95539999 </v>
    <v>       0.88911647       0.11068511       0.04460000 </v>
    <v>       0.77735180       0.55578315       0.95539999 </v>
    <v>       0.88911647       0.44401845       0.04460000 </v>
    <v>       0.77735180       0.88911647       0.95539999 </v>
    <v>       0.88911647       0.77735180       0.04460000 </v>
   </varray>
  </structure>
  <varray name="forces" >
   <v>      -0.28550247      -0.15118577       0.08097857 </v>
   <v>       0.08436803       0.19468546       0.01359838 </v>
   <v>       0.22485799      -0.02489643      -0.06404726 </v>
   <v>      -0.26062525      -0.18681011      -0.02534192 </v>
   <v>       0.16804970      -0.11267905       0.04984584 </v>
   <v>       0.01803479       0.28450625      -0.02626558 </v>
   <v>       0.00751898      -0.61703263      -0.12862115 </v>
   <v>      -0.05841029       0.28776725       0.10968059 </v>
   <v>       0.09145681       0.30617956      -0.02825375 </v>
   <v>       0.35740461       0.73052555      -2.17704510 </v>
   <v>      -0.34423043       0.68735353       2.14859387 </v>
   <v>      -0.58177777      -0.00251656      -2.07064493 </v>
   <v>       0.59230405       0.01387973       2.06496318 </v>
   <v>       0.60904028      -0.55266683      -2.10357188 </v>
   <v>      -0.48218066      -0.58474945       2.19507755 </v>
   <v>      -0.69427716      -0.13876580      -2.14825626 </v>
   <v>      -0.20220717      -0.17737252       2.89554207 </v>
   <v>       0.73683316      -0.02461898      -1.48307844 </v>
   <v>      -0.88921773      -0.00294488       1.43657288 </v>
   <v>       0.08131503      -0.11666195      -2.89125230 </v>
   <v>       0.65060128      -0.14542591       2.11336164 </v>
   <v>       0.21946906       0.16949897      -2.93652709 </v>
   <v>      -0.19495580       0.13312014       2.93515487 </v>
   <v>      -0.32352193       0.66677469      -1.42371233 </v>
   <v>      -0.39208880       0.72874248       2.16385476 </v>
   <v>       0.52392924      -0.69273702      -2.14794499 </v>
   <v>       0.34381245      -0.67196971       1.44733877 </v>
  </varray>
  <varray name="stress" >
   <v>       7.29405189      -0.09681803      -1.50678659 </v>
   <v>      -0.09681814       4.46907651      -0.04750091 </v>
   <v>      -1.50678676      -0.04750098      30.29950533 </v>
  </varray>
  <energy>
   <i name="e_fr_energy">   -186.87028498 </i>
   <i name="e_wo_entrp">   -186.69809430 </i>
   <i name="e_0_energy">     -0.34438136 </i>
  </energy>
  <time name="totalsc">  812.05  814.20</time>
 </calculation>
 <calculation>
  <scstep>
   <time name="dav">   22.61   22.67</time>
   <time name="total">   23.23   23.29</time>
   <energy>
    <i name="alphaZ">     78.91935055 </i>
    <i name="ewald">  39378.96540507 </i>
    <i name="hartreedc"> -45336.44861269 </i>
    <i name="XCdc">   -239.06233144 </i>
    <i name="pawpsdc">   4192.10646181 </i>
    <i name="pawaedc">  -3610.12156761 </i>
    <i name="eentropy">     -0.28525857 </i>
    <i name="bandstr">  -1413.02173666 </i>
    <i name="atom">   6761.44252427 </i>
    <i name="e_fr_energy">   -187.50576527 </i>
    <i name="e_wo_entrp">   -187.22050670 </i>
    <i name="e_0_energy">   -187.36313598 </i>
   </energy>
  </scstep>
  <scstep>
   <time name="dav">   31.57   31.64</time>
   <time name="total">   32.16   32.24</time>
   <energy>
    <i name="e_fr_energy">   -189.49819126 </i>
    <i name="e_wo_entrp">   -189.16449149 </i>
    <i name="e_0_energy">   -189.33134138 </i>
   </energy>
  </scstep>
  <scstep>
   <time name="dav">   31.64   31.71</time>
   <time name="total">   32.26   32.35</time>
   <energy>
    <i name="e_fr_energy">   -189.35550757 </i>
    <i name="e_wo_entrp">   -189.07636249 </i>
    <i name="e_0_energy">   -189.21593503 </i>
   </energy>
  </scstep>
  <scstep>
   <time name="dav">   31.79   31.86</time>
   <time name="total">   32.41   32.50</time>
   <energy>
    <i name="e_fr_energy">   -188.79478813 </i>
    <i name="e_wo_entrp">   -188.50974416 </i>
    <i name="e_0_energy">   -188.65226615 </i>
   </energy>
  </scstep>
  <scstep>
   <time name="dav">   29.66   29.73</time>
   <time name="total">   30.28   30.36</time>
   <energy>
    <i name="e_fr_energy">   -188.86819061 </i>
    <i name="e_wo_entrp">   -188.57798049 </i>
    <i name="e_0_energy">   -188.72308555 </i>
   </energy>
  </scstep>
  <scstep>
   <time name="dav">   32.11   32.18</time>
   <time name="total">   32.73   32.81</time>
   <energy>
    <i name="e_fr_energy">   -188.78274461 </i>
    <i name="e_wo_entrp">   -188.49514713 </i>
    <i name="e_0_energy">   -188.63894587 </i>
   </energy>
  </scstep>
  <scstep>
   <time name="dav">   30.03   30.11</time>
   <time name="total">   30.66   30.74</time>
   <energy>
    <i name="e_fr_energy">   -188.70000789 </i>
    <i name="e_wo_entrp">   -188.41491595 </i>
    <i name="e_0_energy">   -188.55746192 </i>
   </energy>
  </scstep>
  <scstep>
   <time name="dav">   29.89   29.96</time>
   <time name="total">   30.51   30.59</time>
   <energy>
    <i name="e_fr_energy">   -188.68308552 </i>
    <i name="e_wo_entrp">   -188.39940573 </i>
    <i name="e_0_energy">   -188.54124562 </i>
   </energy>
  </scstep>
  <scstep>
   <time name="dav">   29.88   29.95</time>
   <time name="total">   30.50   30.58</time>
   <energy>
    <i name="e_fr_energy">   -188.68022426 </i>
    <i name="e_wo_entrp">   -188.39651881 </i>
    <i name="e_0_energy">   -188.53837153 </i>
   </energy>
  </scstep>
  <scstep>
   <time name="dav">   30.20   30.27</time>
   <time name="total">   30.82   30.90</time>
   <energy>
    <i name="e_fr_energy">   -188.67598109 </i>
    <i name="e_wo_entrp">   -188.39236657 </i>
    <i name="e_0_energy">   -188.53417383 </i>
   </energy>
  </scstep>
  <scstep>
   <time name="dav">   33.27   33.35</time>
   <time name="total">   33.89   33.98</time>
   <energy>
    <i name="e_fr_energy">   -188.67535145 </i>
    <i name="e_wo_entrp">   -188.39237683 </i>
    <i name="e_0_energy">   -188.53386414 </i>
   </energy>
  </scstep>
  <scstep>
   <time name="dav">   31.10   31.18</time>
   <time name="total">   31.72   31.80</time>
   <energy>
    <i name="e_fr_energy">   -188.67518944 </i>
    <i name="e_wo_entrp">   -188.39259377 </i>
    <i name="e_0_energy">   -188.53389161 </i>
   </energy>
  </scstep>
  <scstep>
   <time name="dav">   21.86   21.91</time>
   <time name="total">   21.90   21.96</time>
   <energy>
    <i name="alphaZ">     78.91935055 </i>
    <i name="ewald">  39378.96540507 </i>
    <i name="hartreedc"> -45347.20976574 </i>
    <i name="XCdc">   -237.97582666 </i>
    <i name="pawpsdc">   3950.41320274 </i>
    <i name="pawaedc">  -3364.92500034 </i>
    <i name="eentropy">     -0.28278809 </i>
    <i name="bandstr">  -1408.02232412 </i>
    <i name="atom">   6761.44252427 </i>
    <i name="e_fr_energy">   -188.67522232 </i>
    <i name="e_wo_entrp">   -188.39243423 </i>
    <i name="e_0_energy">   -188.53382828 </i>
   </energy>
  </scstep>
  <structure>
   <crystal>
    <varray name="basis" >
     <v>       8.85347695       5.10340318       0.00000000 </v>
     <v>      -8.85633029       5.10831209       0.00000000 </v>
     <v>       0.00000000       0.00000000      30.00000000 </v>
    </varray>
    <i name="volume">   2712.71242652 </i>
    <varray name="rec_basis" >
     <v>       0.05649304       0.09794253       0.00000000 </v>
     <v>      -0.05643875       0.09791097       0.00000000 </v>
     <v>       0.00000000       0.00000000       0.03333333 </v>
    </varray>
   </crystal>
   <varray name="positions" >
    <v>      -0.00151789       0.66673743       0.00013022 </v>
    <v>       0.66783317       0.66736372       0.00002187 </v>
    <v>       0.33383978       0.33258860      -0.00010299 </v>
    <v>      -0.00161917      -0.00016897      -0.00004075 </v>
    <v>       0.66659495       0.33232652       0.00008016 </v>
    <v>       0.66807850       0.00131146      -0.00004224 </v>
    <v>       0.99706781       0.33035932      -0.00020683 </v>
    <v>       0.33454808       0.00153975       0.00017638 </v>
    <v>       0.33505316       0.66787761      -0.00004543 </v>
    <v>       0.11517575       0.22495173       0.95189911 </v>
    <v>       0.22478176       0.11493247       0.04805513 </v>
    <v>       0.10905447       0.55738971       0.95207021 </v>
    <v>       0.22416412       0.44243700       0.04792064 </v>
    <v>       0.10973451       0.88477697       0.95201726 </v>
    <v>       0.21830971       0.77589470       0.04812988 </v>
    <v>       0.44142273       0.22371727       0.95194540 </v>
    <v>       0.55437168       0.11039878       0.04925629 </v>
    <v>       0.44595062       0.55361534       0.95301507 </v>
    <v>       0.55329511       0.44647831       0.04691014 </v>
    <v>       0.44368634       0.88833189       0.95075060 </v>
    <v>       0.55689722       0.77484571       0.04799847 </v>
    <v>       0.77877361       0.22265043       0.95067779 </v>
    <v>       0.88921118       0.11186462       0.04931999 </v>
    <v>       0.77964288       0.55987441       0.95311053 </v>
    <v>       0.89151336       0.44859705       0.04807967 </v>
    <v>       0.77549403       0.88434339       0.95194590 </v>
    <v>       0.88685698       0.77317922       0.04692745 </v>
   </varray>
  </structure>
  <varray name="forces" >
   <v>      -0.18616564      -0.07190767      -0.05158434 </v>
   <v>       0.02707334       0.16106223       0.00135015 </v>
   <v>       0.19353622      -0.05809946       0.07265115 </v>
   <v>      -0.39117007      -0.07041098      -0.08483241 </v>
   <v>       0.41353105      -0.24405210       0.08129339 </v>
   <v>      -0.11018069       0.39972328      -0.00969261 </v>
   <v>       0.02222750      -0.72902492      -0.03357894 </v>
   <v>       0.10948903       0.26314959       0.04021532 </v>
   <v>      -0.07108504       0.34914889       0.01199154 </v>
   <v>      -0.11867916       0.05748493      -0.00448708 </v>
   <v>       0.10244755       0.05107358      -0.05489872 </v>
   <v>       0.09473403      -0.00178133       0.23121302 </v>
   <v>      -0.09936311       0.00322183      -0.27114776 </v>
   <v>       0.07905149       0.05532245       0.16571230 </v>
   <v>       0.04491000       0.06277529      -0.10640696 </v>
   <v>       0.00885717      -0.09755942      -0.07553606 </v>
   <v>      -0.04077704      -0.12060282       0.17573542 </v>
   <v>      -0.09461464       0.00748162       0.12623595 </v>
   <v>      -0.03146417       0.00829645      -0.16163215 </v>
   <v>      -0.06996690      -0.08389939      -0.00062085 </v>
   <v>      -0.01849295      -0.10258246      -0.01359676 </v>
   <v>       0.06334596       0.10633306      -0.27855924 </v>
   <v>      -0.06291361       0.10328562       0.22650321 </v>
   <v>      -0.01637126       0.02757544       0.08823685 </v>
   <v>       0.11744500       0.05873899      -0.03345425 </v>
   <v>       0.04043023      -0.07883413      -0.07285614 </v>
   <v>      -0.00583429      -0.05591856       0.03174597 </v>
  </varray>
  <varray name="stress" >
   <v>     -19.90477284       0.01818479       0.01131924 </v>
   <v>       0.01818484     -19.50034946       0.02036387 </v>
   <v>       0.01131899       0.02036383      -1.74821930 </v>
  </varray>
  <energy>
   <i name="e_fr_energy">   -188.67522232 </i>
   <i name="e_wo_entrp">   -188.53382828 </i>
   <i name="e_0_energy">     -0.28278809 </i>
  </energy>
  <time name="totalsc">  437.17  438.32</time>
 </calculation>
 <calculation>
  <scstep>
   <time name="dav">   24.63   24.69</time>
   <time name="total">   25.19   25.25</time>
   <energy>
    <i name="alphaZ">     82.33972522 </i>
    <i name="ewald">  41300.33712935 </i>
    <i name="hartreedc"> -47299.12967243 </i>
    <i name="XCdc">   -233.85602631 </i>
    <i name="pawpsdc">   3949.96346647 </i>
    <i name="pawaedc">  -3364.47078511 </i>
    <i name="eentropy">     -0.23718418 </i>
    <i name="bandstr">  -1386.98376573 </i>
    <i name="atom">   6761.44252427 </i>
    <i name="e_fr_energy">   -190.59458845 </i>
    <i name="e_wo_entrp">   -190.35740427 </i>
    <i name="e_0_energy">   -190.47599636 </i>
   </energy>
  </scstep>
  <scstep>
   <time name="dav">   29.07   29.14</time>
   <time name="total">   29.60   29.67</time>
   <energy>
    <i name="e_fr_energy">   -190.55951803 </i>
    <i name="e_wo_entrp">   -190.31603534 </i>
    <i name="e_0_energy">   -190.43777669 </i>
   </energy>
  </scstep>
  <scstep>
   <time name="dav">   31.53   31.60</time>
   <time name="total">   32.06   32.14</time>
   <energy>
    <i name="e_fr_energy">   -190.07911775 </i>
    <i name="e_wo_entrp">   -189.82833322 </i>
    <i name="e_0_energy">   -189.95372549 </i>
   </energy>
  </scstep>
  <scstep>
   <time name="dav">   32.36   32.44</time>
   <time name="total">   32.93   33.02</time>
   <energy>
    <i name="e_fr_energy">   -189.87514326 </i>
    <i name="e_wo_entrp">   -189.63591691 </i>
    <i name="e_0_energy">   -189.75553009 </i>
   </energy>
  </scstep>
  <scstep>
   <time name="dav">   31.34   31.42</time>
   <time name="total">   31.87   31.96</time>
   <energy>
    <i name="e_fr_energy">   -189.91458171 </i>
    <i name="e_wo_entrp">   -189.66794036 </i>
    <i name="e_0_energy">   -189.79126103 </i>
   </energy>
  </scstep>
  <scstep>
   <time name="dav">   31.42   31.50</time>
   <time name="total">   31.98   32.06</time>
   <energy>
    <i name="e_fr_energy">   -189.77095574 </i>
    <i name="e_wo_entrp">   -189.53074980 </i>
    <i name="e_0_energy">   -189.65085277 </i>
   </energy>
  </scstep>
  <scstep>
   <time name="dav">   31.37   31.44</time>
   <time name="total">   31.90   31.99</time>
   <energy>
    <i name="e_fr_energy">   -189.76441932 </i>
    <i name="e_wo_entrp">   -189.52412818 </i>
    <i name="e_0_energy">   -189.64427375 </i>
   </energy>
  </scstep>
  <scstep>
   <time name="dav">   30.39   30.46</time>
   <time name="total">   30.93   31.01</time>
   <energy>
    <i name="e_fr_energy">   -189.76511235 </i>
    <i name="e_wo_entrp">   -189.52486677 </i>
    <i name="e_0_energy">   -189.64498956 </i>
   </energy>
  </scstep>
  <scstep>
   <time name="dav">   27.28   27.35</time>
   <time name="total">   27.82   27.90</time>
   <energy>
    <i name="e_fr_energy">   -189.76448747 </i>
    <i name="e_wo_entrp">   -189.52425764 </i>
    <i name="e_0_energy">   -189.64437255 </i>
   </energy>
  </scstep>
  <scstep>
   <time name="dav">   26.52   26.58</time>
   <time name="total">   27.06   27.13</time>
   <energy>
    <i name="e_fr_energy">   -189.76463863 </i>
    <i name="e_wo_entrp">   -189.52427589 </i>
    <i name="e_0_energy">   -189.64445726 </i>
   </energy>
  </scstep>
  <scstep>
   <time name="dav">   24.01   24.07</time>
   <time name="total">   24.55   24.62</time>
   <energy>
    <i name="e_fr_energy">   -189.76445584 </i>
    <i name="e_wo_entrp">   -189.52412115 </i>
    <i name="e_0_energy">   -189.64428850 </i>
   </energy>
  </scstep>
  <scstep>
   <time name="dav">   21.28   21.33</time>
   <time name="total">   21.32   21.38</time>
   <energy>
    <i name="alphaZ">     82.33972522 </i>
    <i name="ewald">  41300.33712935 </i>
    <i name="hartreedc"> -47272.60488098 </i>
    <i name="XCdc">   -235.24663252 </i>
    <i name="pawpsdc">   4038.77010360 </i>
    <i name="pawaedc">  -3454.47619187 </i>
    <i name="eentropy">     -0.24031711 </i>
    <i name="bandstr">  -1410.08593599 </i>
    <i name="atom">   6761.44252427 </i>
    <i name="e_fr_energy">   -189.76447602 </i>
    <i name="e_wo_entrp">   -189.52415891 </i>
    <i name="e_0_energy">   -189.64431747 </i>
   </energy>
  </scstep>
  <structure>
   <crystal>
    <varray name="basis" >
     <v>       8.66583262       4.99755284       0.00000000 </v>
     <v>      -8.66842762       5.00201667       0.00000000 </v>
     <v>       0.00000000       0.00000000      30.00000000 </v>
    </varray>
    <i name="volume">   2600.02692947 </i>
    <varray name="rec_basis" >
     <v>       0.05771498       0.10001928       0.00000000 </v>
     <v>      -0.05766347       0.09998934       0.00000000 </v>
     <v>       0.00000000       0.00000000       0.03333333 </v>
    </varray>
   </crystal>
   <varray name="positions" >
    <v>      -0.00181621       0.66679632       0.00010101 </v>
    <v>       0.66812715       0.66760567       0.00002263 </v>
    <v>       0.33392885       0.33230639      -0.00006185 </v>
    <v>      -0.00211176       0.00008898      -0.00008879 </v>
    <v>       0.66658575       0.33152406       0.00012619 </v>
    <v>       0.66863787       0.00208201      -0.00004773 </v>
    <v>       0.99587610       0.32912535      -0.00022585 </v>
    <v>       0.33509103       0.00187249       0.00019915 </v>
    <v>       0.33556589       0.66852654      -0.00003864 </v>
    <v>       0.11515749       0.22516114       0.95189657 </v>
    <v>       0.22496507       0.11491920       0.04802404 </v>
    <v>       0.10914242       0.55729591       0.95220114 </v>
    <v>       0.22407412       0.44253763       0.04776709 </v>
    <v>       0.10990243       0.88479319       0.95211110 </v>
    <v>       0.21845726       0.77595606       0.04806962 </v>
    <v>       0.44126890       0.22354650       0.95190263 </v>
    <v>       0.55413187       0.11023727       0.04935580 </v>
    <v>       0.44587226       0.55371850       0.95308656 </v>
    <v>       0.55327872       0.44652227       0.04681860 </v>
    <v>       0.44347959       0.88825942       0.95075025 </v>
    <v>       0.55670879       0.77469281       0.04799077 </v>
    <v>       0.77901134       0.22276657       0.95052005 </v>
    <v>       0.88932266       0.11209675       0.04944825 </v>
    <v>       0.77967305       0.55993598       0.95316050 </v>
    <v>       0.89172381       0.44858215       0.04806072 </v>
    <v>       0.77540166       0.88417349       0.95190465 </v>
    <v>       0.88675833       0.77309180       0.04694543 </v>
   </varray>
  </structure>
  <varray name="forces" >
   <v>      -0.13986538      -0.03378602      -0.07282703 </v>
   <v>      -0.00351951       0.15188987      -0.00199296 </v>
   <v>       0.19664459      -0.08720079       0.08632489 </v>
   <v>      -0.42271294      -0.03166247      -0.07704910 </v>
   <v>       0.48765212      -0.29210659       0.06280673 </v>
   <v>      -0.16454165       0.43086539      -0.00305238 </v>
   <v>       0.02256927      -0.74799835       0.00219050 </v>
   <v>       0.16481871       0.25350643       0.00585805 </v>
   <v>      -0.12934805       0.34869710       0.02073411 </v>
   <v>      -0.00390686       0.12438398      -0.51424562 </v>
   <v>      -0.02205940       0.09807387       0.43717193 </v>
   <v>      -0.03845507      -0.01348056      -0.24574550 </v>
   <v>       0.02516120      -0.01235226       0.19771582 </v>
   <v>       0.07256846      -0.05788532      -0.30602251 </v>
   <v>      -0.04149454      -0.06022026       0.40910634 </v>
   <v>      -0.09367036      -0.01990215      -0.57944436 </v>
   <v>       0.00947556      -0.05034101       0.74893137 </v>
   <v>       0.07389887       0.01223276      -0.33863359 </v>
   <v>      -0.09587948       0.01547124       0.27517522 </v>
   <v>      -0.03933454      -0.00066876      -0.56290818 </v>
   <v>       0.09674550      -0.00796650       0.48906223 </v>
   <v>       0.01048830       0.02492134      -0.87122031 </v>
   <v>      -0.02219573       0.03080458       0.80183414 </v>
   <v>      -0.04584854       0.06915897      -0.34700543 </v>
   <v>       0.01275733       0.11836054       0.46258978 </v>
   <v>       0.06912859      -0.15212873      -0.56874763 </v>
   <v>       0.02092357      -0.11066629       0.48939349 </v>
  </varray>
  <varray name="stress" >
   <v>     -10.14569893       0.02143141      -0.01399273 </v>
   <v>       0.02143137      -9.85379105       0.03883331 </v>
   <v>      -0.01399286       0.03883309       6.48737294 </v>
  </varray>
  <energy>
   <i name="e_fr_energy">   -189.76447602 </i>
   <i name="e_wo_entrp">   -189.64431747 </i>
   <i name="e_0_energy">     -0.24031711 </i>
  </energy>
  <time name="totalsc">  390.83  391.86</time>
 </calculation>
 <calculation>
  <scstep>
   <time name="dav">   22.62   22.67</time>
   <time name="total">   23.14   23.20</time>
   <energy>
    <i name="alphaZ">     85.81940756 </i>
    <i name="ewald">  42832.49495326 </i>
    <i name="hartreedc"> -48849.23574862 </i>
    <i name="XCdc">   -232.95853089 </i>
    <i name="pawpsdc">   4038.81524365 </i>
    <i name="pawaedc">  -3454.51889045 </i>
    <i name="eentropy">     -0.20362355 </i>
    <i name="bandstr">  -1372.98902706 </i>
    <i name="atom">   6761.44252427 </i>
    <i name="e_fr_energy">   -191.33369182 </i>
    <i name="e_wo_entrp">   -191.13006827 </i>
    <i name="e_0_energy">   -191.23188005 </i>
   </energy>
  </scstep>
  <scstep>
   <time name="dav">   33.49   33.57</time>
   <time name="total">   34.00   34.09</time>
   <energy>
    <i name="e_fr_energy">   -191.17977705 </i>
    <i name="e_wo_entrp">   -190.97034426 </i>
    <i name="e_0_energy">   -191.07506065 </i>
   </energy>
  </scstep>
  <scstep>
   <time name="dav">   31.37   31.44</time>
   <time name="total">   31.88   31.97</time>
   <energy>
    <i name="e_fr_energy">   -191.27849385 </i>
    <i name="e_wo_entrp">   -191.05737587 </i>
    <i name="e_0_energy">   -191.16793486 </i>
   </energy>
  </scstep>
  <scstep>
   <time name="dav">   32.91   32.99</time>
   <time name="total">   33.43   33.52</time>
   <energy>
    <i name="e_fr_energy">   -190.88042807 </i>
    <i name="e_wo_entrp">   -190.67318330 </i>
    <i name="e_0_energy">   -190.77680569 </i>
   </energy>
  </scstep>
  <scstep>
   <time name="dav">   31.33   31.40</time>
   <time name="total">   31.85   31.93</time>
   <energy>
    <i name="e_fr_energy">   -190.80531687 </i>
    <i name="e_wo_entrp">   -190.59491445 </i>
    <i name="e_0_energy">   -190.70011566 </i>
   </energy>
  </scstep>
  <scstep>
   <time name="dav">   31.99   32.07</time>
   <time name="total">   32.51   32.60</time>
   <energy>
    <i name="e_fr_energy">   -190.77228794 </i>
    <i name="e_wo_entrp">   -190.56159315 </i>
    <i name="e_0_energy">   -190.66694055 </i>
   </energy>
  </scstep>
  <scstep>
   <time name="dav">   30.41   30.48</time>
   <time name="total">   30.94   31.02</time>
   <energy>
    <i name="e_fr_energy">   -190.75294097 </i>
    <i name="e_wo_entrp">   -190.54304817 </i>
    <i name="e_0_energy">   -190.64799457 </i>
   </energy>
  </scstep>
  <scstep>
   <time name="dav">   28.87   28.93</time>
   <time name="total">   29.38   29.46</time>
   <energy>
    <i name="e_fr_energy">   -190.74980960 </i>
    <i name="e_wo_entrp">   -190.53986617 </i>
    <i name="e_0_energy">   -190.64483788 </i>
   </energy>
  </scstep>
  <scstep>
   <time name="dav">   28.82   28.89</time>
   <time name="total">   29.34   29.42</time>
   <energy>
    <i name="e_fr_energy">   -190.74958712 </i>
    <i name="e_wo_entrp">   -190.53966248 </i>
    <i name="e_0_energy">   -190.64462480 </i>
   </energy>
  </scstep>
  <scstep>
   <time name="dav">   29.21   29.28</time>
   <time name="total">   29.73   29.81</time>
   <energy>
    <i name="e_fr_energy">   -190.74966364 </i>
    <i name="e_wo_entrp">   -190.53949329 </i>
    <i name="e_0_energy">   -190.64457847 </i>
   </energy>
  </scstep>
  <scstep>
   <time name="dav">   26.67   26.74</time>
   <time name="total">   27.19   27.27</time>
   <energy>
    <i name="e_fr_energy">   -190.74943181 </i>
    <i name="e_wo_entrp">   -190.53952006 </i>
    <i name="e_0_energy">   -190.64447594 </i>
   </energy>
  </scstep>
  <scstep>
   <time name="dav">   21.18   21.23</time>
   <time name="total">   21.22   21.27</time>
   <energy>
    <i name="alphaZ">     85.81940756 </i>
    <i name="ewald">  42832.49495326 </i>
    <i name="hartreedc"> -48820.62921720 </i>
    <i name="XCdc">   -234.28803174 </i>
    <i name="pawpsdc">   4063.76399381 </i>
    <i name="pawaedc">  -3479.65209140 </i>
    <i name="eentropy">     -0.20993950 </i>
    <i name="bandstr">  -1399.49102514 </i>
    <i name="atom">   6761.44252427 </i>
    <i name="e_fr_energy">   -190.74942608 </i>
    <i name="e_wo_entrp">   -190.53948658 </i>
    <i name="e_0_energy">   -190.64445633 </i>
   </energy>
  </scstep>
  <structure>
   <crystal>
    <varray name="basis" >
     <v>       8.48500686       4.89805741       0.00000000 </v>
     <v>      -8.48672287       4.90100208       0.00000000 </v>
     <v>       0.00000000       0.00000000      30.00000000 </v>
    </varray>
    <i name="volume">   2494.60476387 </i>
    <varray name="rec_basis" >
     <v>       0.05893922       0.10206093       0.00000000 </v>
     <v>      -0.05890381       0.10204029       0.00000000 </v>
     <v>       0.00000000       0.00000000       0.03333333 </v>
    </varray>
   </crystal>
   <varray name="positions" >
    <v>      -0.00237163       0.66711837      -0.00006773 </v>
    <v>       0.66899875       0.66859041       0.00001567 </v>
    <v>       0.33402539       0.33097332       0.00012840 </v>
    <v>      -0.00378658       0.00155916      -0.00024164 </v>
    <v>       0.66650573       0.32770798       0.00024048 </v>
    <v>       0.67074091       0.00552944      -0.00004841 </v>
    <v>       0.99122654       0.32431311      -0.00019096 </v>
    <v>       0.33732984       0.00276086       0.00018211 </v>
    <v>       0.33719716       0.67125930       0.00001169 </v>
    <v>       0.11625426       0.22595582       0.95039969 </v>
    <v>       0.22543764       0.11590897       0.04934640 </v>
    <v>       0.10869825       0.55751262       0.95128776 </v>
    <v>       0.22422799       0.44215165       0.04857421 </v>
    <v>       0.10951055       0.88389582       0.95107741 </v>
    <v>       0.21749913       0.77554642       0.04935380 </v>
    <v>       0.44085190       0.22410111       0.95027579 </v>
    <v>       0.55409837       0.10999084       0.05139220 </v>
    <v>       0.44647021       0.55329790       0.95199120 </v>
    <v>       0.55295431       0.44707583       0.04775881 </v>
    <v>       0.44358487       0.88856076       0.94910808 </v>
    <v>       0.55741029       0.77436385       0.04942951 </v>
    <v>       0.77892625       0.22275771       0.94821406 </v>
    <v>       0.88931316       0.11213054       0.05159594 </v>
    <v>       0.78000175       0.56068056       0.95207297 </v>
    <v>       0.89250925       0.44957618       0.04943906 </v>
    <v>       0.77455730       0.88274746       0.95030675 </v>
    <v>       0.88604287       0.77214846       0.04834664 </v>
   </varray>
  </structure>
  <varray name="forces" >
   <v>      -0.09510436       0.02795403      -0.08147225 </v>
   <v>      -0.02970487       0.11162276      -0.00665960 </v>
   <v>       0.22304479      -0.09806754       0.08290877 </v>
   <v>      -0.44400955      -0.02273295      -0.04271100 </v>
   <v>       0.50396848      -0.32283916       0.00823551 </v>
   <v>      -0.22161745       0.41333570       0.00293387 </v>
   <v>       0.02081438      -0.74443579       0.03157954 </v>
   <v>       0.23762600       0.25123770      -0.03106365 </v>
   <v>      -0.17364381       0.39725085       0.03441276 </v>
   <v>      -0.03077921       0.02833742      -0.38277231 </v>
   <v>      -0.01133329      -0.00984225       0.26016572 </v>
   <v>       0.03417355      -0.05512820      -0.07668476 </v>
   <v>      -0.04964503      -0.04636895       0.00008550 </v>
   <v>      -0.03615255       0.02273205      -0.14810867 </v>
   <v>      -0.06860254      -0.00465158       0.31304166 </v>
   <v>       0.00513854       0.02679969      -0.39001299 </v>
   <v>       0.04538332      -0.00717706       0.59778106 </v>
   <v>       0.04228157       0.03164722      -0.23154739 </v>
   <v>       0.05184007       0.02281033       0.19186988 </v>
   <v>       0.00579793       0.09497223      -0.41291377 </v>
   <v>       0.02435480       0.08398792       0.31953597 </v>
   <v>      -0.00191180      -0.02932059      -0.70396921 </v>
   <v>      -0.00548575      -0.04276089       0.61768055 </v>
   <v>       0.01262510      -0.05443386      -0.22318475 </v>
   <v>       0.02190120      -0.01562516       0.30460322 </v>
   <v>      -0.01609671      -0.04511071      -0.40040193 </v>
   <v>      -0.04486282      -0.01419320       0.36666828 </v>
  </varray>
  <varray name="stress" >
   <v>      -5.79073325      -0.07900356      -0.04021925 </v>
   <v>      -0.07900358      -5.70909950      -0.05339772 </v>
   <v>      -0.04021934      -0.05339774       4.48885442 </v>
  </varray>
  <energy>
   <i name="e_fr_energy">   -190.74942608 </i>
   <i name="e_wo_entrp">   -190.64445633 </i>
   <i name="e_0_energy">     -0.20993950 </i>
  </energy>
  <time name="totalsc">  398.21  399.26</time>
 </calculation>
 <calculation>
  <scstep>
   <time name="dav">   22.60   22.65</time>
   <time name="total">   23.12   23.17</time>
   <energy>
    <i name="alphaZ">     90.18193752 </i>
    <i name="ewald">  44667.04105667 </i>
    <i name="hartreedc"> -50710.58021823 </i>
    <i name="XCdc">   -231.83421272 </i>
    <i name="pawpsdc">   4063.73548409 </i>
    <i name="pawaedc">  -3479.61822805 </i>
    <i name="eentropy">     -0.19659211 </i>
    <i name="bandstr">  -1352.29293888 </i>
    <i name="atom">   6761.44252427 </i>
    <i name="e_fr_energy">   -192.12118744 </i>
    <i name="e_wo_entrp">   -191.92459533 </i>
    <i name="e_0_energy">   -192.02289139 </i>
   </energy>
  </scstep>
  <scstep>
   <time name="dav">   29.17   29.24</time>
   <time name="total">   29.68   29.75</time>
   <energy>
    <i name="e_fr_energy">   -191.85347712 </i>
    <i name="e_wo_entrp">   -191.65011235 </i>
    <i name="e_0_energy">   -191.75179474 </i>
   </energy>
  </scstep>
  <scstep>
   <time name="dav">   30.68   30.75</time>
   <time name="total">   31.19   31.27</time>
   <energy>
    <i name="e_fr_energy">   -191.98178008 </i>
    <i name="e_wo_entrp">   -191.77777993 </i>
    <i name="e_0_energy">   -191.87978001 </i>
   </energy>
  </scstep>
  <scstep>
   <time name="dav">   29.61   29.68</time>
   <time name="total">   30.12   30.20</time>
   <energy>
    <i name="e_fr_energy">   -191.74785246 </i>
    <i name="e_wo_entrp">   -191.54747424 </i>
    <i name="e_0_energy">   -191.64766335 </i>
   </energy>
  </scstep>
  <scstep>
   <time name="dav">   31.47   31.55</time>
   <time name="total">   31.98   32.07</time>
   <energy>
    <i name="e_fr_energy">   -191.57689970 </i>
    <i name="e_wo_entrp">   -191.37339734 </i>
    <i name="e_0_energy">   -191.47514852 </i>
   </energy>
  </scstep>
  <scstep>
   <time name="dav">   31.52   31.60</time>
   <time name="total">   32.03   32.11</time>
   <energy>
    <i name="e_fr_energy">   -191.43564737 </i>
    <i name="e_wo_entrp">   -191.22982893 </i>
    <i name="e_0_energy">   -191.33273815 </i>
   </energy>
  </scstep>
  <scstep>
   <time name="dav">   31.47   31.54</time>
   <time name="total">   31.98   32.06</time>
   <energy>
    <i name="e_fr_energy">   -191.42791865 </i>
    <i name="e_wo_entrp">   -191.22395394 </i>
    <i name="e_0_energy">   -191.32593629 </i>
   </energy>
  </scstep>
  <scstep>
   <time name="dav">   31.07   31.14</time>
   <time name="total">   31.57   31.66</time>
   <energy>
    <i name="e_fr_energy">   -191.42568226 </i>
    <i name="e_wo_entrp">   -191.22087809 </i>
    <i name="e_0_energy">   -191.32328017 </i>
   </energy>
  </scstep>
  <scstep>
   <time name="dav">   31.80   31.87</time>
   <time name="total">   32.31   32.39</time>
   <energy>
    <i name="e_fr_energy">   -191.41901065 </i>
    <i name="e_wo_entrp">   -191.21419985 </i>
    <i name="e_0_energy">   -191.31660525 </i>
   </energy>
  </scstep>
  <scstep>
   <time name="dav">   28.77   28.84</time>
   <time name="total">   29.28   29.36</time>
   <energy>
    <i name="e_fr_energy">   -191.41931777 </i>
    <i name="e_wo_entrp">   -191.21423848 </i>
    <i name="e_0_energy">   -191.31677813 </i>
   </energy>
  </scstep>
  <scstep>
   <time name="dav">   29.08   29.15</time>
   <time name="total">   29.59   29.67</time>
   <energy>
    <i name="e_fr_energy">   -191.41916810 </i>
    <i name="e_wo_entrp">   -191.21423329 </i>
    <i name="e_0_energy">   -191.31670069 </i>
   </energy>
  </scstep>
  <scstep>
   <time name="dav">   20.27   20.32</time>
   <time name="total">   20.31   20.37</time>
   <energy>
    <i name="alphaZ">     90.18193752 </i>
    <i name="ewald">  44667.04105667 </i>
    <i name="hartreedc"> -50676.60852722 </i>
    <i name="XCdc">   -233.36227983 </i>
    <i name="pawpsdc">   4085.79574916 </i>
    <i name="pawaedc">  -3501.77447075 </i>
    <i name="eentropy">     -0.20501409 </i>
    <i name="bandstr">  -1383.93012711 </i>
    <i name="atom">   6761.44252427 </i>
    <i name="e_fr_energy">   -191.41915137 </i>
    <i name="e_wo_entrp">   -191.21413729 </i>
    <i name="e_0_energy">   -191.31664433 </i>
   </energy>
  </scstep>
  <structure>
   <crystal>
    <varray name="basis" >
     <v>       8.27289519       4.77551058       0.00000000 </v>
     <v>      -8.27899740       4.78605385       0.00000000 </v>
     <v>       0.00000000       0.00000000      30.00000000 </v>
    </varray>
    <i name="volume">   2373.92884680 </i>
    <varray name="rec_basis" >
     <v>       0.06048270       0.10462400       0.00000000 </v>
     <v>      -0.06034946       0.10454688       0.00000000 </v>
     <v>       0.00000000       0.00000000       0.03333333 </v>
    </varray>
   </crystal>
   <varray name="positions" >
    <v>      -0.00266217       0.66811173      -0.00041100 </v>
    <v>       0.67017700       0.67024251      -0.00001185 </v>
    <v>       0.33431749       0.32813452       0.00047644 </v>
    <v>      -0.00715926       0.00456469      -0.00042377 </v>
    <v>       0.66613426       0.31995469       0.00028455 </v>
    <v>       0.67433901       0.01234945      -0.00003329 </v>
    <v>       0.98214753       0.31493554      -0.00004470 </v>
    <v>       0.34211222       0.00411904       0.00004336 </v>
    <v>       0.34071757       0.67735722       0.00015107 </v>
    <v>       0.11695644       0.22666015       0.94829031 </v>
    <v>       0.22533380       0.11640298       0.05097073 </v>
    <v>       0.10800530       0.55691899       0.95041892 </v>
    <v>       0.22359582       0.44166518       0.04914299 </v>
    <v>       0.10916466       0.88387612       0.94993307 </v>
    <v>       0.21638635       0.77564579       0.05117004 </v>
    <v>       0.44109888       0.22480804       0.94811205 </v>
    <v>       0.55451367       0.10966206       0.05443754 </v>
    <v>       0.44745423       0.55305650       0.95054604 </v>
    <v>       0.55336231       0.44724671       0.04900432 </v>
    <v>       0.44488492       0.88976275       0.94681600 </v>
    <v>       0.55900099       0.77508327       0.05129852 </v>
    <v>       0.77832979       0.22234129       0.94471475 </v>
    <v>       0.88871226       0.11150395       0.05474094 </v>
    <v>       0.77964241       0.56035300       0.95068162 </v>
    <v>       0.89268534       0.44980824       0.05123543 </v>
    <v>       0.77362624       0.88178529       0.94812053 </v>
    <v>       0.88533737       0.77186477       0.05033531 </v>
   </varray>
  </structure>
  <varray name="forces" >
   <v>      -0.08629295       0.07568362      -0.01619506 </v>
   <v>      -0.03115725       0.06491857      -0.02162632 </v>
   <v>       0.29898460      -0.11098287       0.01922437 </v>
   <v>      -0.30199531      -0.07835967       0.02465805 </v>
   <v>       0.14166478      -0.20645276      -0.05549843 </v>
   <v>      -0.07590457      -0.06315736       0.03362738 </v>
   <v>       0.01075093      -0.28864460      -0.04817059 </v>
   <v>       0.31493603       0.21211612       0.04782123 </v>
   <v>      -0.21822127       0.48988902       0.05965466 </v>
   <v>      -0.11574849      -0.05382323      -0.05875046 </v>
   <v>       0.07009373      -0.12190589      -0.06956497 </v>
   <v>       0.16548887      -0.11513309       0.24433861 </v>
   <v>      -0.18577212      -0.09282452      -0.33787717 </v>
   <v>      -0.16273415       0.16071735       0.11925143 </v>
   <v>      -0.07636658       0.07942229       0.06412129 </v>
   <v>       0.10071401       0.02624007      -0.11054987 </v>
   <v>       0.07292089      -0.00415679       0.24537748 </v>
   <v>      -0.04275527       0.02647636       0.07183745 </v>
   <v>       0.23433367       0.01428760      -0.04485035 </v>
   <v>       0.02944220       0.17364257      -0.22928431 </v>
   <v>      -0.07085283       0.14792207       0.05903783 </v>
   <v>      -0.00836543      -0.04763531      -0.29295428 </v>
   <v>      -0.00688350      -0.12217928       0.28746122 </v>
   <v>       0.07346397      -0.15968659       0.07452850 </v>
   <v>       0.08355608      -0.15773431      -0.02082164 </v>
   <v>      -0.14525515       0.07947279      -0.06614706 </v>
   <v>      -0.06804489       0.07188783       0.02135098 </v>
  </varray>
  <varray name="stress" >
   <v>       0.10553734      -0.28360650       0.18465148 </v>
   <v>      -0.28360656       0.27462117      -0.29785258 </v>
   <v>       0.18465139      -0.29785246      -0.57868341 </v>
  </varray>
  <energy>
   <i name="e_fr_energy">   -191.41915137 </i>
   <i name="e_wo_entrp">   -191.31664433 </i>
   <i name="e_0_energy">     -0.20501409 </i>
  </energy>
  <time name="totalsc">  396.87  397.91</time>
 </calculation>
 <calculation>
  <scstep>
   <time name="dav">   22.58   22.63</time>
   <time name="total">   23.09   23.15</time>
   <energy>
    <i name="alphaZ">     90.05232580 </i>
    <i name="ewald">  44593.67402300 </i>
    <i name="hartreedc"> -50602.42135792 </i>
    <i name="XCdc">   -233.51198444 </i>
    <i name="pawpsdc">   4085.72979563 </i>
    <i name="pawaedc">  -3501.70418902 </i>
    <i name="eentropy">     -0.20876918 </i>
    <i name="bandstr">  -1384.54046582 </i>
    <i name="atom">   6761.44252427 </i>
    <i name="e_fr_energy">   -191.48809765 </i>
    <i name="e_wo_entrp">   -191.27932847 </i>
    <i name="e_0_energy">   -191.38371306 </i>
   </energy>
  </scstep>
  <scstep>
   <time name="dav">   34.30   34.38</time>
   <time name="total">   34.81   34.90</time>
   <energy>
    <i name="e_fr_energy">   -191.55545997 </i>
    <i name="e_wo_entrp">   -191.34168845 </i>
    <i name="e_0_energy">   -191.44857421 </i>
   </energy>
  </scstep>
  <scstep>
   <time name="dav">   31.74   31.81</time>
   <time name="total">   32.25   32.33</time>
   <energy>
    <i name="e_fr_energy">   -191.50132878 </i>
    <i name="e_wo_entrp">   -191.29170745 </i>
    <i name="e_0_energy">   -191.39651811 </i>
   </energy>
  </scstep>
  <scstep>
   <time name="dav">   29.48   29.55</time>
   <time name="total">   29.99   30.07</time>
   <energy>
    <i name="e_fr_energy">   -191.50308968 </i>
    <i name="e_wo_entrp">   -191.29384171 </i>
    <i name="e_0_energy">   -191.39846570 </i>
   </energy>
  </scstep>
  <scstep>
   <time name="dav">   29.51   29.58</time>
   <time name="total">   30.02   30.10</time>
   <energy>
    <i name="e_fr_energy">   -191.49864569 </i>
    <i name="e_wo_entrp">   -191.28874050 </i>
    <i name="e_0_energy">   -191.39369310 </i>
   </energy>
  </scstep>
  <scstep>
   <time name="dav">   27.84   27.91</time>
   <time name="total">   28.35   28.42</time>
   <energy>
    <i name="e_fr_energy">   -191.49851934 </i>
    <i name="e_wo_entrp">   -191.28861913 </i>
    <i name="e_0_energy">   -191.39356923 </i>
   </energy>
  </scstep>
  <scstep>
   <time name="dav">   29.85   29.92</time>
   <time name="total">   30.36   30.44</time>
   <energy>
    <i name="e_fr_energy">   -191.49907846 </i>
    <i name="e_wo_entrp">   -191.28941600 </i>
    <i name="e_0_energy">   -191.39424723 </i>
   </energy>
  </scstep>
  <scstep>
   <time name="dav">   25.57   25.63</time>
   <time name="total">   26.08   26.15</time>
   <energy>
    <i name="e_fr_energy">   -191.49801674 </i>
    <i name="e_wo_entrp">   -191.28813503 </i>
    <i name="e_0_energy">   -191.39307588 </i>
   </energy>
  </scstep>
  <scstep>
   <time name="dav">   17.60   17.65</time>
   <time name="total">   17.64   17.69</time>
   <energy>
    <i name="alphaZ">     90.05232580 </i>
    <i name="ewald">  44593.67402300 </i>
    <i name="hartreedc"> -50604.41209011 </i>
    <i name="XCdc">   -233.44896299 </i>
    <i name="pawpsdc">   4082.97330270 </i>
    <i name="pawaedc">  -3498.90796616 </i>
    <i name="eentropy">     -0.20974641 </i>
    <i name="bandstr">  -1382.66143828 </i>
    <i name="atom">   6761.44252427 </i>
    <i name="e_fr_energy">   -191.49802817 </i>
    <i name="e_wo_entrp">   -191.28828176 </i>
    <i name="e_0_energy">   -191.39315496 </i>
   </energy>
  </scstep>
  <structure>
   <crystal>
    <varray name="basis" >
     <v>       8.27361690       4.77397531       0.00000000 </v>
     <v>      -8.28665073       4.79652233       0.00000000 </v>
     <v>       0.00000000       0.00000000      30.00000000 </v>
    </varray>
    <i name="volume">   2377.34562683 </i>
    <varray name="rec_basis" >
     <v>       0.06052787       0.10457021       0.00000000 </v>
     <v>      -0.06024335       0.10440573       0.00000000 </v>
     <v>       0.00000000       0.00000000       0.03333333 </v>
    </varray>
   </crystal>
   <varray name="positions" >
    <v>      -0.00253123       0.66871253      -0.00043076 </v>
    <v>       0.67038869       0.67062273      -0.00004527 </v>
    <v>       0.33461776       0.32678750       0.00050087 </v>
    <v>      -0.00834950       0.00498695      -0.00038217 </v>
    <v>       0.66552785       0.31866424       0.00019685 </v>
    <v>       0.67375513       0.01214480       0.00001908 </v>
    <v>       0.98090409       0.31363690      -0.00012264 </v>
    <v>       0.34397352       0.00424690       0.00012057 </v>
    <v>       0.34245069       0.68028507       0.00024225 </v>
    <v>       0.11634597       0.22671135       0.94823776 </v>
    <v>       0.22493448       0.11559221       0.05082998 </v>
    <v>       0.10792334       0.55589048       0.95082114 </v>
    <v>       0.22261886       0.44174649       0.04859899 </v>
    <v>       0.10950152       0.88513279       0.95014369 </v>
    <v>       0.21658331       0.77625418       0.05123578 </v>
    <v>       0.44151129       0.22463585       0.94797952 </v>
    <v>       0.55469191       0.10943929       0.05476671 </v>
    <v>       0.44744419       0.55331502       0.95068683 </v>
    <v>       0.55409431       0.44664719       0.04890937 </v>
    <v>       0.44580033       0.89051214       0.94649999 </v>
    <v>       0.55949737       0.77600057       0.05135518 </v>
    <v>       0.77808373       0.22213842       0.94431857 </v>
    <v>       0.88810220       0.11093489       0.05513421 </v>
    <v>       0.77906975       0.55936125       0.95082556 </v>
    <v>       0.89214255       0.44878704       0.05116835 </v>
    <v>       0.77362164       0.88260802       0.94805767 </v>
    <v>       0.88551074       0.77241966       0.05033181 </v>
   </varray>
  </structure>
  <varray name="forces" >
   <v>      -0.09262716       0.04354529      -0.04508173 </v>
   <v>      -0.01616368       0.07274177      -0.04698291 </v>
   <v>       0.36088432      -0.11430153       0.03135519 </v>
   <v>      -0.38155920      -0.09252073       0.00886702 </v>
   <v>       0.13732752      -0.22667705      -0.02538811 </v>
   <v>      -0.07405362      -0.03991678      -0.00036427 </v>
   <v>       0.03649110      -0.42516159       0.01389314 </v>
   <v>       0.35712505       0.24783573       0.01216059 </v>
   <v>      -0.25142749       0.55039967       0.03493311 </v>
   <v>      -0.05601129      -0.03432637      -0.03300205 </v>
   <v>       0.06420680      -0.09312259      -0.08174041 </v>
   <v>       0.11668282      -0.04737288       0.24946843 </v>
   <v>      -0.13482740      -0.01106539      -0.36878594 </v>
   <v>      -0.11059255       0.12810868       0.16638663 </v>
   <v>      -0.05728129       0.06595865       0.06887411 </v>
   <v>       0.06287970      -0.01524045      -0.11820037 </v>
   <v>       0.04173103       0.01086483       0.20960722 </v>
   <v>      -0.04994027       0.01333921       0.12011904 </v>
   <v>       0.14082786       0.00741723      -0.06620292 </v>
   <v>       0.00250819       0.10945225      -0.23514995 </v>
   <v>      -0.02150713       0.09037793       0.10935841 </v>
   <v>       0.00441709      -0.05769869      -0.18577029 </v>
   <v>      -0.03751844      -0.06581763       0.17899808 </v>
   <v>       0.04711956      -0.09877797       0.09338520 </v>
   <v>       0.04431096      -0.09516908      -0.05205763 </v>
   <v>      -0.08958592       0.03736810      -0.05281101 </v>
   <v>      -0.04341657       0.03975940       0.01413140 </v>
  </varray>
  <varray name="stress" >
   <v>      -0.07690540      -0.03545133       0.08329797 </v>
   <v>      -0.03545148      -0.17237322      -0.08523444 </v>
   <v>       0.08329788      -0.08523423      -1.18849108 </v>
  </varray>
  <energy>
   <i name="e_fr_energy">   -191.49802817 </i>
   <i name="e_wo_entrp">   -191.39315496 </i>
   <i name="e_0_energy">     -0.20974641 </i>
  </energy>
  <time name="totalsc">  296.42  297.19</time>
 </calculation>
 <calculation>
  <scstep>
   <time name="dav">   22.56   22.61</time>
   <time name="total">   23.07   23.12</time>
   <energy>
    <i name="alphaZ">     90.09501601 </i>
    <i name="ewald">  44613.76031314 </i>
    <i name="hartreedc"> -50624.91956508 </i>
    <i name="XCdc">   -233.41884665 </i>
    <i name="pawpsdc">   4082.80099029 </i>
    <i name="pawaedc">  -3498.73388261 </i>
    <i name="eentropy">     -0.21079055 </i>
    <i name="bandstr">  -1382.36068496 </i>
    <i name="atom">   6761.44252427 </i>
    <i name="e_fr_energy">   -191.54492613 </i>
    <i name="e_wo_entrp">   -191.33413559 </i>
    <i name="e_0_energy">   -191.43953086 </i>
   </energy>
  </scstep>
  <scstep>
   <time name="dav">   34.48   34.57</time>
   <time name="total">   34.99   35.09</time>
   <energy>
    <i name="e_fr_energy">   -191.56158419 </i>
    <i name="e_wo_entrp">   -191.34741830 </i>
    <i name="e_0_energy">   -191.45450125 </i>
   </energy>
  </scstep>
  <scstep>
   <time name="dav">   31.47   31.55</time>
   <time name="total">   31.98   32.07</time>
   <energy>
    <i name="e_fr_energy">   -191.54816949 </i>
    <i name="e_wo_entrp">   -191.33701448 </i>
    <i name="e_0_energy">   -191.44259199 </i>
   </energy>
  </scstep>
  <scstep>
   <time name="dav">   28.84   28.91</time>
   <time name="total">   29.35   29.43</time>
   <energy>
    <i name="e_fr_energy">   -191.54869344 </i>
    <i name="e_wo_entrp">   -191.33769731 </i>
    <i name="e_0_energy">   -191.44319537 </i>
   </energy>
  </scstep>
  <scstep>
   <time name="dav">   28.78   28.85</time>
   <time name="total">   29.29   29.37</time>
   <energy>
    <i name="e_fr_energy">   -191.54712864 </i>
    <i name="e_wo_entrp">   -191.33560437 </i>
    <i name="e_0_energy">   -191.44136650 </i>
   </energy>
  </scstep>
  <scstep>
   <time name="dav">   26.81   26.87</time>
   <time name="total">   26.85   26.92</time>
   <energy>
    <i name="alphaZ">     90.09501601 </i>
    <i name="ewald">  44613.76031314 </i>
    <i name="hartreedc"> -50624.92238370 </i>
    <i name="XCdc">   -233.42310954 </i>
    <i name="pawpsdc">   4083.82326695 </i>
    <i name="pawaedc">  -3499.76863864 </i>
    <i name="eentropy">     -0.21150803 </i>
    <i name="bandstr">  -1382.34255207 </i>
    <i name="atom">   6761.44252427 </i>
    <i name="e_fr_energy">   -191.54707160 </i>
    <i name="e_wo_entrp">   -191.33556358 </i>
[...]
      <set comment="kpoint 31">
       <r>  -17.4797    1.0000 </r>
       <r>  -17.2901    1.0000 </r>
       <r>  -16.8928    1.0000 </r>
       <r>  -16.5255    1.0000 </r>
       <r>  -16.4336    1.0000 </r>
       <r>  -16.3740    1.0000 </r>
       <r>  -16.2680    1.0000 </r>
       <r>  -16.1608    1.0000 </r>
       <r>  -16.0646    1.0000 </r>
       <r>  -16.0276    1.0000 </r>
       <r>  -15.9300    1.0000 </r>
       <r>  -15.8877    1.0000 </r>
       <r>  -15.8003    1.0000 </r>
       <r>  -15.6802    1.0000 </r>
       <r>  -15.6586    1.0000 </r>
       <r>  -15.5773    1.0000 </r>
       <r>  -15.5051    1.0000 </r>
       <r>  -15.4418    1.0000 </r>
       <r>   -9.7497    1.0000 </r>
       <r>   -9.3754    1.0000 </r>
       <r>   -9.3447    1.0000 </r>
       <r>   -8.9221    1.0000 </r>
       <r>   -8.8640    1.0000 </r>
       <r>   -8.7008    1.0000 </r>
       <r>   -8.5278    1.0000 </r>
       <r>   -8.4543    1.0000 </r>
       <r>   -8.3749    1.0000 </r>
       <r>   -8.3241    1.0000 </r>
       <r>   -8.2580    1.0000 </r>
       <r>   -8.2014    1.0000 </r>
       <r>   -8.1573    1.0000 </r>
       <r>   -8.0930    1.0000 </r>
       <r>   -7.9783    1.0000 </r>
       <r>   -7.8734    1.0000 </r>
       <r>   -7.8463    1.0000 </r>
       <r>   -7.5785    1.0000 </r>
       <r>   -7.4567    1.0000 </r>
       <r>   -7.3509    1.0000 </r>
       <r>   -7.2936    1.0000 </r>
       <r>   -7.1985    1.0000 </r>
       <r>   -7.1179    1.0000 </r>
       <r>   -7.0541    1.0000 </r>
       <r>   -7.0099    1.0000 </r>
       <r>   -6.9193    1.0000 </r>
       <r>   -6.8229    1.0000 </r>
       <r>   -6.8079    1.0000 </r>
       <r>   -6.7682    1.0000 </r>
       <r>   -6.6616    1.0000 </r>
       <r>   -6.5564    1.0000 </r>
       <r>   -6.5115    1.0000 </r>
       <r>   -6.4230    1.0000 </r>
       <r>   -6.3081    1.0000 </r>
       <r>   -6.2742    1.0000 </r>
       <r>   -6.1686    1.0000 </r>
       <r>   -6.1061    1.0000 </r>
       <r>   -6.0291    1.0000 </r>
       <r>   -5.9860    1.0000 </r>
       <r>   -5.9410    1.0000 </r>
       <r>   -5.8792    1.0000 </r>
       <r>   -5.8153    1.0000 </r>
       <r>   -5.7617    1.0000 </r>
       <r>   -5.6506    1.0000 </r>
       <r>   -5.6009    1.0000 </r>
       <r>   -5.4863    1.0000 </r>
       <r>   -5.2448    1.0000 </r>
       <r>   -5.1527    1.0000 </r>
       <r>   -5.0620    1.0000 </r>
       <r>   -4.9406    1.0000 </r>
       <r>   -4.8099    1.0000 </r>
       <r>   -4.7114    1.0000 </r>
       <r>   -4.5050    1.0000 </r>
       <r>   -4.4525    1.0000 </r>
       <r>   -4.2380    1.0000 </r>
       <r>   -4.1310    1.0000 </r>
       <r>   -4.0023    1.0000 </r>
       <r>   -3.6937    0.9999 </r>
       <r>   -3.5956    0.9993 </r>
       <r>   -3.5265    0.9965 </r>
       <r>   -3.3314    0.9067 </r>
       <r>   -3.0818    0.3283 </r>
       <r>   -2.9561    0.0912 </r>
       <r>   -2.8436    0.0166 </r>
       <r>   -2.6984    0.0008 </r>
       <r>   -2.6378    0.0002 </r>
       <r>   -2.4970    0.0000 </r>
       <r>   -2.3624    0.0000 </r>
       <r>   -2.2565    0.0000 </r>
       <r>   -2.1756    0.0000 </r>
       <r>   -2.1168    0.0000 </r>
       <r>   -2.0096    0.0000 </r>
       <r>   -1.8764    0.0000 </r>
       <r>   -1.6684    0.0000 </r>
       <r>   -1.4988    0.0000 </r>
       <r>   -1.3977    0.0000 </r>
       <r>   -1.2731    0.0000 </r>
       <r>   -1.2023    0.0000 </r>
       <r>   -1.1021    0.0000 </r>
       <r>   -0.9951    0.0000 </r>
       <r>   -0.8735    0.0000 </r>
       <r>   -0.8437    0.0000 </r>
       <r>   -0.7973    0.0000 </r>
       <r>   -0.6957    0.0000 </r>
       <r>   -0.6378    0.0000 </r>
       <r>   -0.5483    0.0000 </r>
       <r>   -0.4759    0.0000 </r>
       <r>   -0.2642    0.0000 </r>
       <r>   -0.2121    0.0000 </r>
       <r>   -0.0183    0.0000 </r>
       <r>    0.1098    0.0000 </r>
       <r>    0.3450    0.0000 </r>
       <r>    0.4601    0.0000 </r>
       <r>    0.6488    0.0000 </r>
       <r>    0.8947    0.0000 </r>
       <r>    1.1173    0.0000 </r>
       <r>    1.2034    0.0000 </r>
       <r>    1.2834    0.0000 </r>
       <r>    1.3599    0.0000 </r>
       <r>    2.1580    0.0000 </r>
       <r>    2.2976    0.0000 </r>
       <r>    2.4133    0.0000 </r>
      </set>
      <set comment="kpoint 32">
       <r>  -17.5031    1.0000 </r>
       <r>  -17.1900    1.0000 </r>
       <r>  -17.0269    1.0000 </r>
       <r>  -16.5135    1.0000 </r>
       <r>  -16.3979    1.0000 </r>
       <r>  -16.3016    1.0000 </r>
       <r>  -16.2418    1.0000 </r>
       <r>  -16.1658    1.0000 </r>
       <r>  -16.1201    1.0000 </r>
       <r>  -16.0203    1.0000 </r>
       <r>  -15.9784    1.0000 </r>
       <r>  -15.8810    1.0000 </r>
       <r>  -15.8126    1.0000 </r>
       <r>  -15.7124    1.0000 </r>
       <r>  -15.6527    1.0000 </r>
       <r>  -15.5554    1.0000 </r>
       <r>  -15.5035    1.0000 </r>
       <r>  -15.4192    1.0000 </r>
       <r>   -9.6752    1.0000 </r>
       <r>   -9.5275    1.0000 </r>
       <r>   -9.3931    1.0000 </r>
       <r>   -8.8806    1.0000 </r>
       <r>   -8.7392    1.0000 </r>
       <r>   -8.5412    1.0000 </r>
       <r>   -8.4891    1.0000 </r>
       <r>   -8.4296    1.0000 </r>
       <r>   -8.4070    1.0000 </r>
       <r>   -8.3643    1.0000 </r>
       <r>   -8.2916    1.0000 </r>
       <r>   -8.2613    1.0000 </r>
       <r>   -8.1865    1.0000 </r>
       <r>   -8.1455    1.0000 </r>
       <r>   -8.0696    1.0000 </r>
       <r>   -7.9372    1.0000 </r>
       <r>   -7.8063    1.0000 </r>
       <r>   -7.4984    1.0000 </r>
       <r>   -7.4112    1.0000 </r>
       <r>   -7.3685    1.0000 </r>
       <r>   -7.2936    1.0000 </r>
       <r>   -7.2336    1.0000 </r>
       <r>   -7.1406    1.0000 </r>
       <r>   -7.0735    1.0000 </r>
       <r>   -6.9762    1.0000 </r>
       <r>   -6.9437    1.0000 </r>
       <r>   -6.8873    1.0000 </r>
       <r>   -6.8172    1.0000 </r>
       <r>   -6.7680    1.0000 </r>
       <r>   -6.6590    1.0000 </r>
       <r>   -6.4825    1.0000 </r>
       <r>   -6.4621    1.0000 </r>
       <r>   -6.4056    1.0000 </r>
       <r>   -6.3621    1.0000 </r>
       <r>   -6.3208    1.0000 </r>
       <r>   -6.2348    1.0000 </r>
       <r>   -6.1391    1.0000 </r>
       <r>   -6.0225    1.0000 </r>
       <r>   -5.9418    1.0000 </r>
       <r>   -5.8785    1.0000 </r>
       <r>   -5.8327    1.0000 </r>
       <r>   -5.7732    1.0000 </r>
       <r>   -5.6656    1.0000 </r>
       <r>   -5.5252    1.0000 </r>
       <r>   -5.4625    1.0000 </r>
       <r>   -5.4231    1.0000 </r>
       <r>   -5.3413    1.0000 </r>
       <r>   -5.2555    1.0000 </r>
       <r>   -5.1720    1.0000 </r>
       <r>   -5.0468    1.0000 </r>
       <r>   -4.9076    1.0000 </r>
       <r>   -4.6965    1.0000 </r>
       <r>   -4.5699    1.0000 </r>
       <r>   -4.4170    1.0000 </r>
       <r>   -4.2748    1.0000 </r>
       <r>   -4.0098    1.0000 </r>
       <r>   -3.9646    1.0000 </r>
       <r>   -3.6935    0.9999 </r>
       <r>   -3.5970    0.9993 </r>
       <r>   -3.5029    0.9944 </r>
       <r>   -3.3568    0.9332 </r>
       <r>   -3.1095    0.4019 </r>
       <r>   -2.9331    0.0674 </r>
       <r>   -2.8124    0.0094 </r>
       <r>   -2.6868    0.0006 </r>
       <r>   -2.6640    0.0003 </r>
       <r>   -2.4975    0.0000 </r>
       <r>   -2.3809    0.0000 </r>
       <r>   -2.3387    0.0000 </r>
       <r>   -2.2186    0.0000 </r>
       <r>   -2.1001    0.0000 </r>
       <r>   -2.0460    0.0000 </r>
       <r>   -1.8859    0.0000 </r>
       <r>   -1.5616    0.0000 </r>
       <r>   -1.4944    0.0000 </r>
       <r>   -1.4078    0.0000 </r>
       <r>   -1.2594    0.0000 </r>
       <r>   -1.2010    0.0000 </r>
       <r>   -1.0863    0.0000 </r>
       <r>   -1.0195    0.0000 </r>
       <r>   -0.8717    0.0000 </r>
       <r>   -0.8352    0.0000 </r>
       <r>   -0.7842    0.0000 </r>
       <r>   -0.7133    0.0000 </r>
       <r>   -0.6510    0.0000 </r>
       <r>   -0.5285    0.0000 </r>
       <r>   -0.3727    0.0000 </r>
       <r>   -0.3085    0.0000 </r>
       <r>   -0.1962    0.0000 </r>
       <r>   -0.0293    0.0000 </r>
       <r>    0.1120    0.0000 </r>
       <r>    0.2060    0.0000 </r>
       <r>    0.4464    0.0000 </r>
       <r>    0.7043    0.0000 </r>
       <r>    0.8992    0.0000 </r>
       <r>    1.0539    0.0000 </r>
       <r>    1.2227    0.0000 </r>
       <r>    1.3132    0.0000 </r>
       <r>    1.3963    0.0000 </r>
       <r>    2.1281    0.0000 </r>
       <r>    2.2698    0.0000 </r>
       <r>    2.5928    0.0000 </r>
      </set>
      <set comment="kpoint 33">
       <r>  -17.4835    1.0000 </r>
       <r>  -17.2758    1.0000 </r>
       <r>  -16.9048    1.0000 </r>
       <r>  -16.5052    1.0000 </r>
       <r>  -16.4755    1.0000 </r>
       <r>  -16.3921    1.0000 </r>
       <r>  -16.2253    1.0000 </r>
       <r>  -16.1366    1.0000 </r>
       <r>  -16.0836    1.0000 </r>
       <r>  -16.0282    1.0000 </r>
       <r>  -15.9722    1.0000 </r>
       <r>  -15.8325    1.0000 </r>
       <r>  -15.8069    1.0000 </r>
       <r>  -15.7333    1.0000 </r>
       <r>  -15.6309    1.0000 </r>
       <r>  -15.5684    1.0000 </r>
       <r>  -15.4933    1.0000 </r>
       <r>  -15.4472    1.0000 </r>
       <r>   -9.7402    1.0000 </r>
       <r>   -9.4309    1.0000 </r>
       <r>   -9.2992    1.0000 </r>
       <r>   -8.8972    1.0000 </r>
       <r>   -8.7912    1.0000 </r>
       <r>   -8.7643    1.0000 </r>
       <r>   -8.5546    1.0000 </r>
       <r>   -8.4899    1.0000 </r>
       <r>   -8.4066    1.0000 </r>
       <r>   -8.3037    1.0000 </r>
       <r>   -8.2797    1.0000 </r>
       <r>   -8.2177    1.0000 </r>
       <r>   -8.1383    1.0000 </r>
       <r>   -8.0896    1.0000 </r>
       <r>   -7.9757    1.0000 </r>
       <r>   -7.9147    1.0000 </r>
       <r>   -7.7177    1.0000 </r>
       <r>   -7.5955    1.0000 </r>
       <r>   -7.5355    1.0000 </r>
       <r>   -7.4040    1.0000 </r>
       <r>   -7.3072    1.0000 </r>
       <r>   -7.2023    1.0000 </r>
       <r>   -7.1182    1.0000 </r>
       <r>   -7.0138    1.0000 </r>
       <r>   -6.9407    1.0000 </r>
       <r>   -6.9089    1.0000 </r>
       <r>   -6.8848    1.0000 </r>
       <r>   -6.8143    1.0000 </r>
       <r>   -6.7136    1.0000 </r>
       <r>   -6.6463    1.0000 </r>
       <r>   -6.5714    1.0000 </r>
       <r>   -6.4592    1.0000 </r>
       <r>   -6.4167    1.0000 </r>
       <r>   -6.3425    1.0000 </r>
       <r>   -6.2713    1.0000 </r>
       <r>   -6.2534    1.0000 </r>
       <r>   -6.0704    1.0000 </r>
       <r>   -6.0026    1.0000 </r>
       <r>   -5.9528    1.0000 </r>
       <r>   -5.8543    1.0000 </r>
       <r>   -5.8269    1.0000 </r>
       <r>   -5.7825    1.0000 </r>
       <r>   -5.7511    1.0000 </r>
       <r>   -5.6637    1.0000 </r>
       <r>   -5.6150    1.0000 </r>
       <r>   -5.5528    1.0000 </r>
       <r>   -5.2985    1.0000 </r>
       <r>   -5.1531    1.0000 </r>
       <r>   -5.0389    1.0000 </r>
       <r>   -4.9359    1.0000 </r>
       <r>   -4.8472    1.0000 </r>
       <r>   -4.7438    1.0000 </r>
       <r>   -4.5570    1.0000 </r>
       <r>   -4.4420    1.0000 </r>
       <r>   -4.3527    1.0000 </r>
       <r>   -3.9924    1.0000 </r>
       <r>   -3.8525    1.0000 </r>
       <r>   -3.6862    0.9999 </r>
       <r>   -3.5805    0.9990 </r>
       <r>   -3.5469    0.9978 </r>
       <r>   -3.3626    0.9384 </r>
       <r>   -3.1603    0.5441 </r>
       <r>   -3.0682    0.2944 </r>
       <r>   -2.7726    0.0043 </r>
       <r>   -2.6576    0.0003 </r>
       <r>   -2.5913    0.0000 </r>
       <r>   -2.4943    0.0000 </r>
       <r>   -2.4539    0.0000 </r>
       <r>   -2.3216    0.0000 </r>
       <r>   -2.2490    0.0000 </r>
       <r>   -2.1185    0.0000 </r>
       <r>   -2.0591    0.0000 </r>
       <r>   -1.8797    0.0000 </r>
       <r>   -1.5512    0.0000 </r>
       <r>   -1.4468    0.0000 </r>
       <r>   -1.4172    0.0000 </r>
       <r>   -1.2350    0.0000 </r>
       <r>   -1.1626    0.0000 </r>
       <r>   -1.0727    0.0000 </r>
       <r>   -1.0121    0.0000 </r>
       <r>   -0.9212    0.0000 </r>
       <r>   -0.8235    0.0000 </r>
       <r>   -0.7407    0.0000 </r>
       <r>   -0.7088    0.0000 </r>
       <r>   -0.6701    0.0000 </r>
       <r>   -0.5770    0.0000 </r>
       <r>   -0.3817    0.0000 </r>
       <r>   -0.2864    0.0000 </r>
       <r>   -0.1962    0.0000 </r>
       <r>   -0.1314    0.0000 </r>
       <r>    0.0327    0.0000 </r>
       <r>    0.2463    0.0000 </r>
       <r>    0.4924    0.0000 </r>
       <r>    0.6918    0.0000 </r>
       <r>    0.9104    0.0000 </r>
       <r>    1.0681    0.0000 </r>
       <r>    1.2409    0.0000 </r>
       <r>    1.3425    0.0000 </r>
       <r>    1.4774    0.0000 </r>
       <r>    2.1620    0.0000 </r>
       <r>    2.3048    0.0000 </r>
       <r>    2.4249    0.0000 </r>
      </set>
      <set comment="kpoint 34">
       <r>  -17.4489    1.0000 </r>
       <r>  -17.3500    1.0000 </r>
       <r>  -16.7379    1.0000 </r>
       <r>  -16.6480    1.0000 </r>
       <r>  -16.4761    1.0000 </r>
       <r>  -16.4375    1.0000 </r>
       <r>  -16.1915    1.0000 </r>
       <r>  -16.1431    1.0000 </r>
       <r>  -16.1052    1.0000 </r>
       <r>  -16.0135    1.0000 </r>
       <r>  -15.9372    1.0000 </r>
       <r>  -15.8284    1.0000 </r>
       <r>  -15.7931    1.0000 </r>
       <r>  -15.7249    1.0000 </r>
       <r>  -15.5964    1.0000 </r>
       <r>  -15.5586    1.0000 </r>
       <r>  -15.5467    1.0000 </r>
       <r>  -15.4583    1.0000 </r>
       <r>   -9.7813    1.0000 </r>
       <r>   -9.3126    1.0000 </r>
       <r>   -9.1516    1.0000 </r>
       <r>   -9.0148    1.0000 </r>
       <r>   -8.9718    1.0000 </r>
       <r>   -8.7987    1.0000 </r>
       <r>   -8.6133    1.0000 </r>
       <r>   -8.4900    1.0000 </r>
       <r>   -8.4099    1.0000 </r>
       <r>   -8.3135    1.0000 </r>
       <r>   -8.2276    1.0000 </r>
       <r>   -8.2005    1.0000 </r>
       <r>   -8.1462    1.0000 </r>
       <r>   -7.9863    1.0000 </r>
       <r>   -7.9245    1.0000 </r>
       <r>   -7.8476    1.0000 </r>
       <r>   -7.7427    1.0000 </r>
       <r>   -7.6268    1.0000 </r>
       <r>   -7.5654    1.0000 </r>
       <r>   -7.3920    1.0000 </r>
       <r>   -7.3492    1.0000 </r>
       <r>   -7.2947    1.0000 </r>
       <r>   -7.1069    1.0000 </r>
       <r>   -6.9962    1.0000 </r>
       <r>   -6.9556    1.0000 </r>
       <r>   -6.8620    1.0000 </r>
       <r>   -6.8169    1.0000 </r>
       <r>   -6.7380    1.0000 </r>
       <r>   -6.6512    1.0000 </r>
       <r>   -6.6422    1.0000 </r>
       <r>   -6.5196    1.0000 </r>
       <r>   -6.4765    1.0000 </r>
       <r>   -6.4602    1.0000 </r>
       <r>   -6.3959    1.0000 </r>
       <r>   -6.2878    1.0000 </r>
       <r>   -6.2358    1.0000 </r>
       <r>   -6.0885    1.0000 </r>
       <r>   -6.0420    1.0000 </r>
       <r>   -5.9962    1.0000 </r>
       <r>   -5.8674    1.0000 </r>
       <r>   -5.8059    1.0000 </r>
       <r>   -5.7751    1.0000 </r>
       <r>   -5.7467    1.0000 </r>
       <r>   -5.6882    1.0000 </r>
       <r>   -5.6481    1.0000 </r>
       <r>   -5.6109    1.0000 </r>
       <r>   -5.4801    1.0000 </r>
       <r>   -5.0000    1.0000 </r>
       <r>   -4.9564    1.0000 </r>
       <r>   -4.8889    1.0000 </r>
       <r>   -4.7457    1.0000 </r>
       <r>   -4.6952    1.0000 </r>
       <r>   -4.6476    1.0000 </r>
       <r>   -4.4637    1.0000 </r>
       <r>   -4.3682    1.0000 </r>
       <r>   -3.9757    1.0000 </r>
       <r>   -3.8661    1.0000 </r>
       <r>   -3.6604    0.9999 </r>
       <r>   -3.5741    0.9988 </r>
       <r>   -3.5518    0.9980 </r>
       <r>   -3.3634    0.9391 </r>
       <r>   -3.1957    0.6409 </r>
       <r>   -3.1447    0.5002 </r>
       <r>   -2.7712    0.0041 </r>
       <r>   -2.6219    0.0001 </r>
       <r>   -2.5719    0.0000 </r>
       <r>   -2.5033    0.0000 </r>
       <r>   -2.4561    0.0000 </r>
       <r>   -2.3197    0.0000 </r>
       <r>   -2.2437    0.0000 </r>
       <r>   -2.1494    0.0000 </r>
       <r>   -2.0505    0.0000 </r>
       <r>   -1.8747    0.0000 </r>
       <r>   -1.5583    0.0000 </r>
       <r>   -1.4390    0.0000 </r>
       <r>   -1.4090    0.0000 </r>
       <r>   -1.2164    0.0000 </r>
       <r>   -1.1440    0.0000 </r>
       <r>   -1.0565    0.0000 </r>
       <r>   -1.0061    0.0000 </r>
       <r>   -0.9537    0.0000 </r>
       <r>   -0.8366    0.0000 </r>
       <r>   -0.7089    0.0000 </r>
       <r>   -0.6726    0.0000 </r>
       <r>   -0.6483    0.0000 </r>
       <r>   -0.6181    0.0000 </r>
       <r>   -0.4814    0.0000 </r>
       <r>   -0.2918    0.0000 </r>
       <r>   -0.2044    0.0000 </r>
       <r>   -0.1298    0.0000 </r>
       <r>   -0.0034    0.0000 </r>
       <r>    0.2834    0.0000 </r>
       <r>    0.5228    0.0000 </r>
       <r>    0.6691    0.0000 </r>
       <r>    0.8933    0.0000 </r>
       <r>    1.1283    0.0000 </r>
       <r>    1.2368    0.0000 </r>
       <r>    1.3662    0.0000 </r>
       <r>    1.5120    0.0000 </r>
       <r>    2.2464    0.0000 </r>
       <r>    2.2761    0.0000 </r>
       <r>    2.3941    0.0000 </r>
      </set>
     </set>
    </set>
   </array>
  </eigenvalues>
  <separator name="orbital magnetization" >
   <v name="MAGDIPOLOUT">      0.00000000      0.00000000      0.00000000</v>
  </separator>
 </calculation>
 <structure name="finalpos" >
  <crystal>
   <varray name="basis" >
    <v>       8.28797497       4.78095842       0.00000000 </v>
    <v>      -8.31392115       4.82592021       0.00000000 </v>
    <v>       0.00000000       0.00000000      30.00000000 </v>
   </varray>
   <i name="volume">   2392.36851481 </i>
   <varray name="rec_basis" >
    <v>       0.06051643       0.10425552       0.00000000 </v>
    <v>      -0.05995262       0.10393016       0.00000000 </v>
    <v>       0.00000000       0.00000000       0.03333333 </v>
   </varray>
  </crystal>
  <varray name="positions" >
   <v>      -0.01023298       0.67693044      -0.00018838 </v>
   <v>       0.66074177       0.65929947       0.00003436 </v>
   <v>       0.33237490       0.33008644      -0.00039159 </v>
   <v>       0.00386237       0.01170730      -0.00014885 </v>
   <v>       0.66754720       0.31143958      -0.00040840 </v>
   <v>       0.68020689       0.02191632       0.00029852 </v>
   <v>       0.97517170       0.30779794      -0.00070774 </v>
   <v>       0.34054382       0.02037003       0.00069640 </v>
   <v>       0.34852851       0.66347788       0.00038777 </v>
   <v>       0.11599656       0.22806383       0.94738495 </v>
   <v>       0.22716713       0.12135881       0.05296478 </v>
   <v>       0.10700222       0.55516452       0.95304470 </v>
   <v>       0.21875015       0.43804080       0.04896272 </v>
   <v>       0.11090474       0.88781564       0.94980100 </v>
   <v>       0.21810536       0.77769421       0.04822532 </v>
   <v>       0.44327798       0.22624359       0.94700964 </v>
   <v>       0.55378599       0.10790247       0.05515807 </v>
   <v>       0.44789442       0.55091372       0.94850710 </v>
   <v>       0.55526837       0.44220172       0.04823496 </v>
   <v>       0.44418543       0.88990928       0.95012437 </v>
   <v>       0.56277889       0.77823135       0.05099798 </v>
   <v>       0.77764525       0.21947704       0.94238008 </v>
   <v>       0.88897928       0.11068875       0.05580749 </v>
   <v>       0.77746137       0.55676307       0.95069427 </v>
   <v>       0.89093893       0.44613678       0.05040579 </v>
   <v>       0.77475286       0.88422338       0.95035269 </v>
   <v>       0.88457533       0.77436010       0.05037189 </v>
  </varray>
 </structure>
</modeling>
