unknown system                          
           1
     8.853477    5.103403    0.000000
    -8.856330    5.108312    0.000000
     0.000000    0.000000   30.000000
   V    Mo   W    S 
   3   3   3  18
Direct configuration=     1
   0.00000000  0.66666669  0.00000000
   0.66666669  0.66666669  0.00000000
   0.33333334  0.33333334  0.00000000
   0.00000000  0.00000000  0.00000000
   0.66666669  0.33333334  0.00000000
   0.66666669  0.00000000  0.00000000
   1.00000000  0.33333334  0.00000000
   0.33333334  0.00000000  0.00000000
   0.33333334  0.66666669  0.00000000
   0.11068511  0.22244981  0.95539999
   0.22244981  0.11068511  0.04460000
   0.11068511  0.55578315  0.95539999
   0.22244981  0.44401845  0.04460000
   0.11068511  0.88911647  0.95539999
   0.22244981  0.77735180  0.04460000
   0.44401845  0.22244981  0.95539999
   0.55578315  0.11068511  0.04460000
   0.44401845  0.55578315  0.95539999
   0.55578315  0.44401845  0.04460000
   0.44401845  0.88911647  0.95539999
   0.55578315  0.77735180  0.04460000
   0.77735180  0.22244981  0.95539999
   0.88911647  0.11068511  0.04460000
   0.77735180  0.55578315  0.95539999
   0.88911647  0.44401845  0.04460000
   0.77735180  0.88911647  0.95539999
   0.88911647  0.77735180  0.04460000
unknown system                          
           1
     8.665833    4.997553    0.000000
    -8.668428    5.002017    0.000000
     0.000000    0.000000   30.000000
   V    Mo   W    S 
   3   3   3  18
Direct configuration=     2
  -0.00151789  0.66673743  0.00013022
   0.66783317  0.66736372  0.00002187
   0.33383978  0.33258860 -0.00010299
  -0.00161917 -0.00016897 -0.00004075
   0.66659495  0.33232652  0.00008016
   0.66807850  0.00131146 -0.00004224
   0.99706781  0.33035932 -0.00020683
   0.33454808  0.00153975  0.00017638
   0.33505316  0.66787761 -0.00004543
   0.11517575  0.22495173  0.95189911
   0.22478176  0.11493247  0.04805513
   0.10905447  0.55738971  0.95207021
   0.22416412  0.44243700  0.04792064
   0.10973451  0.88477697  0.95201726
   0.21830971  0.77589470  0.04812988
   0.44142273  0.22371727  0.95194540
   0.55437168  0.11039878  0.04925629
   0.44595062  0.55361534  0.95301507
   0.55329511  0.44647831  0.04691014
   0.44368634  0.88833189  0.95075060
   0.55689722  0.77484571  0.04799847
   0.77877361  0.22265043  0.95067779
   0.88921118  0.11186462  0.04931999
   0.77964288  0.55987441  0.95311053
   0.89151336  0.44859705  0.04807967
   0.77549403  0.88434339  0.95194590
   0.88685698  0.77317922  0.04692745
unknown system                          
           1
     8.485007    4.898057    0.000000
    -8.486723    4.901002    0.000000
     0.000000    0.000000   30.000000
   V    Mo   W    S 
   3   3   3  18
Direct configuration=     3
  -0.00181621  0.66679632  0.00010101
   0.66812715  0.66760567  0.00002263
   0.33392885  0.33230639 -0.00006185
  -0.00211176  0.00008898 -0.00008879
   0.66658575  0.33152406  0.00012619
   0.66863787  0.00208201 -0.00004773
   0.99587610  0.32912535 -0.00022585
   0.33509103  0.00187249  0.00019915
   0.33556589  0.66852654 -0.00003864
   0.11515749  0.22516114  0.95189657
   0.22496507  0.11491920  0.04802404
   0.10914242  0.55729591  0.95220114
   0.22407412  0.44253763  0.04776709
   0.10990243  0.88479319  0.95211110
   0.21845726  0.77595606  0.04806962
   0.44126890  0.22354650  0.95190263
   0.55413187  0.11023727  0.04935580
   0.44587226  0.55371850  0.95308656
   0.55327872  0.44652227  0.04681860
   0.44347959  0.88825942  0.95075025
   0.55670879  0.77469281  0.04799077
   0.77901134  0.22276657  0.95052005
   0.88932266  0.11209675  0.04944825
   0.77967305  0.55993598  0.95316050
   0.89172381  0.44858215  0.04806072
   0.77540166  0.88417349  0.95190465
   0.88675833  0.77309180  0.04694543
unknown system                          
           1
     8.272895    4.775511    0.000000
    -8.278997    4.786054    0.000000
     0.000000    0.000000   30.000000
   V    Mo   W    S 
   3   3   3  18
Direct configuration=     4
  -0.00237163  0.66711837 -0.00006773
   0.66899875  0.66859041  0.00001567
   0.33402539  0.33097332  0.00012840
  -0.00378658  0.00155916 -0.00024164
   0.66650573  0.32770798  0.00024048
   0.67074091  0.00552944 -0.00004841
   0.99122654  0.32431311 -0.00019096
   0.33732984  0.00276086  0.00018211
   0.33719716  0.67125930  0.00001169
   0.11625426  0.22595582  0.95039969
   0.22543764  0.11590897  0.04934640
   0.10869825  0.55751262  0.95128776
   0.22422799  0.44215165  0.04857421
   0.10951055  0.88389582  0.95107741
   0.21749913  0.77554642  0.04935380
   0.44085190  0.22410111  0.95027579
   0.55409837  0.10999084  0.05139220
   0.44647021  0.55329790  0.95199120
   0.55295431  0.44707583  0.04775881
   0.44358487  0.88856076  0.94910808
   0.55741029  0.77436385  0.04942951
   0.77892625  0.22275771  0.94821406
   0.88931316  0.11213054  0.05159594
   0.78000175  0.56068056  0.95207297
   0.89250925  0.44957618  0.04943906
   0.77455730  0.88274746  0.95030675
   0.88604287  0.77214846  0.04834664
unknown system                          
           1
     8.273617    4.773975    0.000000
    -8.286651    4.796522    0.000000
     0.000000    0.000000   30.000000
   V    Mo   W    S 
   3   3   3  18
Direct configuration=     5
  -0.00266217  0.66811173 -0.00041100
   0.67017700  0.67024251 -0.00001185
   0.33431749  0.32813452  0.00047644
  -0.00715926  0.00456469 -0.00042377
   0.66613426  0.31995469  0.00028455
   0.67433901  0.01234945 -0.00003329
   0.98214753  0.31493554 -0.00004470
   0.34211222  0.00411904  0.00004336
   0.34071757  0.67735722  0.00015107
   0.11695644  0.22666015  0.94829031
   0.22533380  0.11640298  0.05097073
   0.10800530  0.55691899  0.95041892
   0.22359582  0.44166518  0.04914299
   0.10916466  0.88387612  0.94993307
   0.21638635  0.77564579  0.05117004
   0.44109888  0.22480804  0.94811205
   0.55451367  0.10966206  0.05443754
   0.44745423  0.55305650  0.95054604
   0.55336231  0.44724671  0.04900432
   0.44488492  0.88976275  0.94681600
   0.55900099  0.77508327  0.05129852
   0.77832979  0.22234129  0.94471475
   0.88871226  0.11150395  0.05474094
   0.77964241  0.56035300  0.95068162
   0.89268534  0.44980824  0.05123543
   0.77362624  0.88178529  0.94812053
   0.88533737  0.77186477  0.05033531
unknown system                          
           1
     8.271933    4.772041    0.000000
    -8.285523    4.795548    0.000000
     0.000000    0.000000   30.000000
   V    Mo   W    S 
   3   3   3  18
Direct configuration=     6
  -0.00253123  0.66871253 -0.00043076
   0.67038869  0.67062273 -0.00004527
   0.33461776  0.32678750  0.00050087
  -0.00834950  0.00498695 -0.00038217
   0.66552785  0.31866424  0.00019685
   0.67375513  0.01214480  0.00001908
   0.98090409  0.31363690 -0.00012264
   0.34397352  0.00424690  0.00012057
   0.34245069  0.68028507  0.00024225
   0.11634597  0.22671135  0.94823776
   0.22493448  0.11559221  0.05082998
   0.10792334  0.55589048  0.95082114
   0.22261886  0.44174649  0.04859899
   0.10950152  0.88513279  0.95014369
   0.21658331  0.77625418  0.05123578
   0.44151129  0.22463585  0.94797952
   0.55469191  0.10943929  0.05476671
   0.44744419  0.55331502  0.95068683
   0.55409431  0.44664719  0.04890937
   0.44580033  0.89051214  0.94649999
   0.55949737  0.77600057  0.05135518
   0.77808373  0.22213842  0.94431857
   0.88810220  0.11093489  0.05513421
   0.77906975  0.55936125  0.95082556
   0.89214255  0.44878704  0.05116835
   0.77362164  0.88260802  0.94805767
   0.88551074  0.77241966  0.05033181
unknown system                          
           1
     8.269886    4.771656    0.000000
    -8.282091    4.792766    0.000000
     0.000000    0.000000   30.000000
   V    Mo   W    S 
   3   3   3  18
Direct configuration=     7
  -0.00255934  0.66898933 -0.00047222
   0.67057089  0.67085968 -0.00008715
   0.33488315  0.32587308  0.00053024
  -0.00924075  0.00535619 -0.00037483
   0.66511393  0.31777540  0.00017401
   0.67353668  0.01217995  0.00001919
   0.97973696  0.31235310 -0.00011024
   0.34526699  0.00436897  0.00013124
   0.34359986  0.68225651  0.00027435
   0.11616112  0.22670945  0.94819787
   0.22477635  0.11522966  0.05076509
   0.10797511  0.55556418  0.95103932
   0.22236313  0.44192908  0.04827311
   0.10967916  0.88567134  0.95028598
   0.21666946  0.77653206  0.05130622
   0.44157351  0.22449607  0.94786346
   0.55479250  0.10940002  0.05496874
   0.44740585  0.55343162  0.95078657
   0.55434706  0.44643999  0.04885667
   0.44611991  0.89082162  0.94627863
   0.55972462  0.77629416  0.05146165
   0.77792599  0.22196825  0.94413519
   0.88785260  0.11080565  0.05531009
   0.77886659  0.55900539  0.95090197
   0.89194729  0.44844820  0.05113091
   0.77357683  0.88285490  0.94799986
   0.88554899  0.77260061  0.05035397
unknown system                          
           1
     8.268480    4.771474    0.000000
    -8.278351    4.788542    0.000000
     0.000000    0.000000   30.000000
   V    Mo   W    S 
   3   3   3  18
Direct configuration=     8
  -0.00246811  0.66880365 -0.00043286
   0.67037782  0.67064332 -0.00006073
   0.33461820  0.32669283  0.00050279
  -0.00847183  0.00513392 -0.00037240
   0.66547579  0.31829987  0.00019173
   0.67377631  0.01238323  0.00000846
   0.98051083  0.31322243 -0.00009801
   0.34426217  0.00429850  0.00011763
   0.34267161  0.68063403  0.00022522
   0.11630747  0.22672011  0.94820330
   0.22492616  0.11556935  0.05083571
   0.10789199  0.55576318  0.95084482
   0.22248451  0.44173319  0.04856312
   0.10952915  0.88523697  0.95014004
   0.21657120  0.77631934  0.05126664
   0.44155024  0.22461359  0.94796118
   0.55472016  0.10942667  0.05482689
   0.44746513  0.55333100  0.95068488
   0.55419007  0.44656473  0.04890692
   0.44590537  0.89056976  0.94647576
   0.55958548  0.77615793  0.05137823
   0.77805316  0.22208248  0.94424927
   0.88807801  0.11094350  0.05517353
   0.77899297  0.55921967  0.95083518
   0.89206716  0.44865643  0.05117434
   0.77360746  0.88270782  0.94804377
   0.88553598  0.77248694  0.05035450
unknown system                          
           1
     8.256988    4.764591    0.000000
    -8.269263    4.785824    0.000000
     0.000000    0.000000   30.000000
   V    Mo   W    S 
   3   3   3  18
Direct configuration=     9
  -0.00151504  0.66879493 -0.00029729
   0.66919641  0.66967621  0.00002311
   0.33358898  0.32951803  0.00042480
  -0.00587652  0.00490533 -0.00035345
   0.66632988  0.31864211  0.00019116
   0.67410858  0.01356813 -0.00000506
   0.98235462  0.31534739 -0.00008817
   0.34169867  0.00411837  0.00010427
   0.34025431  0.67598151  0.00009237
   0.11677211  0.22694085  0.94807854
   0.22560812  0.11672503  0.05108343
   0.10753849  0.55589144  0.95026670
   0.22233413  0.44104223  0.04942444
   0.10928631  0.88425472  0.94960810
   0.21623262  0.77582260  0.05123662
   0.44156251  0.22496322  0.94822153
   0.55450435  0.10926467  0.05462668
   0.44774260  0.55300013  0.95027412
   0.55403901  0.44664773  0.04903563
   0.44576130  0.89012998  0.94696823
   0.55945743  0.77640343  0.05112697
   0.77842149  0.22226789  0.94431665
   0.88843974  0.11113514  0.05497140
   0.77910072  0.55937589  0.95067186
   0.89213845  0.44883903  0.05139881
   0.77357151  0.88267164  0.94816159
   0.88556367  0.77228684  0.05043686
unknown system                          
           1
     8.266266    4.768936    0.000000
    -8.279971    4.792642    0.000000
     0.000000    0.000000   30.000000
   V    Mo   W    S 
   3   3   3  18
Direct configuration=    10
  -0.00092001  0.67001598 -0.00036658
   0.66919150  0.66968956 -0.00001277
   0.33302733  0.32983807  0.00045337
  -0.00577507  0.00514719 -0.00035493
   0.66658449  0.31751317  0.00015399
   0.67449253  0.01459673  0.00002349
   0.98154937  0.31433562 -0.00007880
   0.34191152  0.00394535  0.00008962
   0.34035686  0.67590338  0.00010982
   0.11650057  0.22690959  0.94801715
   0.22561018  0.11668821  0.05104462
   0.10751230  0.55548171  0.95044341
   0.22182876  0.44118816  0.04932838
   0.10936174  0.88467366  0.94966943
   0.21638028  0.77597779  0.05126402
   0.44169184  0.22485109  0.94824127
   0.55434995  0.10905791  0.05487698
   0.44777803  0.55318021  0.95022746
   0.55447344  0.44623533  0.04889478
   0.44602673  0.89030297  0.94692998
   0.55959129  0.77690770  0.05109738
   0.77842405  0.22216454  0.94403921
   0.88822863  0.11086884  0.05502873
   0.77887514  0.55884942  0.95090411
   0.89172501  0.44817740  0.05131302
   0.77372737  0.88317721  0.94829677
   0.88571061  0.77253765  0.05036601
unknown system                          
           1
     8.269169    4.769729    0.000000
    -8.284463    4.796186    0.000000
     0.000000    0.000000   30.000000
   V    Mo   W    S 
   3   3   3  18
Direct configuration=    11
  -0.00110324  0.67040737 -0.00041189
   0.66961872  0.67009807 -0.00004613
   0.33346298  0.32846216  0.00048628
  -0.00706815  0.00540555 -0.00034420
   0.66595521  0.31675526  0.00014801
   0.67407964  0.01416318  0.00003632
   0.98038182  0.31297523 -0.00011317
   0.34352249  0.00403327  0.00011895
   0.34186787  0.67858412  0.00016553
   0.11630165  0.22685963  0.94800785
   0.22532871  0.11614974  0.05093660
   0.10763864  0.55526489  0.95075195
   0.22172300  0.44149601  0.04889457
   0.10956535  0.88530096  0.94987695
   0.21649185  0.77626465  0.05133351
   0.44168927  0.22468062  0.94808818
   0.55446371  0.10906485  0.05505812
   0.44766713  0.55332292  0.95039929
   0.55463923  0.44610105  0.04881380
   0.44626781  0.89061609  0.94662387
   0.55978635  0.77697660  0.05125398
   0.77823371  0.22199711  0.94389144
   0.88793649  0.11066702  0.05524807
   0.77873657  0.55860437  0.95098312
   0.89163937  0.44799386  0.05122309
   0.77366157  0.88329818  0.94819565
   0.88572672  0.77267171  0.05038018
unknown system                          
           1
     8.260892    4.767519    0.000000
    -8.271607    4.786052    0.000000
     0.000000    0.000000   30.000000
   V    Mo   W    S 
   3   3   3  18
Direct configuration=    12
  -0.00084039  0.67138253 -0.00044506
   0.66981553  0.67030966 -0.00007500
   0.33349745  0.32773413  0.00051525
  -0.00788418  0.00567294 -0.00032717
   0.66548365  0.31564214  0.00012807
   0.67378570  0.01423477  0.00005769
   0.97934231  0.31163325 -0.00014690
   0.34473257  0.00397196  0.00014957
   0.34308008  0.68049316  0.00019661
   0.11611557  0.22683073  0.94796605
   0.22519855  0.11584055  0.05084095
   0.10769395  0.55497519  0.95103190
   0.22143816  0.44171922  0.04858680
   0.10977141  0.88586593  0.94999535
   0.21659362  0.77648335  0.05139570
   0.44170349  0.22452665  0.94801491
   0.55446577  0.10897052  0.05525339
   0.44762822  0.55347085  0.95049363
   0.55488015  0.44588370  0.04868979
   0.44651409  0.89086343  0.94641108
   0.55997154  0.77717754  0.05134793
   0.77812456  0.22183118  0.94370487
   0.88765721  0.11043744  0.05542582
   0.77857173  0.55825671  0.95112110
   0.89147280  0.44766355  0.05110809
   0.77362162  0.88352806  0.94817089
   0.88577930  0.77281530  0.05038859
unknown system                          
           1
     8.262176    4.769130    0.000000
    -8.272052    4.786212    0.000000
     0.000000    0.000000   30.000000
   V    Mo   W    S 
   3   3   3  18
Direct configuration=    13
  -0.00176741  0.66828655 -0.00035949
   0.66960967  0.67002217  0.00002422
   0.33343974  0.32977646  0.00041690
  -0.00574382  0.00495749 -0.00034551
   0.66708898  0.31845106  0.00022051
   0.67477018  0.01445548  0.00000276
   0.98163060  0.31508603 -0.00006833
   0.34161803  0.00415081  0.00007878
   0.33967808  0.67542118  0.00008313
   0.11652553  0.22694830  0.94805074
   0.22547970  0.11664034  0.05117100
   0.10745507  0.55566282  0.95020758
   0.22200516  0.44102462  0.04949608
   0.10909434  0.88425830  0.94969193
   0.21618818  0.77593075  0.05122277
   0.44178142  0.22497369  0.94816550
   0.55446236  0.10924515  0.05472711
   0.44779180  0.55310203  0.95019542
   0.55442933  0.44643497  0.04905188
   0.44589079  0.89017743  0.94702130
   0.55956892  0.77681449  0.05106344
   0.77847032  0.22228708  0.94410670
   0.88847742  0.11101620  0.05499202
   0.77895746  0.55911502  0.95071821
   0.89184798  0.44849374  0.05151357
   0.77375801  0.88299985  0.94822713
   0.88570658  0.77248246  0.05032457
unknown system                          
           1
     8.256476    4.764223    0.000000
    -8.268319    4.784708    0.000000
     0.000000    0.000000   30.000000
   V    Mo   W    S 
   3   3   3  18
Direct configuration=    14
  -0.00240877  0.66631137 -0.00038051
   0.66954387  0.67005700  0.00007322
   0.33333603  0.33052936  0.00041272
  -0.00462807  0.00509780 -0.00037788
   0.66813265  0.31937776  0.00019991
   0.67554881  0.01504219 -0.00001059
   0.98232870  0.31663660 -0.00003766
   0.34049479  0.00466219  0.00001679
   0.33792240  0.67286659  0.00009217
   0.11654714  0.22705892  0.94810476
   0.22563139  0.11702096  0.05130434
   0.10725934  0.55564351  0.94984522
   0.22198232  0.44072614  0.04979529
   0.10880171  0.88370927  0.94965334
   0.21591469  0.77573980  0.05114331
   0.44198448  0.22520991  0.94826073
   0.55444449  0.10927102  0.05464221
   0.44786841  0.55301278  0.95008439
   0.55447762  0.44648704  0.04911250
   0.44582500  0.89000040  0.94726455
   0.55943567  0.77695425  0.05087934
   0.77855705  0.22243900  0.94406037
   0.88876313  0.11115349  0.05492518
   0.77890670  0.55915059  0.95056648
   0.89183785  0.44854670  0.05183533
   0.77388724  0.88304869  0.94824286
   0.88581982  0.77246112  0.05029155
unknown system                          
           1
     8.261275    4.766650    0.000000
    -8.273758    4.788242    0.000000
     0.000000    0.000000   30.000000
   V    Mo   W    S 
   3   3   3  18
Direct configuration=    15
  -0.00257027  0.66635489 -0.00041461
   0.66984553  0.67053005  0.00006099
   0.33339893  0.32964010  0.00044249
  -0.00543600  0.00557630 -0.00035077
   0.66804715  0.31808944  0.00019361
   0.67567648  0.01555514  0.00000030
   0.98100603  0.31558199 -0.00006226
   0.34194409  0.00512127  0.00003398
   0.33865142  0.67424180  0.00013772
   0.11630820  0.22713362  0.94810785
   0.22554120  0.11673524  0.05120113
   0.10726079  0.55521629  0.95010250
   0.22161039  0.44095483  0.04944551
   0.10902537  0.88426286  0.94988854
   0.21594944  0.77597218  0.05109699
   0.44211583  0.22514791  0.94822327
   0.55445441  0.10916737  0.05480046
   0.44777653  0.55321067  0.95024468
   0.55489537  0.44623583  0.04888144
   0.44605099  0.89020787  0.94718621
   0.55957274  0.77727178  0.05087102
   0.77847872  0.22226480  0.94383494
   0.88854648  0.11100461  0.05507345
   0.77862115  0.55864106  0.95073080
   0.89154189  0.44802397  0.05179068
   0.77393009  0.88343460  0.94826347
   0.88597150  0.77263797  0.05021552
unknown system                          
           1
     8.268213    4.769277    0.000000
    -8.282460    4.793921    0.000000
     0.000000    0.000000   30.000000
   V    Mo   W    S 
   3   3   3  18
Direct configuration=    16
  -0.00238536  0.66700002 -0.00043076
   0.66988003  0.67057056  0.00003606
   0.33344983  0.32916444  0.00046020
  -0.00593196  0.00569084 -0.00035038
   0.66761605  0.31764645  0.00017121
   0.67535187  0.01529979  0.00000993
   0.98062635  0.31486515 -0.00007403
   0.34258424  0.00502318  0.00005128
   0.33947071  0.67546562  0.00015932
   0.11626070  0.22710403  0.94808562
   0.22547177  0.11656105  0.05114047
   0.10732698  0.55513965  0.95026164
   0.22154993  0.44107860  0.04926457
   0.10916311  0.88457122  0.94994038
   0.21604464  0.77608930  0.05114997
   0.44207258  0.22505438  0.94816842
   0.55447853  0.10912349  0.05491018
   0.44774470  0.55326078  0.95030049
   0.55492576  0.44615953  0.04883769
   0.44615749  0.89034740  0.94702976
   0.55966186  0.77728848  0.05096239
   0.77839619  0.22216886  0.94377849
   0.88838130  0.11091375  0.05516132
   0.77857641  0.55853163  0.95079456
   0.89150770  0.44792994  0.05170317
   0.77387706  0.88348164  0.94823126
   0.88595598  0.77268465  0.05024671
unknown system                          
           1
     8.267796    4.769975    0.000000
    -8.280720    4.792330    0.000000
     0.000000    0.000000   30.000000
   V    Mo   W    S 
   3   3   3  18
Direct configuration=    17
  -0.00239832  0.66756241 -0.00048854
   0.67014781  0.67099249 -0.00000931
   0.33361488  0.32786334  0.00050593
  -0.00721582  0.00620825 -0.00034121
   0.66697458  0.31644733  0.00012279
   0.67486055  0.01500680  0.00002691
   0.97930494  0.31323072 -0.00009380
   0.34444280  0.00515805  0.00008672
   0.34121643  0.67829263  0.00022447
   0.11606802  0.22711737  0.94805931
   0.22530042  0.11613128  0.05100161
   0.10742593  0.55481559  0.95060980
   0.22124842  0.44133404  0.04879211
   0.10948078  0.88531112  0.95018454
   0.21618522  0.77642363  0.05121034
   0.44209421  0.22489742  0.94803550
   0.55456391  0.10901061  0.05517900
   0.44767483  0.55343794  0.95047542
   0.55519622  0.44594432  0.04865763
   0.44642900  0.89067400  0.94671887
   0.55989243  0.77745967  0.05111826
   0.77821691  0.22190939  0.94357044
   0.88803069  0.11074716  0.05537941
   0.77833662  0.55812325  0.95095961
   0.89129942  0.44752834  0.05159055
   0.77381495  0.88373616  0.94817077
   0.88600859  0.77285111  0.05025277
unknown system                          
           1
     8.255909    4.764153    0.000000
    -8.266993    4.783323    0.000000
     0.000000    0.000000   30.000000
   V    Mo   W    S 
   3   3   3  18
Direct configuration=    18
  -0.00228529  0.66729487 -0.00044321
   0.66991673  0.67068548  0.00002122
   0.33342135  0.32889875  0.00047148
  -0.00621921  0.00588218 -0.00034330
   0.66750977  0.31716562  0.00014628
   0.67532458  0.01542457  0.00001466
   0.98018880  0.31435007 -0.00007661
   0.34308120  0.00507504  0.00005964
   0.33986337  0.67607261  0.00017301
   0.11619689  0.22711908  0.94805759
   0.22543805  0.11648496  0.05112025
   0.10729734  0.55498673  0.95034378
   0.22137804  0.44109649  0.04915786
   0.10924463  0.88479241  0.94998246
   0.21604243  0.77618230  0.05118363
   0.44211431  0.22504953  0.94812363
   0.55448153  0.10904971  0.05503196
   0.44774487  0.55330113  0.95033012
   0.55505902  0.44605702  0.04877237
   0.44626720  0.89043173  0.94694822
   0.55976166  0.77741323  0.05099969
   0.77835452  0.22208879  0.94365850
   0.88829529  0.11086025  0.05524853
   0.77847014  0.55834970  0.95085035
   0.89141573  0.44776316  0.05169137
   0.77385594  0.88359908  0.94821317
   0.88599557  0.77273996  0.05026325
unknown system                          
           1
     8.269292    4.770065    0.000000
    -8.283885    4.795308    0.000000
     0.000000    0.000000   30.000000
   V    Mo   W    S 
   3   3   3  18
Direct configuration=    19
  -0.00163683  0.66753895 -0.00035367
   0.66935951  0.67013968  0.00008822
   0.33291525  0.33115449  0.00040482
  -0.00446287  0.00536473 -0.00033432
   0.66842356  0.31750055  0.00018114
   0.67626268  0.01683818  0.00000990
   0.98131763  0.31589579 -0.00006962
   0.34094181  0.00496937  0.00001970
   0.33740509  0.67183181  0.00007719
   0.11637775  0.22716723  0.94808191
   0.22585414  0.11721998  0.05125610
   0.10699722  0.55515381  0.94997003
   0.22134644  0.44062786  0.04975912
   0.10899276  0.88402965  0.94965644
   0.21579933  0.77581547  0.05106090
   0.44216293  0.22525578  0.94837779
   0.55425085  0.10891137  0.05475712
   0.44786884  0.55308496  0.95011015
   0.55499201  0.44613465  0.04881320
   0.44607990  0.89004004  0.94749850
   0.55956370  0.77757376  0.05065579
   0.77867959  0.22230738  0.94375788
   0.88867816  0.11102011  0.05500002
   0.77863186  0.55857769  0.95079714
   0.89149951  0.44792150  0.05179859
   0.77389151  0.88357114  0.94839211
   0.88602213  0.77256854  0.05023376
unknown system                          
           1
     8.269824    4.770236    0.000000
    -8.284955    4.796411    0.000000
     0.000000    0.000000   30.000000
   V    Mo   W    S 
   3   3   3  18
Direct configuration=    20
  -0.00192003  0.66819430 -0.00046415
   0.66998044  0.67084716  0.00001434
   0.33326013  0.32888115  0.00048099
  -0.00655444  0.00596107 -0.00033279
   0.66732949  0.31618444  0.00011984
   0.67536706  0.01586808  0.00003675
   0.97962726  0.31365360 -0.00010259
   0.34369826  0.00514943  0.00007285
   0.34012970  0.67638465  0.00019330
   0.11611045  0.22713843  0.94804286
   0.22548924  0.11645206  0.05104947
   0.10725016  0.55480983  0.95049753
   0.22108560  0.44112253  0.04903393
   0.10942897  0.88512480  0.95004816
   0.21608307  0.77628641  0.05117658
   0.44215122  0.22499395  0.94813756
   0.55442721  0.10884707  0.05515043
   0.44772196  0.55336512  0.95036777
   0.55528976  0.44588314  0.04860818
   0.44642668  0.89053280  0.94694043
   0.55984648  0.77764086  0.05096972
   0.77836043  0.22196100  0.94350344
   0.88813862  0.11073930  0.05533546
   0.77834719  0.55808677  0.95100220
   0.89126584  0.44746566  0.05161036
   0.77381865  0.88382662  0.94825290
   0.88605504  0.77281422  0.05025439
unknown system                          
           1
     8.267676    4.767980    0.000000
    -8.283909    4.796060    0.000000
     0.000000    0.000000   30.000000
   V    Mo   W    S 
   3   3   3  18
Direct configuration=    21
  -0.00173544  0.66870657 -0.00047284
   0.67004393  0.67094181  0.00000698
   0.33315724  0.32884725  0.00048826
  -0.00672810  0.00598139 -0.00032428
   0.66720467  0.31574310  0.00010776
   0.67538663  0.01604594  0.00004492
   0.97940590  0.31329652 -0.00011307
   0.34398496  0.00517155  0.00008437
   0.34028818  0.67656864  0.00019843
   0.11606518  0.22712533  0.94803400
   0.22549114  0.11643345  0.05101370
   0.10722410  0.55473645  0.95057062
   0.22095628  0.44112394  0.04898390
   0.10951004  0.88529075  0.95006638
   0.21611231  0.77633019  0.05118333
   0.44216664  0.22496728  0.94813948
   0.55440670  0.10876892  0.05520932
   0.44771541  0.55339622  0.95038223
   0.55538542  0.44580651  0.04853556
   0.44648045  0.89055554  0.94692611
   0.55987628  0.77771040  0.05097143
   0.77836169  0.22190907  0.94344078
   0.88808359  0.11068839  0.05537197
   0.77828860  0.55796313  0.95106925
   0.89120277  0.44733499  0.05155694
   0.77380235  0.88391355  0.94826178
   0.88607751  0.77285755  0.05026261
unknown system                          
           1
     8.265046    4.766749    0.000000
    -8.280914    4.794199    0.000000
     0.000000    0.000000   30.000000
   V    Mo   W    S 
   3   3   3  18
Direct configuration=    22
  -0.00183759  0.66912966 -0.00052097
   0.67034314  0.67131442 -0.00003488
   0.33338311  0.32751334  0.00053282
  -0.00798731  0.00639009 -0.00031684
   0.66645885  0.31487511  0.00008354
   0.67474238  0.01544712  0.00005532
   0.97834611  0.31185127 -0.00013268
   0.34569254  0.00522642  0.00012622
   0.34206634  0.67947829  0.00025343
   0.11590302  0.22708999  0.94804315
   0.22529595  0.11597494  0.05085218
   0.10739150  0.55454817  0.95091274
   0.22082899  0.44141755  0.04852586
   0.10980926  0.88594172  0.95030994
   0.21630535  0.77663118  0.05121703
   0.44211915  0.22475412  0.94803418
   0.55452849  0.10875764  0.05536924
   0.44762639  0.55356514  0.95057162
   0.55551325  0.44568102  0.04840263
   0.44664356  0.89082973  0.94663526
   0.56001514  0.77770239  0.05113659
   0.77818841  0.22169066  0.94337833
   0.88777374  0.11056965  0.05551148
   0.77814127  0.55770134  0.95119612
   0.89108009  0.44707368  0.05140035
   0.77375414  0.88405704  0.94819769
   0.88608919  0.77300276  0.05025956
unknown system                          
           1
     8.258940    4.766188    0.000000
    -8.271572    4.788041    0.000000
     0.000000    0.000000   30.000000
   V    Mo   W    S 
   3   3   3  18
Direct configuration=    23
  -0.00149880  0.66937230 -0.00048748
   0.67018912  0.67110638 -0.00001254
   0.33308176  0.32835592  0.00050885
  -0.00723936  0.00623156 -0.00031073
   0.66683740  0.31495212  0.00009531
   0.67518341  0.01612079  0.00005260
   0.97875537  0.31239607 -0.00012786
   0.34485488  0.00519405  0.00011240
   0.34100043  0.67776244  0.00021408
   0.11595601  0.22708469  0.94804818
   0.22543325  0.11626358  0.05090649
   0.10725623  0.55461677  0.95077097
   0.22078585  0.44121361  0.04877294
   0.10969228  0.88565110  0.95018009
   0.21620086  0.77647644  0.05117472
   0.44215590  0.22484573  0.94813318
   0.55443605  0.10870674  0.05527807
   0.44765079  0.55347387  0.95047070
   0.55548948  0.44564925  0.04841492
   0.44655633  0.89064431  0.94684764
   0.55991104  0.77777273  0.05101840
   0.77831710  0.22177949  0.94340153
   0.88794786  0.11062804  0.05541971
   0.77821479  0.55774651  0.95117944
   0.89110152  0.44711772  0.05142654
   0.77380016  0.88408709  0.94825376
   0.88614473  0.77296516  0.05025802
unknown system                          
           1
     8.260218    4.765480    0.000000
    -8.275824    4.792480    0.000000
     0.000000    0.000000   30.000000
   V    Mo   W    S 
   3   3   3  18
Direct configuration=    24
   0.00117041  0.67151091 -0.00023065
   0.66891635  0.66956722  0.00014445
   0.33083649  0.33500646  0.00032286
  -0.00194633  0.00476852 -0.00026388
   0.66943484  0.31580302  0.00013957
   0.67791448  0.02029366  0.00004443
   0.98236686  0.31661287 -0.00008882
   0.33850045  0.00447017  0.00000664
   0.33363706  0.66539485 -0.00007470
   0.11647357  0.22712592  0.94794963
   0.22651732  0.11843374  0.05138832
   0.10622773  0.55507992  0.94964110
   0.22040855  0.43968687  0.05068935
   0.10891617  0.88358814  0.94908611
   0.21537941  0.77535176  0.05101339
   0.44238913  0.22550441  0.94877730
   0.55366464  0.10818224  0.05478069
   0.44798145  0.55280094  0.94968877
   0.55537412  0.44561351  0.04854257
   0.44601717  0.88935481  0.94828290