   27   27  100    1
  0.9710400E+02  0.1002848E-08  0.1002848E-08  0.3000000E-08  0.5000000E-15
  1.000000000000000E-004
  CAR 
 unknown system                          
    159     34    120
 
  0.0000000E+00  0.0000000E+00  0.0000000E+00  0.1562500E-01
    1      -17.806763   1.000000
    2      -16.733242   1.000000
    3      -16.672657   1.000000
    4      -16.594169   1.000000
    5      -16.538420   1.000000
    6      -16.492160   1.000000
    7      -16.446812   1.000000
    8      -16.247779   1.000000
    9      -16.142217   1.000000
   10      -16.127104   1.000000
   11      -16.093708   1.000000
   12      -15.983129   1.000000
   13      -15.885301   1.000000
   14      -15.772309   1.000000
   15      -15.619403   1.000000
   16      -15.375029   1.000000
   17      -15.368634   1.000000
   18      -15.221719   1.000000
   19       -9.324641   1.000000
   20       -8.966664   1.000000
   21       -8.944262   1.000000
   22       -8.875764   1.000000
   23       -8.714256   1.000000
   24       -8.692990   1.000000
   25       -8.648725   1.000000
   26       -8.599732   1.000000
   27       -8.498003   1.000000
   28       -8.497611   1.000000
   29       -8.471888   1.000000
   30       -8.467643   1.000000
   31       -8.404875   1.000000
   32       -8.111253   1.000000
   33       -8.053861   1.000000
   34       -8.012431   1.000000
   35       -7.813164   1.000000
   36       -7.749337   1.000000
   37       -7.689654   1.000000
   38       -7.651977   1.000000
   39       -7.430714   1.000000
   40       -7.410817   1.000000
   41       -7.346199   1.000000
   42       -7.221656   1.000000
   43       -7.125306   1.000000
   44       -6.894751   1.000000
   45       -6.810336   1.000000
   46       -6.805321   1.000000
   47       -6.731757   1.000000
   48       -6.651783   1.000000
   49       -6.529904   1.000000
   50       -6.487200   1.000000
   51       -6.415484   1.000000
   52       -6.335564   1.000000
   53       -6.316522   1.000000
   54       -6.273044   1.000000
   55       -6.223769   1.000000
   56       -6.166467   1.000000
   57       -6.086281   1.000000
   58       -5.981021   1.000000
   59       -5.840704   1.000000
   60       -5.542373   1.000000
   61       -5.423546   1.000000
   62       -5.321143   1.000000
   63       -5.270273   1.000000
   64       -5.215591   1.000000
   65       -5.101559   1.000000
   66       -4.984479   1.000000
   67       -4.941768   1.000000
   68       -4.821417   1.000000
   69       -4.817854   1.000000
   70       -4.683843   1.000000
   71       -4.679357   1.000000
   72       -4.596380   1.000000
   73       -4.558561   1.000000
   74       -4.387772   1.000000
   75       -4.091108   1.000000
   76       -3.991326   0.999998
   77       -3.854032   0.999870
   78       -3.576197   0.954218
   79       -3.479103   0.841502
   80       -3.460111   0.806852
   81       -3.219220   0.201297
   82       -2.952989   0.003269
   83       -2.863646   0.000402
   84       -2.730873   0.000009
   85       -2.474131   0.000000
   86       -2.465099   0.000000
   87       -2.402421   0.000000
   88       -2.361848   0.000000
   89       -2.199649   0.000000
   90       -2.185720   0.000000
   91       -1.585523   0.000000
   92       -1.542718   0.000000
   93       -1.450714   0.000000
   94       -1.304279   0.000000
   95       -1.102728   0.000000
   96       -1.082527   0.000000
   97       -0.999401   0.000000
   98       -0.878231   0.000000
   99       -0.773234   0.000000
  100       -0.657656   0.000000
  101       -0.624122   0.000000
  102       -0.553102   0.000000
  103       -0.518742   0.000000
  104       -0.326630   0.000000
  105       -0.214441   0.000000
  106       -0.168918   0.000000
  107       -0.165380   0.000000
  108       -0.000513   0.000000
  109        0.034583   0.000000
  110        0.283846   0.000000
  111        0.319583   0.000000
  112        0.645215   0.000000
  113        0.664608   0.000000
  114        0.883912   0.000000
  115        0.946178   0.000000
  116        0.947503   0.000000
  117        1.274417   0.000000
  118        1.644781   0.000000
  119        1.830892   0.000000
  120        2.149526   0.000000
 
  0.1250000E+00  0.2775558E-16  0.0000000E+00  0.3125000E-01
    1      -17.781157   1.000000
    2      -16.794165   1.000000
    3      -16.729069   1.000000
    4      -16.630863   1.000000
    5      -16.564120   1.000000
    6      -16.424540   1.000000
    7      -16.395556   1.000000
    8      -16.309495   1.000000
    9      -16.164232   1.000000
   10      -16.097317   1.000000
   11      -16.019058   1.000000
   12      -15.944301   1.000000
   13      -15.880006   1.000000
   14      -15.756190   1.000000
   15      -15.625964   1.000000
   16      -15.388120   1.000000
   17      -15.374684   1.000000
   18      -15.230101   1.000000
   19       -9.308476   1.000000
   20       -9.167195   1.000000
   21       -9.014713   1.000000
   22       -9.006001   1.000000
   23       -8.755638   1.000000
   24       -8.686463   1.000000
   25       -8.665892   1.000000
   26       -8.561868   1.000000
   27       -8.543941   1.000000
   28       -8.477576   1.000000
   29       -8.396557   1.000000
   30       -8.363918   1.000000
   31       -8.297441   1.000000
   32       -8.020252   1.000000
   33       -7.946200   1.000000
   34       -7.940252   1.000000
   35       -7.821329   1.000000
   36       -7.807262   1.000000
   37       -7.695756   1.000000
   38       -7.501633   1.000000
   39       -7.472903   1.000000
   40       -7.417276   1.000000
   41       -7.292913   1.000000
   42       -7.279495   1.000000
   43       -7.121197   1.000000
   44       -6.954733   1.000000
   45       -6.895347   1.000000
   46       -6.795681   1.000000
   47       -6.722483   1.000000
   48       -6.652208   1.000000
   49       -6.534288   1.000000
   50       -6.515891   1.000000
   51       -6.407042   1.000000
   52       -6.349227   1.000000
   53       -6.336840   1.000000
   54       -6.249967   1.000000
   55       -6.188190   1.000000
   56       -6.152953   1.000000
   57       -6.049549   1.000000
   58       -5.944800   1.000000
   59       -5.786115   1.000000
   60       -5.537292   1.000000
   61       -5.444163   1.000000
   62       -5.379029   1.000000
   63       -5.310126   1.000000
   64       -5.235171   1.000000
   65       -5.171350   1.000000
   66       -5.023867   1.000000
   67       -4.993800   1.000000
   68       -4.900484   1.000000
   69       -4.832633   1.000000
   70       -4.659461   1.000000
   71       -4.586949   1.000000
   72       -4.551777   1.000000
   73       -4.511855   1.000000
   74       -4.352084   1.000000
   75       -4.051282   1.000000
   76       -3.928626   0.999985
   77       -3.887701   0.999950
   78       -3.744684   0.998003
   79       -3.586735   0.960942
   80       -3.332994   0.487038
   81       -3.178141   0.129772
   82       -2.969702   0.004643
   83       -2.828707   0.000160
   84       -2.729577   0.000009
   85       -2.544834   0.000000
   86       -2.422441   0.000000
   87       -2.379873   0.000000
   88       -2.314790   0.000000
   89       -2.198289   0.000000
   90       -2.137731   0.000000
   91       -1.621672   0.000000
   92       -1.522803   0.000000
   93       -1.462651   0.000000
   94       -1.289478   0.000000
   95       -1.112695   0.000000
   96       -1.061505   0.000000
   97       -1.025947   0.000000
   98       -0.883138   0.000000
   99       -0.798020   0.000000
  100       -0.689820   0.000000
  101       -0.666491   0.000000
  102       -0.587116   0.000000
  103       -0.529179   0.000000
  104       -0.415743   0.000000
  105       -0.348171   0.000000
  106       -0.271911   0.000000
  107       -0.220394   0.000000
  108        0.079662   0.000000
  109        0.191106   0.000000
  110        0.232136   0.000000
  111        0.347955   0.000000
  112        0.632178   0.000000
  113        0.685646   0.000000
  114        0.880676   0.000000
  115        0.953121   0.000000
  116        0.976214   0.000000
  117        1.296039   0.000000
  118        1.690342   0.000000
  119        1.868530   0.000000
  120        2.185029   0.000000
 
  0.2500000E+00  0.5551115E-16  0.0000000E+00  0.3125000E-01
    1      -17.705375   1.000000
    2      -16.997335   1.000000
    3      -16.732280   1.000000
    4      -16.700825   1.000000
    5      -16.579353   1.000000
    6      -16.430382   1.000000
    7      -16.351057   1.000000
    8      -16.259292   1.000000
    9      -16.171940   1.000000
   10      -16.054139   1.000000
   11      -15.982172   1.000000
   12      -15.878354   1.000000
   13      -15.836662   1.000000
   14      -15.697736   1.000000
   15      -15.643001   1.000000
   16      -15.426386   1.000000
   17      -15.384819   1.000000
   18      -15.249404   1.000000
   19       -9.496765   1.000000
   20       -9.282119   1.000000
   21       -9.161013   1.000000
   22       -9.104809   1.000000
   23       -8.801979   1.000000
   24       -8.762862   1.000000
   25       -8.677870   1.000000
   26       -8.542539   1.000000
   27       -8.502713   1.000000
   28       -8.432145   1.000000
   29       -8.269691   1.000000
   30       -8.241603   1.000000
   31       -8.121923   1.000000
   32       -8.050844   1.000000
   33       -7.917247   1.000000
   34       -7.839151   1.000000
   35       -7.771627   1.000000
   36       -7.755552   1.000000
   37       -7.577548   1.000000
   38       -7.466734   1.000000
   39       -7.442994   1.000000
   40       -7.403005   1.000000
   41       -7.262845   1.000000
   42       -7.233704   1.000000
   43       -7.154503   1.000000
   44       -6.986329   1.000000
   45       -6.861391   1.000000
   46       -6.858571   1.000000
   47       -6.734565   1.000000
   48       -6.683362   1.000000
   49       -6.535226   1.000000
   50       -6.504249   1.000000
   51       -6.484390   1.000000
   52       -6.351829   1.000000
   53       -6.280199   1.000000
   54       -6.194543   1.000000
   55       -6.132353   1.000000
   56       -6.124943   1.000000
   57       -5.977288   1.000000
   58       -5.899373   1.000000
   59       -5.742049   1.000000
   60       -5.665184   1.000000
   61       -5.559889   1.000000
   62       -5.475587   1.000000
   63       -5.445811   1.000000
   64       -5.329803   1.000000
   65       -5.243263   1.000000
   66       -5.122762   1.000000
   67       -4.923335   1.000000
   68       -4.874124   1.000000
   69       -4.823923   1.000000
   70       -4.691731   1.000000
   71       -4.498276   1.000000
   72       -4.470809   1.000000
   73       -4.369570   1.000000
   74       -4.344835   1.000000
   75       -4.176739   1.000000
   76       -3.980125   0.999997
   77       -3.945852   0.999992
   78       -3.738571   0.997711
   79       -3.603084   0.969764
   80       -3.207420   0.178672
   81       -3.155379   0.098800
   82       -3.014438   0.011156
   83       -2.781635   0.000042
   84       -2.717059   0.000006
   85       -2.586100   0.000000
   86       -2.473833   0.000000
   87       -2.309196   0.000000
   88       -2.199166   0.000000
   89       -2.142443   0.000000
   90       -2.058564   0.000000
   91       -1.679639   0.000000
   92       -1.521150   0.000000
   93       -1.486229   0.000000
   94       -1.259858   0.000000
   95       -1.145462   0.000000
   96       -1.105520   0.000000
   97       -1.001898   0.000000
   98       -0.927576   0.000000
   99       -0.828346   0.000000
  100       -0.814664   0.000000
  101       -0.751940   0.000000
  102       -0.638979   0.000000
  103       -0.573804   0.000000
  104       -0.524983   0.000000
  105       -0.508138   0.000000
  106       -0.389910   0.000000
  107       -0.332787   0.000000
  108        0.101830   0.000000
  109        0.143431   0.000000
  110        0.284029   0.000000
  111        0.345738   0.000000
  112        0.695229   0.000000
  113        0.717803   0.000000
  114        0.895995   0.000000
  115        1.012666   0.000000
  116        1.048994   0.000000
  117        1.335208   0.000000
  118        1.816674   0.000000
  119        1.977832   0.000000
  120        2.290364   0.000000
 
  0.3750000E+00  0.0000000E+00  0.0000000E+00  0.3125000E-01
    1      -17.583138   1.000000
    2      -17.211819   1.000000
    3      -16.777804   1.000000
    4      -16.691402   1.000000
    5      -16.609837   1.000000
    6      -16.463109   1.000000
    7      -16.325258   1.000000
    8      -16.199629   1.000000
    9      -16.163845   1.000000
   10      -16.001941   1.000000
   11      -15.943030   1.000000
   12      -15.844211   1.000000
   13      -15.808391   1.000000
   14      -15.671674   1.000000
   15      -15.645089   1.000000
   16      -15.447369   1.000000
   17      -15.395658   1.000000
   18      -15.267986   1.000000
   19       -9.722457   1.000000
   20       -9.347955   1.000000
   21       -9.273085   1.000000
   22       -9.049549   1.000000
   23       -8.881674   1.000000
   24       -8.790972   1.000000
   25       -8.661464   1.000000
   26       -8.551237   1.000000
   27       -8.423426   1.000000
   28       -8.307206   1.000000
   29       -8.284332   1.000000
   30       -8.156238   1.000000
   31       -8.120129   1.000000
   32       -8.013579   1.000000
   33       -7.902194   1.000000
   34       -7.851641   1.000000
   35       -7.805516   1.000000
   36       -7.698952   1.000000
   37       -7.613763   1.000000
   38       -7.492157   1.000000
   39       -7.410758   1.000000
   40       -7.341650   1.000000
   41       -7.191193   1.000000
   42       -7.101776   1.000000
   43       -7.076901   1.000000
   44       -6.940173   1.000000
   45       -6.853293   1.000000
   46       -6.821220   1.000000
   47       -6.768577   1.000000
   48       -6.593632   1.000000
   49       -6.526219   1.000000
   50       -6.512548   1.000000
   51       -6.403105   1.000000
   52       -6.324098   1.000000
   53       -6.224418   1.000000
   54       -6.169994   1.000000
   55       -6.110095   1.000000
   56       -6.071889   1.000000
   57       -6.008470   1.000000
   58       -5.953752   1.000000
   59       -5.918257   1.000000
   60       -5.759040   1.000000
   61       -5.636242   1.000000
   62       -5.595949   1.000000
   63       -5.545340   1.000000
   64       -5.332513   1.000000
   65       -5.307977   1.000000
   66       -5.138998   1.000000
   67       -4.916776   1.000000
   68       -4.820849   1.000000
   69       -4.785686   1.000000
   70       -4.710749   1.000000
   71       -4.609119   1.000000
   72       -4.427528   1.000000
   73       -4.361820   1.000000
   74       -4.302975   1.000000
   75       -4.218812   1.000000
   76       -4.111233   1.000000
   77       -3.940395   0.999990
   78       -3.566203   0.947011
   79       -3.541580   0.925410
   80       -3.193455   0.154058
   81       -3.111758   0.055147
   82       -3.032605   0.015520
   83       -2.811502   0.000100
   84       -2.678422   0.000002
   85       -2.587057   0.000000
   86       -2.519566   0.000000
   87       -2.233930   0.000000
   88       -2.127110   0.000000
   89       -2.095756   0.000000
   90       -1.955447   0.000000
   91       -1.735292   0.000000
   92       -1.551759   0.000000
   93       -1.484911   0.000000
   94       -1.283586   0.000000
   95       -1.163950   0.000000
   96       -1.156876   0.000000
   97       -1.000543   0.000000
   98       -0.981601   0.000000
   99       -0.896312   0.000000
  100       -0.860523   0.000000
  101       -0.836574   0.000000
  102       -0.707765   0.000000
  103       -0.643633   0.000000
  104       -0.600906   0.000000
  105       -0.535778   0.000000
  106       -0.474896   0.000000
  107       -0.439244   0.000000
  108       -0.020807   0.000000
  109        0.165696   0.000000
  110        0.261426   0.000000
  111        0.305311   0.000000
  112        0.697520   0.000000
  113        0.833315   0.000000
  114        0.941159   0.000000
  115        1.095786   0.000000
  116        1.116729   0.000000
  117        1.368745   0.000000
  118        2.004276   0.000000
  119        2.152485   0.000000
  120        2.462690   0.000000
 
  0.5000000E+00  0.1110223E-15  0.0000000E+00  0.1562500E-01
    1      -17.448609   1.000000
    2      -17.379325   1.000000
    3      -16.795715   1.000000
    4      -16.680128   1.000000
    5      -16.627058   1.000000
    6      -16.473608   1.000000
    7      -16.321105   1.000000
    8      -16.181241   1.000000
    9      -16.155542   1.000000
   10      -15.998806   1.000000
   11      -15.879354   1.000000
   12      -15.835421   1.000000
   13      -15.807226   1.000000
   14      -15.686500   1.000000
   15      -15.655684   1.000000
   16      -15.435239   1.000000
   17      -15.402605   1.000000
   18      -15.275648   1.000000
   19       -9.803614   1.000000
   20       -9.381301   1.000000
   21       -9.313726   1.000000
   22       -8.999771   1.000000
   23       -8.918389   1.000000
   24       -8.744886   1.000000
   25       -8.679641   1.000000
   26       -8.625222   1.000000
   27       -8.334487   1.000000
   28       -8.305188   1.000000
   29       -8.230758   1.000000
   30       -8.124475   1.000000
   31       -8.080000   1.000000
   32       -8.070776   1.000000
   33       -7.930707   1.000000
   34       -7.875241   1.000000
   35       -7.769999   1.000000
   36       -7.751316   1.000000
   37       -7.610451   1.000000
   38       -7.522715   1.000000
   39       -7.436535   1.000000
   40       -7.359613   1.000000
   41       -7.105238   1.000000
   42       -7.044275   1.000000
   43       -6.988737   1.000000
   44       -6.859422   1.000000
   45       -6.853945   1.000000
   46       -6.739944   1.000000
   47       -6.644756   1.000000
   48       -6.640826   1.000000
   49       -6.549448   1.000000
   50       -6.515823   1.000000
   51       -6.481691   1.000000
   52       -6.330279   1.000000
   53       -6.273239   1.000000
   54       -6.207428   1.000000
   55       -6.147287   1.000000
   56       -6.026011   1.000000
   57       -5.981230   1.000000
   58       -5.941176   1.000000
   59       -5.806509   1.000000
   60       -5.734002   1.000000
   61       -5.716609   1.000000
   62       -5.582771   1.000000
   63       -5.574441   1.000000
   64       -5.520391   1.000000
   65       -5.306566   1.000000
   66       -5.133454   1.000000
   67       -5.089807   1.000000
   68       -4.809857   1.000000
   69       -4.753194   1.000000
   70       -4.708367   1.000000
   71       -4.474722   1.000000
   72       -4.472677   1.000000
   73       -4.397800   1.000000
   74       -4.342349   1.000000
   75       -4.221849   1.000000
   76       -4.074040   1.000000
   77       -3.949520   0.999992
   78       -3.558346   0.940737
   79       -3.388648   0.640964
   80       -3.297908   0.389512
   81       -3.097908   0.045056
   82       -2.947160   0.002883
   83       -2.885419   0.000694
   84       -2.646127   0.000001
   85       -2.602906   0.000000
   86       -2.521097   0.000000
   87       -2.198529   0.000000
   88       -2.107776   0.000000
   89       -2.081597   0.000000
   90       -1.910333   0.000000
   91       -1.758449   0.000000
   92       -1.569347   0.000000
   93       -1.478808   0.000000
   94       -1.275245   0.000000
   95       -1.199840   0.000000
   96       -1.189941   0.000000
   97       -1.015227   0.000000
   98       -0.998070   0.000000
   99       -0.898105   0.000000
  100       -0.889800   0.000000
  101       -0.866292   0.000000
  102       -0.734507   0.000000
  103       -0.684609   0.000000
  104       -0.581245   0.000000
  105       -0.580103   0.000000
  106       -0.515582   0.000000
  107       -0.461928   0.000000
  108       -0.067687   0.000000
  109        0.164630   0.000000
  110        0.265360   0.000000
  111        0.269726   0.000000
  112        0.693919   0.000000
  113        0.878130   0.000000
  114        0.964555   0.000000
  115        1.129144   0.000000
  116        1.145085   0.000000
  117        1.382011   0.000000
  118        2.223541   0.000000
  119        2.260826   0.000000
  120        2.381672   0.000000
 
  0.0000000E+00  0.1250000E+00  0.0000000E+00  0.3125000E-01
    1      -17.782393   1.000000
    2      -16.781268   1.000000
    3      -16.728152   1.000000
    4      -16.658694   1.000000
    5      -16.540954   1.000000
    6      -16.453556   1.000000
    7      -16.402619   1.000000
    8      -16.265971   1.000000
    9      -16.145851   1.000000
   10      -16.093309   1.000000
   11      -16.034545   1.000000
   12      -15.967323   1.000000
   13      -15.874476   1.000000
   14      -15.765260   1.000000
   15      -15.629663   1.000000
   16      -15.387515   1.000000
   17      -15.373527   1.000000
   18      -15.225037   1.000000
   19       -9.313950   1.000000
   20       -9.137921   1.000000
   21       -9.011375   1.000000
   22       -8.970882   1.000000
   23       -8.772696   1.000000
   24       -8.733835   1.000000
   25       -8.647201   1.000000
   26       -8.601374   1.000000
   27       -8.534043   1.000000
   28       -8.512709   1.000000
   29       -8.405547   1.000000
   30       -8.301392   1.000000
   31       -8.252934   1.000000
   32       -8.075603   1.000000
   33       -8.019696   1.000000
   34       -7.895207   1.000000
   35       -7.798387   1.000000
   36       -7.749268   1.000000
   37       -7.675078   1.000000
   38       -7.580144   1.000000
   39       -7.502564   1.000000
   40       -7.422813   1.000000
   41       -7.304497   1.000000
   42       -7.214834   1.000000
   43       -7.162909   1.000000
   44       -6.961296   1.000000
   45       -6.846482   1.000000
   46       -6.776883   1.000000
   47       -6.714184   1.000000
   48       -6.667841   1.000000
   49       -6.497982   1.000000
   50       -6.458873   1.000000
   51       -6.424935   1.000000
   52       -6.402042   1.000000
   53       -6.311290   1.000000
   54       -6.279684   1.000000
   55       -6.246298   1.000000
   56       -6.125712   1.000000
   57       -6.059330   1.000000
   58       -5.965884   1.000000
   59       -5.800252   1.000000
   60       -5.521469   1.000000
   61       -5.450712   1.000000
   62       -5.419109   1.000000
   63       -5.329662   1.000000
   64       -5.244801   1.000000
   65       -5.065804   1.000000
   66       -5.038222   1.000000
   67       -4.938228   1.000000
   68       -4.892286   1.000000
   69       -4.806084   1.000000
   70       -4.723438   1.000000
   71       -4.647883   1.000000
   72       -4.569293   1.000000
   73       -4.489323   1.000000
   74       -4.295391   1.000000
   75       -4.080695   1.000000
   76       -3.957532   0.999994
   77       -3.870929   0.999919
   78       -3.692740   0.993986
   79       -3.601147   0.968813
   80       -3.420734   0.721708
   81       -3.122437   0.064085
   82       -2.932450   0.002087
   83       -2.830241   0.000167
   84       -2.717310   0.000006
   85       -2.504955   0.000000
   86       -2.441995   0.000000
   87       -2.379493   0.000000
   88       -2.347663   0.000000
   89       -2.196080   0.000000
   90       -2.150273   0.000000
   91       -1.601310   0.000000
   92       -1.538758   0.000000
   93       -1.445517   0.000000
   94       -1.309938   0.000000
   95       -1.097497   0.000000
   96       -1.071568   0.000000
   97       -1.001324   0.000000
   98       -0.893201   0.000000
   99       -0.812899   0.000000
  100       -0.718628   0.000000
  101       -0.664084   0.000000
  102       -0.597653   0.000000
  103       -0.556013   0.000000
  104       -0.407978   0.000000
  105       -0.331636   0.000000
  106       -0.196649   0.000000
  107       -0.124989   0.000000
  108        0.002803   0.000000
  109        0.120255   0.000000
  110        0.191498   0.000000
  111        0.290098   0.000000
  112        0.677368   0.000000
  113        0.706891   0.000000
  114        0.900842   0.000000
  115        0.946589   0.000000
  116        1.000901   0.000000
  117        1.285926   0.000000
  118        1.687039   0.000000
  119        1.870811   0.000000
  120        2.184345   0.000000
 
  0.1250000E+00  0.1250000E+00  0.0000000E+00  0.3125000E-01
    1      -17.731864   1.000000
    2      -16.921553   1.000000
    3      -16.767582   1.000000
    4      -16.699766   1.000000
    5      -16.525845   1.000000
    6      -16.417852   1.000000
    7      -16.374500   1.000000
    8      -16.273111   1.000000
    9      -16.165918   1.000000
   10      -16.069175   1.000000
   11      -15.994711   1.000000
   12      -15.905591   1.000000
   13      -15.838636   1.000000
   14      -15.730837   1.000000
   15      -15.638823   1.000000
   16      -15.414003   1.000000
   17      -15.379740   1.000000
   18      -15.240652   1.000000
   19       -9.386608   1.000000
   20       -9.271137   1.000000
   21       -9.210806   1.000000
   22       -9.032488   1.000000
   23       -8.797658   1.000000
   24       -8.746259   1.000000
   25       -8.620888   1.000000
   26       -8.541376   1.000000
   27       -8.493392   1.000000
   28       -8.442299   1.000000
   29       -8.375037   1.000000
   30       -8.293970   1.000000
   31       -8.183152   1.000000
   32       -8.040726   1.000000
   33       -7.946311   1.000000
   34       -7.867266   1.000000
   35       -7.737156   1.000000
   36       -7.722312   1.000000
   37       -7.589304   1.000000
   38       -7.511641   1.000000
   39       -7.444613   1.000000
   40       -7.364107   1.000000
   41       -7.345267   1.000000
   42       -7.210649   1.000000
   43       -7.133664   1.000000
   44       -7.052761   1.000000
   45       -6.867737   1.000000
   46       -6.824984   1.000000
   47       -6.735668   1.000000
   48       -6.670770   1.000000
   49       -6.537831   1.000000
   50       -6.489730   1.000000
   51       -6.430076   1.000000
   52       -6.389281   1.000000
   53       -6.307389   1.000000
   54       -6.247185   1.000000
   55       -6.167738   1.000000
   56       -6.125235   1.000000
   57       -5.972003   1.000000
   58       -5.923180   1.000000
   59       -5.740694   1.000000
   60       -5.629994   1.000000
   61       -5.522225   1.000000
   62       -5.444491   1.000000
   63       -5.391926   1.000000
   64       -5.288799   1.000000
   65       -5.220704   1.000000
   66       -5.117776   1.000000
   67       -4.952794   1.000000
   68       -4.883139   1.000000
   69       -4.790951   1.000000
   70       -4.711955   1.000000
   71       -4.587481   1.000000
   72       -4.477504   1.000000
   73       -4.373581   1.000000
   74       -4.288577   1.000000
   75       -4.125656   1.000000
   76       -4.017264   0.999999
   77       -3.847996   0.999846
   78       -3.806106   0.999538
   79       -3.632009   0.981322
   80       -3.305435   0.410069
   81       -3.100922   0.047115
   82       -2.968084   0.004490
   83       -2.782479   0.000043
   84       -2.708364   0.000004
   85       -2.562789   0.000000
   86       -2.453973   0.000000
   87       -2.339257   0.000000
   88       -2.253500   0.000000
   89       -2.165795   0.000000
   90       -2.085203   0.000000
   91       -1.647666   0.000000
   92       -1.521790   0.000000
   93       -1.475607   0.000000
   94       -1.283908   0.000000
   95       -1.120275   0.000000
   96       -1.080237   0.000000
   97       -1.018905   0.000000
   98       -0.914644   0.000000
   99       -0.837927   0.000000
  100       -0.792163   0.000000
  101       -0.727163   0.000000
  102       -0.641292   0.000000
  103       -0.558765   0.000000
  104       -0.530454   0.000000
  105       -0.474773   0.000000
  106       -0.280010   0.000000
  107       -0.232130   0.000000
  108        0.051070   0.000000
  109        0.140737   0.000000
  110        0.244646   0.000000
  111        0.301867   0.000000
  112        0.676625   0.000000
  113        0.727455   0.000000
  114        0.909746   0.000000
  115        0.963581   0.000000
  116        1.068644   0.000000
  117        1.325017   0.000000
  118        1.773106   0.000000
  119        1.944115   0.000000
  120        2.254729   0.000000
 
  0.2500000E+00  0.1250000E+00  0.0000000E+00  0.3125000E-01
    1      -17.633162   1.000000
    2      -17.103673   1.000000
    3      -16.872093   1.000000
    4      -16.693928   1.000000
    5      -16.503445   1.000000
    6      -16.426925   1.000000
    7      -16.339695   1.000000
    8      -16.242585   1.000000
    9      -16.158958   1.000000
   10      -16.035048   1.000000
   11      -15.957431   1.000000
   12      -15.880589   1.000000
   13      -15.804897   1.000000
   14      -15.671138   1.000000
   15      -15.644298   1.000000
   16      -15.444680   1.000000
   17      -15.389026   1.000000
   18      -15.259431   1.000000
   19       -9.611851   1.000000
   20       -9.408020   1.000000
   21       -9.286194   1.000000
   22       -9.056568   1.000000
   23       -8.794052   1.000000
   24       -8.734331   1.000000
   25       -8.613017   1.000000
   26       -8.508075   1.000000
   27       -8.460291   1.000000
   28       -8.369959   1.000000
   29       -8.277846   1.000000
   30       -8.218317   1.000000
   31       -8.129867   1.000000
   32       -8.095931   1.000000
   33       -7.975994   1.000000
   34       -7.896459   1.000000
   35       -7.790680   1.000000
   36       -7.642939   1.000000
   37       -7.563989   1.000000
   38       -7.461486   1.000000
   39       -7.382998   1.000000
   40       -7.292847   1.000000
   41       -7.247125   1.000000
   42       -7.173242   1.000000
   43       -7.128131   1.000000
   44       -6.961658   1.000000
   45       -6.864183   1.000000
   46       -6.799153   1.000000
   47       -6.748304   1.000000