<?xml version="1.0" encoding="ISO-8859-1"?>
<modeling>
 <generator>
  <i name="program" type="string">vasp </i>
  <i name="version" type="string">5.4.1  </i>
  <i name="subversion" type="string">05Feb16 (build Jul 05 2020 17:13:04) complex                          parallel </i>
  <i name="platform" type="string">IFC91_ompi </i>
  <i name="date" type="string">2024 08 22 </i>
  <i name="time" type="string">09:29:04 </i>
 </generator>
 <incar>
  <i type="int" name="ISTART">     0</i>
  <i type="string" name="PREC">normal</i>
  <i type="string" name="ALGO"> Normal</i>
  <i type="int" name="ISPIN">     1</i>
  <i type="int" name="ICHARG">     2</i>
  <i type="int" name="IBRION">     1</i>
  <i type="int" name="NSW">   100</i>
  <i type="int" name="ISIF">     3</i>
  <i type="int" name="ISYM">     0</i>
  <i name="SYMPREC">      0.00000001</i>
  <i name="POTIM">      0.50000000</i>
  <i type="logical" name="LREAL"> F  </i>
  <i type="logical" name="LPLANE"> F  </i>
  <i type="int" name="ISMEAR">     0</i>
  <i type="logical" name="LWAVE"> F  </i>
  <i type="logical" name="LCHARG"> F  </i>
  <v type="int" name="KPOINT_BSE">    -1     0     0     0</v>
 </incar>
 <kpoints>
  <generation param="Gamma">
   <v type="int" name="divisions">       8        8        1 </v>
   <v name="usershift">      0.00000000       0.00000000       0.00000000 </v>
   <v name="genvec1">      0.12500000       0.00000000       0.00000000 </v>
   <v name="genvec2">     -0.00000000       0.12500000       0.00000000 </v>
   <v name="genvec3">      0.00000000       0.00000000       1.00000000 </v>
   <v name="shift">      0.00000000       0.00000000       0.00000000 </v>
  </generation>
  <varray name="kpointlist" >
   <v>       0.00000000       0.00000000       0.00000000 </v>
   <v>       0.12500000       0.00000000       0.00000000 </v>
   <v>       0.25000000       0.00000000       0.00000000 </v>
   <v>       0.37500000       0.00000000       0.00000000 </v>
   <v>       0.50000000       0.00000000       0.00000000 </v>
   <v>       0.00000000       0.12500000       0.00000000 </v>
   <v>       0.12500000       0.12500000       0.00000000 </v>
   <v>       0.25000000       0.12500000       0.00000000 </v>
   <v>       0.37500000       0.12500000       0.00000000 </v>
   <v>       0.50000000       0.12500000       0.00000000 </v>
   <v>      -0.37500000       0.12500000       0.00000000 </v>
   <v>      -0.25000000       0.12500000       0.00000000 </v>
   <v>      -0.12500000       0.12500000       0.00000000 </v>
   <v>       0.00000000       0.25000000       0.00000000 </v>
   <v>       0.12500000       0.25000000       0.00000000 </v>
   <v>       0.25000000       0.25000000       0.00000000 </v>
   <v>       0.37500000       0.25000000       0.00000000 </v>
   <v>       0.50000000       0.25000000       0.00000000 </v>
   <v>      -0.37500000       0.25000000       0.00000000 </v>
   <v>      -0.25000000       0.25000000       0.00000000 </v>
   <v>      -0.12500000       0.25000000       0.00000000 </v>
   <v>      -0.00000000       0.37500000       0.00000000 </v>
   <v>       0.12500000       0.37500000       0.00000000 </v>
   <v>       0.25000000       0.37500000       0.00000000 </v>
   <v>       0.37500000       0.37500000       0.00000000 </v>
   <v>       0.50000000       0.37500000       0.00000000 </v>
   <v>      -0.37500000       0.37500000       0.00000000 </v>
   <v>      -0.25000000       0.37500000       0.00000000 </v>
   <v>      -0.12500000       0.37500000       0.00000000 </v>
   <v>       0.00000000       0.50000000       0.00000000 </v>
   <v>       0.12500000       0.50000000       0.00000000 </v>
   <v>       0.25000000       0.50000000       0.00000000 </v>
   <v>       0.37500000       0.50000000       0.00000000 </v>
   <v>       0.50000000       0.50000000       0.00000000 </v>
  </varray>
  <varray name="weights" >
   <v>       0.01562500 </v>
   <v>       0.03125000 </v>
   <v>       0.03125000 </v>
   <v>       0.03125000 </v>
   <v>       0.01562500 </v>
   <v>       0.03125000 </v>
   <v>       0.03125000 </v>
   <v>       0.03125000 </v>
   <v>       0.03125000 </v>
   <v>       0.03125000 </v>
   <v>       0.03125000 </v>
   <v>       0.03125000 </v>
   <v>       0.03125000 </v>
   <v>       0.03125000 </v>
   <v>       0.03125000 </v>
   <v>       0.03125000 </v>
   <v>       0.03125000 </v>
   <v>       0.03125000 </v>
   <v>       0.03125000 </v>
   <v>       0.03125000 </v>
   <v>       0.03125000 </v>
   <v>       0.03125000 </v>
   <v>       0.03125000 </v>
   <v>       0.03125000 </v>
   <v>       0.03125000 </v>
   <v>       0.03125000 </v>
   <v>       0.03125000 </v>
   <v>       0.03125000 </v>
   <v>       0.03125000 </v>
   <v>       0.01562500 </v>
   <v>       0.03125000 </v>
   <v>       0.03125000 </v>
   <v>       0.03125000 </v>
   <v>       0.01562500 </v>
  </varray>
 </kpoints>
 <parameters>
  <separator name="general" >
   <i type="string" name="SYSTEM">unknown system</i>
   <i type="logical" name="LCOMPAT"> F  </i>
  </separator>
  <separator name="electronic" >
   <i type="string" name="PREC">normal</i>
   <i name="ENMAX">    280.00000000</i>
   <i name="ENAUG">    373.43800000</i>
   <i name="EDIFF">      0.00010000</i>
   <i type="int" name="IALGO">    38</i>
   <i type="int" name="IWAVPR">    11</i>
   <i type="int" name="NBANDS">   120</i>
   <i name="NELECT">    159.00000000</i>
   <i type="int" name="TURBO">     0</i>
   <i type="int" name="IRESTART">     0</i>
   <i type="int" name="NREBOOT">     0</i>
   <i type="int" name="NMIN">     0</i>
   <i name="EREF">      0.00000000</i>
   <separator name="electronic smearing" >
    <i type="int" name="ISMEAR">     0</i>
    <i name="SIGMA">      0.20000000</i>
    <i name="KSPACING">      0.50000000</i>
    <i type="logical" name="KGAMMA"> T  </i>
   </separator>
   <separator name="electronic projectors" >
    <i type="logical" name="LREAL"> F  </i>
    <v name="ROPT">      0.00000000      0.00000000      0.00000000      0.00000000</v>
    <i type="int" name="LMAXPAW">  -100</i>
    <i type="int" name="LMAXMIX">     2</i>
    <i type="logical" name="NLSPLINE"> F  </i>
   </separator>
   <separator name="electronic startup" >
    <i type="int" name="ISTART">     0</i>
    <i type="int" name="ICHARG">     2</i>
    <i type="int" name="INIWAV">     1</i>
   </separator>
   <separator name="electronic spin" >
    <i type="int" name="ISPIN">     1</i>
    <i type="logical" name="LNONCOLLINEAR"> F  </i>
    <v name="MAGMOM">      1.00000000      1.00000000      1.00000000      1.00000000      1.00000000      1.00000000      1.00000000      1.00000000      1.00000000      1.00000000      1.00000000      1.00000000      1.00000000      1.00000000      1.00000000      1.00000000      1.00000000      1.00000000      1.00000000      1.00000000
      1.00000000      1.00000000      1.00000000      1.00000000      1.00000000      1.00000000      1.00000000</v>
    <i name="NUPDOWN">     -1.00000000</i>
    <i type="logical" name="LSORBIT"> F  </i>
    <v name="SAXIS">      0.00000000      0.00000000      1.00000000</v>
    <i type="logical" name="LSPIRAL"> F  </i>
    <v name="QSPIRAL">      0.00000000      0.00000000      0.00000000</v>
    <i type="logical" name="LZEROZ"> F  </i>
   </separator>
   <separator name="electronic exchange-correlation" >
    <i type="logical" name="LASPH"> F  </i>
    <i type="logical" name="LMETAGGA"> F  </i>
   </separator>
   <separator name="electronic convergence" >
    <i type="int" name="NELM">    60</i>
    <i type="int" name="NELMDL">    -5</i>
    <i type="int" name="NELMIN">     2</i>
    <i name="ENINI">    280.00000000</i>
    <separator name="electronic convergence detail" >
     <i type="logical" name="LDIAG"> T  </i>
     <i type="logical" name="LSUBROT"> F  </i>
     <i name="WEIMIN">      0.00100000</i>
     <i name="EBREAK">      0.00000021</i>
     <i name="DEPER">      0.30000000</i>
     <i type="int" name="NRMM">     4</i>
     <i name="TIME">      0.40000000</i>
    </separator>
   </separator>
   <separator name="electronic mixer" >
    <i name="AMIX">      0.40000000</i>
    <i name="BMIX">      1.00000000</i>
    <i name="AMIN">      0.10000000</i>
    <i name="AMIX_MAG">      1.60000000</i>
    <i name="BMIX_MAG">      1.00000000</i>
    <separator name="electronic mixer details" >
     <i type="int" name="IMIX">     4</i>
     <i type="logical" name="MIXFIRST"> F  </i>
     <i type="int" name="MAXMIX">   -45</i>
     <i name="WC">    100.00000000</i>
     <i type="int" name="INIMIX">     1</i>
     <i type="int" name="MIXPRE">     1</i>
     <i type="int" name="MREMOVE">     5</i>
    </separator>
   </separator>
   <separator name="electronic dipolcorrection" >
    <i type="logical" name="LDIPOL"> F  </i>
    <i type="logical" name="LMONO"> F  </i>
    <i type="int" name="IDIPOL">     0</i>
    <i name="EPSILON">      1.00000000</i>
    <v name="DIPOL">   -100.00000000   -100.00000000   -100.00000000</v>
    <i name="EFIELD">      0.00000000</i>
   </separator>
  </separator>
  <separator name="grids" >
   <i type="int" name="NGX">    42</i>
   <i type="int" name="NGY">    42</i>
   <i type="int" name="NGZ">   126</i>
   <i type="int" name="NGXF">    84</i>
   <i type="int" name="NGYF">    84</i>
   <i type="int" name="NGZF">   252</i>
   <i type="logical" name="ADDGRID"> F  </i>
  </separator>
  <separator name="ionic" >
   <i type="int" name="NSW">   100</i>
   <i type="int" name="IBRION">     1</i>
   <i type="int" name="ISIF">     3</i>
   <i name="PSTRESS">      0.00000000</i>
   <i name="EDIFFG">      0.00100000</i>
   <i type="int" name="NFREE">     0</i>
   <i name="POTIM">      0.50000000</i>
   <i name="SMASS">     -3.00000000</i>
   <i name="SCALEE">      1.00000000</i>
  </separator>
  <separator name="ionic md" >
   <i name="TEBEG">      0.00010000</i>
   <i name="TEEND">      0.00010000</i>
   <i type="int" name="NBLOCK">     1</i>
   <i type="int" name="KBLOCK">   100</i>
   <i type="int" name="NPACO">   256</i>
   <i name="APACO">     16.00000000</i>
  </separator>
  <separator name="symmetry" >
   <i type="int" name="ISYM">     0</i>
   <i name="SYMPREC">      0.00000001</i>
  </separator>
  <separator name="dos" >
   <i type="logical" name="LORBIT"> F  </i>
   <v name="RWIGS">     -1.00000000     -1.00000000     -1.00000000     -1.00000000</v>
   <i type="int" name="NEDOS">   301</i>
   <i name="EMIN">     10.00000000</i>
   <i name="EMAX">    -10.00000000</i>
   <i name="EFERMI">      0.00000000</i>
  </separator>
  <separator name="writing" >
   <i type="int" name="NWRITE">     2</i>
   <i type="logical" name="LWAVE"> F  </i>
   <i type="logical" name="LCHARG"> F  </i>
   <i type="logical" name="LPARD"> F  </i>
   <i type="logical" name="LVTOT"> F  </i>
   <i type="logical" name="LVHAR"> F  </i>
   <i type="logical" name="LELF"> F  </i>
   <i type="logical" name="LOPTICS"> F  </i>
   <v name="STM">      0.00000000      0.00000000      0.00000000      0.00000000      0.00000000      0.00000000      0.00000000</v>
  </separator>
  <separator name="performance" >
   <i type="int" name="NPAR">    40</i>
   <i type="int" name="NSIM">     4</i>
   <i type="int" name="NBLK">    -1</i>
   <i type="logical" name="LPLANE"> F  </i>
   <i type="logical" name="LSCALAPACK"> T  </i>
   <i type="logical" name="LSCAAWARE"> F  </i>
   <i type="logical" name="LSCALU"> F  </i>
   <i type="logical" name="LASYNC"> F  </i>
   <i type="logical" name="LORBITALREAL"> F  </i>
  </separator>
  <separator name="miscellaneous" >
   <i type="int" name="IDIOT">     3</i>
   <i type="logical" name="LMUSIC"> F  </i>
   <v name="POMASS">     50.94100000     95.94000000    183.85000000     32.06600000</v>
   <v name="DARWINR">      0.00000000      0.00000000      0.00000000      0.00000000</v>
   <v name="DARWINV">      1.00000000      1.00000000      1.00000000      1.00000000</v>
   <i type="logical" name="LCORR"> T  </i>
  </separator>
  <i type="logical" name="GGA_COMPAT"> T  </i>
  <i type="logical" name="LBERRY"> F  </i>
  <i type="int" name="ICORELEVEL">     0</i>
  <i type="logical" name="LDAU"> F  </i>
  <i type="int" name="I_CONSTRAINED_M">     0</i>
  <separator name="electronic exchange-correlation" >
   <i type="string" name="GGA">--</i>
   <i type="int" name="VOSKOWN">     0</i>
   <i type="logical" name="LHFCALC"> F  </i>
   <i type="string" name="PRECFOCK"></i>
   <i type="logical" name="LSYMGRAD"> F  </i>
   <i type="logical" name="LHFONE"> F  </i>
   <i type="logical" name="LRHFCALC"> F  </i>
   <i type="logical" name="LTHOMAS"> F  </i>
   <i type="logical" name="LMODELHF"> F  </i>
   <i name="ENCUT4O">     -1.00000000</i>
   <i type="int" name="EXXOEP">     0</i>
   <i type="int" name="FOURORBIT">     0</i>
   <i name="AEXX">      0.00000000</i>
   <i name="HFALPHA">      0.00000000</i>
   <i name="MCALPHA">      0.00000000</i>
   <i name="ALDAX">      1.00000000</i>
   <i name="AGGAX">      1.00000000</i>
   <i name="ALDAC">      1.00000000</i>
   <i name="AGGAC">      1.00000000</i>
   <i type="int" name="NKREDX">     1</i>
   <i type="int" name="NKREDY">     1</i>
   <i type="int" name="NKREDZ">     1</i>
   <i type="logical" name="SHIFTRED"> F  </i>
   <i type="logical" name="ODDONLY"> F  </i>
   <i type="logical" name="EVENONLY"> F  </i>
   <i type="int" name="LMAXFOCK">     0</i>
   <i type="int" name="NMAXFOCKAE">     0</i>
   <i type="logical" name="LFOCKAEDFT"> F  </i>
   <i name="HFSCREEN">      0.00000000</i>
   <i name="HFSCREENC">      0.00000000</i>
   <i type="int" name="NBANDSGWLOW">     0</i>
  </separator>
  <separator name="vdW DFT" >
   <i type="logical" name="LUSE_VDW"> F  </i>
   <i name="Zab_VDW">     -0.84910000</i>
   <i name="PARAM1">      0.12340000</i>
   <i name="PARAM2">      1.00000000</i>
   <i name="PARAM3">      0.00000000</i>
  </separator>
  <separator name="model GW" >
   <i type="int" name="MODEL_GW">     0</i>
   <i name="MODEL_EPS0">     58.26239943</i>
   <i name="MODEL_ALPHA">      1.00000000</i>
  </separator>
  <separator name="linear response parameters" >
   <i type="logical" name="LEPSILON"> F  </i>
   <i type="logical" name="LRPA"> F  </i>
   <i type="logical" name="LNABLA"> F  </i>
   <i type="logical" name="LVEL"> F  </i>
   <i type="int" name="KINTER">     0</i>
   <i name="CSHIFT">      0.10000000</i>
   <i name="OMEGAMAX">     -1.00000000</i>
   <i name="DEG_THRESHOLD">      0.00200000</i>
  </separator>
  <separator name="orbital magnetization" >
   <i type="logical" name="NUCIND"> F  </i>
   <v name="MAGPOS">      0.00000000      0.00000000      0.00000000</v>
   <i type="logical" name="LNICSALL"> T  </i>
   <i type="logical" name="ORBITALMAG"> F  </i>
   <i type="logical" name="LMAGBLOCH"> F  </i>
   <i type="logical" name="LCHIMAG"> F  </i>
   <i type="logical" name="LGAUGE"> T  </i>
   <i type="int" name="MAGATOM">     0</i>
   <v name="MAGDIPOL">      0.00000000      0.00000000      0.00000000</v>
   <v name="AVECCONST">      0.00000000      0.00000000      0.00000000</v>
  </separator>
  <separator name="response functions" >
   <i type="logical" name="LADDER"> F  </i>
   <i type="logical" name="LFXC"> F  </i>
   <i type="logical" name="LHARTREE"> T  </i>
   <i type="int" name="IBSE">     0</i>
   <v type="int" name="KPOINT">    -1     0     0     0</v>
   <i type="logical" name="LTCTE"> F  </i>
   <i type="logical" name="LTETE"> F  </i>
   <i type="logical" name="LTRIPLET"> F  </i>
   <i type="logical" name="LFXCEPS"> F  </i>
   <i type="logical" name="LFXHEG"> F  </i>
   <i type="int" name="NATURALO">     0</i>
   <i type="logical" name="L2ORDER"> F  </i>
   <i type="logical" name="LUSEW"> F  </i>
   <i name="ENCUTGW">     -2.00000000</i>
   <i name="ENCUTGWSOFT">     -2.00000000</i>
   <i name="ENCUTLF">     -1.00000000</i>
   <i type="int" name="LMAXMP2">    -1</i>
   <i name="SCISSOR">      0.00000000</i>
   <i type="int" name="NOMEGA">     0</i>
   <i type="int" name="NOMEGAR">     0</i>
   <i type="int" name="NBANDSGW">    -1</i>
   <i type="int" name="NBANDSO">    -1</i>
   <i type="int" name="NBANDSV">    -1</i>
   <i type="int" name="NELM">     1</i>
   <i type="int" name="NELMHF">     1</i>
   <i type="int" name="DIM">     3</i>
   <i type="int" name="ANTIRES">     0</i>
   <i name="OMEGAMAX">    -30.00000000</i>
   <i name="OMEGAMIN">    -30.00000000</i>
   <i name="OMEGATL">   -200.00000000</i>
   <i type="int" name="OMEGAGRID">     0</i>
   <i name="CSHIFT">     -0.10000000</i>
   <i type="logical" name="SELFENERGY"> F  </i>
   <i type="logical" name="LSPECTRAL"> F  </i>
   <i type="logical" name="LSPECTRALGW"> F  </i>
   <i type="logical" name="LSINGLES"> F  </i>
   <i type="logical" name="LFERMIGW"> F  </i>
   <i type="logical" name="ODDONLYGW"> F  </i>
   <i type="logical" name="EVENONLYGW"> F  </i>
   <i type="int" name="NKREDLFX">     1</i>
   <i type="int" name="NKREDLFY">     1</i>
   <i type="int" name="NKREDLFZ">     1</i>
   <i type="int" name="MAXMEM">  1800</i>
   <i type="int" name="TELESCOPE">     0</i>
   <i type="int" name="TAUPAR">     1</i>
   <i type="int" name="OMEGAPAR">    -1</i>
   <i name="LAMBDA">      1.00000000</i>
  </separator>
  <separator name="External order field" >
   <i name="OFIELD_KAPPA">      0.00000000</i>
   <v name="OFIELD_K">      0.00000000      0.00000000      0.00000000</v>
   <i name="OFIELD_Q6_NEAR">      0.00000000</i>
   <i name="OFIELD_Q6_FAR">      0.00000000</i>
   <i name="OFIELD_A">      0.00000000</i>
  </separator>
 </parameters>
 <atominfo>
  <atoms>      27 </atoms>
  <types>       4 </types>
  <array name="atoms" >
   <dimension dim="1">ion</dimension>
   <field type="string">element</field>
   <field type="int">atomtype</field>
   <set>
    <rc><c>V </c><c>   1</c></rc>
    <rc><c>V </c><c>   1</c></rc>
    <rc><c>V </c><c>   1</c></rc>
    <rc><c>Mo</c><c>   2</c></rc>
    <rc><c>Mo</c><c>   2</c></rc>
    <rc><c>Mo</c><c>   2</c></rc>
    <rc><c>W </c><c>   3</c></rc>
    <rc><c>W </c><c>   3</c></rc>
    <rc><c>W </c><c>   3</c></rc>
    <rc><c>S </c><c>   4</c></rc>
    <rc><c>S </c><c>   4</c></rc>
    <rc><c>S </c><c>   4</c></rc>
    <rc><c>S </c><c>   4</c></rc>
    <rc><c>S </c><c>   4</c></rc>
    <rc><c>S </c><c>   4</c></rc>
    <rc><c>S </c><c>   4</c></rc>
    <rc><c>S </c><c>   4</c></rc>
    <rc><c>S </c><c>   4</c></rc>
    <rc><c>S </c><c>   4</c></rc>
    <rc><c>S </c><c>   4</c></rc>
    <rc><c>S </c><c>   4</c></rc>
    <rc><c>S </c><c>   4</c></rc>
    <rc><c>S </c><c>   4</c></rc>
    <rc><c>S </c><c>   4</c></rc>
    <rc><c>S </c><c>   4</c></rc>
    <rc><c>S </c><c>   4</c></rc>
    <rc><c>S </c><c>   4</c></rc>
   </set>
  </array>
  <array name="atomtypes" >
   <dimension dim="1">type</dimension>
   <field type="int">atomspertype</field>
   <field type="string">element</field>
   <field>mass</field>
   <field>valence</field>
   <field type="string">pseudopotential</field>
   <set>
    <rc><c>   3</c><c>V </c><c>     50.94100000</c><c>      5.00000000</c><c> PAW_PBE V 08Apr2002                    </c></rc>
    <rc><c>   3</c><c>Mo</c><c>     95.94000000</c><c>      6.00000000</c><c> PAW_PBE Mo 08Apr2002                   </c></rc>
    <rc><c>   3</c><c>W </c><c>    183.85000000</c><c>      6.00000000</c><c> PAW_PBE W 08Apr2002                    </c></rc>
    <rc><c>  18</c><c>S </c><c>     32.06600000</c><c>      6.00000000</c><c>  PAW_PBE S 17Jan2003                   </c></rc>
   </set>
  </array>
 </atominfo>
 <structure name="initialpos" >
  <crystal>
   <varray name="basis" >
    <v>       8.66999996       5.03999989       0.00000000 </v>
    <v>      -8.66999982       5.04000013       0.00000000 </v>
    <v>       0.00000000       0.00000000      30.00000000 </v>
   </varray>
   <i name="volume">   2621.80797419 </i>
   <varray name="rec_basis" >
    <v>       0.05767013       0.09920635       0.00000000 </v>
    <v>      -0.05767013       0.09920635       0.00000000 </v>
    <v>       0.00000000       0.00000000       0.03333333 </v>
   </varray>
  </crystal>
  <varray name="positions" >
   <v>       0.66666669       0.66666669       0.00000000 </v>
   <v>       0.66666669       0.33333334       0.00000000 </v>
   <v>       0.66666669       0.00000000       0.00000000 </v>
   <v>       0.33333334       0.66666669       0.00000000 </v>
   <v>       0.33333334       0.00000000       0.00000000 </v>
   <v>       0.33333334       0.33333334       0.00000000 </v>
   <v>       0.00000000       0.00000000       0.00000000 </v>
   <v>       1.00000000       0.33333334       0.00000000 </v>
   <v>       0.00000000       0.66666669       0.00000000 </v>
   <v>       0.11068511       0.22244981       0.95539999 </v>
   <v>       0.22244981       0.11068511       0.04460000 </v>
   <v>       0.11068511       0.55578315       0.95539999 </v>
   <v>       0.22244981       0.44401845       0.04460000 </v>
   <v>       0.11068511       0.88911647       0.95539999 </v>
   <v>       0.22244981       0.77735180       0.04460000 </v>
   <v>       0.44401845       0.22244981       0.95539999 </v>
   <v>       0.55578315       0.11068511       0.04460000 </v>
   <v>       0.44401845       0.55578315       0.95539999 </v>
   <v>       0.55578315       0.44401845       0.04460000 </v>
   <v>       0.44401845       0.88911647       0.95539999 </v>
   <v>       0.55578315       0.77735180       0.04460000 </v>
   <v>       0.77735180       0.22244981       0.95539999 </v>
   <v>       0.88911647       0.11068511       0.04460000 </v>
   <v>       0.77735180       0.55578315       0.95539999 </v>
   <v>       0.88911647       0.44401845       0.04460000 </v>
   <v>       0.77735180       0.88911647       0.95539999 </v>
   <v>       0.88911647       0.77735180       0.04460000 </v>
  </varray>
 </structure>
 <calculation>
  <scstep>
   <time name="dav">   21.98   22.03</time>
   <time name="total">   22.03   22.09</time>
   <energy>
    <i name="alphaZ">     81.65567618 </i>
    <i name="ewald">  41891.19377233 </i>
    <i name="hartreedc"> -47723.83903789 </i>
    <i name="XCdc">   -242.92449877 </i>
    <i name="pawpsdc">   3467.42045192 </i>
    <i name="pawaedc">  -2871.19716117 </i>
    <i name="eentropy">     -0.53034278 </i>
    <i name="bandstr">   -239.63430455 </i>
    <i name="atom">   6761.44252427 </i>
    <i name="e_fr_energy">   1123.58707955 </i>
    <i name="e_wo_entrp">   1124.11742233 </i>
    <i name="e_0_energy">   1123.85225094 </i>
   </energy>
  </scstep>
  <scstep>
   <time name="dav">   28.14   28.21</time>
   <time name="total">   28.14   28.22</time>
   <energy>
    <i name="e_fr_energy">     -4.50845502 </i>
    <i name="e_wo_entrp">     -4.32821157 </i>
    <i name="e_0_energy">     -4.41833329 </i>
   </energy>
  </scstep>
  <scstep>
   <time name="dav">   27.81   27.88</time>
   <time name="total">   27.82   27.89</time>
   <energy>
    <i name="e_fr_energy">   -199.86293806 </i>
    <i name="e_wo_entrp">   -199.61241481 </i>
    <i name="e_0_energy">   -199.73767644 </i>
   </energy>
  </scstep>
  <scstep>
   <time name="dav">   30.40   30.47</time>
   <time name="total">   30.40   30.48</time>
   <energy>
    <i name="e_fr_energy">   -209.09304316 </i>
    <i name="e_wo_entrp">   -208.83302812 </i>
    <i name="e_0_energy">   -208.96303564 </i>
   </energy>
  </scstep>
  <scstep>
   <time name="dav">   29.25   29.32</time>
   <time name="total">   29.71   29.79</time>
   <energy>
    <i name="e_fr_energy">   -209.40640920 </i>
    <i name="e_wo_entrp">   -209.14956583 </i>
    <i name="e_0_energy">   -209.27798751 </i>
   </energy>
  </scstep>
  <scstep>
   <time name="dav">   30.59   30.66</time>
   <time name="total">   31.09   31.17</time>
   <energy>
    <i name="e_fr_energy">   -241.88574860 </i>
    <i name="e_wo_entrp">   -241.62393157 </i>
    <i name="e_0_energy">   -241.75484008 </i>
   </energy>
  </scstep>
  <scstep>
   <time name="dav">   32.34   32.41</time>
   <time name="total">   32.84   32.93</time>
   <energy>
    <i name="e_fr_energy">   -196.05004095 </i>
    <i name="e_wo_entrp">   -195.70987131 </i>
    <i name="e_0_energy">   -195.87995613 </i>
   </energy>
  </scstep>
  <scstep>
   <time name="dav">   30.23   30.30</time>
   <time name="total">   30.75   30.83</time>
   <energy>
    <i name="e_fr_energy">   -189.23265215 </i>
    <i name="e_wo_entrp">   -188.90196966 </i>
    <i name="e_0_energy">   -189.06731091 </i>
   </energy>
  </scstep>
  <scstep>
   <time name="dav">   32.48   32.56</time>
   <time name="total">   33.01   33.09</time>
   <energy>
    <i name="e_fr_energy">   -188.02714241 </i>
    <i name="e_wo_entrp">   -187.69573576 </i>
    <i name="e_0_energy">   -187.86143909 </i>
   </energy>
  </scstep>
  <scstep>
   <time name="dav">   32.79   32.87</time>
   <time name="total">   33.33   33.42</time>
   <energy>
    <i name="e_fr_energy">   -186.93110749 </i>
    <i name="e_wo_entrp">   -186.57681572 </i>
    <i name="e_0_energy">   -186.75396161 </i>
   </energy>
  </scstep>
  <scstep>
   <time name="dav">   32.90   32.97</time>
   <time name="total">   33.43   33.52</time>
   <energy>
    <i name="e_fr_energy">   -186.91479377 </i>
    <i name="e_wo_entrp">   -186.57483703 </i>
    <i name="e_0_energy">   -186.74481540 </i>
   </energy>
  </scstep>
  <scstep>
   <time name="dav">   32.96   33.04</time>
   <time name="total">   33.50   33.58</time>
   <energy>
    <i name="e_fr_energy">   -186.84329367 </i>
    <i name="e_wo_entrp">   -186.49573585 </i>
    <i name="e_0_energy">   -186.66951476 </i>
   </energy>
  </scstep>
  <scstep>
   <time name="dav">   32.68   32.76</time>
   <time name="total">   33.21   33.30</time>
   <energy>
    <i name="e_fr_energy">   -186.83828259 </i>
    <i name="e_wo_entrp">   -186.49127086 </i>
    <i name="e_0_energy">   -186.66477673 </i>
   </energy>
  </scstep>
  <scstep>
   <time name="dav">   32.32   32.39</time>
   <time name="total">   32.85   32.94</time>
   <energy>
    <i name="e_fr_energy">   -186.82807959 </i>
    <i name="e_wo_entrp">   -186.48271089 </i>
    <i name="e_0_energy">   -186.65539524 </i>
   </energy>
  </scstep>
  <scstep>
   <time name="dav">   28.66   28.73</time>
   <time name="total">   29.20   29.28</time>
   <energy>
    <i name="e_fr_energy">   -186.82738773 </i>
    <i name="e_wo_entrp">   -186.48195884 </i>
    <i name="e_0_energy">   -186.65467329 </i>
   </energy>
  </scstep>
  <scstep>
   <time name="dav">   29.72   29.79</time>
   <time name="total">   30.25   30.33</time>
   <energy>
    <i name="e_fr_energy">   -186.82735531 </i>
    <i name="e_wo_entrp">   -186.48194482 </i>
    <i name="e_0_energy">   -186.65465006 </i>
   </energy>
  </scstep>
  <scstep>
   <time name="dav">   27.79   27.85</time>
   <time name="total">   28.32   28.40</time>
   <energy>
    <i name="e_fr_energy">   -186.82739146 </i>
    <i name="e_wo_entrp">   -186.48206737 </i>
    <i name="e_0_energy">   -186.65472941 </i>
   </energy>
  </scstep>
  <scstep>
   <time name="dav">   27.70   27.77</time>
   <time name="total">   27.74   27.81</time>
   <energy>
    <i name="alphaZ">     81.65567618 </i>
    <i name="ewald">  41891.19377233 </i>
    <i name="hartreedc"> -47821.24675915 </i>
    <i name="XCdc">   -231.67441437 </i>
    <i name="pawpsdc">   4193.61909444 </i>
    <i name="pawaedc">  -3611.62714689 </i>
    <i name="eentropy">     -0.34518916 </i>
    <i name="bandstr">  -1449.84497198 </i>
    <i name="atom">   6761.44252427 </i>
    <i name="e_fr_energy">   -186.82741433 </i>
    <i name="e_wo_entrp">   -186.48222517 </i>
    <i name="e_0_energy">   -186.65481975 </i>
   </energy>
  </scstep>
  <structure>
   <crystal>
    <varray name="basis" >
     <v>       8.66999996       5.03999989       0.00000000 </v>
     <v>      -8.66999982       5.04000013       0.00000000 </v>
     <v>       0.00000000       0.00000000      30.00000000 </v>
    </varray>
    <i name="volume">   2621.80797419 </i>
    <varray name="rec_basis" >
     <v>       0.05767013       0.09920635       0.00000000 </v>
     <v>      -0.05767013       0.09920635       0.00000000 </v>
     <v>       0.00000000       0.00000000       0.03333333 </v>
    </varray>
   </crystal>
   <varray name="positions" >
    <v>       0.66666669       0.66666669       0.00000000 </v>
    <v>       0.66666669       0.33333334       0.00000000 </v>
    <v>       0.66666669       0.00000000       0.00000000 </v>
    <v>       0.33333334       0.66666669       0.00000000 </v>
    <v>       0.33333334       0.00000000       0.00000000 </v>
    <v>       0.33333334       0.33333334       0.00000000 </v>
    <v>       0.00000000       0.00000000       0.00000000 </v>
    <v>       1.00000000       0.33333334       0.00000000 </v>
    <v>       0.00000000       0.66666669       0.00000000 </v>
    <v>       0.11068511       0.22244981       0.95539999 </v>
    <v>       0.22244981       0.11068511       0.04460000 </v>
    <v>       0.11068511       0.55578315       0.95539999 </v>
    <v>       0.22244981       0.44401845       0.04460000 </v>
    <v>       0.11068511       0.88911647       0.95539999 </v>
    <v>       0.22244981       0.77735180       0.04460000 </v>
    <v>       0.44401845       0.22244981       0.95539999 </v>
    <v>       0.55578315       0.11068511       0.04460000 </v>
    <v>       0.44401845       0.55578315       0.95539999 </v>
    <v>       0.55578315       0.44401845       0.04460000 </v>
    <v>       0.44401845       0.88911647       0.95539999 </v>
    <v>       0.55578315       0.77735180       0.04460000 </v>
    <v>       0.77735180       0.22244981       0.95539999 </v>
    <v>       0.88911647       0.11068511       0.04460000 </v>
    <v>       0.77735180       0.55578315       0.95539999 </v>
    <v>       0.88911647       0.44401845       0.04460000 </v>
    <v>       0.77735180       0.88911647       0.95539999 </v>
    <v>       0.88911647       0.77735180       0.04460000 </v>
   </varray>
  </structure>
  <varray name="forces" >
   <v>      -0.21099168      -0.34709929      -0.00070221 </v>
   <v>      -0.21041191      -0.34953231      -0.00036363 </v>
   <v>      -0.21317239      -0.34842873      -0.00041880 </v>
   <v>       0.01563921       0.01977160       0.10734590 </v>
   <v>       0.01737456       0.01749417       0.10717990 </v>
   <v>       0.01967470       0.01791158       0.10725884 </v>
   <v>       0.22654628       0.38037708      -0.15017045 </v>
   <v>       0.22370602       0.37907040      -0.14978190 </v>
   <v>       0.22442823       0.38195706      -0.15005864 </v>
   <v>       0.02981054      -0.17370171      -2.92428398 </v>
   <v>      -0.18865249      -0.12343589       2.91653298 </v>
   <v>       0.02835374      -0.17298076      -2.92403586 </v>
   <v>      -0.18947255      -0.12243359       2.91620247 </v>
   <v>       0.02943714      -0.17310065      -2.92335725 </v>
   <v>      -0.19051175      -0.12266127       2.91655966 </v>
   <v>       0.52631801       0.69364491      -2.13720681 </v>
   <v>       0.31979423       0.65870912       1.43103911 </v>
   <v>       0.52494715       0.69431314      -2.13703653 </v>
   <v>       0.32085662       0.65910317       1.43227922 </v>
   <v>       0.52370832       0.69481537      -2.13750644 </v>
   <v>       0.32053833       0.65891082       1.43238904 </v>
   <v>      -0.23820558      -0.52524740      -1.37996447 </v>
   <v>      -0.47783511      -0.58324256       2.13532490 </v>
   <v>      -0.23706540      -0.52454218      -1.37864320 </v>
   <v>      -0.47957863      -0.58254768       2.13508692 </v>
   <v>      -0.23719662      -0.52450259      -1.37901138 </v>
   <v>      -0.47803896      -0.58262178       2.13534260 </v>
  </varray>
  <varray name="stress" >
   <v>       7.28988907       0.12327355      -1.62686914 </v>
   <v>       0.12327358       4.51070847      -0.10668683 </v>
   <v>      -1.62686915      -0.10668683      30.84907932 </v>
  </varray>
  <energy>
   <i name="e_fr_energy">   -186.82741433 </i>
   <i name="e_wo_entrp">   -186.65481975 </i>
   <i name="e_0_energy">     -0.34518916 </i>
  </energy>
  <time name="totalsc">  590.65  592.21</time>
 </calculation>
 <calculation>
  <scstep>
   <time name="dav">   21.93   21.98</time>
   <time name="total">   22.48   22.54</time>
   <energy>
    <i name="alphaZ">     78.91081328 </i>
    <i name="ewald">  39373.91098517 </i>
    <i name="hartreedc"> -45323.51183488 </i>
    <i name="XCdc">   -239.11851377 </i>
    <i name="pawpsdc">   4192.97180465 </i>
    <i name="pawaedc">  -3610.97052620 </i>
    <i name="eentropy">     -0.28373125 </i>
    <i name="bandstr">  -1420.86485993 </i>
    <i name="atom">   6761.44252427 </i>
    <i name="e_fr_energy">   -187.51333865 </i>
    <i name="e_wo_entrp">   -187.22960740 </i>
    <i name="e_0_energy">   -187.37147303 </i>
   </energy>
  </scstep>
  <scstep>
   <time name="dav">   29.77   29.84</time>
   <time name="total">   30.31   30.39</time>
   <energy>
    <i name="e_fr_energy">   -189.60322942 </i>
    <i name="e_wo_entrp">   -189.27031433 </i>
    <i name="e_0_energy">   -189.43677188 </i>
   </energy>
  </scstep>
  <scstep>
   <time name="dav">   30.76   30.83</time>
   <time name="total">   31.32   31.40</time>
   <energy>
    <i name="e_fr_energy">   -189.29612678 </i>
    <i name="e_wo_entrp">   -189.02793281 </i>
    <i name="e_0_energy">   -189.16202980 </i>
   </energy>
  </scstep>
  <scstep>
   <time name="dav">   31.09   31.16</time>
   <time name="total">   31.63   31.72</time>
   <energy>
    <i name="e_fr_energy">   -188.75798138 </i>
    <i name="e_wo_entrp">   -188.47247901 </i>
    <i name="e_0_energy">   -188.61523020 </i>
   </energy>
  </scstep>
  <scstep>
   <time name="dav">   26.90   26.97</time>
   <time name="total">   27.45   27.52</time>
   <energy>
    <i name="e_fr_energy">   -188.72631853 </i>
    <i name="e_wo_entrp">   -188.44430049 </i>
    <i name="e_0_energy">   -188.58530951 </i>
   </energy>
  </scstep>
  <scstep>
   <time name="dav">   29.23   29.30</time>
   <time name="total">   29.78   29.86</time>
   <energy>
    <i name="e_fr_energy">   -188.69089756 </i>
    <i name="e_wo_entrp">   -188.40587623 </i>
    <i name="e_0_energy">   -188.54838690 </i>
   </energy>
  </scstep>
  <scstep>
   <time name="dav">   28.97   29.04</time>
   <time name="total">   29.51   29.59</time>
   <energy>
    <i name="e_fr_energy">   -188.68912310 </i>
    <i name="e_wo_entrp">   -188.40444784 </i>
    <i name="e_0_energy">   -188.54678547 </i>
   </energy>
  </scstep>
  <scstep>
   <time name="dav">   29.19   29.26</time>
   <time name="total">   29.74   29.82</time>
   <energy>
    <i name="e_fr_energy">   -188.67200847 </i>
    <i name="e_wo_entrp">   -188.38857322 </i>
    <i name="e_0_energy">   -188.53029085 </i>
   </energy>
  </scstep>
  <scstep>
   <time name="dav">   29.62   29.69</time>
   <time name="total">   30.17   30.25</time>
   <energy>
    <i name="e_fr_energy">   -188.67134047 </i>
    <i name="e_wo_entrp">   -188.38869330 </i>
    <i name="e_0_energy">   -188.53001688 </i>
   </energy>
  </scstep>
  <scstep>
   <time name="dav">   29.69   29.77</time>
   <time name="total">   30.24   30.32</time>
   <energy>
    <i name="e_fr_energy">   -188.67137553 </i>
    <i name="e_wo_entrp">   -188.38888221 </i>
    <i name="e_0_energy">   -188.53012887 </i>
   </energy>
  </scstep>
  <scstep>
   <time name="dav">   25.95   26.01</time>
   <time name="total">   26.49   26.57</time>
   <energy>
    <i name="e_fr_energy">   -188.67156816 </i>
    <i name="e_wo_entrp">   -188.38912255 </i>
    <i name="e_0_energy">   -188.53034535 </i>
   </energy>
  </scstep>
  <scstep>
   <time name="dav">   25.03   25.09</time>
   <time name="total">   25.06   25.13</time>
   <energy>
    <i name="alphaZ">     78.91081328 </i>
    <i name="ewald">  39373.91098517 </i>
    <i name="hartreedc"> -45339.34440151 </i>
    <i name="XCdc">   -238.00188851 </i>
    <i name="pawpsdc">   3950.70091611 </i>
    <i name="pawaedc">  -3365.20716853 </i>
    <i name="eentropy">     -0.28245348 </i>
    <i name="bandstr">  -1410.80083626 </i>
    <i name="atom">   6761.44252427 </i>
    <i name="e_fr_energy">   -188.67150945 </i>
    <i name="e_wo_entrp">   -188.38905598 </i>
    <i name="e_0_energy">   -188.53028271 </i>
   </energy>
  </scstep>
  <structure>
   <crystal>
    <varray name="basis" >
     <v>       8.85661475       5.10959599       0.00000000 </v>
     <v>      -8.85298142       5.10334628       0.00000000 </v>
     <v>       0.00000000       0.00000000      30.00000000 </v>
    </varray>
    <i name="volume">   2713.00591170 </i>
    <varray name="rec_basis" >
     <v>       0.05643201       0.09789490       0.00000000 </v>
     <v>      -0.05650112       0.09793508       0.00000000 </v>
     <v>       0.00000000       0.00000000       0.03333333 </v>
    </varray>
   </crystal>
   <varray name="positions" >
    <v>       0.66441846       0.66559249      -0.00000113 </v>
    <v>       0.66440843       0.33224589      -0.00000058 </v>
    <v>       0.66440603      -0.00107449      -0.00000067 </v>
    <v>       0.33347148       0.66671780       0.00017262 </v>
    <v>       0.33346541       0.00003539       0.00017235 </v>
    <v>       0.33347381       0.33336433       0.00017248 </v>
    <v>       0.00245076       0.00119019      -0.00024149 </v>
    <v>       1.00243661       0.33452518      -0.00024086 </v>
    <v>       0.00245243       0.66787033      -0.00024131 </v>
    <v>       0.10993672       0.22153554       0.95069748 </v>
    <v>       0.22133419       0.11061921       0.04929004 </v>
    <v>       0.10993611       0.55487639       0.95069788 </v>
    <v>       0.22133670       0.44395963       0.04928951 </v>
    <v>       0.10993855       0.88820611       0.95069897 </v>
    <v>       0.22133272       0.77729478       0.04929008 </v>
    <v>       0.44880252       0.22430528       0.95196317 </v>
    <v>       0.55982544       0.11294796       0.04690124 </v>
    <v>       0.44880191       0.55764563       0.95196345 </v>
    <v>       0.55983028       0.44628023       0.04690323 </v>
    <v>       0.44880086       0.89098480       0.95196269 </v>
    <v>       0.55982847       0.77961354       0.04690341 </v>
    <v>       0.77417525       0.22059871       0.95318089 </v>
    <v>       0.88499567       0.10922314       0.04803379 </v>
    <v>       0.77418180       0.55393226       0.95318301 </v>
    <v>       0.88499414       0.44256466       0.04803341 </v>
    <v>       0.77418162       0.88726613       0.95318242 </v>
    <v>       0.88499807       0.77589336       0.04803382 </v>
   </varray>
  </structure>
  <varray name="forces" >
   <v>      -0.18332852      -0.32183264      -0.06630825 </v>
   <v>      -0.18907236      -0.31329145      -0.06686066 </v>
   <v>      -0.17908328      -0.31817792      -0.06684576 </v>
   <v>      -0.12683047      -0.23950902       0.01923830 </v>
   <v>      -0.13531574      -0.23420263       0.01966234 </v>
   <v>      -0.13705066      -0.22963204       0.01906392 </v>
   <v>       0.27591591       0.48279963       0.08500655 </v>
   <v>       0.27877981       0.48889134       0.08425517 </v>
   <v>       0.27696330       0.48013911       0.08522449 </v>
   <v>      -0.06337043      -0.08400197      -0.15185331 </v>
   <v>      -0.05937864      -0.11009253       0.17096033 </v>
   <v>      -0.05968094      -0.08526549      -0.15321583 </v>
   <v>      -0.05806651      -0.11154684       0.16963841 </v>
   <v>      -0.06262603      -0.08446820      -0.15626843 </v>
   <v>      -0.05534132      -0.11145449       0.17087051 </v>
   <v>       0.03380932       0.08034327      -0.02289772 </v>
   <v>       0.00651976       0.04283564       0.02785673 </v>
   <v>       0.03615427       0.08061531      -0.01996604 </v>
   <v>       0.00655391       0.04281166       0.02432344 </v>
   <v>       0.03648387       0.07611160      -0.02358169 </v>
   <v>       0.01137533       0.03851946       0.02475745 </v>
   <v>       0.05773871       0.07713000       0.22139448 </v>
   <v>       0.05730359       0.07328145      -0.27824458 </v>
   <v>       0.05522140       0.07249090       0.22062100 </v>
   <v>       0.05981350       0.06844147      -0.27823686 </v>
   <v>       0.06131952       0.07141626       0.22040424 </v>
   <v>       0.05519269       0.06764811      -0.27899823 </v>
  </varray>
  <varray name="stress" >
   <v>     -19.96536599      -0.06238968      -0.06761491 </v>
   <v>      -0.06238982     -19.59757089      -0.19304122 </v>
   <v>      -0.06761478      -0.19304136      -1.70393129 </v>
  </varray>
  <energy>
   <i name="e_fr_energy">   -188.67150945 </i>
   <i name="e_wo_entrp">   -188.53028271 </i>
   <i name="e_0_energy">     -0.28245348 </i>
  </energy>
  <time name="totalsc">  386.85  387.88</time>
 </calculation>
 <calculation>
  <scstep>
   <time name="dav">   23.99   24.05</time>
   <time name="total">   24.52   24.59</time>
   <energy>
    <i name="alphaZ">     82.34372119 </i>
    <i name="ewald">  41302.13880123 </i>
    <i name="hartreedc"> -47298.32595450 </i>
    <i name="XCdc">   -233.86837081 </i>
    <i name="pawpsdc">   3950.12142845 </i>
    <i name="pawaedc">  -3364.62155174 </i>
    <i name="eentropy">     -0.23709117 </i>
    <i name="bandstr">  -1389.60636624 </i>
    <i name="atom">   6761.44252427 </i>
    <i name="e_fr_energy">   -190.61285931 </i>
    <i name="e_wo_entrp">   -190.37576814 </i>
    <i name="e_0_energy">   -190.49431373 </i>
   </energy>
  </scstep>
  <scstep>
   <time name="dav">   30.58   30.66</time>
   <time name="total">   31.11   31.19</time>
   <energy>
    <i name="e_fr_energy">   -190.54184579 </i>
    <i name="e_wo_entrp">   -190.31454964 </i>
    <i name="e_0_energy">   -190.42819771 </i>
   </energy>
  </scstep>
  <scstep>
   <time name="dav">   30.41   30.48</time>
   <time name="total">   30.93   31.02</time>
   <energy>
    <i name="e_fr_energy">   -190.10979135 </i>
    <i name="e_wo_entrp">   -189.85803372 </i>
    <i name="e_0_energy">   -189.98391253 </i>
   </energy>
  </scstep>
  <scstep>
   <time name="dav">   31.63   31.70</time>
   <time name="total">   32.16   32.25</time>
   <energy>
    <i name="e_fr_energy">   -189.87822909 </i>
    <i name="e_wo_entrp">   -189.64614768 </i>
    <i name="e_0_energy">   -189.76218838 </i>
   </energy>
  </scstep>
  <scstep>
   <time name="dav">   29.36   29.43</time>
   <time name="total">   29.89   29.97</time>
   <energy>
    <i name="e_fr_energy">   -189.78762770 </i>
    <i name="e_wo_entrp">   -189.54890714 </i>
    <i name="e_0_energy">   -189.66826742 </i>
   </energy>
  </scstep>
  <scstep>
   <time name="dav">   27.24   27.31</time>
   <time name="total">   27.77   27.85</time>
   <energy>
    <i name="e_fr_energy">   -189.77650367 </i>
    <i name="e_wo_entrp">   -189.53848434 </i>
    <i name="e_0_energy">   -189.65749401 </i>
   </energy>
  </scstep>
  <scstep>
   <time name="dav">   28.96   29.03</time>
   <time name="total">   29.50   29.58</time>
   <energy>
    <i name="e_fr_energy">   -189.77837898 </i>
    <i name="e_wo_entrp">   -189.54015317 </i>
    <i name="e_0_energy">   -189.65926608 </i>
   </energy>
  </scstep>
  <scstep>
   <time name="dav">   28.67   28.73</time>
   <time name="total">   29.20   29.28</time>
   <energy>
    <i name="e_fr_energy">   -189.77645343 </i>
    <i name="e_wo_entrp">   -189.53824685 </i>
    <i name="e_0_energy">   -189.65735014 </i>
   </energy>
  </scstep>
  <scstep>
   <time name="dav">   26.28   26.35</time>
   <time name="total">   26.81   26.89</time>
   <energy>
    <i name="e_fr_energy">   -189.77675374 </i>
    <i name="e_wo_entrp">   -189.53828790 </i>
    <i name="e_0_energy">   -189.65752082 </i>
   </energy>
  </scstep>
  <scstep>
   <time name="dav">   25.26   25.32</time>
   <time name="total">   25.30   25.36</time>
   <energy>
    <i name="alphaZ">     82.34372119 </i>
    <i name="ewald">  41302.13880123 </i>
    <i name="hartreedc"> -47272.75629205 </i>
    <i name="XCdc">   -235.25607146 </i>
    <i name="pawpsdc">   4037.04411193 </i>
    <i name="pawaedc">  -3452.73097394 </i>
    <i name="eentropy">     -0.23847934 </i>
    <i name="bandstr">  -1411.76403651 </i>
    <i name="atom">   6761.44252427 </i>
    <i name="e_fr_energy">   -189.77669468 </i>
    <i name="e_wo_entrp">   -189.53821534 </i>
    <i name="e_0_energy">   -189.65745501 </i>
   </energy>
  </scstep>
  <structure>
   <crystal>
    <varray name="basis" >
     <v>       8.66795952       5.00236501       0.00000000 </v>
     <v>      -8.66508203       4.99742243       0.00000000 </v>
     <v>       0.00000000       0.00000000      30.00000000 </v>
    </varray>
    <i name="volume">   2599.90075554 </i>
    <varray name="rec_basis" >
     <v>       0.05766477       0.09998553       0.00000000 </v>
     <v>      -0.05772180       0.10001874       0.00000000 </v>
     <v>       0.00000000       0.00000000       0.03333333 </v>
    </varray>
   </crystal>
   <varray name="positions" >
    <v>       0.66370778       0.66523316      -0.00003866 </v>
    <v>       0.66370645       0.33190628      -0.00003843 </v>
    <v>       0.66370550      -0.00143181      -0.00003851 </v>
    <v>       0.33295179       0.66644118       0.00018351 </v>
    <v>       0.33294641      -0.00022427       0.00018348 </v>
    <v>       0.33296074       0.33311393       0.00018327 </v>
    <v>       0.00351775       0.00172838      -0.00019337 </v>
    <v>       1.00351647       0.33507075      -0.00019317 </v>
    <v>       0.00351600       0.66840309      -0.00019307 </v>
    <v>       0.10973635       0.22145664       0.95061153 </v>
    <v>       0.22109427       0.11049309       0.04938681 </v>
    <v>       0.10973718       0.55479185       0.95061116 </v>
    <v>       0.22109563       0.44382984       0.04938553 </v>
    <v>       0.10973812       0.88812572       0.95061052 </v>
    <v>       0.22109441       0.77716252       0.04938680 </v>
    <v>       0.44896848       0.22440645       0.95195021 </v>
    <v>       0.55990289       0.11301294       0.04691700 </v>
    <v>       0.44897056       0.55774501       0.95195214 </v>
    <v>       0.55990773       0.44634514       0.04691700 </v>
    <v>       0.44896235       0.89107637       0.95194934 </v>
    <v>       0.55990341       0.77966669       0.04691742 </v>
    <v>       0.77435880       0.22067159       0.95330620 </v>
    <v>       0.88517240       0.10929003       0.04787629 </v>
    <v>       0.77435522       0.55399983       0.95330789 </v>
    <v>       0.88516523       0.44262109       0.04787592 </v>
    <v>       0.77435910       0.88732606       0.95330717 </v>
    <v>       0.88516342       0.77595291       0.04787590 </v>
   </varray>
  </structure>
  <varray name="forces" >
   <v>      -0.17140109      -0.31082593      -0.07284329 </v>
   <v>      -0.17575094      -0.31274909      -0.07274478 </v>
   <v>      -0.18438210      -0.30440867      -0.07295582 </v>
   <v>      -0.18803304      -0.32601075      -0.00796623 </v>
   <v>      -0.18448177      -0.31425643      -0.00844377 </v>
   <v>      -0.17654494      -0.32388996      -0.00845042 </v>
   <v>       0.30531861       0.53723125       0.10291071 </v>
   <v>       0.30158346       0.53362206       0.10379031 </v>
   <v>       0.30953263       0.53073496       0.10375346 </v>
   <v>      -0.01680956      -0.00857849      -0.73561613 </v>
   <v>      -0.00978718      -0.02714533       0.74176995 </v>
   <v>      -0.01572836      -0.00900312      -0.73787608 </v>
   <v>      -0.01071688      -0.02832432       0.74088121 </v>
   <v>      -0.01575756      -0.00802036      -0.73533875 </v>
   <v>      -0.01079010      -0.02682357       0.74048424 </v>
   <v>       0.06886194       0.13283755      -0.49712200 </v>
   <v>       0.03707520       0.10018075       0.48000656 </v>
   <v>       0.06471600       0.12683450      -0.50268719 </v>
   <v>       0.04581660       0.09436423       0.48216544 </v>
   <v>       0.06585979       0.12977075      -0.49902473 </v>
   <v>       0.03590674       0.09808394       0.48311820 </v>
   <v>      -0.01199240      -0.03986426      -0.21162562 </v>
   <v>      -0.01644314      -0.05378337       0.20414078 </v>
   <v>      -0.00340865      -0.04383315      -0.21440963 </v>
   <v>      -0.01727275      -0.05770731       0.20233406 </v>
   <v>      -0.01046211      -0.03730450      -0.21527856 </v>
   <v>      -0.01490840      -0.05113136       0.20702809 </v>
  </varray>
  <varray name="stress" >
   <v>     -10.28921785      -0.01875321      -0.08637553 </v>
   <v>      -0.01875327      -9.96820945      -0.19758408 </v>
   <v>      -0.08637552      -0.19758431       6.59697287 </v>
  </varray>
  <energy>
   <i name="e_fr_energy">   -189.77669468 </i>
   <i name="e_wo_entrp">   -189.65745501 </i>
   <i name="e_0_energy">     -0.23847934 </i>
  </energy>
  <time name="totalsc">  329.70  330.57</time>
 </calculation>
 <calculation>
  <scstep>
   <time name="dav">   21.93   21.98</time>
   <time name="total">   22.45   22.50</time>
   <energy>
    <i name="alphaZ">     85.89172174 </i>
    <i name="ewald">  42868.96311018 </i>
    <i name="hartreedc"> -48884.75097066 </i>
    <i name="XCdc">   -232.90939962 </i>
    <i name="pawpsdc">   4037.93203801 </i>
    <i name="pawaedc">  -3453.62584306 </i>
    <i name="eentropy">     -0.19135790 </i>
    <i name="bandstr">  -1374.18052438 </i>
    <i name="atom">   6761.44252427 </i>
    <i name="e_fr_energy">   -191.42870141 </i>
    <i name="e_wo_entrp">   -191.23734351 </i>
    <i name="e_0_energy">   -191.33302246 </i>
   </energy>
  </scstep>
  <scstep>
   <time name="dav">   32.74   32.82</time>
   <time name="total">   33.25   33.34</time>
   <energy>
    <i name="e_fr_energy">   -191.14268258 </i>
    <i name="e_wo_entrp">   -190.95359808 </i>
    <i name="e_0_energy">   -191.04814033 </i>
   </energy>
  </scstep>
  <scstep>
   <time name="dav">   30.45   30.52</time>
   <time name="total">   30.96   31.16</time>
   <energy>
    <i name="e_fr_energy">   -191.38783089 </i>
    <i name="e_wo_entrp">   -191.16404026 </i>
    <i name="e_0_energy">   -191.27593557 </i>
   </energy>
  </scstep>
  <scstep>
   <time name="dav">   30.17   30.25</time>
   <time name="total">   30.69   30.77</time>
   <energy>
    <i name="e_fr_energy">   -190.97578457 </i>
    <i name="e_wo_entrp">   -190.79142990 </i>
    <i name="e_0_energy">   -190.88360724 </i>
   </energy>
  </scstep>
  <scstep>
   <time name="dav">   30.45   30.52</time>
   <time name="total">   30.97   31.05</time>
   <energy>
    <i name="e_fr_energy">   -190.84692709 </i>
    <i name="e_wo_entrp">   -190.64893228 </i>
    <i name="e_0_energy">   -190.74792968 </i>
   </energy>
  </scstep>
  <scstep>
   <time name="dav">   30.41   30.48</time>
   <time name="total">   30.92   31.00</time>
   <energy>
    <i name="e_fr_energy">   -190.84618270 </i>
    <i name="e_wo_entrp">   -190.64747439 </i>
    <i name="e_0_energy">   -190.74682855 </i>
   </energy>
  </scstep>
  <scstep>
   <time name="dav">   29.72   29.79</time>
   <time name="total">   30.23   30.31</time>
   <energy>
    <i name="e_fr_energy">   -190.82870449 </i>
    <i name="e_wo_entrp">   -190.63168943 </i>
    <i name="e_0_energy">   -190.73019696 </i>
   </energy>
  </scstep>
  <scstep>
   <time name="dav">   27.03   27.09</time>
   <time name="total">   27.54   27.62</time>
   <energy>
    <i name="e_fr_energy">   -190.82388035 </i>
    <i name="e_wo_entrp">   -190.62619027 </i>
    <i name="e_0_energy">   -190.72503531 </i>
   </energy>
  </scstep>
  <scstep>
   <time name="dav">   31.30   31.37</time>
   <time name="total">   31.81   31.90</time>
   <energy>
    <i name="e_fr_energy">   -190.82444713 </i>
    <i name="e_wo_entrp">   -190.62663900 </i>
    <i name="e_0_energy">   -190.72554307 </i>
   </energy>
  </scstep>
  <scstep>
   <time name="dav">   29.12   29.19</time>
   <time name="total">   29.64   29.71</time>
   <energy>
    <i name="e_fr_energy">   -190.82398581 </i>
    <i name="e_wo_entrp">   -190.62587004 </i>
    <i name="e_0_energy">   -190.72492792 </i>
   </energy>
  </scstep>
  <scstep>
   <time name="dav">   23.16   23.21</time>
   <time name="total">   23.19   23.26</time>
   <energy>
    <i name="alphaZ">     85.89172174 </i>
    <i name="ewald">  42868.96311018 </i>
    <i name="hartreedc"> -48856.09815304 </i>
    <i name="XCdc">   -234.26513276 </i>
    <i name="pawpsdc">   4064.80394194 </i>
    <i name="pawaedc">  -3480.69509953 </i>
    <i name="eentropy">     -0.19813214 </i>
    <i name="bandstr">  -1400.66868873 </i>
    <i name="atom">   6761.44252427 </i>
    <i name="e_fr_energy">   -190.82390807 </i>
    <i name="e_wo_entrp">   -190.62577593 </i>
    <i name="e_0_energy">   -190.72484200 </i>
   </energy>
  </scstep>
  <structure>
   <crystal>
    <varray name="basis" >
     <v>       8.48240307       4.90071036       0.00000000 </v>
     <v>      -8.47952366       4.89575814       0.00000000 </v>
     <v>       0.00000000       0.00000000      30.00000000 </v>
    </varray>
    <i name="volume">   2492.50449992 </i>
    <varray name="rec_basis" >
     <v>       0.05892577       0.10206028       0.00000000 </v>
     <v>      -0.05898537       0.10209494       0.00000000 </v>
     <v>       0.00000000       0.00000000       0.03333333 </v>
    </varray>
   </crystal>
   <varray name="positions" >
    <v>       0.66117820       0.66391147      -0.00019562 </v>
    <v>       0.66112450       0.33055968      -0.00019462 </v>
    <v>       0.66115101      -0.00263383      -0.00019533 </v>
    <v>       0.32991221       0.66494400       0.00014347 </v>
    <v>       0.33002754      -0.00166170       0.00014167 </v>
    <v>       0.32998821       0.33153694       0.00014196 </v>
    <v>       0.00818222       0.00409305       0.00003586 </v>
    <v>       1.00811045       0.33741133       0.00003930 </v>
    <v>       0.00814982       0.67069726       0.00003846 </v>
    <v>       0.10988088       0.22158693       0.94857929 </v>
    <v>       0.22117109       0.11049583       0.05142064 </v>
    <v>       0.10988128       0.55492149       0.94857345 </v>
    <v>       0.22115909       0.44383252       0.05141789 </v>
    <v>       0.10989303       0.88825786       0.94858291 </v>
    <v>       0.22116652       0.77718257       0.05141693 </v>
    <v>       0.45023742       0.22507360       0.95050799 </v>
    <v>       0.56085708       0.11360901       0.04830461 </v>
    <v>       0.45016134       0.55838304       0.95049102 </v>
    <v>       0.56085508       0.44684548       0.04831400 </v>
    <v>       0.45019579       0.89174639       0.95050212 </v>
    <v>       0.56083700       0.78026827       0.04831685 </v>
    <v>       0.77366605       0.22026969       0.95249261 </v>
    <v>       0.88434462       0.10879710       0.04871697 </v>
    <v>       0.77368658       0.55352728       0.95248678 </v>
    <v>       0.88430723       0.44211371       0.04871127 </v>
    <v>       0.77370598       0.88695870       0.95248370 </v>
    <v>       0.88438422       0.77548677       0.04872572 </v>
   </varray>
  </structure>
  <varray name="forces" >
   <v>      -0.19713420      -0.33464443      -0.04337979 </v>
   <v>      -0.19390454      -0.33849181      -0.04033940 </v>
   <v>      -0.19135286      -0.34106408      -0.04131469 </v>
   <v>      -0.21447011      -0.36521877      -0.01737080 </v>
   <v>      -0.21424810      -0.37370284      -0.01866287 </v>
   <v>      -0.20988920      -0.37244936      -0.01748935 </v>
   <v>       0.32817309       0.56684786       0.04350063 </v>
   <v>       0.32793310       0.56903998       0.04655750 </v>
   <v>       0.32759895       0.57055516       0.04376973 </v>
   <v>       0.01273687       0.02278946      -0.55334874 </v>
   <v>       0.04615058       0.08198093       0.60605411 </v>
   <v>       0.01383757       0.02095821      -0.55470060 </v>
   <v>       0.04674750       0.08172679       0.59768624 </v>
   <v>       0.01436012       0.02239291      -0.55366172 </v>
   <v>       0.04437685       0.08326167       0.60429668 </v>
   <v>      -0.00372918      -0.00813179      -0.36147964 </v>
   <v>      -0.02202809      -0.02494713       0.37792008 </v>
   <v>       0.00009117      -0.00263752      -0.34400818 </v>
   <v>      -0.02962108      -0.01917250       0.37106374 </v>
   <v>      -0.00153458      -0.00401604      -0.35293522 </v>
   <v>      -0.02135919      -0.02101826       0.36377538 </v>
   <v>       0.04205874       0.04853776      -0.10879034 </v>
   <v>       0.00754483       0.01340035       0.04941490 </v>
   <v>       0.03458793       0.05046346      -0.10233641 </v>
   <v>       0.00859307       0.01657148       0.05446865 </v>
   <v>       0.03811060       0.04536133      -0.09652376 </v>
   <v>       0.00637014       0.01160720       0.04783387 </v>
  </varray>
  <varray name="stress" >
   <v>      -5.90088258       0.17843474      -0.04735265 </v>
   <v>       0.17843442      -5.72354509       0.04738697 </v>
   <v>      -0.04735293       0.04738706       4.75848929 </v>
  </varray>
  <energy>
   <i name="e_fr_energy">   -190.82390807 </i>
   <i name="e_wo_entrp">   -190.72484200 </i>
   <i name="e_0_energy">     -0.19813214 </i>
  </energy>
  <time name="totalsc">  363.89  364.96</time>
 </calculation>
 <calculation>
  <scstep>
   <time name="dav">   21.87   21.92</time>
   <time name="total">   22.38   22.44</time>
   <energy>
    <i name="alphaZ">     90.31177595 </i>
    <i name="ewald">  44723.30334388 </i>
    <i name="hartreedc"> -50766.58174637 </i>
    <i name="XCdc">   -231.80941460 </i>
    <i name="pawpsdc">   4065.10949578 </i>
    <i name="pawaedc">  -3480.99786771 </i>
    <i name="eentropy">     -0.14860887 </i>
    <i name="bandstr">  -1352.95520315 </i>
    <i name="atom">   6761.44252427 </i>
    <i name="e_fr_energy">   -192.32570082 </i>
    <i name="e_wo_entrp">   -192.17709195 </i>
    <i name="e_0_energy">   -192.25139639 </i>
   </energy>
  </scstep>
  <scstep>
   <time name="dav">   28.56   28.63</time>
   <time name="total">   29.07   29.14</time>
   <energy>
    <i name="e_fr_energy">   -192.09989485 </i>
    <i name="e_wo_entrp">   -191.90270318 </i>
    <i name="e_0_energy">   -192.00129902 </i>
   </energy>
  </scstep>
  <scstep>
   <time name="dav">   31.05   31.12</time>
   <time name="total">   31.55   31.64</time>
   <energy>
    <i name="e_fr_energy">   -192.41051457 </i>
    <i name="e_wo_entrp">   -192.27500494 </i>
    <i name="e_0_energy">   -192.34275976 </i>
   </energy>
  </scstep>
  <scstep>
   <time name="dav">   30.51   30.58</time>
   <time name="total">   31.02   31.10</time>
   <energy>
    <i name="e_fr_energy">   -191.72984479 </i>
    <i name="e_wo_entrp">   -191.55899581 </i>
    <i name="e_0_energy">   -191.64442030 </i>
   </energy>
  </scstep>
  <scstep>
   <time name="dav">   30.40   30.47</time>
   <time name="total">   30.91   30.99</time>
   <energy>
    <i name="e_fr_energy">   -191.63509335 </i>
    <i name="e_wo_entrp">   -191.47126608 </i>
    <i name="e_0_energy">   -191.55317971 </i>
   </energy>
  </scstep>
  <scstep>
   <time name="dav">   31.58   31.66</time>
   <time name="total">   32.09   32.17</time>
   <energy>
    <i name="e_fr_energy">   -191.63189855 </i>
    <i name="e_wo_entrp">   -191.46455798 </i>
    <i name="e_0_energy">   -191.54822827 </i>
   </energy>
  </scstep>
  <scstep>
   <time name="dav">   29.24   29.31</time>
   <time name="total">   29.75   29.83</time>
   <energy>
    <i name="e_fr_energy">   -191.63080215 </i>
    <i name="e_wo_entrp">   -191.46278226 </i>
    <i name="e_0_energy">   -191.54679221 </i>
   </energy>
  </scstep>
  <scstep>
   <time name="dav">   30.97   31.04</time>
   <time name="total">   31.48   31.56</time>
   <energy>
    <i name="e_fr_energy">   -191.62380934 </i>
    <i name="e_wo_entrp">   -191.45607250 </i>
    <i name="e_0_energy">   -191.53994092 </i>
   </energy>
  </scstep>
  <scstep>
   <time name="dav">   28.97   29.04</time>
   <time name="total">   29.47   29.55</time>
   <energy>
    <i name="e_fr_energy">   -191.62396698 </i>
    <i name="e_wo_entrp">   -191.45618711 </i>
    <i name="e_0_energy">   -191.54007705 </i>
   </energy>
  </scstep>
  <scstep>
   <time name="dav">   27.61   27.68</time>
   <time name="total">   28.12   28.19</time>
   <energy>
    <i name="e_fr_energy">   -191.62425513 </i>
    <i name="e_wo_entrp">   -191.45638497 </i>
    <i name="e_0_energy">   -191.54032005 </i>
   </energy>
  </scstep>
  <scstep>
   <time name="dav">   23.55   23.60</time>
   <time name="total">   24.06   24.12</time>
   <energy>
    <i name="e_fr_energy">   -191.62384957 </i>
    <i name="e_wo_entrp">   -191.45590674 </i>
    <i name="e_0_energy">   -191.53987815 </i>
   </energy>
  </scstep>
  <scstep>
   <time name="dav">   18.22   18.27</time>
   <time name="total">   18.26   18.31</time>
   <energy>
    <i name="alphaZ">     90.31177595 </i>
    <i name="ewald">  44723.30334388 </i>
    <i name="hartreedc"> -50732.38566756 </i>
    <i name="XCdc">   -233.34326972 </i>
    <i name="pawpsdc">   4088.01720335 </i>
    <i name="pawaedc">  -3503.98111927 </i>
    <i name="eentropy">     -0.16792647 </i>
    <i name="bandstr">  -1384.82074083 </i>
    <i name="atom">   6761.44252427 </i>
    <i name="e_fr_energy">   -191.62387640 </i>
    <i name="e_wo_entrp">   -191.45594992 </i>
    <i name="e_0_energy">   -191.53991316 </i>
   </energy>
  </scstep>
  <structure>
   <crystal>
    <varray name="basis" >
     <v>       8.27262366       4.79194706       0.00000000 </v>
     <v>      -8.25865804       4.76779157       0.00000000 </v>
     <v>       0.00000000       0.00000000      30.00000000 </v>
    </varray>
    <i name="volume">   2370.51592324 </i>
    <varray name="rec_basis" >
     <v>       0.06033866       0.10451722       0.00000000 </v>
     <v>      -0.06064436       0.10469396       0.00000000 </v>
     <v>       0.00000000       0.00000000       0.03333333 </v>
    </varray>
   </crystal>
   <varray name="positions" >
    <v>       0.65578683       0.66122599      -0.00039169 </v>
    <v>       0.65567640       0.32778166      -0.00037946 </v>
    <v>       0.65570420      -0.00536220      -0.00038389 </v>
    <v>       0.32364057       0.66186933       0.00005194 </v>
    <v>       0.32372972      -0.00481279       0.00004451 </v>
    <v>       0.32369662       0.32829062       0.00004945 </v>
    <v>       0.01760930       0.00881068       0.00025993 </v>
    <v>       1.01751010       0.34213399       0.00027605 </v>
    <v>       0.01759996       0.67542611       0.00026453 </v>
    <v>       0.11046859       0.22189449       0.94568472 </v>
    <v>       0.22259332       0.11120508       0.05448811 </v>
    <v>       0.11045471       0.55520798       0.94567208 </v>
    <v>       0.22257641       0.44453892       0.05445634 </v>
    <v>       0.11049195       0.88855366       0.94569207 </v>
    <v>       0.22258746       0.77793121       0.05447642 </v>
    <v>       0.45063172       0.22526144       0.94851565 </v>
    <v>       0.56088184       0.11372834       0.05032262 </v>
    <v>       0.45059382       0.55859225       0.94854770 </v>
    <v>       0.56089103       0.44702261       0.05031512 </v>
    <v>       0.45063289       0.89197518       0.94853712 </v>
    <v>       0.56089916       0.78043942       0.05029377 </v>
    <v>       0.77389948       0.22024664       0.95157045 </v>
    <v>       0.88393041       0.10857111       0.04947869 </v>
    <v>       0.77391703       0.55353860       0.95158345 </v>
    <v>       0.88392268       0.44191744       0.04948771 </v>
    <v>       0.77390811       0.88695664       0.95159937 </v>
    <v>       0.88398014       0.77527003       0.04948715 </v>
   </varray>
  </structure>
  <varray name="forces" >
   <v>      -0.25217229      -0.43990064       0.02366323 </v>
   <v>      -0.25487932      -0.43603530       0.02318495 </v>
   <v>      -0.24828867      -0.43925806       0.02472831 </v>
   <v>      -0.05553802      -0.09668442       0.14989039 </v>
   <v>      -0.05748598      -0.09135823       0.15601387 </v>
   <v>      -0.05818824      -0.09386184       0.15168827 </v>
   <v>       0.21815483       0.37594958      -0.10794163 </v>
   <v>       0.22133602       0.37933707      -0.11703258 </v>
   <v>       0.22312713       0.37142860      -0.11232538 </v>
   <v>       0.00031157       0.00080547      -0.25740978 </v>
   <v>       0.08991079       0.15723995       0.26198307 </v>
   <v>       0.00185383       0.00185252      -0.25563517 </v>
   <v>       0.09254806       0.16270398       0.26229183 </v>
   <v>      -0.00041044      -0.00111698      -0.26390410 </v>
   <v>       0.09208083       0.15905773       0.26437848 </v>
   <v>      -0.10926064      -0.18825554      -0.11116213 </v>
   <v>      -0.07527822      -0.12817341       0.06286423 </v>
   <v>      -0.10803555      -0.18804067      -0.10662032 </v>
   <v>      -0.07565318      -0.12688944       0.05752564 </v>
   <v>      -0.10785194      -0.19127796      -0.11464402 </v>
   <v>      -0.07229856      -0.13054388       0.06317733 </v>
   <v>       0.09490368       0.16798632       0.21683533 </v>
   <v>       0.08329637       0.14767066      -0.23366707 </v>
   <v>       0.09471641       0.16772676       0.21884530 </v>
   <v>       0.08194334       0.14701357      -0.23392515 </v>
   <v>       0.09894008       0.16739889       0.21372306 </v>
   <v>       0.08221812       0.14522527      -0.23652596 </v>
  </varray>
  <varray name="stress" >
   <v>      -0.32578259       0.51565515       0.39266603 </v>
   <v>       0.51565526       0.31406966       0.69816652 </v>
   <v>       0.39266589       0.69816627      -0.28504212 </v>
  </varray>
  <energy>
   <i name="e_fr_energy">   -191.62387640 </i>
   <i name="e_wo_entrp">   -191.53991316 </i>
   <i name="e_0_energy">     -0.16792647 </i>
  </energy>
  <time name="totalsc">  380.65  381.64</time>
 </calculation>
 <calculation>
  <scstep>
   <time name="dav">   21.82   21.87</time>
   <time name="total">   22.33   22.38</time>
   <energy>
    <i name="alphaZ">     90.33416825 </i>
    <i name="ewald">  44708.08592714 </i>
    <i name="hartreedc"> -50718.37679500 </i>
    <i name="XCdc">   -233.43211731 </i>
    <i name="pawpsdc">   4087.89988218 </i>
    <i name="pawaedc">  -3503.86001236 </i>
    <i name="eentropy">     -0.15897322 </i>
    <i name="bandstr">  -1383.67636579 </i>
    <i name="atom">   6761.44252427 </i>
    <i name="e_fr_energy">   -191.74176183 </i>
    <i name="e_wo_entrp">   -191.58278861 </i>
    <i name="e_0_energy">   -191.66227522 </i>
   </energy>
  </scstep>
  <scstep>
   <time name="dav">   30.79   30.86</time>
   <time name="total">   31.30   31.38</time>
   <energy>
    <i name="e_fr_energy">   -191.82401658 </i>
    <i name="e_wo_entrp">   -191.62951199 </i>
    <i name="e_0_energy">   -191.72676428 </i>
   </energy>
  </scstep>
  <scstep>
   <time name="dav">   30.45   30.52</time>
   <time name="total">   30.95   31.04</time>
   <energy>
    <i name="e_fr_energy">   -191.76294988 </i>
    <i name="e_wo_entrp">   -191.60245932 </i>
    <i name="e_0_energy">   -191.68270460 </i>
   </energy>
  </scstep>
  <scstep>
   <time name="dav">   29.39   29.47</time>
   <time name="total">   29.90   29.98</time>
   <energy>
    <i name="e_fr_energy">   -191.75891839 </i>
    <i name="e_wo_entrp">   -191.59314477 </i>
    <i name="e_0_energy">   -191.67603158 </i>
   </energy>
  </scstep>
  <scstep>
   <time name="dav">   31.75   31.82</time>
   <time name="total">   32.25   32.34</time>
   <energy>
    <i name="e_fr_energy">   -191.75976202 </i>
    <i name="e_wo_entrp">   -191.59291148 </i>
    <i name="e_0_energy">   -191.67633675 </i>
   </energy>
  </scstep>
  <scstep>
   <time name="dav">   30.31   30.39</time>
   <time name="total">   30.82   30.90</time>
   <energy>
    <i name="e_fr_energy">   -191.75947014 </i>
    <i name="e_wo_entrp">   -191.59293159 </i>
    <i name="e_0_energy">   -191.67620087 </i>
   </energy>
  </scstep>
  <scstep>
   <time name="dav">   29.78   29.85</time>
   <time name="total">   30.29   30.37</time>
   <energy>
    <i name="e_fr_energy">   -191.75808071 </i>
    <i name="e_wo_entrp">   -191.59194277 </i>
    <i name="e_0_energy">   -191.67501174 </i>
   </energy>
  </scstep>
  <scstep>
   <time name="dav">   18.05   18.09</time>
   <time name="total">   18.08   18.13</time>
   <energy>
    <i name="alphaZ">     90.33416825 </i>
    <i name="ewald">  44708.08592714 </i>
    <i name="hartreedc"> -50719.07095521 </i>
    <i name="XCdc">   -233.40615549 </i>
    <i name="pawpsdc">   4085.71505363 </i>
    <i name="pawaedc">  -3501.63976269 </i>
    <i name="eentropy">     -0.16609191 </i>
    <i name="bandstr">  -1383.05280885 </i>
    <i name="atom">   6761.44252427 </i>
    <i name="e_fr_energy">   -191.75810085 </i>
    <i name="e_wo_entrp">   -191.59200894 </i>
    <i name="e_0_energy">   -191.67505490 </i>
   </energy>
  </scstep>
  <structure>
   <crystal>
    <varray name="basis" >
     <v>       8.27114013       4.80696409       0.00000000 </v>
     <v>      -8.24392133       4.75984883       0.00000000 </v>
     <v>       0.00000000       0.00000000      30.00000000 </v>
    </varray>
    <i name="volume">   2369.92831264 </i>
    <varray name="rec_basis" >
     <v>       0.06025307       0.10435659       0.00000000 </v>
     <v>      -0.06084949       0.10470114       0.00000000 </v>
     <v>       0.00000000       0.00000000       0.03333333 </v>
    </varray>
   </crystal>
   <varray name="positions" >
    <v>       0.65276051       0.65970466      -0.00035470 </v>
    <v>       0.65266126       0.32628732      -0.00034318 </v>
    <v>       0.65269211      -0.00689168      -0.00034512 </v>
    <v>       0.32293681       0.66151673       0.00029512 </v>
    <v>       0.32304759      -0.00513280       0.00029762 </v>
    <v>       0.32299949       0.32795881       0.00029555 </v>
    <v>       0.02023954       0.01012109       0.00008612 </v>
    <v>       1.02016654       0.34345222       0.00008753 </v>
    <v>       0.02022185       0.67669858       0.00008360 </v>
    <v>       0.11047893       0.22190049       0.94524152 </v>
    <v>       0.22367137       0.11174791       0.05493981 </v>
    <v>       0.11047484       0.55521465       0.94523172 </v>
    <v>       0.22369005       0.44510188       0.05490835 </v>
    <v>       0.11049045       0.88855190       0.94523836 </v>
    <v>       0.22368115       0.77847725       0.05493196 </v>
    <v>       0.44935451       0.22462527       0.94831767 </v>
    <v>       0.56000851       0.11329822       0.05044200 </v>
    <v>       0.44932131       0.55795361       0.94835736 </v>
    <v>       0.56002320       0.44660025       0.05042573 </v>
    <v>       0.44934460       0.89131971       0.94833362 </v>
    <v>       0.56002271       0.77998877       0.05041343 </v>
    <v>       0.77503482       0.22082262       0.95191432 </v>
    <v>       0.88492334       0.10907606       0.04910664 </v>
    <v>       0.77505061       0.55411385       0.95193069 </v>
    <v>       0.88490839       0.44242324       0.04911532 </v>
    <v>       0.77505230       0.88751797       0.95193839 </v>
    <v>       0.88495768       0.77576584       0.04911048 </v>
   </varray>
  </structure>
  <varray name="forces" >
   <v>      -0.27966480      -0.48032753      -0.05006479 </v>
   <v>      -0.27611203      -0.47736714      -0.05163089 </v>
   <v>      -0.27246693      -0.48368425      -0.05133861 </v>
   <v>      -0.05241097      -0.08902996       0.03489814 </v>
   <v>      -0.05334884      -0.09330514       0.03089085 </v>
   <v>      -0.05425160      -0.09218067       0.03340317 </v>
   <v>       0.24304027       0.41819067      -0.03970065 </v>
   <v>       0.24411435       0.42102091      -0.03832104 </v>
   <v>       0.24410037       0.41908594      -0.03766546 </v>
   <v>       0.03370168       0.05458197      -0.18288072 </v>
   <v>       0.04233394       0.07772410       0.19581114 </v>
   <v>       0.03343167       0.05597413      -0.18491782 </v>
   <v>       0.04409876       0.07943407       0.19339274 </v>
   <v>       0.03222565       0.05486469      -0.18042861 </v>
   <v>       0.04384256       0.07730230       0.19303683 </v>
   <v>      -0.07058809      -0.12227194      -0.04833997 </v>
   <v>      -0.04069259      -0.07306270       0.10268996 </v>
   <v>      -0.06975777      -0.12145935      -0.04930697 </v>
   <v>      -0.04412972      -0.07236582       0.10408629 </v>
   <v>      -0.06911040      -0.12106128      -0.04743648 </v>
   <v>      -0.04320704      -0.07245146       0.10374642 </v>
   <v>       0.06940736       0.11651266       0.28717014 </v>
   <v>       0.05254574       0.09548675      -0.29617143 </v>
   <v>       0.06749802       0.11880596       0.28418494 </v>
   <v>       0.05461405       0.09587986      -0.29411111 </v>
   <v>       0.06739497       0.11883955       0.28500686 </v>
   <v>       0.05339140       0.09486368      -0.29600292 </v>
  </varray>
  <varray name="stress" >
   <v>      -0.06203785      -0.01959587       0.09239157 </v>
   <v>      -0.01959590      -0.08881189       0.19200307 </v>
   <v>       0.09239159       0.19200306      -1.23213027 </v>
  </varray>
  <energy>
   <i name="e_fr_energy">   -191.75810085 </i>
   <i name="e_wo_entrp">   -191.67505490 </i>
   <i name="e_0_energy">     -0.16609191 </i>
  </energy>
  <time name="totalsc">  268.36  269.07</time>
 </calculation>
 <calculation>
  <scstep>
   <time name="dav">   21.84   21.89</time>
   <time name="total">   22.35   22.41</time>
   <energy>
    <i name="alphaZ">     90.37064732 </i>
    <i name="ewald">  44728.84688633 </i>
    <i name="hartreedc"> -50739.93573008 </i>
    <i name="XCdc">   -233.37144188 </i>
    <i name="pawpsdc">   4085.70097679 </i>
    <i name="pawaedc">  -3501.62509185 </i>
    <i name="eentropy">     -0.15710522 </i>
    <i name="bandstr">  -1383.12874515 </i>
    <i name="atom">   6761.44252427 </i>
    <i name="e_fr_energy">   -191.85707945 </i>
    <i name="e_wo_entrp">   -191.69997424 </i>
    <i name="e_0_energy">   -191.77852684 </i>
   </energy>
  </scstep>
  <scstep>
   <time name="dav">   30.99   31.06</time>
   <time name="total">   31.49   31.58</time>
   <energy>
    <i name="e_fr_energy">   -191.88058117 </i>
    <i name="e_wo_entrp">   -191.70712585 </i>
    <i name="e_0_energy">   -191.79385351 </i>
   </energy>
  </scstep>
  <scstep>
   <time name="dav">   30.66   30.74</time>
   <time name="total">   31.17   31.25</time>
   <energy>
    <i name="e_fr_energy">   -191.86840469 </i>
    <i name="e_wo_entrp">   -191.71352475 </i>
    <i name="e_0_energy">   -191.79096472 </i>
   </energy>
  </scstep>
  <scstep>
   <time name="dav">   29.36   29.43</time>
   <time name="total">   29.87   29.95</time>
   <energy>
    <i name="e_fr_energy">   -191.86553792 </i>
    <i name="e_wo_entrp">   -191.70674627 </i>
    <i name="e_0_energy">   -191.78614209 </i>
   </energy>
  </scstep>
  <scstep>
   <time name="dav">   28.86   28.93</time>
   <time name="total">   29.37   29.44</time>
   <energy>
    <i name="e_fr_energy">   -191.86599705 </i>
    <i name="e_wo_entrp">   -191.70563263 </i>
    <i name="e_0_energy">   -191.78581484 </i>
   </energy>
  </scstep>
  <scstep>
   <time name="dav">   29.30   29.37</time>
   <time name="total">   29.81   29.89</time>
   <energy>
    <i name="e_fr_energy">   -191.86489727 </i>
    <i name="e_wo_entrp">   -191.70519693 </i>
    <i name="e_0_energy">   -191.78504710 </i>
   </energy>
  </scstep>
  <scstep>
   <time name="dav">   26.46   26.52</time>
   <time name="total">   26.97   27.04</time>
   <energy>
    <i name="e_fr_energy">   -191.86455422 </i>
    <i name="e_wo_entrp">   -191.70499719 </i>
    <i name="e_0_energy">   -191.78477571 </i>
   </energy>
  </scstep>
  <scstep>
   <time name="dav">   19.76   19.81</time>
   <time name="total">   19.80   19.85</time>
   <energy>
    <i name="alphaZ">     90.37064732 </i>
    <i name="ewald">  44728.84688633 </i>
    <i name="hartreedc"> -50740.18265135 </i>
    <i name="XCdc">   -233.36070515 </i>
    <i name="pawpsdc">   4089.06135514 </i>
    <i name="pawaedc">  -3505.02299301 </i>
    <i name="eentropy">     -0.15949020 </i>
    <i name="bandstr">  -1382.86016745 </i>
    <i name="atom">   6761.44252427 </i>
    <i name="e_fr_energy">   -191.86459407 </i>
    <i name="e_wo_entrp">   -191.70510388 </i>
    <i name="e_0_energy">   -191.78484897 </i>
   </energy>
  </scstep>
  <structure>
   <crystal>
    <varray name="basis" >
     <v>       8.26950540       4.80558943       0.00000000 </v>
     <v>      -8.24262358       4.75905820       0.00000000 </v>
     <v>       0.00000000       0.00000000      30.00000000 </v>
    </varray>
    <i name="volume">   2368.97166586 </i>
    <varray name="rec_basis" >
     <v>       0.06026739       0.10438230       0.00000000 </v>
     <v>      -0.06085665       0.10472272       0.00000000 </v>
     <v>       0.00000000       0.00000000       0.03333333 </v>
    </varray>
   </crystal>
   <varray name="positions" >
    <v>       0.65004930       0.65835761      -0.00042200 </v>
    <v>       0.64997088       0.32494388      -0.00041254 </v>
    <v>       0.64998414      -0.00827041      -0.00041409 </v>
    <v>       0.32241914       0.66126176       0.00034250 </v>
    <v>       0.32250990      -0.00540344       0.00033967 </v>
    <v>       0.32246421       0.32769469       0.00034094 </v>
    <v>       0.02261072       0.01130083       0.00003296 </v>
    <v>       1.02255212       0.34464123       0.00003619 </v>
    <v>       0.02259934       0.67787930       0.00003315 </v>
    <v>       0.11079064       0.22204840       0.94498717 </v>
    <v>       0.22410689       0.11197493       0.05521184 </v>
    <v>       0.11079172       0.55536904       0.94497463 </v>
    <v>       0.22413712       0.44533185       0.05517709 </v>
    <v>       0.11079976       0.88870455       0.94498726 </v>
    <v>       0.22411861       0.77869894       0.05520028 </v>
    <v>       0.44866881       0.22428240       0.94824656 </v>
    <v>       0.55960171       0.11308971       0.05058544 </v>
    <v>       0.44864105       0.55761214       0.94828507 </v>
    <v>       0.55961105       0.44640312       0.05057099 </v>
    <v>       0.44866757       0.89097835       0.94826376 </v>
    <v>       0.55961244       0.77978902       0.05055821 </v>
    <v>       0.77569427       0.22114424       0.95229661 </v>
    <v>       0.88545195       0.10934974       0.04871194 </v>
    <v>       0.77571507       0.55444978       0.95230904 </v>
    <v>       0.88544366       0.44269360       0.04872339 </v>
    <v>       0.77571664       0.88785432       0.95231785 </v>
    <v>       0.88548575       0.77603487       0.04871599 </v>
   </varray>
  </structure>
  <varray name="forces" >
   <v>      -0.28146483      -0.47891893       0.00100498 </v>
   <v>      -0.27248705      -0.48471792       0.00065563 </v>
   <v>      -0.28329393      -0.49310236       0.00176075 </v>
   <v>      -0.02373923      -0.03012805       0.09021491 </v>
   <v>      -0.01625995      -0.03237622       0.09085539 </v>
   <v>      -0.02164934      -0.04153472       0.09117976 </v>
   <v>       0.21936793       0.38121171      -0.07787725 </v>
   <v>       0.22214052       0.38287431      -0.07973910 </v>
   <v>       0.22120773       0.37841954      -0.07907779 </v>
   <v>       0.02688034       0.04490111      -0.18177130 </v>
   <v>       0.05196749       0.09379652       0.18413971 </v>
   <v>       0.02725301       0.04494040      -0.18117944 </v>
   <v>       0.05409227       0.09500968       0.18420186 </v>
   <v>       0.02553536       0.04345869      -0.18067716 </v>
[...]
      <set comment="kpoint 31">
       <r>  -17.4912    1.0000 </r>
       <r>  -17.3333    1.0000 </r>
       <r>  -16.8908    1.0000 </r>
       <r>  -16.6226    1.0000 </r>
       <r>  -16.5725    1.0000 </r>
       <r>  -16.4539    1.0000 </r>
       <r>  -16.2175    1.0000 </r>
       <r>  -16.1912    1.0000 </r>
       <r>  -16.1835    1.0000 </r>
       <r>  -16.1783    1.0000 </r>
       <r>  -15.8958    1.0000 </r>
       <r>  -15.7956    1.0000 </r>
       <r>  -15.6828    1.0000 </r>
       <r>  -15.6476    1.0000 </r>
       <r>  -15.5089    1.0000 </r>
       <r>  -15.4848    1.0000 </r>
       <r>  -15.4545    1.0000 </r>
       <r>  -15.2659    1.0000 </r>
       <r>   -9.7985    1.0000 </r>
       <r>   -9.4730    1.0000 </r>
       <r>   -9.3599    1.0000 </r>
       <r>   -8.9986    1.0000 </r>
       <r>   -8.7869    1.0000 </r>
       <r>   -8.7121    1.0000 </r>
       <r>   -8.6756    1.0000 </r>
       <r>   -8.5798    1.0000 </r>
       <r>   -8.4652    1.0000 </r>
       <r>   -8.3573    1.0000 </r>
       <r>   -8.1799    1.0000 </r>
       <r>   -8.1624    1.0000 </r>
       <r>   -8.0908    1.0000 </r>
       <r>   -8.0706    1.0000 </r>
       <r>   -7.9761    1.0000 </r>
       <r>   -7.9166    1.0000 </r>
       <r>   -7.7055    1.0000 </r>
       <r>   -7.6962    1.0000 </r>
       <r>   -7.6468    1.0000 </r>
       <r>   -7.5216    1.0000 </r>
       <r>   -7.4701    1.0000 </r>
       <r>   -7.2925    1.0000 </r>
       <r>   -7.0937    1.0000 </r>
       <r>   -7.0490    1.0000 </r>
       <r>   -6.9859    1.0000 </r>
       <r>   -6.8477    1.0000 </r>
       <r>   -6.7553    1.0000 </r>
       <r>   -6.7510    1.0000 </r>
       <r>   -6.7037    1.0000 </r>
       <r>   -6.5672    1.0000 </r>
       <r>   -6.5562    1.0000 </r>
       <r>   -6.5548    1.0000 </r>
       <r>   -6.3634    1.0000 </r>
       <r>   -6.3581    1.0000 </r>
       <r>   -6.2822    1.0000 </r>
       <r>   -6.1698    1.0000 </r>
       <r>   -6.0750    1.0000 </r>
       <r>   -6.0525    1.0000 </r>
       <r>   -5.9801    1.0000 </r>
       <r>   -5.9213    1.0000 </r>
       <r>   -5.8819    1.0000 </r>
       <r>   -5.7185    1.0000 </r>
       <r>   -5.7041    1.0000 </r>
       <r>   -5.5292    1.0000 </r>
       <r>   -5.5151    1.0000 </r>
       <r>   -5.4702    1.0000 </r>
       <r>   -5.2054    1.0000 </r>
       <r>   -5.0698    1.0000 </r>
       <r>   -5.0626    1.0000 </r>
       <r>   -4.8959    1.0000 </r>
       <r>   -4.7723    1.0000 </r>
       <r>   -4.6807    1.0000 </r>
       <r>   -4.6517    1.0000 </r>
       <r>   -4.4853    1.0000 </r>
       <r>   -4.2777    1.0000 </r>
       <r>   -4.1661    1.0000 </r>
       <r>   -4.0571    1.0000 </r>
       <r>   -4.0372    1.0000 </r>
       <r>   -3.8937    1.0000 </r>
       <r>   -3.8108    1.0000 </r>
       <r>   -3.4440    0.9233 </r>
       <r>   -3.4329    0.9113 </r>
       <r>   -3.0083    0.0491 </r>
       <r>   -2.9432    0.0173 </r>
       <r>   -2.6609    0.0000 </r>
       <r>   -2.5998    0.0000 </r>
       <r>   -2.5599    0.0000 </r>
       <r>   -2.4839    0.0000 </r>
       <r>   -2.2077    0.0000 </r>
       <r>   -2.1657    0.0000 </r>
       <r>   -2.0422    0.0000 </r>
       <r>   -1.9238    0.0000 </r>
       <r>   -1.9126    0.0000 </r>
       <r>   -1.5788    0.0000 </r>
       <r>   -1.2202    0.0000 </r>
       <r>   -1.2197    0.0000 </r>
       <r>   -1.1970    0.0000 </r>
       <r>   -1.0230    0.0000 </r>
       <r>   -1.0118    0.0000 </r>
       <r>   -1.0031    0.0000 </r>
       <r>   -0.8074    0.0000 </r>
       <r>   -0.8039    0.0000 </r>
       <r>   -0.7884    0.0000 </r>
       <r>   -0.7179    0.0000 </r>
       <r>   -0.7009    0.0000 </r>
       <r>   -0.6094    0.0000 </r>
       <r>   -0.5488    0.0000 </r>
       <r>   -0.3945    0.0000 </r>
       <r>   -0.2212    0.0000 </r>
       <r>   -0.1090    0.0000 </r>
       <r>    0.0533    0.0000 </r>
       <r>    0.2563    0.0000 </r>
       <r>    0.3729    0.0000 </r>
       <r>    0.4250    0.0000 </r>
       <r>    0.5658    0.0000 </r>
       <r>    1.0421    0.0000 </r>
       <r>    1.0627    0.0000 </r>
       <r>    1.0811    0.0000 </r>
       <r>    1.8499    0.0000 </r>
       <r>    2.1663    0.0000 </r>
       <r>    2.3141    0.0000 </r>
       <r>    2.4248    0.0000 </r>
      </set>
      <set comment="kpoint 32">
       <r>  -17.5133    1.0000 </r>
       <r>  -17.2683    1.0000 </r>
       <r>  -16.9873    1.0000 </r>
       <r>  -16.6167    1.0000 </r>
       <r>  -16.5708    1.0000 </r>
       <r>  -16.2954    1.0000 </r>
       <r>  -16.2476    1.0000 </r>
       <r>  -16.2182    1.0000 </r>
       <r>  -16.1904    1.0000 </r>
       <r>  -16.1892    1.0000 </r>
       <r>  -15.9720    1.0000 </r>
       <r>  -15.7970    1.0000 </r>
       <r>  -15.6814    1.0000 </r>
       <r>  -15.6099    1.0000 </r>
       <r>  -15.5136    1.0000 </r>
       <r>  -15.4785    1.0000 </r>
       <r>  -15.4548    1.0000 </r>
       <r>  -15.2660    1.0000 </r>
       <r>   -9.7550    1.0000 </r>
       <r>   -9.5515    1.0000 </r>
       <r>   -9.4213    1.0000 </r>
       <r>   -8.9406    1.0000 </r>
       <r>   -8.7681    1.0000 </r>
       <r>   -8.6804    1.0000 </r>
       <r>   -8.6083    1.0000 </r>
       <r>   -8.4355    1.0000 </r>
       <r>   -8.3937    1.0000 </r>
       <r>   -8.3301    1.0000 </r>
       <r>   -8.3104    1.0000 </r>
       <r>   -8.2292    1.0000 </r>
       <r>   -8.1994    1.0000 </r>
       <r>   -8.1145    1.0000 </r>
       <r>   -8.0198    1.0000 </r>
       <r>   -7.9814    1.0000 </r>
       <r>   -7.6973    1.0000 </r>
       <r>   -7.6755    1.0000 </r>
       <r>   -7.5856    1.0000 </r>
       <r>   -7.5203    1.0000 </r>
       <r>   -7.4815    1.0000 </r>
       <r>   -7.1881    1.0000 </r>
       <r>   -7.1518    1.0000 </r>
       <r>   -7.0571    1.0000 </r>
       <r>   -6.9805    1.0000 </r>
       <r>   -6.8532    1.0000 </r>
       <r>   -6.8146    1.0000 </r>
       <r>   -6.7379    1.0000 </r>
       <r>   -6.6640    1.0000 </r>
       <r>   -6.5491    1.0000 </r>
       <r>   -6.5447    1.0000 </r>
       <r>   -6.5200    1.0000 </r>
       <r>   -6.4504    1.0000 </r>
       <r>   -6.3686    1.0000 </r>
       <r>   -6.2996    1.0000 </r>
       <r>   -6.2040    1.0000 </r>
       <r>   -6.0021    1.0000 </r>
       <r>   -5.9996    1.0000 </r>
       <r>   -5.9814    1.0000 </r>
       <r>   -5.9283    1.0000 </r>
       <r>   -5.7927    1.0000 </r>
       <r>   -5.7242    1.0000 </r>
       <r>   -5.6639    1.0000 </r>
       <r>   -5.6542    1.0000 </r>
       <r>   -5.5031    1.0000 </r>
       <r>   -5.4419    1.0000 </r>
       <r>   -5.2032    1.0000 </r>
       <r>   -5.0664    1.0000 </r>
       <r>   -4.9925    1.0000 </r>
       <r>   -4.8513    1.0000 </r>
       <r>   -4.8192    1.0000 </r>
       <r>   -4.7862    1.0000 </r>
       <r>   -4.7664    1.0000 </r>
       <r>   -4.4631    1.0000 </r>
       <r>   -4.2615    1.0000 </r>
       <r>   -4.1512    1.0000 </r>
       <r>   -4.0447    1.0000 </r>
       <r>   -4.0280    1.0000 </r>
       <r>   -3.9066    1.0000 </r>
       <r>   -3.7779    0.9999 </r>
       <r>   -3.4390    0.9180 </r>
       <r>   -3.4278    0.9053 </r>
       <r>   -3.0145    0.0537 </r>
       <r>   -2.9199    0.0113 </r>
       <r>   -2.6656    0.0000 </r>
       <r>   -2.5791    0.0000 </r>
       <r>   -2.5496    0.0000 </r>
       <r>   -2.5078    0.0000 </r>
       <r>   -2.2386    0.0000 </r>
       <r>   -2.1791    0.0000 </r>
       <r>   -2.0390    0.0000 </r>
       <r>   -1.9379    0.0000 </r>
       <r>   -1.9177    0.0000 </r>
       <r>   -1.5681    0.0000 </r>
       <r>   -1.2486    0.0000 </r>
       <r>   -1.2470    0.0000 </r>
       <r>   -1.2043    0.0000 </r>
       <r>   -0.9847    0.0000 </r>
       <r>   -0.9590    0.0000 </r>
       <r>   -0.9259    0.0000 </r>
       <r>   -0.8828    0.0000 </r>
       <r>   -0.7928    0.0000 </r>
       <r>   -0.7769    0.0000 </r>
       <r>   -0.6925    0.0000 </r>
       <r>   -0.6857    0.0000 </r>
       <r>   -0.6518    0.0000 </r>
       <r>   -0.5638    0.0000 </r>
       <r>   -0.4175    0.0000 </r>
       <r>   -0.2111    0.0000 </r>
       <r>   -0.1080    0.0000 </r>
       <r>    0.1641    0.0000 </r>
       <r>    0.2563    0.0000 </r>
       <r>    0.3181    0.0000 </r>
       <r>    0.3635    0.0000 </r>
       <r>    0.5695    0.0000 </r>
       <r>    1.0280    0.0000 </r>
       <r>    1.0526    0.0000 </r>
       <r>    1.0842    0.0000 </r>
       <r>    1.8536    0.0000 </r>
       <r>    2.1339    0.0000 </r>
       <r>    2.2797    0.0000 </r>
       <r>    2.6089    0.0000 </r>
      </set>
      <set comment="kpoint 33">
       <r>  -17.4912    1.0000 </r>
       <r>  -17.3333    1.0000 </r>
       <r>  -16.8909    1.0000 </r>
       <r>  -16.6226    1.0000 </r>
       <r>  -16.5725    1.0000 </r>
       <r>  -16.4540    1.0000 </r>
       <r>  -16.2174    1.0000 </r>
       <r>  -16.1912    1.0000 </r>
       <r>  -16.1835    1.0000 </r>
       <r>  -16.1782    1.0000 </r>
       <r>  -15.8958    1.0000 </r>
       <r>  -15.7957    1.0000 </r>
       <r>  -15.6828    1.0000 </r>
       <r>  -15.6475    1.0000 </r>
       <r>  -15.5089    1.0000 </r>
       <r>  -15.4848    1.0000 </r>
       <r>  -15.4545    1.0000 </r>
       <r>  -15.2659    1.0000 </r>
       <r>   -9.7984    1.0000 </r>
       <r>   -9.4731    1.0000 </r>
       <r>   -9.3600    1.0000 </r>
       <r>   -8.9987    1.0000 </r>
       <r>   -8.7870    1.0000 </r>
       <r>   -8.7120    1.0000 </r>
       <r>   -8.6757    1.0000 </r>
       <r>   -8.5798    1.0000 </r>
       <r>   -8.4652    1.0000 </r>
       <r>   -8.3573    1.0000 </r>
       <r>   -8.1798    1.0000 </r>
       <r>   -8.1624    1.0000 </r>
       <r>   -8.0908    1.0000 </r>
       <r>   -8.0706    1.0000 </r>
       <r>   -7.9761    1.0000 </r>
       <r>   -7.9167    1.0000 </r>
       <r>   -7.7055    1.0000 </r>
       <r>   -7.6962    1.0000 </r>
       <r>   -7.6468    1.0000 </r>
       <r>   -7.5216    1.0000 </r>
       <r>   -7.4700    1.0000 </r>
       <r>   -7.2926    1.0000 </r>
       <r>   -7.0936    1.0000 </r>
       <r>   -7.0489    1.0000 </r>
       <r>   -6.9858    1.0000 </r>
       <r>   -6.8477    1.0000 </r>
       <r>   -6.7552    1.0000 </r>
       <r>   -6.7511    1.0000 </r>
       <r>   -6.7036    1.0000 </r>
       <r>   -6.5673    1.0000 </r>
       <r>   -6.5562    1.0000 </r>
       <r>   -6.5547    1.0000 </r>
       <r>   -6.3637    1.0000 </r>
       <r>   -6.3582    1.0000 </r>
       <r>   -6.2821    1.0000 </r>
       <r>   -6.1697    1.0000 </r>
       <r>   -6.0748    1.0000 </r>
       <r>   -6.0527    1.0000 </r>
       <r>   -5.9801    1.0000 </r>
       <r>   -5.9214    1.0000 </r>
       <r>   -5.8818    1.0000 </r>
       <r>   -5.7184    1.0000 </r>
       <r>   -5.7041    1.0000 </r>
       <r>   -5.5294    1.0000 </r>
       <r>   -5.5151    1.0000 </r>
       <r>   -5.4701    1.0000 </r>
       <r>   -5.2056    1.0000 </r>
       <r>   -5.0696    1.0000 </r>
       <r>   -5.0626    1.0000 </r>
       <r>   -4.8959    1.0000 </r>
       <r>   -4.7724    1.0000 </r>
       <r>   -4.6812    1.0000 </r>
       <r>   -4.6522    1.0000 </r>
       <r>   -4.4852    1.0000 </r>
       <r>   -4.2777    1.0000 </r>
       <r>   -4.1663    1.0000 </r>
       <r>   -4.0569    1.0000 </r>
       <r>   -4.0370    1.0000 </r>
       <r>   -3.8937    1.0000 </r>
       <r>   -3.8108    1.0000 </r>
       <r>   -3.4440    0.9232 </r>
       <r>   -3.4328    0.9112 </r>
       <r>   -3.0082    0.0491 </r>
       <r>   -2.9432    0.0173 </r>
       <r>   -2.6609    0.0000 </r>
       <r>   -2.5998    0.0000 </r>
       <r>   -2.5600    0.0000 </r>
       <r>   -2.4839    0.0000 </r>
       <r>   -2.2077    0.0000 </r>
       <r>   -2.1657    0.0000 </r>
       <r>   -2.0422    0.0000 </r>
       <r>   -1.9240    0.0000 </r>
       <r>   -1.9127    0.0000 </r>
       <r>   -1.5788    0.0000 </r>
       <r>   -1.2201    0.0000 </r>
       <r>   -1.2197    0.0000 </r>
       <r>   -1.1968    0.0000 </r>
       <r>   -1.0227    0.0000 </r>
       <r>   -1.0117    0.0000 </r>
       <r>   -1.0030    0.0000 </r>
       <r>   -0.8073    0.0000 </r>
       <r>   -0.8039    0.0000 </r>
       <r>   -0.7886    0.0000 </r>
       <r>   -0.7179    0.0000 </r>
       <r>   -0.7008    0.0000 </r>
       <r>   -0.6096    0.0000 </r>
       <r>   -0.5489    0.0000 </r>
       <r>   -0.3945    0.0000 </r>
       <r>   -0.2214    0.0000 </r>
       <r>   -0.1091    0.0000 </r>
       <r>    0.0532    0.0000 </r>
       <r>    0.2563    0.0000 </r>
       <r>    0.3727    0.0000 </r>
       <r>    0.4249    0.0000 </r>
       <r>    0.5657    0.0000 </r>
       <r>    1.0420    0.0000 </r>
       <r>    1.0627    0.0000 </r>
       <r>    1.0811    0.0000 </r>
       <r>    1.8499    0.0000 </r>
       <r>    2.1663    0.0000 </r>
       <r>    2.3141    0.0000 </r>
       <r>    2.4249    0.0000 </r>
      </set>
      <set comment="kpoint 34">
       <r>  -17.4273    1.0000 </r>
       <r>  -17.4272    1.0000 </r>
       <r>  -16.7146    1.0000 </r>
       <r>  -16.7141    1.0000 </r>
       <r>  -16.5670    1.0000 </r>
       <r>  -16.5658    1.0000 </r>
       <r>  -16.2166    1.0000 </r>
       <r>  -16.1922    1.0000 </r>
       <r>  -16.1728    1.0000 </r>
       <r>  -16.1711    1.0000 </r>
       <r>  -15.7944    1.0000 </r>
       <r>  -15.7548    1.0000 </r>
       <r>  -15.7536    1.0000 </r>
       <r>  -15.6843    1.0000 </r>
       <r>  -15.4977    1.0000 </r>
       <r>  -15.4973    1.0000 </r>
       <r>  -15.4542    1.0000 </r>
       <r>  -15.2658    1.0000 </r>
       <r>   -9.8282    1.0000 </r>
       <r>   -9.4014    1.0000 </r>
       <r>   -9.1925    1.0000 </r>
       <r>   -9.1920    1.0000 </r>
       <r>   -8.7687    1.0000 </r>
       <r>   -8.7686    1.0000 </r>
       <r>   -8.7484    1.0000 </r>
       <r>   -8.5596    1.0000 </r>
       <r>   -8.5582    1.0000 </r>
       <r>   -8.3750    1.0000 </r>
       <r>   -8.1565    1.0000 </r>
       <r>   -8.0818    1.0000 </r>
       <r>   -8.0799    1.0000 </r>
       <r>   -8.0797    1.0000 </r>
       <r>   -7.7899    1.0000 </r>
       <r>   -7.7861    1.0000 </r>
       <r>   -7.7268    1.0000 </r>
       <r>   -7.7108    1.0000 </r>
       <r>   -7.7095    1.0000 </r>
       <r>   -7.5225    1.0000 </r>
       <r>   -7.5211    1.0000 </r>
       <r>   -7.4297    1.0000 </r>
       <r>   -7.0398    1.0000 </r>
       <r>   -7.0113    1.0000 </r>
       <r>   -7.0103    1.0000 </r>
       <r>   -6.8547    1.0000 </r>
       <r>   -6.7473    1.0000 </r>
       <r>   -6.7462    1.0000 </r>
       <r>   -6.6417    1.0000 </r>
       <r>   -6.5728    1.0000 </r>
       <r>   -6.5716    1.0000 </r>
       <r>   -6.5648    1.0000 </r>
       <r>   -6.3617    1.0000 </r>
       <r>   -6.3124    1.0000 </r>
       <r>   -6.3113    1.0000 </r>
       <r>   -6.2619    1.0000 </r>
       <r>   -6.0814    1.0000 </r>
       <r>   -6.0801    1.0000 </r>
       <r>   -5.9826    1.0000 </r>
       <r>   -5.8639    1.0000 </r>
       <r>   -5.8638    1.0000 </r>
       <r>   -5.7302    1.0000 </r>
       <r>   -5.7282    1.0000 </r>
       <r>   -5.5624    1.0000 </r>
       <r>   -5.5620    1.0000 </r>
       <r>   -5.4477    1.0000 </r>
       <r>   -5.2043    1.0000 </r>
       <r>   -5.0624    1.0000 </r>
       <r>   -5.0012    1.0000 </r>
       <r>   -4.9990    1.0000 </r>
       <r>   -4.7528    1.0000 </r>
       <r>   -4.5610    1.0000 </r>
       <r>   -4.5587    1.0000 </r>
       <r>   -4.5116    1.0000 </r>
       <r>   -4.2523    1.0000 </r>
       <r>   -4.2519    1.0000 </r>
       <r>   -4.0579    1.0000 </r>
       <r>   -4.0527    1.0000 </r>
       <r>   -3.8621    1.0000 </r>
       <r>   -3.8610    1.0000 </r>
       <r>   -3.4489    0.9282 </r>
       <r>   -3.4378    0.9167 </r>
       <r>   -2.9844    0.0342 </r>
       <r>   -2.9839    0.0339 </r>
       <r>   -2.6383    0.0000 </r>
       <r>   -2.6371    0.0000 </r>
       <r>   -2.5658    0.0000 </r>
       <r>   -2.4643    0.0000 </r>
       <r>   -2.1647    0.0000 </r>
       <r>   -2.1627    0.0000 </r>
       <r>   -2.0457    0.0000 </r>
       <r>   -1.9114    0.0000 </r>
       <r>   -1.9104    0.0000 </r>
       <r>   -1.5890    0.0000 </r>
       <r>   -1.1828    0.0000 </r>
       <r>   -1.1752    0.0000 </r>
       <r>   -1.1732    0.0000 </r>
       <r>   -1.0859    0.0000 </r>
       <r>   -1.0853    0.0000 </r>
       <r>   -1.0326    0.0000 </r>
       <r>   -0.8205    0.0000 </r>
       <r>   -0.7906    0.0000 </r>
       <r>   -0.7873    0.0000 </r>
       <r>   -0.7103    0.0000 </r>
       <r>   -0.6651    0.0000 </r>
       <r>   -0.6641    0.0000 </r>
       <r>   -0.5385    0.0000 </r>
       <r>   -0.2902    0.0000 </r>
       <r>   -0.2862    0.0000 </r>
       <r>   -0.0665    0.0000 </r>
       <r>   -0.0662    0.0000 </r>
       <r>    0.2560    0.0000 </r>
       <r>    0.3819    0.0000 </r>
       <r>    0.5285    0.0000 </r>
       <r>    0.5287    0.0000 </r>
       <r>    1.0664    0.0000 </r>
       <r>    1.0670    0.0000 </r>
       <r>    1.0736    0.0000 </r>
       <r>    1.8457    0.0000 </r>
       <r>    2.2638    0.0000 </r>
       <r>    2.2640    0.0000 </r>
       <r>    2.4152    0.0000 </r>
      </set>
     </set>
    </set>
   </array>
  </eigenvalues>
  <separator name="orbital magnetization" >
   <v name="MAGDIPOLOUT">      0.00000000      0.00000000      0.00000000</v>
  </separator>
 </calculation>
 <structure name="finalpos" >
  <crystal>
   <varray name="basis" >
    <v>       8.30918000       4.82860287       0.00000000 </v>
    <v>      -8.28240479       4.78225198       0.00000000 </v>
    <v>       0.00000000       0.00000000      30.00000000 </v>
   </varray>
   <i name="volume">   2391.87108230 </i>
   <varray name="rec_basis" >
    <v>       0.05998131       0.10388191       0.00000000 </v>
    <v>      -0.06056266       0.10421774       0.00000000 </v>
    <v>       0.00000000       0.00000000       0.03333333 </v>
   </varray>
  </crystal>
  <varray name="positions" >
   <v>       0.63121209       0.64887992       0.00144447 </v>
   <v>       0.63122224       0.31555404       0.00145802 </v>
   <v>       0.63122915      -0.01771815       0.00144983 </v>
   <v>       0.32369567       0.66196307       0.00078803 </v>
   <v>       0.32369656      -0.00461380       0.00078906 </v>
   <v>       0.32369473       0.32809968       0.00079193 </v>
   <v>       0.03773935       0.01884478      -0.00213803 </v>
   <v>       1.03784050       0.35222806      -0.00215828 </v>
   <v>       0.03780999       0.68552441      -0.00215064 </v>
   <v>       0.11590036       0.22454359       0.94259809 </v>
   <v>       0.22600987       0.11295298       0.05602857 </v>
   <v>       0.11596817       0.55795837       0.94259301 </v>
   <v>       0.22616451       0.44635972       0.05595213 </v>
   <v>       0.11587326       0.89126063       0.94260354 </v>
   <v>       0.22610833       0.77974864       0.05598053 </v>
   <v>       0.44495216       0.22242560       0.94755792 </v>
   <v>       0.55621849       0.11143836       0.05305846 </v>
   <v>       0.44488487       0.55570663       0.94761337 </v>
   <v>       0.55622832       0.44471955       0.05304388 </v>
   <v>       0.44489961       0.88912233       0.94758612 </v>
   <v>       0.55623305       0.77809546       0.05304212 </v>
   <v>       0.77625980       0.22143734       0.95698708 </v>
   <v>       0.88728714       0.11031284       0.04369733 </v>
   <v>       0.77625030       0.55473641       0.95699284 </v>
   <v>       0.88732417       0.44361916       0.04369182 </v>
   <v>       0.77622819       0.88809185       0.95699612 </v>
   <v>       0.88728355       0.77692296       0.04370257 </v>
  </varray>
 </structure>
</modeling>
