 vasp.5.4.1 05Feb16 (build Jul 05 2020 17:13:04) complex                        
  
 executed on           IFC91_ompi date 2024.08.22  02:59:42
 running on   40 total cores
 distrk:  each k-point on   40 cores,    1 groups
 distr:  one band on NCORES_PER_BAND=   1 cores,   40 groups


--------------------------------------------------------------------------------------------------------


 INCAR:
 POTCAR:   PAW_PBE V 08Apr2002                    
 POTCAR:   PAW_PBE Mo 08Apr2002                   
 POTCAR:   PAW_PBE W 08Apr2002                    
 POTCAR:    PAW_PBE S 17Jan2003                   

 ----------------------------------------------------------------------------- 
|                                                                             |
|           W    W    AA    RRRRR   N    N  II  N    N   GGGG   !!!           |
|           W    W   A  A   R    R  NN   N  II  NN   N  G    G  !!!           |
|           W    W  A    A  R    R  N N  N  II  N N  N  G       !!!           |
|           W WW W  AAAAAA  RRRRR   N  N N  II  N  N N  G  GGG   !            |
|           WW  WW  A    A  R   R   N   NN  II  N   NN  G    G                |
|           W    W  A    A  R    R  N    N  II  N    N   GGGG   !!!           |
|                                                                             |
|      For optimal performance we recommend to set                            |
|        NCORE= 4 - approx SQRT( number of cores)                             |
|      NCORE specifies how many cores store one orbital (NPAR=cpu/NCORE).     |
|      This setting can  greatly improve the performance of VASP for DFT.     |
|      The default, NPAR=number of cores might be grossly inefficient         |
|      on modern multi-core architectures or massively parallel machines.     |
|      Do your own testing !!!!                                               |
|      Unfortunately you need to use the default for GW and RPA calculations. |
|      (for HF NCORE is supported but not extensively tested yet)             |
|                                                                             |
 ----------------------------------------------------------------------------- 

 POTCAR:   PAW_PBE V 08Apr2002                    
   VRHFIN =V: p6 d4 s1                                                          
   LEXCH  = PE                                                                  
   EATOM  =   170.8679 eV,   12.5584 Ry                                         
                                                                                
   TITEL  = PAW_PBE V 08Apr2002                                                 
   LULTRA =        F    use ultrasoft PP ?                                      
   IUNSCR =        1    unscreen: 0-lin 1-nonlin 2-no                           
   RPACOR =    2.000    partial core radius                                     
   POMASS =   50.941; ZVAL   =    5.000    mass and valenz                      
   RCORE  =    2.700    outmost cutoff radius                                   
   RWIGS  =    2.500; RWIGS  =    1.323    wigner-seitz radius (au A)           
   ENMAX  =  192.543; ENMIN  =  144.408 eV                                      
   RCLOC  =    1.779    cutoff for local pot                                    
   LCOR   =        T    correct aug charges                                     
   LPAW   =        T    paw PP                                                  
   EAUG   =  358.662                                                            
   DEXC   =    -.034                                                            
   RMAX   =    3.323    core radius for proj-oper                               
   RAUG   =    1.300    factor for augmentation sphere                          
   RDEP   =    2.762    radius for radial grids                                 
   QCUT   =   -3.762; QGAM   =    7.524    optimization parameters              
                                                                                
   Description                                                                  
     l     E      TYP  RCUT    TYP  RCUT                                        
     2   .000     23  2.700                                                     
     2   .000     23  2.700                                                     
     0   .000     23  2.700                                                     
     0  2.000     23  2.700                                                     
     1   .000     23  2.700                                                     
     1  2.000     23  2.700                                                     
     3   .000      7   .000                                                     
  local pseudopotential read in
  partial core-charges read in
  atomic valenz-charges read in
  non local Contribution for L=           2  read in
    real space projection operators read in
  non local Contribution for L=           2  read in
    real space projection operators read in
  non local Contribution for L=           0  read in
    real space projection operators read in
  non local Contribution for L=           0  read in
    real space projection operators read in
  non local Contribution for L=           1  read in
    real space projection operators read in
  non local Contribution for L=           1  read in
    real space projection operators read in
    PAW grid and wavefunctions read in
 
   number of l-projection  operators is LMAX  =           6
   number of lm-projection operators is LMMAX =          18
 
 POTCAR:   PAW_PBE Mo 08Apr2002                   
   VRHFIN =Mo: 4p5s4d                                                           
   LEXCH  = PE                                                                  
   EATOM  =   217.5180 eV,   15.9871 Ry                                         
                                                                                
   TITEL  = PAW_PBE Mo 08Apr2002                                                
   LULTRA =        F    use ultrasoft PP ?                                      
   IUNSCR =        1    unscreen: 0-lin 1-nonlin 2-no                           
   RPACOR =    2.200    partial core radius                                     
   POMASS =   95.940; ZVAL   =    6.000    mass and valenz                      
   RCORE  =    2.750    outmost cutoff radius                                   
   RWIGS  =    2.750; RWIGS  =    1.455    wigner-seitz radius (au A)           
   ENMAX  =  224.584; ENMIN  =  168.438 eV                                      
   RCLOC  =    2.111    cutoff for local pot                                    
   LCOR   =        T    correct aug charges                                     
   LPAW   =        T    paw PP                                                  
   EAUG   =  345.278                                                            
   DEXC   =    -.088                                                            
   RMAX   =    3.077    core radius for proj-oper                               
   RAUG   =    1.300    factor for augmentation sphere                          
   RDEP   =    2.815    radius for radial grids                                 
   QCUT   =   -4.063; QGAM   =    8.126    optimization parameters              
                                                                                
   Description                                                                  
     l     E      TYP  RCUT    TYP  RCUT                                        
     2   .000     23  2.500                                                     
     2   .000     23  2.500                                                     
     0   .000     23  2.600                                                     
     0  1.000     23  2.600                                                     
     1   .400     23  2.750                                                     
     1  2.000     23  2.750                                                     
     3   .000      7   .000                                                     
  local pseudopotential read in
  partial core-charges read in
  atomic valenz-charges read in
  non local Contribution for L=           2  read in
    real space projection operators read in
  non local Contribution for L=           2  read in
    real space projection operators read in
  non local Contribution for L=           0  read in
    real space projection operators read in
  non local Contribution for L=           0  read in
    real space projection operators read in
  non local Contribution for L=           1  read in
    real space projection operators read in
  non local Contribution for L=           1  read in
    real space projection operators read in
    PAW grid and wavefunctions read in
 
   number of l-projection  operators is LMAX  =           6
   number of lm-projection operators is LMMAX =          18
 
 POTCAR:   PAW_PBE W 08Apr2002                    
   VRHFIN =W : 6s5d                                                             
   LEXCH  = PE                                                                  
   EATOM  =   204.6100 eV,   15.0384 Ry                                         
                                                                                
   TITEL  = PAW_PBE W 08Apr2002                                                 
   LULTRA =        F    use ultrasoft PP ?                                      
   IUNSCR =        1    unscreen: 0-lin 1-nonlin 2-no                           
   RPACOR =    2.330    partial core radius                                     
   POMASS =  183.850; ZVAL   =    6.000    mass and valenz                      
   RCORE  =    2.750    outmost cutoff radius                                   
   RWIGS  =    2.750; RWIGS  =    1.455    wigner-seitz radius (au A)           
   ENMAX  =  223.057; ENMIN  =  167.293 eV                                      
   RCLOC  =    2.147    cutoff for local pot                                    
   LCOR   =        T    correct aug charges                                     
   LPAW   =        T    paw PP                                                  
   EAUG   =  373.438                                                            
   DEXC   =    -.060                                                            
   RMAX   =    3.087    core radius for proj-oper                               
   RAUG   =    1.300    factor for augmentation sphere                          
   RDEP   =    2.886    radius for radial grids                                 
   QCUT   =   -4.049; QGAM   =    8.098    optimization parameters              
                                                                                
   Description                                                                  
     l     E      TYP  RCUT    TYP  RCUT                                        
     2   .000     23  2.500                                                     
     2   .000     23  2.500                                                     
     0   .000     23  2.500                                                     
     0   .000     23  2.500                                                     
     1   .200     23  2.750                                                     
     1  2.000     23  2.750                                                     
     3   .000      7   .000                                                     
  local pseudopotential read in
  partial core-charges read in
  atomic valenz-charges read in
  non local Contribution for L=           2  read in
    real space projection operators read in
  non local Contribution for L=           2  read in
    real space projection operators read in
  non local Contribution for L=           0  read in
    real space projection operators read in
  non local Contribution for L=           0  read in
    real space projection operators read in
  non local Contribution for L=           1  read in
    real space projection operators read in
  non local Contribution for L=           1  read in
    real space projection operators read in
    PAW grid and wavefunctions read in
 
   number of l-projection  operators is LMAX  =           6
   number of lm-projection operators is LMMAX =          18
 
 POTCAR:    PAW_PBE S 17Jan2003                   
   VRHFIN =S : s2p4                                                             
   LEXCH  = PE                                                                  
   EATOM  =   276.8230 eV,   20.3459 Ry                                         
                                                                                
   TITEL  = PAW_PBE S 17Jan2003                                                 
   LULTRA =        F    use ultrasoft PP ?                                      
   IUNSCR =        1    unscreen: 0-lin 1-nonlin 2-no                           
   RPACOR =    1.500    partial core radius                                     
   POMASS =   32.066; ZVAL   =    6.000    mass and valenz                      
   RCORE  =    1.900    outmost cutoff radius                                   
   RWIGS  =    2.200; RWIGS  =    1.164    wigner-seitz radius (au A)           
   ENMAX  =  280.000; ENMIN  =  194.016 eV                                      
   ICORE  =        2    local potential                                         
   LCOR   =        T    correct aug charges                                     
   LPAW   =        T    paw PP                                                  
   EAUG   =  335.092                                                            
   DEXC   =     .000                                                            
   RMAX   =    2.867    core radius for proj-oper                               
   RAUG   =    1.300    factor for augmentation sphere                          
   RDEP   =    1.954    radius for radial grids                                 
   QCUT   =   -4.360; QGAM   =    8.721    optimization parameters              
                                                                                
   Description                                                                  
     l     E      TYP  RCUT    TYP  RCUT                                        
     0   .000     23  1.900                                                     
     0   .000     23  1.900                                                     
     1   .000     23  1.900                                                     
     1   .000     23  1.900                                                     
     2   .000     23  1.900                                                     
  local pseudopotential read in
  partial core-charges read in
  atomic valenz-charges read in
  non local Contribution for L=           0  read in
    real space projection operators read in
  non local Contribution for L=           0  read in
    real space projection operators read in
  non local Contribution for L=           1  read in
    real space projection operators read in
  non local Contribution for L=           1  read in
    real space projection operators read in
    PAW grid and wavefunctions read in
 
   number of l-projection  operators is LMAX  =           4
   number of lm-projection operators is LMMAX =           8
 

 ----------------------------------------------------------------------------- 
|                                                                             |
|  ADVICE TO THIS USER RUNNING 'VASP/VAMP'   (HEAR YOUR MASTER'S VOICE ...):  |
|                                                                             |
|      You have a (more or less) 'large supercell' and for larger cells       |
|      it might be more efficient to use real space projection operators      |
|      So try LREAL= Auto  in the INCAR   file.                               |
|      Mind: If you want to do a very accurate calculations keep the          |
|      reciprocal projection scheme          (i.e. LREAL=.FALSE.)             |
|                                                                             |
 ----------------------------------------------------------------------------- 

 PAW_PBE V 08Apr2002                    :
 energy of atom  1       EATOM= -170.8679
 kinetic energy error for atom=    0.0047 (will be added to EATOM!!)
 PAW_PBE Mo 08Apr2002                   :
 energy of atom  2       EATOM= -217.5180
 kinetic energy error for atom=    0.0215 (will be added to EATOM!!)
 PAW_PBE W 08Apr2002                    :
 energy of atom  3       EATOM= -204.6100
 kinetic energy error for atom=    0.0205 (will be added to EATOM!!)
  PAW_PBE S 17Jan2003                   :
 energy of atom  4       EATOM= -276.8230
 kinetic energy error for atom=    0.0122 (will be added to EATOM!!)
 
 
 POSCAR: crystal structure from VMoWS2 with Hexag
  positions in cartesian coordinates
  No initial velocities read in
 exchange correlation table for  LEXCH =        8
   RHO(1)=    0.500       N(1)  =     2000
   RHO(2)=  100.500       N(2)  =     4000
 


--------------------------------------------------------------------------------------------------------


 ion  position               nearest neighbor table
   1  0.000  0.667  0.000-  27 2.34  12 2.34  14 2.36  15 2.36  24 2.36  25 2.36
   2  0.000  0.000  0.000-  23 2.34  14 2.34  11 2.36  10 2.36  27 2.36  26 2.36
   3  1.000  0.333  0.000-  25 2.34  10 2.34  13 2.36  12 2.36  22 2.36  23 2.36
   4  0.667  0.667  0.000-  21 2.34  24 2.34  27 2.36  26 2.36  19 2.36  18 2.36   6 3.34   5 3.34
                             9 3.34   8 3.36
   5  0.667  0.333  0.000-  19 2.34  22 2.34  25 2.36  24 2.36  17 2.36  16 2.36   4 3.34   6 3.34
                             8 3.34   7 3.36
   6  0.667  0.000  0.000-  17 2.34  26 2.34  23 2.36  22 2.36  21 2.36  20 2.36   4 3.34   5 3.34
                             7 3.34   9 3.36
   7  0.333  0.000  0.000-  11 2.34  20 2.34  17 2.36  16 2.36  15 2.36  14 2.36   9 3.34   8 3.34
                             6 3.34   5 3.36
   8  0.333  0.333  0.000-  13 2.34  16 2.34  19 2.36  18 2.36  11 2.36  10 2.36   9 3.34   7 3.34
                             5 3.34   4 3.36
   9  0.333  0.667  0.000-  15 2.34  18 2.34  20 2.36  21 2.36  13 2.36  12 2.36   7 3.34   8 3.34
                             4 3.34   6 3.36
  10  0.111  0.222  0.955-   3 2.34   2 2.36   8 2.36
  11  0.222  0.111  0.045-   7 2.34   2 2.36   8 2.36
  12  0.111  0.556  0.955-   1 2.34   3 2.36   9 2.36
  13  0.222  0.444  0.045-   8 2.34   3 2.36   9 2.36
  14  0.111  0.889  0.955-   2 2.34   1 2.36   7 2.36
  15  0.222  0.777  0.045-   9 2.34   1 2.36   7 2.36
  16  0.444  0.222  0.955-   8 2.34   7 2.36   5 2.36
  17  0.556  0.111  0.045-   6 2.34   7 2.36   5 2.36
  18  0.444  0.556  0.955-   9 2.34   8 2.36   4 2.36
  19  0.556  0.444  0.045-   5 2.34   8 2.36   4 2.36
  20  0.444  0.889  0.955-   7 2.34   9 2.36   6 2.36
  21  0.556  0.777  0.045-   4 2.34   9 2.36   6 2.36
  22  0.777  0.222  0.955-   5 2.34   6 2.36   3 2.36
  23  0.889  0.111  0.045-   2 2.34   6 2.36   3 2.36
  24  0.777  0.556  0.955-   4 2.34   5 2.36   1 2.36
  25  0.889  0.444  0.045-   3 2.34   5 2.36   1 2.36
  26  0.777  0.889  0.955-   6 2.34   4 2.36   2 2.36
  27  0.889  0.777  0.045-   1 2.34   4 2.36   2 2.36
 

IMPORTANT INFORMATION: All symmetrisations will be switched off!
NOSYMM: (Re-)initialisation of all symmetry stuff for point group C_1.

 
 
 KPOINTS: K-POINTS 	#supercell of CrS2 in hexagona

Automatic generation of k-mesh.
Space group operators:
 irot       det(A)        alpha          n_x          n_y          n_z        tau_x        tau_y        tau_z
    1     1.000000     0.000000     1.000000     0.000000     0.000000     0.000000     0.000000     0.000000
 
 Subroutine IBZKPT returns following result:
 ===========================================
 
 Found     34 irreducible k-points:
 
 Following reciprocal coordinates:
            Coordinates               Weight
  0.000000  0.000000  0.000000      1.000000
  0.125000  0.000000  0.000000      2.000000
  0.250000  0.000000  0.000000      2.000000
  0.375000  0.000000  0.000000      2.000000
  0.500000  0.000000  0.000000      1.000000
  0.000000  0.125000  0.000000      2.000000
  0.125000  0.125000  0.000000      2.000000
  0.250000  0.125000  0.000000      2.000000
  0.375000  0.125000  0.000000      2.000000
  0.500000  0.125000  0.000000      2.000000
 -0.375000  0.125000  0.000000      2.000000
 -0.250000  0.125000  0.000000      2.000000
 -0.125000  0.125000  0.000000      2.000000
  0.000000  0.250000  0.000000      2.000000
  0.125000  0.250000  0.000000      2.000000
  0.250000  0.250000  0.000000      2.000000
  0.375000  0.250000  0.000000      2.000000
  0.500000  0.250000  0.000000      2.000000
 -0.375000  0.250000  0.000000      2.000000
 -0.250000  0.250000  0.000000      2.000000
 -0.125000  0.250000  0.000000      2.000000
 -0.000000  0.375000  0.000000      2.000000
  0.125000  0.375000  0.000000      2.000000
  0.250000  0.375000  0.000000      2.000000
  0.375000  0.375000  0.000000      2.000000
  0.500000  0.375000  0.000000      2.000000
 -0.375000  0.375000  0.000000      2.000000
 -0.250000  0.375000  0.000000      2.000000
 -0.125000  0.375000  0.000000      2.000000
  0.000000  0.500000  0.000000      1.000000
  0.125000  0.500000  0.000000      2.000000
  0.250000  0.500000  0.000000      2.000000
  0.375000  0.500000  0.000000      2.000000
  0.500000  0.500000  0.000000      1.000000
 
 Following cartesian coordinates:
            Coordinates               Weight
  0.000000  0.000000  0.000000      1.000000
  0.007209  0.012401  0.000000      2.000000
  0.014418  0.024802  0.000000      2.000000
  0.021626  0.037202  0.000000      2.000000
  0.028835  0.049603  0.000000      1.000000
 -0.007209  0.012401  0.000000      2.000000
  0.000000  0.024802  0.000000      2.000000
  0.007209  0.037202  0.000000      2.000000
  0.014418  0.049603  0.000000      2.000000
  0.021626  0.062004  0.000000      2.000000
 -0.028835 -0.024802  0.000000      2.000000
 -0.021626 -0.012401  0.000000      2.000000
 -0.014418  0.000000  0.000000      2.000000
 -0.014418  0.024802  0.000000      2.000000
 -0.007209  0.037202  0.000000      2.000000
  0.000000  0.049603  0.000000      2.000000
  0.007209  0.062004  0.000000      2.000000
  0.014418  0.074405  0.000000      2.000000
 -0.036044 -0.012401  0.000000      2.000000
 -0.028835  0.000000  0.000000      2.000000
 -0.021626  0.012401  0.000000      2.000000
 -0.021626  0.037202  0.000000      2.000000
 -0.014418  0.049603  0.000000      2.000000
 -0.007209  0.062004  0.000000      2.000000
  0.000000  0.074405  0.000000      2.000000
  0.007209  0.086806  0.000000      2.000000
 -0.043253  0.000000  0.000000      2.000000
 -0.036044  0.012401  0.000000      2.000000
 -0.028835  0.024802  0.000000      2.000000
 -0.028835  0.049603  0.000000      1.000000
 -0.021626  0.062004  0.000000      2.000000
 -0.014418  0.074405  0.000000      2.000000
 -0.007209  0.086806  0.000000      2.000000
  0.000000  0.099206  0.000000      1.000000
 


--------------------------------------------------------------------------------------------------------




 Dimension of arrays:
   k-points           NKPTS =     34   k-points in BZ     NKDIM =     34   number of bands    NBANDS=    120
   number of dos      NEDOS =    301   number of ions     NIONS =     27
   non local maximal  LDIM  =      6   non local SUM 2l+1 LMDIM =     18
   total plane-waves  NPLWV = 222264
   max r-space proj   IRMAX =      1   max aug-charges    IRDMAX=   5642
   dimension x,y,z NGX =    42 NGY =   42 NGZ =  126
   dimension x,y,z NGXF=    84 NGYF=   84 NGZF=  252
   support grid    NGXF=    84 NGYF=   84 NGZF=  252
   ions per type =               3   3   3  18
 NGX,Y,Z   is equivalent  to a cutoff of   6.96,  6.96,  6.98 a.u.
 NGXF,Y,Z  is equivalent  to a cutoff of  13.92, 13.92, 13.96 a.u.


 I would recommend the setting:
   dimension x,y,z NGX =    41 NGY =   41 NGZ =  123
 SYSTEM =  unknown system                          
 POSCAR =  crystal structure from VMoWS2 with Hexag

 Startparameter for this run:
   NWRITE =      2    write-flag & timer
   PREC   = normal    normal or accurate (medium, high low for compatibility)
   ISTART =      0    job   : 0-new  1-cont  2-samecut
   ICHARG =      2    charge: 1-file 2-atom 10-const
   ISPIN  =      1    spin polarized calculation?
   LNONCOLLINEAR =      F non collinear calculations
   LSORBIT =      F    spin-orbit coupling
   INIWAV =      1    electr: 0-lowe 1-rand  2-diag
   LASPH  =      F    aspherical Exc in radial PAW
   METAGGA=      F    non-selfconsistent MetaGGA calc.

 Electronic Relaxation 1
   ENCUT  =  280.0 eV  20.58 Ry    4.54 a.u.  13.68 13.68 40.93*2*pi/ulx,y,z
   ENINI  =  280.0     initial cutoff
   ENAUG  =  373.4 eV  augmentation charge cutoff
   NELM   =     60;   NELMIN=  2; NELMDL= -5     # of ELM steps 
   EDIFF  = 0.1E-03   stopping-criterion for ELM
   LREAL  =      F    real-space projection
   NLSPLINE    = F    spline interpolate recip. space projectors
   LCOMPAT=      F    compatible to vasp.4.4
   GGA_COMPAT  = T    GGA compatible to vasp.4.4-vasp.4.6
   LMAXPAW     = -100 max onsite density
   LMAXMIX     =    2 max onsite mixed and CHGCAR
   VOSKOWN=      0    Vosko Wilk Nusair interpolation
   ROPT   =    0.00000   0.00000   0.00000   0.00000
 Ionic relaxation
   EDIFFG = 0.1E-02   stopping-criterion for IOM
   NSW    =    100    number of steps for IOM
   NBLOCK =      1;   KBLOCK =    100    inner block; outer block 
   IBRION =      1    ionic relax: 0-MD 1-quasi-New 2-CG
   NFREE  =      0    steps in history (QN), initial steepest desc. (CG)
   ISIF   =      3    stress and relaxation
   IWAVPR =     11    prediction:  0-non 1-charg 2-wave 3-comb
   ISYM   =      0    0-nonsym 1-usesym 2-fastsym
   LCORR  =      T    Harris-Foulkes like correction to forces

   POTIM  = 0.5000    time-step for ionic-motion
   TEIN   =    0.0    initial temperature
   TEBEG  =    0.0;   TEEND  =   0.0 temperature during run
   SMASS  =  -3.00    Nose mass-parameter (am)
   estimated Nose-frequenzy (Omega)   =  0.10E-29 period in steps =****** mass=  -0.230E-26a.u.
   SCALEE = 1.0000    scale energy and forces
   NPACO  =    256;   APACO  = 16.0  distance and # of slots for P.C.
   PSTRESS=    0.0 pullay stress

  Mass of Ions in am
   POMASS =  50.94 95.94183.85 32.07
  Ionic Valenz
   ZVAL   =   5.00  6.00  6.00  6.00
  Atomic Wigner-Seitz radii
   RWIGS  =  -1.00 -1.00 -1.00 -1.00
  virtual crystal weights 
   VCA    =   1.00  1.00  1.00  1.00
   NELECT =     159.0000    total number of electrons
   NUPDOWN=      -1.0000    fix difference up-down

 DOS related values:
   EMIN   =  10.00;   EMAX   =-10.00  energy-range for DOS
   EFERMI =   0.00
   ISMEAR =     0;   SIGMA  =   0.20  broadening in eV -4-tet -1-fermi 0-gaus

 Electronic relaxation 2 (details)
   IALGO  =     38    algorithm
   LDIAG  =      T    sub-space diagonalisation (order eigenvalues)
   LSUBROT=      F    optimize rotation matrix (better conditioning)
   TURBO    =      0    0=normal 1=particle mesh
   IRESTART =      0    0=no restart 2=restart with 2 vectors
   NREBOOT  =      0    no. of reboots
   NMIN     =      0    reboot dimension
   EREF     =   0.00    reference energy to select bands
   IMIX   =      4    mixing-type and parameters
     AMIX     =   0.40;   BMIX     =  1.00
     AMIX_MAG =   1.60;   BMIX_MAG =  1.00
     AMIN     =   0.10
     WC   =   100.;   INIMIX=   1;  MIXPRE=   1;  MAXMIX= -45

 Intra band minimization:
   WEIMIN = 0.0010     energy-eigenvalue tresh-hold
   EBREAK =  0.21E-06  absolut break condition
   DEPER  =   0.30     relativ break condition  

   TIME   =   0.40     timestep for ELM

  volume/ion in A,a.u.               =      97.10       655.29
  Fermi-wavevector in a.u.,A,eV,Ry     =   0.643191  1.215456  5.628665  0.413695
  Thomas-Fermi vector in A             =   1.710110
 
 Write flags
   LWAVE  =      F    write WAVECAR
   LCHARG =      F    write CHGCAR
   LVTOT  =      F    write LOCPOT, total local potential
   LVHAR  =      F    write LOCPOT, Hartree potential only
   LELF   =      F    write electronic localiz. function (ELF)
   LORBIT =      0    0 simple, 1 ext, 2 COOP (PROOUT)


 Dipole corrections
   LMONO  =      F    monopole corrections only (constant potential shift)
   LDIPOL =      F    correct potential (dipole corrections)
   IDIPOL =      0    1-x, 2-y, 3-z, 4-all directions 
   EPSILON=  1.0000000 bulk dielectric constant

 Exchange correlation treatment:
   GGA     =    --    GGA type
   LEXCH   =     8    internal setting for exchange type
   VOSKOWN=      0    Vosko Wilk Nusair interpolation
   LHFCALC =     F    Hartree Fock is set to
   LHFONE  =     F    Hartree Fock one center treatment
   AEXX    =    0.0000 exact exchange contribution

 Linear response parameters
   LEPSILON=     F    determine dielectric tensor
   LRPA    =     F    only Hartree local field effects (RPA)
   LNABLA  =     F    use nabla operator in PAW spheres
   LVEL    =     F    velocity operator in full k-point grid
   LINTERFAST=   F  fast interpolation
   KINTER  =     0    interpolate to denser k-point grid
   CSHIFT  =0.1000    complex shift for real part using Kramers Kronig
   OMEGAMAX=  -1.0    maximum frequency
   DEG_THRESHOLD= 0.2000000E-02 threshold for treating states as degnerate
   RTIME   =    0.100 relaxation time in fs

 Orbital magnetization related:
   ORBITALMAG=     F  switch on orbital magnetization
   LCHIMAG   =     F  perturbation theory with respect to B field
   DQ        =  0.001000  dq finite difference perturbation B field



--------------------------------------------------------------------------------------------------------


 quasi-Newton-method for relaxation of ions
 charge density and potential will be updated during run
 non-spin polarized calculation
 Variant of blocked Davidson
 Davidson routine will perform the subspace rotation
 perform sub-space diagonalisation
    after iterative eigenvector-optimisation
 modified Broyden-mixing scheme, WC =      100.0
 initial mixing is a Kerker type mixing with AMIX =  0.4000 and BMIX =      1.0000
 Hartree-type preconditioning will be used
 using additional bands           40
 reciprocal scheme for non local part
 use partial core corrections
 calculate Harris-corrections to forces 
   (improved forces if not selfconsistent)
 use gradient corrections 
 use of overlap-Matrix (Vanderbilt PP)
 Gauss-broadening in eV      SIGMA  =   0.20


--------------------------------------------------------------------------------------------------------


  energy-cutoff  :      280.00
  volume of cell :     2621.81
      direct lattice vectors                 reciprocal lattice vectors
     8.669999960  5.039999894  0.000000000     0.057670129  0.099206348  0.000000000
    -8.669999821  5.040000133  0.000000000    -0.057670126  0.099206350  0.000000000
     0.000000000  0.000000000 30.000000000     0.000000000  0.000000000  0.033333333

  length of vectors
    10.028484344 10.028484344 30.000000000     0.114750788  0.114750788  0.033333333


 
 k-points in units of 2pi/SCALE and weight: K-POINTS 	#supercell of CrS2 in hexagona
   0.00000000  0.00000000  0.00000000       0.016
   0.00720877  0.01240079  0.00000000       0.031
   0.01441753  0.02480159  0.00000000       0.031
   0.02162630  0.03720238  0.00000000       0.031
   0.02883506  0.04960317  0.00000000       0.016
  -0.00720877  0.01240079  0.00000000       0.031
   0.00000000  0.02480159  0.00000000       0.031
   0.00720877  0.03720238  0.00000000       0.031
   0.01441753  0.04960317  0.00000000       0.031
   0.02162630  0.06200397  0.00000000       0.031
  -0.02883506 -0.02480159  0.00000000       0.031
  -0.02162630 -0.01240079  0.00000000       0.031
  -0.01441753  0.00000000  0.00000000       0.031
  -0.01441753  0.02480159  0.00000000       0.031
  -0.00720877  0.03720238  0.00000000       0.031
   0.00000000  0.04960317  0.00000000       0.031
   0.00720877  0.06200397  0.00000000       0.031
   0.01441753  0.07440476  0.00000000       0.031
  -0.03604383 -0.01240079  0.00000000       0.031
  -0.02883506  0.00000000  0.00000000       0.031
  -0.02162630  0.01240079  0.00000000       0.031
  -0.02162630  0.03720238  0.00000000       0.031
  -0.01441753  0.04960317  0.00000000       0.031
  -0.00720877  0.06200397  0.00000000       0.031
   0.00000000  0.07440476  0.00000000       0.031
   0.00720877  0.08680556  0.00000000       0.031
  -0.04325260  0.00000000  0.00000000       0.031
  -0.03604383  0.01240079  0.00000000       0.031
  -0.02883506  0.02480159  0.00000000       0.031
  -0.02883506  0.04960317  0.00000000       0.016
  -0.02162630  0.06200397  0.00000000       0.031
  -0.01441753  0.07440476  0.00000000       0.031
  -0.00720876  0.08680556  0.00000000       0.031
   0.00000000  0.09920635  0.00000000       0.016
 
 k-points in reciprocal lattice and weights: K-POINTS 	#supercell of CrS2 in hexagona
   0.00000000  0.00000000  0.00000000       0.016
   0.12500000  0.00000000  0.00000000       0.031
   0.25000000  0.00000000  0.00000000       0.031
   0.37500000  0.00000000  0.00000000       0.031
   0.50000000  0.00000000  0.00000000       0.016
   0.00000000  0.12500000  0.00000000       0.031
   0.12500000  0.12500000  0.00000000       0.031
   0.25000000  0.12500000  0.00000000       0.031
   0.37500000  0.12500000  0.00000000       0.031
   0.50000000  0.12500000  0.00000000       0.031
  -0.37500000  0.12500000  0.00000000       0.031
  -0.25000000  0.12500000  0.00000000       0.031
  -0.12500000  0.12500000  0.00000000       0.031
   0.00000000  0.25000000  0.00000000       0.031
   0.12500000  0.25000000  0.00000000       0.031
   0.25000000  0.25000000  0.00000000       0.031
   0.37500000  0.25000000  0.00000000       0.031
   0.50000000  0.25000000  0.00000000       0.031
  -0.37500000  0.25000000  0.00000000       0.031
  -0.25000000  0.25000000  0.00000000       0.031
  -0.12500000  0.25000000  0.00000000       0.031
  -0.00000000  0.37500000  0.00000000       0.031
   0.12500000  0.37500000  0.00000000       0.031
   0.25000000  0.37500000  0.00000000       0.031
   0.37500000  0.37500000  0.00000000       0.031
   0.50000000  0.37500000  0.00000000       0.031
  -0.37500000  0.37500000  0.00000000       0.031
  -0.25000000  0.37500000  0.00000000       0.031
  -0.12500000  0.37500000  0.00000000       0.031
   0.00000000  0.50000000  0.00000000       0.016
   0.12500000  0.50000000  0.00000000       0.031
   0.25000000  0.50000000  0.00000000       0.031
   0.37500000  0.50000000  0.00000000       0.031
   0.50000000  0.50000000  0.00000000       0.016
 
 position of ions in fractional coordinates (direct lattice) 
   0.00000000  0.66666669  0.00000000
   0.00000000  0.00000000  0.00000000
   1.00000000  0.33333334  0.00000000
   0.66666669  0.66666669  0.00000000
   0.66666669  0.33333334  0.00000000
   0.66666669  0.00000000  0.00000000
   0.33333334  0.00000000  0.00000000
   0.33333334  0.33333334  0.00000000
   0.33333334  0.66666669  0.00000000
   0.11068511  0.22244981  0.95539999
   0.22244981  0.11068511  0.04460000
   0.11068511  0.55578315  0.95539999
   0.22244981  0.44401845  0.04460000
   0.11068511  0.88911647  0.95539999
   0.22244981  0.77735180  0.04460000
   0.44401845  0.22244981  0.95539999
   0.55578315  0.11068511  0.04460000
   0.44401845  0.55578315  0.95539999
   0.55578315  0.44401845  0.04460000
   0.44401845  0.88911647  0.95539999
   0.55578315  0.77735180  0.04460000
   0.77735180  0.22244981  0.95539999
   0.88911647  0.11068511  0.04460000
   0.77735180  0.55578315  0.95539999
   0.88911647  0.44401845  0.04460000
   0.77735180  0.88911647  0.95539999
   0.88911647  0.77735180  0.04460000
 
 position of ions in cartesian coordinates  (Angst):
  -5.78000005  3.36000019  0.00000000
   0.00000000  0.00000000  0.00000000
   5.77999993  6.71999999  0.00000000
   0.00000009  6.72000022  0.00000000
   2.89000012  5.04000012  0.00000000
   5.78000015  3.36000003  0.00000000
   2.89000007  1.68000002  0.00000000
   0.00000005  3.36000011  0.00000000
  -2.88999998  5.04000020  0.00000000
  -0.96899991  1.67900001 28.66199970
   0.96899995  1.67899998  1.33799996
  -3.85899993  3.35900011 28.66199970
  -1.92100007  3.35900008  1.33799996
  -6.74899970  5.03900005 28.66199970
  -4.81100010  5.03900017  1.33799996
   1.92100017  3.35900003 28.66199970
   3.85900003  3.35900000  1.33799996
  -0.96899986  5.03900012 28.66199970
   0.96900000  5.03900009  1.33799996
  -3.85899963  6.71900006 28.66199970
  -1.92100003  6.71900019  1.33799996
   4.81100024  5.03900004 28.66199970
   6.74899984  5.03899987  1.33799996
   1.92100021  6.71900014 28.66199970
   3.85899981  6.71899996  1.33799996
  -0.96899956  8.39900008 28.66199970
   0.96899979  8.39900005  1.33799996
 


--------------------------------------------------------------------------------------------------------


 k-point  1 :   0.0000 0.0000 0.0000  plane waves:   27959
 k-point  2 :   0.1250 0.0000 0.0000  plane waves:   27889
 k-point  3 :   0.2500 0.0000 0.0000  plane waves:   27875
 k-point  4 :   0.3750 0.0000 0.0000  plane waves:   27893
 k-point  5 :   0.5000 0.0000 0.0000  plane waves:   27932
 k-point  6 :   0.0000 0.1250 0.0000  plane waves:   27889
 k-point  7 :   0.1250 0.1250 0.0000  plane waves:   27906
 k-point  8 :   0.2500 0.1250 0.0000  plane waves:   27898
 k-point  9 :   0.3750 0.1250 0.0000  plane waves:   27888
 k-point 10 :   0.5000 0.1250 0.0000  plane waves:   27873
 k-point 11 :  -0.3750 0.1250 0.0000  plane waves:   27874
 k-point 12 :  -0.2500 0.1250 0.0000  plane waves:   27895
 k-point 13 :  -0.1250 0.1250 0.0000  plane waves:   27879
 k-point 14 :   0.0000 0.2500 0.0000  plane waves:   27875
 k-point 15 :   0.1250 0.2500 0.0000  plane waves:   27898
 k-point 16 :   0.2500 0.2500 0.0000  plane waves:   27920
 k-point 17 :   0.3750 0.2500 0.0000  plane waves:   27901
 k-point 18 :   0.5000 0.2500 0.0000  plane waves:   27875
 k-point 19 :  -0.3750 0.2500 0.0000  plane waves:   27894
 k-point 20 :  -0.2500 0.2500 0.0000  plane waves:   27870
 k-point 21 :  -0.1250 0.2500 0.0000  plane waves:   27895
 k-point 22 :  -0.0000 0.3750 0.0000  plane waves:   27893
 k-point 23 :   0.1250 0.3750 0.0000  plane waves:   27888
 k-point 24 :   0.2500 0.3750 0.0000  plane waves:   27901
 k-point 25 :   0.3750 0.3750 0.0000  plane waves:   27860
 k-point 26 :   0.5000 0.3750 0.0000  plane waves:   27895
 k-point 27 :  -0.3750 0.3750 0.0000  plane waves:   27858
 k-point 28 :  -0.2500 0.3750 0.0000  plane waves:   27894
 k-point 29 :  -0.1250 0.3750 0.0000  plane waves:   27874
 k-point 30 :   0.0000 0.5000 0.0000  plane waves:   27932
 k-point 31 :   0.1250 0.5000 0.0000  plane waves:   27873
 k-point 32 :   0.2500 0.5000 0.0000  plane waves:   27875
 k-point 33 :   0.3750 0.5000 0.0000  plane waves:   27895
 k-point 34 :   0.5000 0.5000 0.0000  plane waves:   27910

 maximum and minimum number of plane-waves per node :     27959    27858

 maximum number of plane-waves:     27959
 maximum index in each direction: 
   IXMAX=   14   IYMAX=   13   IZMAX=   40
   IXMIN=  -14   IYMIN=  -14   IZMIN=  -40

 WARNING: aliasing errors must be expected set NGX to  58 to avoid them
 WARNING: aliasing errors must be expected set NGY to  56 to avoid them
 WARNING: aliasing errors must be expected set NGZ to 162 to avoid them
 aliasing errors are usually negligible using standard VASP settings
 and one can safely disregard these warnings

 serial   3D FFT for wavefunctions

 total amount of memory used by VASP on root node   650782. kBytes
========================================================================

   base      :      30000. kBytes
   nonl-proj :     559647. kBytes
   fftplans  :       2414. kBytes
   grid      :      12150. kBytes
   one-center:        419. kBytes
   wavefun   :      46152. kBytes
 
     INWAV:  cpu time    0.0000: real time    0.0000
 Broyden mixing: mesh for mixing (old mesh)
   NGX = 27   NGY = 27   NGZ = 81
  (NGX  = 84   NGY  = 84   NGZ  =252)
  gives a total of  59049 points

 initial charge density was supplied:
 charge density of overlapping atoms calculated
 number of electron     159.0000000 magnetization 
 keeping initial charge density in first step


--------------------------------------------------------------------------------------------------------


 Maximum index for augmentation-charges          146 (set IRDMAX)


--------------------------------------------------------------------------------------------------------


 First call to EWALD:  gamma=   0.129
 Maximum number of real-space cells 4x 4x 2
 Maximum number of reciprocal cells 2x 2x 5

 FEWALD executed in parallel
    FEWALD:  cpu time    0.0016: real time    0.0015


----------------------------------------- Iteration    1(   1)  ---------------------------------------


    POTLOK:  cpu time    0.0376: real time    0.0378
    SETDIJ:  cpu time    0.0032: real time    0.0033
     EDDAV:  cpu time   21.8181: real time   21.8741
       DOS:  cpu time    0.0020: real time    0.0013
    --------------------------------------------
      LOOP:  cpu time   21.8630: real time   21.9221

 eigenvalue-minimisations  :  8160
 total energy-change (2. order) : 0.1125841E+04  (-0.3597834E+04)
 number of electron     159.0000000 magnetization 
 augmentation part      159.0000000 magnetization 

 Free energy of the ion-electron system (eV)
  ---------------------------------------------------
  alpha Z        PSCENC =        81.65567618
  Ewald energy   TEWEN  =     41891.19377234
  -Hartree energ DENC   =    -47723.83903831
  -exchange      EXHF   =         0.00000000
  -V(xc)+E(xc)   XCENC  =      -242.92449882
  PAW double counting   =      3467.42045192    -2871.19716117
  entropy T*S    EENTRO =        -0.53223592
  eigenvalues    EBANDS =      -237.37850053
  atomic energy  EATOM  =      6761.44252427
  Solvation  Ediel_sol  =         0.00000000
  ---------------------------------------------------
  free energy    TOTEN  =      1125.84098996 eV

  energy without entropy =     1126.37322588  energy(sigma->0) =     1126.10710792


--------------------------------------------------------------------------------------------------------




----------------------------------------- Iteration    1(   2)  ---------------------------------------


     EDDAV:  cpu time   28.0966: real time   28.1657
       DOS:  cpu time    0.0009: real time    0.0009
    --------------------------------------------
      LOOP:  cpu time   28.0986: real time   28.1731

 eigenvalue-minimisations  : 11160
 total energy-change (2. order) :-0.1129492E+04  (-0.1089100E+04)
 number of electron     159.0000000 magnetization 
 augmentation part      159.0000000 magnetization 

 Free energy of the ion-electron system (eV)
  ---------------------------------------------------
  alpha Z        PSCENC =        81.65567618
  Ewald energy   TEWEN  =     41891.19377234
  -Hartree energ DENC   =    -47723.83903831
  -exchange      EXHF   =         0.00000000
  -V(xc)+E(xc)   XCENC  =      -242.92449882
  PAW double counting   =      3467.42045192    -2871.19716117
  entropy T*S    EENTRO =        -0.19023789
  eigenvalues    EBANDS =     -1367.21227711
  atomic energy  EATOM  =      6761.44252427
  Solvation  Ediel_sol  =         0.00000000
  ---------------------------------------------------
  free energy    TOTEN  =        -3.65078859 eV

  energy without entropy =       -3.46055070  energy(sigma->0) =       -3.55566965


--------------------------------------------------------------------------------------------------------




----------------------------------------- Iteration    1(   3)  ---------------------------------------


     EDDAV:  cpu time   27.6819: real time   27.7501
       DOS:  cpu time    0.0010: real time    0.0010
    --------------------------------------------
      LOOP:  cpu time   27.6850: real time   27.7537

 eigenvalue-minimisations  : 10960
 total energy-change (2. order) :-0.1962591E+03  (-0.1887063E+03)
 number of electron     159.0000000 magnetization 
 augmentation part      159.0000000 magnetization 

 Free energy of the ion-electron system (eV)
  ---------------------------------------------------
  alpha Z        PSCENC =        81.65567618
  Ewald energy   TEWEN  =     41891.19377234
  -Hartree energ DENC   =    -47723.83903831
  -exchange      EXHF   =         0.00000000
  -V(xc)+E(xc)   XCENC  =      -242.92449882
  PAW double counting   =      3467.42045192    -2871.19716117
  entropy T*S    EENTRO =        -0.24827617
  eigenvalues    EBANDS =     -1563.41338705
  atomic energy  EATOM  =      6761.44252427
  Solvation  Ediel_sol  =         0.00000000
  ---------------------------------------------------
  free energy    TOTEN  =      -199.90993681 eV

  energy without entropy =     -199.66166064  energy(sigma->0) =     -199.78579873


--------------------------------------------------------------------------------------------------------




----------------------------------------- Iteration    1(   4)  ---------------------------------------


     EDDAV:  cpu time   30.5420: real time   30.6169
       DOS:  cpu time    0.0010: real time    0.0010
    --------------------------------------------
      LOOP:  cpu time   30.5451: real time   30.6249

 eigenvalue-minimisations  : 12360
 total energy-change (2. order) :-0.9200616E+01  (-0.8884602E+01)
 number of electron     159.0000000 magnetization 
 augmentation part      159.0000000 magnetization 

 Free energy of the ion-electron system (eV)
  ---------------------------------------------------
  alpha Z        PSCENC =        81.65567618
  Ewald energy   TEWEN  =     41891.19377234
  -Hartree energ DENC   =    -47723.83903831
  -exchange      EXHF   =         0.00000000
  -V(xc)+E(xc)   XCENC  =      -242.92449882
  PAW double counting   =      3467.42045192    -2871.19716117
  entropy T*S    EENTRO =        -0.25979680
  eigenvalues    EBANDS =     -1572.60248203
  atomic energy  EATOM  =      6761.44252427
  Solvation  Ediel_sol  =         0.00000000
  ---------------------------------------------------
  free energy    TOTEN  =      -209.11055242 eV

  energy without entropy =     -208.85075562  energy(sigma->0) =     -208.98065402


--------------------------------------------------------------------------------------------------------




----------------------------------------- Iteration    1(   5)  ---------------------------------------


     EDDAV:  cpu time   28.4954: real time   28.5642
       DOS:  cpu time    0.0010: real time    0.0010
    CHARGE:  cpu time    0.4681: real time    0.4693
    MIXING:  cpu time    0.0018: real time    0.0020
    --------------------------------------------
      LOOP:  cpu time   28.9672: real time   29.0435

 eigenvalue-minimisations  : 11400
 total energy-change (2. order) :-0.2964483E+00  (-0.2955717E+00)
 number of electron     159.0000110 magnetization 
 augmentation part       -9.8647499 magnetization 

 Broyden mixing:
  rms(total) = 0.27780E+01    rms(broyden)= 0.27775E+01
  rms(prec ) = 0.29678E+01
  weight for this iteration     100.00

 Free energy of the ion-electron system (eV)
  ---------------------------------------------------
  alpha Z        PSCENC =        81.65567618
  Ewald energy   TEWEN  =     41891.19377234
  -Hartree energ DENC   =    -47723.83903831
  -exchange      EXHF   =         0.00000000
  -V(xc)+E(xc)   XCENC  =      -242.92449882
  PAW double counting   =      3467.42045192    -2871.19716117
  entropy T*S    EENTRO =        -0.25682849
  eigenvalues    EBANDS =     -1572.90189861
  atomic energy  EATOM  =      6761.44252427
  Solvation  Ediel_sol  =         0.00000000
  ---------------------------------------------------
  free energy    TOTEN  =      -209.40700069 eV

  energy without entropy =     -209.15017221  energy(sigma->0) =     -209.27858645


--------------------------------------------------------------------------------------------------------




----------------------------------------- Iteration    1(   6)  ---------------------------------------


    POTLOK:  cpu time    0.0343: real time    0.0343
    SETDIJ:  cpu time    0.0026: real time    0.0026
     EDDAV:  cpu time   30.6587: real time   30.7328
       DOS:  cpu time    0.0008: real time    0.0008
    CHARGE:  cpu time    0.4578: real time    0.4589
    MIXING:  cpu time    0.0017: real time    0.0021
    --------------------------------------------
      LOOP:  cpu time   31.1568: real time   31.2408

 eigenvalue-minimisations  : 12480
 total energy-change (2. order) :-0.3246950E+02  (-0.1128440E+02)
 number of electron     159.0000107 magnetization 
 augmentation part        7.2927310 magnetization 

 Broyden mixing:
  rms(total) = 0.60863E+01    rms(broyden)= 0.60857E+01
  rms(prec ) = 0.67197E+01
  weight for this iteration     100.00

 eigenvalues of (default mixing * dielectric matrix)
  average eigenvalue GAMMA=   0.2914
  0.2914

 Free energy of the ion-electron system (eV)
  ---------------------------------------------------
  alpha Z        PSCENC =        81.65567618
  Ewald energy   TEWEN  =     41891.19377234
  -Hartree energ DENC   =    -47702.20534195
  -exchange      EXHF   =         0.00000000
  -V(xc)+E(xc)   XCENC  =      -233.58007751
  PAW double counting   =      3677.14143301    -3083.14017444
  entropy T*S    EENTRO =        -0.26181241
  eigenvalues    EBANDS =     -1634.12249610
  atomic energy  EATOM  =      6761.44252427
  Solvation  Ediel_sol  =         0.00000000
  ---------------------------------------------------
  free energy    TOTEN  =      -241.87649661 eV

  energy without entropy =     -241.61468420  energy(sigma->0) =     -241.74559040


--------------------------------------------------------------------------------------------------------




----------------------------------------- Iteration    1(   7)  ---------------------------------------


    POTLOK:  cpu time    0.0298: real time    0.0302
    SETDIJ:  cpu time    0.0024: real time    0.0024
     EDDAV:  cpu time   32.0348: real time   32.1122
       DOS:  cpu time    0.0009: real time    0.0009
    CHARGE:  cpu time    0.4741: real time    0.4752
    MIXING:  cpu time    0.0011: real time    0.0011
    --------------------------------------------
      LOOP:  cpu time   32.5444: real time   32.6309

 eigenvalue-minimisations  : 13120
 total energy-change (2. order) : 0.4582285E+02  (-0.1799547E+02)
 number of electron     159.0000088 magnetization 
 augmentation part       -6.2702304 magnetization 

 Broyden mixing:
  rms(total) = 0.19715E+01    rms(broyden)= 0.19696E+01
  rms(prec ) = 0.21922E+01
  weight for this iteration     100.00

 eigenvalues of (default mixing * dielectric matrix)
  average eigenvalue GAMMA=   0.5568
  0.9020  0.2116

 Free energy of the ion-electron system (eV)
  ---------------------------------------------------
  alpha Z        PSCENC =        81.65567618
  Ewald energy   TEWEN  =     41891.19377234
  -Hartree energ DENC   =    -47739.16912889
  -exchange      EXHF   =         0.00000000
  -V(xc)+E(xc)   XCENC  =      -234.97191963
  PAW double counting   =      3763.64415245    -3177.69005827
  entropy T*S    EENTRO =        -0.34017615
  eigenvalues    EBANDS =     -1541.81848867
  atomic energy  EATOM  =      6761.44252427
  Solvation  Ediel_sol  =         0.00000000
  ---------------------------------------------------
  free energy    TOTEN  =      -196.05364638 eV

  energy without entropy =     -195.71347022  energy(sigma->0) =     -195.88355830


--------------------------------------------------------------------------------------------------------




----------------------------------------- Iteration    1(   8)  ---------------------------------------


    POTLOK:  cpu time    0.0293: real time    0.0307
    SETDIJ:  cpu time    0.0024: real time    0.0024
     EDDAV:  cpu time   29.9727: real time   30.0453
       DOS:  cpu time    0.0010: real time    0.0010
    CHARGE:  cpu time    0.4847: real time    0.4859
    MIXING:  cpu time    0.0011: real time    0.0011
    --------------------------------------------
      LOOP:  cpu time   30.4935: real time   30.5753

 eigenvalue-minimisations  : 12120
 total energy-change (2. order) : 0.6821269E+01  (-0.1884688E+01)
 number of electron     159.0000095 magnetization 
 augmentation part       -6.3051265 magnetization 

 Broyden mixing:
  rms(total) = 0.12061E+01    rms(broyden)= 0.12059E+01
  rms(prec ) = 0.12998E+01
  weight for this iteration     100.00

 eigenvalues of (default mixing * dielectric matrix)
  average eigenvalue GAMMA=   0.5962
  1.1510  0.2291  0.4084

 Free energy of the ion-electron system (eV)
  ---------------------------------------------------
  alpha Z        PSCENC =        81.65567618
  Ewald energy   TEWEN  =     41891.19377234
  -Hartree energ DENC   =    -47762.10725522
  -exchange      EXHF   =         0.00000000
  -V(xc)+E(xc)   XCENC  =      -234.95929257
  PAW double counting   =      3908.68373998    -3324.42712613
  entropy T*S    EENTRO =        -0.33066436
  eigenvalues    EBANDS =     -1510.38375213
  atomic energy  EATOM  =      6761.44252427
  Solvation  Ediel_sol  =         0.00000000
  ---------------------------------------------------
  free energy    TOTEN  =      -189.23237764 eV

  energy without entropy =     -188.90171328  energy(sigma->0) =     -189.06704546


--------------------------------------------------------------------------------------------------------




----------------------------------------- Iteration    1(   9)  ---------------------------------------


    POTLOK:  cpu time    0.0302: real time    0.0305
    SETDIJ:  cpu time    0.0024: real time    0.0024
     EDDAV:  cpu time   32.3912: real time   32.4695
       DOS:  cpu time    0.0009: real time    0.0009
    CHARGE:  cpu time    0.4916: real time    0.4928
    MIXING:  cpu time    0.0012: real time    0.0012
    --------------------------------------------
      LOOP:  cpu time   32.9187: real time   33.0055

 eigenvalue-minimisations  : 13280
 total energy-change (2. order) : 0.1205257E+01  (-0.2866194E+00)
 number of electron     159.0000091 magnetization 
 augmentation part       -5.4569913 magnetization 

 Broyden mixing:
  rms(total) = 0.87106E+00    rms(broyden)= 0.87084E+00
  rms(prec ) = 0.94518E+00
  weight for this iteration     100.00

 eigenvalues of (default mixing * dielectric matrix)
  average eigenvalue GAMMA=   0.7442
  1.8125  0.6316  0.2197  0.3131

 Free energy of the ion-electron system (eV)
  ---------------------------------------------------
  alpha Z        PSCENC =        81.65567618
  Ewald energy   TEWEN  =     41891.19377234
  -Hartree energ DENC   =    -47766.97294540
  -exchange      EXHF   =         0.00000000
  -V(xc)+E(xc)   XCENC  =      -234.03911706
  PAW double counting   =      3980.57820345    -3397.21042436
  entropy T*S    EENTRO =        -0.33140923
  eigenvalues    EBANDS =     -1504.34340079
  atomic energy  EATOM  =      6761.44252427
  Solvation  Ediel_sol  =         0.00000000
  ---------------------------------------------------
  free energy    TOTEN  =      -188.02712060 eV

  energy without entropy =     -187.69571138  energy(sigma->0) =     -187.86141599


--------------------------------------------------------------------------------------------------------




----------------------------------------- Iteration    1(  10)  ---------------------------------------


    POTLOK:  cpu time    0.0317: real time    0.0318
    SETDIJ:  cpu time    0.0024: real time    0.0025
     EDDAV:  cpu time   32.7731: real time   32.8525
       DOS:  cpu time    0.0010: real time    0.0010
    CHARGE:  cpu time    0.4978: real time    0.4990
    MIXING:  cpu time    0.0013: real time    0.0013
    --------------------------------------------
      LOOP:  cpu time   33.3082: real time   33.3970

 eigenvalue-minimisations  : 13480
 total energy-change (2. order) : 0.1095924E+01  (-0.1535444E+00)
 number of electron     159.0000092 magnetization 
 augmentation part       -4.2747810 magnetization 

 Broyden mixing:
  rms(total) = 0.20371E+00    rms(broyden)= 0.20319E+00
  rms(prec ) = 0.21224E+00
  weight for this iteration     100.00

 eigenvalues of (default mixing * dielectric matrix)
  average eigenvalue GAMMA=   0.9729
  1.8534  1.8534  0.6460  0.2202  0.2916

 Free energy of the ion-electron system (eV)
  ---------------------------------------------------
  alpha Z        PSCENC =        81.65567618
  Ewald energy   TEWEN  =     41891.19377234
  -Hartree energ DENC   =    -47780.09020475
  -exchange      EXHF   =         0.00000000
  -V(xc)+E(xc)   XCENC  =      -232.57839034
  PAW double counting   =      4104.51909287    -3522.69164713
  entropy T*S    EENTRO =        -0.35428987
  eigenvalues    EBANDS =     -1490.02773024
  atomic energy  EATOM  =      6761.44252427
  Solvation  Ediel_sol  =         0.00000000
  ---------------------------------------------------
  free energy    TOTEN  =      -186.93119667 eV

  energy without entropy =     -186.57690680  energy(sigma->0) =     -186.75405174


--------------------------------------------------------------------------------------------------------




----------------------------------------- Iteration    1(  11)  ---------------------------------------


    POTLOK:  cpu time    0.0300: real time    0.0303
    SETDIJ:  cpu time    0.0024: real time    0.0024
     EDDAV:  cpu time   32.5982: real time   32.6769
       DOS:  cpu time    0.0009: real time    0.0009
    CHARGE:  cpu time    0.5031: real time    0.5043
    MIXING:  cpu time    0.0013: real time    0.0013
    --------------------------------------------
      LOOP:  cpu time   33.1371: real time   33.2253

 eigenvalue-minimisations  : 13360
 total energy-change (2. order) : 0.1633871E-01  (-0.3789731E-01)
 number of electron     159.0000087 magnetization 
 augmentation part       -4.6009240 magnetization 

 Broyden mixing:
  rms(total) = 0.26720E+00    rms(broyden)= 0.26716E+00
  rms(prec ) = 0.29706E+00
  weight for this iteration     100.00

 eigenvalues of (default mixing * dielectric matrix)
  average eigenvalue GAMMA=   0.9809
  2.2363  1.6618  0.8207  0.6523  0.2199  0.2944

 Free energy of the ion-electron system (eV)
  ---------------------------------------------------
  alpha Z        PSCENC =        81.65567618
  Ewald energy   TEWEN  =     41891.19377234
  -Hartree energ DENC   =    -47795.97272728
  -exchange      EXHF   =         0.00000000
  -V(xc)+E(xc)   XCENC  =      -232.07728202
  PAW double counting   =      4176.39374238    -3594.66108762
  entropy T*S    EENTRO =        -0.33995978
  eigenvalues    EBANDS =     -1474.54951643
  atomic energy  EATOM  =      6761.44252427
  Solvation  Ediel_sol  =         0.00000000
  ---------------------------------------------------
  free energy    TOTEN  =      -186.91485796 eV

  energy without entropy =     -186.57489817  energy(sigma->0) =     -186.74487807


--------------------------------------------------------------------------------------------------------




----------------------------------------- Iteration    1(  12)  ---------------------------------------


    POTLOK:  cpu time    0.0306: real time    0.0307
    SETDIJ:  cpu time    0.0025: real time    0.0025
     EDDAV:  cpu time   33.0016: real time   33.0813
       DOS:  cpu time    0.0002: real time    0.0010
    CHARGE:  cpu time    0.4967: real time    0.4979
    MIXING:  cpu time    0.0014: real time    0.0014
    --------------------------------------------
      LOOP:  cpu time   33.5347: real time   33.6224

 eigenvalue-minimisations  : 13560
 total energy-change (2. order) : 0.7321389E-01  (-0.2193242E-01)
 number of electron     159.0000089 magnetization 
 augmentation part       -4.0446630 magnetization 

 Broyden mixing:
  rms(total) = 0.11088E+00    rms(broyden)= 0.11067E+00
  rms(prec ) = 0.12362E+00
  weight for this iteration     100.00

 eigenvalues of (default mixing * dielectric matrix)
  average eigenvalue GAMMA=   0.9257
  2.2263  1.7300  0.9249  0.6297  0.2198  0.2946  0.4546

 Free energy of the ion-electron system (eV)
  ---------------------------------------------------
  alpha Z        PSCENC =        81.65567618
  Ewald energy   TEWEN  =     41891.19377234
  -Hartree energ DENC   =    -47802.21417670
  -exchange      EXHF   =         0.00000000
  -V(xc)+E(xc)   XCENC  =      -231.88773030
  PAW double counting   =      4190.46322658    -3608.64254058
  entropy T*S    EENTRO =        -0.34763729
  eigenvalues    EBANDS =     -1468.50475857
  atomic energy  EATOM  =      6761.44252427
  Solvation  Ediel_sol  =         0.00000000
  ---------------------------------------------------
  free energy    TOTEN  =      -186.84164407 eV

  energy without entropy =     -186.49400678  energy(sigma->0) =     -186.66782543


--------------------------------------------------------------------------------------------------------




----------------------------------------- Iteration    1(  13)  ---------------------------------------


    POTLOK:  cpu time    0.0327: real time    0.0328
    SETDIJ:  cpu time    0.0023: real time    0.0024
     EDDAV:  cpu time   32.8728: real time   32.9522
       DOS:  cpu time    0.0010: real time    0.0010
    CHARGE:  cpu time    0.4971: real time    0.4983
    MIXING:  cpu time    0.0014: real time    0.0014
    --------------------------------------------
      LOOP:  cpu time   33.4083: real time   33.4975

 eigenvalue-minimisations  : 13480
 total energy-change (2. order) : 0.5912169E-02  (-0.2772351E-02)
 number of electron     159.0000089 magnetization 
 augmentation part       -4.1359860 magnetization 

 Broyden mixing:
  rms(total) = 0.90238E-01    rms(broyden)= 0.90208E-01
  rms(prec ) = 0.10022E+00
  weight for this iteration     100.00

 eigenvalues of (default mixing * dielectric matrix)
  average eigenvalue GAMMA=   0.8802
  2.2042  1.8531  1.0744  0.6272  0.6272  0.2945  0.2198  0.1413

 Free energy of the ion-electron system (eV)
  ---------------------------------------------------
  alpha Z        PSCENC =        81.65567618
  Ewald energy   TEWEN  =     41891.19377234
  -Hartree energ DENC   =    -47805.00408815
  -exchange      EXHF   =         0.00000000
  -V(xc)+E(xc)   XCENC  =      -231.85262630
  PAW double counting   =      4191.62085679    -3609.75899415
  entropy T*S    EENTRO =        -0.34628797
  eigenvalues    EBANDS =     -1465.78656492
  atomic energy  EATOM  =      6761.44252427
  Solvation  Ediel_sol  =         0.00000000
  ---------------------------------------------------
  free energy    TOTEN  =      -186.83573190 eV

  energy without entropy =     -186.48944393  energy(sigma->0) =     -186.66258792


--------------------------------------------------------------------------------------------------------




----------------------------------------- Iteration    1(  14)  ---------------------------------------


    POTLOK:  cpu time    0.0301: real time    0.0305
    SETDIJ:  cpu time    0.0024: real time    0.0024
     EDDAV:  cpu time   32.7159: real time   32.7943
       DOS:  cpu time    0.0010: real time    0.0010
    CHARGE:  cpu time    0.4966: real time    0.4978
    MIXING:  cpu time    0.0016: real time    0.0016
    --------------------------------------------
      LOOP:  cpu time   33.2487: real time   33.3357

 eigenvalue-minimisations  : 13400
 total energy-change (2. order) : 0.7240940E-02  (-0.1691841E-02)
 number of electron     159.0000089 magnetization 
 augmentation part       -4.1981946 magnetization 

 Broyden mixing:
  rms(total) = 0.24209E-01    rms(broyden)= 0.24118E-01
  rms(prec ) = 0.28094E-01
  weight for this iteration     100.00

 eigenvalues of (default mixing * dielectric matrix)
  average eigenvalue GAMMA=   0.9576
  2.2414  2.2414  1.3025  0.9362  0.6306  0.6306  0.2198  0.2945  0.1215

 Free energy of the ion-electron system (eV)
  ---------------------------------------------------
  alpha Z        PSCENC =        81.65567618
  Ewald energy   TEWEN  =     41891.19377234
  -Hartree energ DENC   =    -47807.62642129
  -exchange      EXHF   =         0.00000000
  -V(xc)+E(xc)   XCENC  =      -231.82008034
  PAW double counting   =      4192.60113940    -3610.70436109
  entropy T*S    EENTRO =        -0.34543766
  eigenvalues    EBANDS =     -1463.22530278
  atomic energy  EATOM  =      6761.44252427
  Solvation  Ediel_sol  =         0.00000000
  ---------------------------------------------------
  free energy    TOTEN  =      -186.82849096 eV

  energy without entropy =     -186.48305330  energy(sigma->0) =     -186.65577213


--------------------------------------------------------------------------------------------------------




----------------------------------------- Iteration    1(  15)  ---------------------------------------


    POTLOK:  cpu time    0.0319: real time    0.0319
    SETDIJ:  cpu time    0.0025: real time    0.0025
     EDDAV:  cpu time   30.8859: real time   30.9606
       DOS:  cpu time    0.0010: real time    0.0010
    CHARGE:  cpu time    0.4984: real time    0.4996
    MIXING:  cpu time    0.0016: real time    0.0016
    --------------------------------------------
      LOOP:  cpu time   31.4224: real time   31.5059

 eigenvalue-minimisations  : 12560
 total energy-change (2. order) : 0.1723405E-03  (-0.4520920E-03)
 number of electron     159.0000089 magnetization 
 augmentation part       -4.2038326 magnetization 

 Broyden mixing:
  rms(total) = 0.25987E-01    rms(broyden)= 0.25966E-01
  rms(prec ) = 0.30306E-01
  weight for this iteration     100.00

 eigenvalues of (default mixing * dielectric matrix)
  average eigenvalue GAMMA=   0.9093
  2.2971  2.2971  1.3534  0.9867  0.6337  0.6337  0.2198  0.2946  0.2556  0.1210

 Free energy of the ion-electron system (eV)
  ---------------------------------------------------
  alpha Z        PSCENC =        81.65567618
  Ewald energy   TEWEN  =     41891.19377234
  -Hartree energ DENC   =    -47813.34023573
  -exchange      EXHF   =         0.00000000
  -V(xc)+E(xc)   XCENC  =      -231.74722445
  PAW double counting   =      4194.31082979    -3612.35435818
  entropy T*S    EENTRO =        -0.34532492
  eigenvalues    EBANDS =     -1457.64397792
  atomic energy  EATOM  =      6761.44252427
  Solvation  Ediel_sol  =         0.00000000
  ---------------------------------------------------
  free energy    TOTEN  =      -186.82831862 eV

  energy without entropy =     -186.48299370  energy(sigma->0) =     -186.65565616


--------------------------------------------------------------------------------------------------------




----------------------------------------- Iteration    1(  16)  ---------------------------------------


    POTLOK:  cpu time    0.0292: real time    0.0315
    SETDIJ:  cpu time    0.0024: real time    0.0024
     EDDAV:  cpu time   30.2231: real time   30.2970
       DOS:  cpu time    0.0010: real time    0.0010
    CHARGE:  cpu time    0.4970: real time    0.4982
    MIXING:  cpu time    0.0017: real time    0.0017
    --------------------------------------------
      LOOP:  cpu time   30.7584: real time   30.8406

 eigenvalue-minimisations  : 12240
 total energy-change (2. order) : 0.9934984E-03  (-0.2959033E-03)
 number of electron     159.0000089 magnetization 
 augmentation part       -4.1980555 magnetization 

 Broyden mixing:
  rms(total) = 0.17944E-01    rms(broyden)= 0.17924E-01
  rms(prec ) = 0.20898E-01
  weight for this iteration     100.00

 eigenvalues of (default mixing * dielectric matrix)
  average eigenvalue GAMMA=   0.8589
  2.3152  2.3152  1.3703  1.0001  0.6347  0.6347  0.2945  0.2198  0.3828  0.1211
  0.1597

 Free energy of the ion-electron system (eV)
  ---------------------------------------------------
  alpha Z        PSCENC =        81.65567618
  Ewald energy   TEWEN  =     41891.19377234
  -Hartree energ DENC   =    -47815.10234960
  -exchange      EXHF   =         0.00000000
  -V(xc)+E(xc)   XCENC  =      -231.72745393
  PAW double counting   =      4194.49594444    -3612.52705900
  entropy T*S    EENTRO =        -0.34538091
  eigenvalues    EBANDS =     -1455.91299891
  atomic energy  EATOM  =      6761.44252427
  Solvation  Ediel_sol  =         0.00000000
  ---------------------------------------------------
  free energy    TOTEN  =      -186.82732512 eV

  energy without entropy =     -186.48194421  energy(sigma->0) =     -186.65463466


--------------------------------------------------------------------------------------------------------




----------------------------------------- Iteration    1(  17)  ---------------------------------------


    POTLOK:  cpu time    0.0316: real time    0.0317
    SETDIJ:  cpu time    0.0025: real time    0.0025
     EDDAV:  cpu time   25.6395: real time   25.7066
       DOS:  cpu time    0.0010: real time    0.0010
    CHARGE:  cpu time    0.4983: real time    0.4995
    MIXING:  cpu time    0.0018: real time    0.0018
    --------------------------------------------
      LOOP:  cpu time   26.1757: real time   26.2520

 eigenvalue-minimisations  : 10000
 total energy-change (2. order) : 0.3195762E-04  (-0.1374824E-03)
 number of electron     159.0000089 magnetization 
 augmentation part       -4.1965320 magnetization 

 Broyden mixing:
  rms(total) = 0.14595E-01    rms(broyden)= 0.14581E-01
  rms(prec ) = 0.17409E-01
  weight for this iteration     100.00

 eigenvalues of (default mixing * dielectric matrix)
  average eigenvalue GAMMA=   0.9123
  2.4633  2.4633  1.5737  1.2090  0.9553  0.6343  0.6343  0.2945  0.2198  0.2557
  0.1205  0.1232

 Free energy of the ion-electron system (eV)
  ---------------------------------------------------
  alpha Z        PSCENC =        81.65567618
  Ewald energy   TEWEN  =     41891.19377234
  -Hartree energ DENC   =    -47816.16027987
  -exchange      EXHF   =         0.00000000
  -V(xc)+E(xc)   XCENC  =      -231.71756027
  PAW double counting   =      4194.41192005    -3612.43834759
  entropy T*S    EENTRO =        -0.34536698
  eigenvalues    EBANDS =     -1454.86963129
  atomic energy  EATOM  =      6761.44252427
  Solvation  Ediel_sol  =         0.00000000
  ---------------------------------------------------
  free energy    TOTEN  =      -186.82729316 eV

  energy without entropy =     -186.48192618  energy(sigma->0) =     -186.65460967


--------------------------------------------------------------------------------------------------------




----------------------------------------- Iteration    1(  18)  ---------------------------------------


    POTLOK:  cpu time    0.0290: real time    0.0302
    SETDIJ:  cpu time    0.0023: real time    0.0023
     EDDAV:  cpu time   26.1674: real time   26.2302
       DOS:  cpu time    0.0010: real time    0.0010
    --------------------------------------------
      LOOP:  cpu time   26.2019: real time   26.2728

 eigenvalue-minimisations  : 10320
 total energy-change (2. order) :-0.7207549E-04  (-0.9043933E-04)
 number of electron     159.0000089 magnetization 
 augmentation part       -4.1965320 magnetization 

 Free energy of the ion-electron system (eV)
  ---------------------------------------------------
  alpha Z        PSCENC =        81.65567618
  Ewald energy   TEWEN  =     41891.19377234
  -Hartree energ DENC   =    -47821.11861572
  -exchange      EXHF   =         0.00000000
  -V(xc)+E(xc)   XCENC  =      -231.67425204
  PAW double counting   =      4193.75528819    -3611.76333705
  entropy T*S    EENTRO =        -0.34520055
  eigenvalues    EBANDS =     -1449.97322086
  atomic energy  EATOM  =      6761.44252427
  Solvation  Ediel_sol  =         0.00000000
  ---------------------------------------------------
  free energy    TOTEN  =      -186.82736524 eV

  energy without entropy =     -186.48216469  energy(sigma->0) =     -186.65476496


--------------------------------------------------------------------------------------------------------




 average (electrostatic) potential at core
  the test charge radii are     1.2064  1.2296  1.1823  0.9698
  (the norm of the test charge is              1.0000)
       1 -50.0725       2 -50.0722       3 -50.0728       4 -47.5409       5 -47.5411
       6 -47.5423       7 -49.9836       8 -49.9798       9 -49.9788      10 -95.0997
      11 -95.3214      12 -95.0997      13 -95.3210      14 -95.1000      15 -95.3213
      16 -95.4211      17 -95.3532      18 -95.4206      19 -95.3530      20 -95.4209
      21 -95.3528      22 -95.1684      23 -95.0113      24 -95.1683      25 -95.0114
      26 -95.1683      27 -95.0114
 
 
 
 E-fermi :  -3.4024     XC(G=0):  -2.4935     alpha+bet : -2.1596


 k-point     1 :       0.0000    0.0000    0.0000
  band No.  band energies     occupation 
      1     -18.3275      2.00000
      2     -17.1859      2.00000
      3     -17.1859      2.00000
      4     -17.1306      2.00000
      5     -16.9110      2.00000
      6     -16.9108      2.00000
      7     -16.8340      2.00000
      8     -16.5501      2.00000
      9     -16.5416      2.00000
     10     -16.5415      2.00000
     11     -16.4021      2.00000
     12     -16.4020      2.00000
     13     -16.2851      2.00000
     14     -16.1561      2.00000
     15     -16.0904      2.00000
     16     -16.0903      2.00000
     17     -15.9201      2.00000
     18     -15.9201      2.00000
     19      -9.7030      2.00000
     20      -9.4887      2.00000
     21      -9.4884      2.00000
     22      -9.3529      2.00000
     23      -9.3493      2.00000
     24      -9.3489      2.00000
     25      -9.0377      2.00000
     26      -8.8683      2.00000
     27      -8.8681      2.00000
     28      -8.8545      2.00000
     29      -8.8544      2.00000
     30      -8.6581      2.00000
     31      -8.6579      2.00000
     32      -8.4828      2.00000
     33      -8.3819      2.00000
     34      -8.3300      2.00000
     35      -8.3299      2.00000
     36      -8.3182      2.00000
     37      -8.3181      2.00000
     38      -8.3174      2.00000
     39      -8.0110      2.00000
     40      -7.9734      2.00000
     41      -7.9732      2.00000
     42      -7.9103      2.00000
     43      -7.7036      2.00000
     44      -7.6587      2.00000
     45      -7.6586      2.00000
     46      -7.5248      2.00000
     47      -7.5247      2.00000
     48      -7.3230      2.00000
     49      -7.3228      2.00000
     50      -7.3185      2.00000
     51      -6.8263      2.00000
     52      -6.6606      2.00000
     53      -6.6606      2.00000
     54      -6.6241      2.00000
     55      -6.6240      2.00000
     56      -6.5615      2.00000
     57      -6.5614      2.00000
     58      -5.8006      2.00000
     59      -5.8005      2.00000
     60      -5.7715      2.00000
     61      -5.6403      2.00000
     62      -5.5943      2.00000
     63      -5.5942      2.00000
     64      -5.5300      2.00000
     65      -5.4200      2.00000
     66      -5.4199      2.00000
     67      -5.3570      2.00000
     68      -5.3051      2.00000
     69      -5.3050      2.00000
     70      -5.2320      2.00000
     71      -4.3789      2.00000
     72      -4.3659      2.00000
     73      -4.1681      2.00000
     74      -4.1679      2.00000
     75      -4.1674      2.00000
     76      -4.1162      2.00000
     77      -4.1158      2.00000
     78      -3.9612      1.99992
     79      -3.9293      1.99981
     80      -3.8171      1.99663
     81      -3.3151      0.53701
     82      -3.3144      0.53400
     83      -2.8797      0.00022
     84      -2.7813      0.00001
     85      -2.7388      0.00000
     86      -2.7385      0.00000
     87      -2.6464      0.00000
     88      -2.6463      0.00000
     89      -2.4630      0.00000
     90      -2.4082      0.00000
     91      -2.4079      0.00000
     92      -2.3005      0.00000
     93      -2.2995      0.00000
     94      -2.2869      0.00000
     95      -2.1085      0.00000
     96      -2.1084      0.00000
     97      -1.9790      0.00000
     98      -1.9785      0.00000
     99      -1.8323      0.00000
    100      -0.7259      0.00000
    101      -0.7259      0.00000
    102      -0.6419      0.00000
    103      -0.6417      0.00000
    104      -0.6356      0.00000
    105      -0.2376      0.00000
    106       0.2977      0.00000
    107       0.2980      0.00000
    108       0.4041      0.00000
    109       0.4044      0.00000
    110       0.4626      0.00000
    111       0.6337      0.00000
    112       0.7991      0.00000
    113       0.8000      0.00000
    114       0.9569      0.00000
    115       0.9677      0.00000
    116       0.9686      0.00000
    117       1.0297      0.00000
    118       1.2939      0.00000
    119       1.3679      0.00000
    120       1.9249      0.00000

 k-point     2 :       0.1250    0.0000    0.0000
  band No.  band energies     occupation 
      1     -18.3097      2.00000
      2     -17.2162      2.00000
      3     -17.2082      2.00000
      4     -17.1997      2.00000
      5     -16.8908      2.00000
      6     -16.8794      2.00000
      7     -16.8111      2.00000
      8     -16.5498      2.00000
      9     -16.5419      2.00000
     10     -16.5190      2.00000
     11     -16.3984      2.00000
     12     -16.3922      2.00000
     13     -16.2712      2.00000
     14     -16.1474      2.00000
     15     -16.0944      2.00000
     16     -16.0924      2.00000
     17     -15.9286      2.00000
     18     -15.9253      2.00000
     19      -9.7813      2.00000
     20      -9.5361      2.00000
     21      -9.5268      2.00000
     22      -9.3558      2.00000
     23      -9.3545      2.00000
     24      -9.3533      2.00000
     25      -9.0411      2.00000
     26      -8.9594      2.00000
     27      -8.9554      2.00000
     28      -8.8274      2.00000
     29      -8.8266      2.00000
     30      -8.5674      2.00000
     31      -8.5606      2.00000
     32      -8.5301      2.00000
     33      -8.3776      2.00000
     34      -8.3344      2.00000
     35      -8.3314      2.00000
     36      -8.2499      2.00000
     37      -8.2377      2.00000
     38      -8.1865      2.00000
     39      -8.0143      2.00000
     40      -7.9909      2.00000
     41      -7.9883      2.00000
     42      -7.8802      2.00000
     43      -7.7487      2.00000
     44      -7.6315      2.00000
     45      -7.6301      2.00000
     46      -7.4999      2.00000
     47      -7.4943      2.00000
     48      -7.3310      2.00000
     49      -7.3291      2.00000
     50      -7.2555      2.00000
     51      -6.8348      2.00000
     52      -6.7391      2.00000
     53      -6.7254      2.00000
     54      -6.6813      2.00000
     55      -6.6722      2.00000
     56      -6.4406      2.00000
     57      -6.4077      2.00000
     58      -5.9164      2.00000
     59      -5.9128      2.00000
     60      -5.7568      2.00000
     61      -5.7134      2.00000
     62      -5.7125      2.00000
     63      -5.6668      2.00000
     64      -5.6122      2.00000
     65      -5.4959      2.00000
     66      -5.4825      2.00000
     67      -5.3299      2.00000
     68      -5.1994      2.00000
     69      -5.1949      2.00000
     70      -5.0402      2.00000
     71      -4.5712      2.00000
     72      -4.4057      2.00000
     73      -4.3772      2.00000
     74      -4.0900      2.00000
     75      -4.0848      2.00000
     76      -4.0281      1.99999
     77      -4.0261      1.99999
     78      -4.0161      1.99999
[...]
    104      -0.6106      0.00000
    105      -0.5495      0.00000
    106      -0.3918      0.00000
    107      -0.2233      0.00000
    108      -0.1091      0.00000
    109       0.0514      0.00000
    110       0.2541      0.00000
    111       0.3705      0.00000
    112       0.4222      0.00000
    113       0.5618      0.00000
    114       1.0435      0.00000
    115       1.0635      0.00000
    116       1.0829      0.00000
    117       1.8465      0.00000
    118       2.1659      0.00000
    119       2.3139      0.00000
    120       2.4245      0.00000

 k-point    34 :       0.5000    0.5000    0.0000
  band No.  band energies     occupation 
      1     -17.4258      2.00000
      2     -17.4255      2.00000
      3     -16.7127      2.00000
      4     -16.7122      2.00000
      5     -16.5680      2.00000
      6     -16.5666      2.00000
      7     -16.2133      2.00000
      8     -16.1919      2.00000
      9     -16.1721      2.00000
     10     -16.1698      2.00000
     11     -15.7937      2.00000
     12     -15.7561      2.00000
     13     -15.7545      2.00000
     14     -15.6817      2.00000
     15     -15.4960      2.00000
     16     -15.4956      2.00000
     17     -15.4540      2.00000
     18     -15.2659      2.00000
     19      -9.8264      2.00000
     20      -9.3998      2.00000
     21      -9.1909      2.00000
     22      -9.1904      2.00000
     23      -8.7671      2.00000
     24      -8.7668      2.00000
     25      -8.7472      2.00000
     26      -8.5578      2.00000
     27      -8.5556      2.00000
     28      -8.3749      2.00000
     29      -8.1544      2.00000
     30      -8.0820      2.00000
     31      -8.0767      2.00000
     32      -8.0764      2.00000
     33      -7.7886      2.00000
     34      -7.7834      2.00000
     35      -7.7259      2.00000
     36      -7.7088      2.00000
     37      -7.7068      2.00000
     38      -7.5214      2.00000
     39      -7.5191      2.00000
     40      -7.4280      2.00000
     41      -7.0397      2.00000
     42      -7.0098      2.00000
     43      -7.0087      2.00000
     44      -6.8544      2.00000
     45      -6.7462      2.00000
     46      -6.7458      2.00000
     47      -6.6398      2.00000
     48      -6.5725      2.00000
     49      -6.5707      2.00000
     50      -6.5631      2.00000
     51      -6.3599      2.00000
     52      -6.3108      2.00000
     53      -6.3088      2.00000
     54      -6.2621      2.00000
     55      -6.0799      2.00000
     56      -6.0786      2.00000
     57      -5.9825      2.00000
     58      -5.8627      2.00000
     59      -5.8626      2.00000
     60      -5.7303      2.00000
     61      -5.7274      2.00000
     62      -5.5614      2.00000
     63      -5.5608      2.00000
     64      -5.4466      2.00000
     65      -5.2011      2.00000
     66      -5.0609      2.00000
     67      -5.0002      2.00000
     68      -4.9972      2.00000
     69      -4.7516      2.00000
     70      -4.5611      2.00000
     71      -4.5579      2.00000
     72      -4.5145      2.00000
     73      -4.2501      2.00000
     74      -4.2496      2.00000
     75      -4.0582      2.00000
     76      -4.0511      2.00000
     77      -3.8642      1.99999
     78      -3.8617      1.99999
     79      -3.4504      1.85987
     80      -3.4340      1.82586
     81      -2.9851      0.06946
     82      -2.9845      0.06888
     83      -2.6402      0.00002
     84      -2.6368      0.00002
     85      -2.5694      0.00000
     86      -2.4641      0.00000
     87      -2.1684      0.00000
     88      -2.1658      0.00000
     89      -2.0464      0.00000
     90      -1.9132      0.00000
     91      -1.9113      0.00000
     92      -1.5843      0.00000
     93      -1.1804      0.00000
     94      -1.1740      0.00000
     95      -1.1705      0.00000
     96      -1.0868      0.00000
     97      -1.0853      0.00000
     98      -1.0324      0.00000
     99      -0.8223      0.00000
    100      -0.7913      0.00000
    101      -0.7865      0.00000
    102      -0.7078      0.00000
    103      -0.6661      0.00000
    104      -0.6638      0.00000
    105      -0.5387      0.00000
    106      -0.2907      0.00000
    107      -0.2844      0.00000
    108      -0.0680      0.00000
    109      -0.0675      0.00000
    110       0.2536      0.00000
    111       0.3801      0.00000
    112       0.5248      0.00000
    113       0.5253      0.00000
    114       1.0676      0.00000
    115       1.0690      0.00000
    116       1.0744      0.00000
    117       1.8424      0.00000
    118       2.2634      0.00000
    119       2.2636      0.00000
    120       2.4153      0.00000


--------------------------------------------------------------------------------------------------------


 soft charge-density along one line, spin component           1
         0         1         2         3         4         5         6         7         8         9
 total charge-density along one line
 
 pseudopotential strength for first ion, spin component:           1
 -7.259  -0.010  -0.012  -0.005   0.001   0.686   0.002   0.004
 -0.010  -7.162  -0.005   0.010   0.005   0.002   0.656   0.001
 -0.012  -0.005  -7.124  -0.003   0.007   0.004   0.001   0.647
 -0.005   0.010  -0.003  -7.173   0.005   0.002  -0.003   0.001
  0.001   0.005   0.007   0.005  -7.258  -0.000  -0.002  -0.002
  0.686   0.002   0.004   0.002  -0.000   0.329  -0.000  -0.001
  0.002   0.656   0.001  -0.003  -0.002  -0.000   0.338  -0.000
  0.004   0.001   0.647   0.001  -0.002  -0.001  -0.000   0.340
  0.002  -0.003   0.001   0.660  -0.001  -0.000   0.001  -0.000
 -0.000  -0.002  -0.002  -0.001   0.686   0.000   0.000   0.001
 -0.004   0.002  -0.020   0.001   0.002   0.001  -0.000   0.005
 -0.001   0.001  -0.007   0.000   0.001   0.000  -0.000   0.002
 -0.003  -0.003   0.001  -0.003   0.005  -0.000   0.001   0.001
 -0.003  -0.009  -0.001  -0.005   0.002   0.000   0.000   0.000
 -0.005  -0.003   0.001   0.001  -0.003  -0.001   0.000   0.001
 -0.002  -0.002  -0.000  -0.003   0.003   0.000   0.000   0.000
 -0.003  -0.007   0.000  -0.004   0.002   0.001   0.001  -0.000
 -0.003  -0.003  -0.000   0.001  -0.002   0.000   0.001   0.000
 total augmentation occupancy for first ion, spin component:           1
  0.806   0.157  -0.027  -0.004   0.018   0.431   0.220  -0.004   0.006   0.007   0.012  -0.002   0.007  -0.072   0.012   0.001
  0.157   1.076   0.028  -0.009   0.004   0.217   0.640   0.041  -0.013  -0.006   0.009   0.003  -0.055  -0.078  -0.072  -0.002
 -0.027   0.028   0.834   0.016   0.016  -0.003   0.041   0.337   0.024   0.002   0.153   0.005  -0.073   0.004  -0.042  -0.002
 -0.004  -0.009   0.016   1.087  -0.161   0.006  -0.013   0.024   0.656  -0.210   0.005   0.002  -0.072  -0.045   0.027  -0.002
  0.018   0.004   0.016  -0.161   0.827   0.007  -0.006   0.003  -0.213   0.440  -0.007   0.001  -0.011   0.041   0.006  -0.003
  0.431   0.217  -0.003   0.006   0.007   0.368   0.221   0.005   0.005  -0.005  -0.018  -0.001  -0.020  -0.071  -0.029  -0.000
  0.220   0.640   0.041  -0.013  -0.006   0.221   0.575   0.026  -0.006  -0.005   0.034   0.005  -0.045  -0.090  -0.067  -0.003
 -0.004   0.041   0.337   0.024   0.003   0.005   0.026   0.270   0.015  -0.003   0.043   0.010  -0.016  -0.005  -0.009  -0.004
  0.006  -0.013   0.024   0.656  -0.213   0.005  -0.006   0.015   0.581  -0.215   0.020   0.003  -0.067  -0.052   0.032  -0.005
  0.007  -0.006   0.002  -0.210   0.440  -0.005  -0.005  -0.003  -0.215   0.362   0.011   0.001   0.029   0.041  -0.014  -0.000
  0.012   0.009   0.153   0.005  -0.007  -0.018   0.034   0.043   0.020   0.011   1.407   0.136  -0.045  -0.016  -0.026  -0.002
 -0.002   0.003   0.005   0.002   0.001  -0.001   0.005   0.010   0.003   0.001   0.136   0.026  -0.009  -0.000  -0.005  -0.001
  0.007  -0.055  -0.073  -0.072  -0.011  -0.020  -0.045  -0.016  -0.067   0.029  -0.045  -0.009   0.357   0.006   0.001   0.026
 -0.072  -0.078   0.004  -0.045   0.041  -0.071  -0.090  -0.005  -0.052   0.041  -0.016  -0.000   0.006   0.425   0.004  -0.000
  0.012  -0.072  -0.042   0.027   0.006  -0.029  -0.067  -0.009   0.032  -0.014  -0.026  -0.005   0.001   0.004   0.355  -0.000
  0.001  -0.002  -0.002  -0.002  -0.003  -0.000  -0.003  -0.004  -0.005  -0.000  -0.002  -0.001   0.026  -0.000  -0.000   0.003
 -0.003   0.001  -0.000   0.001   0.002  -0.005  -0.005   0.000  -0.003   0.003  -0.000  -0.000  -0.000   0.028  -0.000   0.000
  0.003  -0.002  -0.001   0.001   0.002   0.000  -0.005  -0.002   0.003   0.000  -0.001  -0.000  -0.000  -0.000   0.027  -0.000


------------------------ aborting loop because EDIFF is reached ----------------------------------------


    CHARGE:  cpu time    0.4585: real time    0.4596
    FORLOC:  cpu time    0.0063: real time    0.0063
    FORNL :  cpu time    5.3536: real time    5.3664
    STRESS:  cpu time   32.7352: real time   32.8137
    FORCOR:  cpu time    0.0331: real time    0.0335
    FORHAR:  cpu time    0.0123: real time    0.0124
    MIXING:  cpu time    0.0010: real time    0.0010
    OFIELD:  cpu time    0.0000: real time    0.0000

  FORCE on cell =-STRESS in cart. coord.  units (eV):
  Direction    XX          YY          ZZ          XY          YZ          ZX
  --------------------------------------------------------------------------------------
  Alpha Z    89.51636    89.51636    89.51636
  Ewald   49350.48370 49299.55537-54262.75603   -44.03787    19.81365    11.36762
  Hartree 50056.37026 50024.55130-49685.44737   -27.53015    11.83013     6.81518
  E(xc)    -609.64534  -610.70096  -617.74160    -0.91615    -0.94907    -0.54703
  Local  ************************101386.27677    64.39639   -40.42710   -23.25068
  n-local  1213.91475  1216.12142  1248.51811     1.94843    -2.79758    -1.62662
  augment  -213.20263  -212.87539  -214.68670     0.27336     0.51598     0.30341
  Kinetic  2008.27379  2014.98850  2054.50046     5.82866    11.84259     6.83937
  Fock        0.00000     0.00000     0.00000     0.00000     0.00000     0.00000
  -------------------------------------------------------------------------------------
  Total       0.07577     0.03292    -1.81999    -0.03731    -0.17140    -0.09875
  in kB       0.05076     0.02205    -1.21926    -0.02500    -0.11483    -0.06615
  external pressure =       -0.38 kB  Pullay stress =        0.00 kB


 VOLUME and BASIS-vectors are now :
 -----------------------------------------------------------------------------
  energy-cutoff  :      280.00
  volume of cell :     2391.58
      direct lattice vectors                 reciprocal lattice vectors
     8.308674017  4.828625383  0.000000000     0.059982992  0.103884820  0.000000000
    -8.281626951  4.781803167  0.000000000    -0.060570330  0.104224098  0.000000000
     0.000000000  0.000000000 30.000000000     0.000000000  0.000000000  0.033333333

  length of vectors
     9.609874453  9.563000914 30.000000000     0.119958389  0.120546371  0.033333333


 FORCES acting on ions
    electron-ion (+dipol)            ewald-force                    non-local-force                 convergence-correction
 -----------------------------------------------------------------------------------------------
   -.119E+02 -.205E+02 -.123E+02   0.126E+02 0.219E+02 0.122E+02   -.774E+00 -.133E+01 0.177E+00   0.467E-01 -.523E-01 0.162E-01
   -.120E+02 -.207E+02 -.124E+02   0.128E+02 0.221E+02 0.122E+02   -.769E+00 -.133E+01 0.176E+00   -.422E-01 -.581E-02 0.135E-01
   -.118E+02 -.207E+02 -.124E+02   0.126E+02 0.220E+02 0.122E+02   -.761E+00 -.132E+01 0.173E+00   -.408E-01 -.490E-02 0.176E-01
   -.754E+01 -.117E+02 -.780E+01   0.744E+01 0.116E+02 0.789E+01   0.146E+00 0.220E+00 -.822E-01   -.373E-01 -.104E+00 -.862E-02
   -.672E+01 -.122E+02 -.779E+01   0.659E+01 0.121E+02 0.787E+01   0.119E+00 0.225E+00 -.808E-01   0.995E-02 -.396E-01 0.152E-02
   -.663E+01 -.122E+02 -.778E+01   0.659E+01 0.120E+02 0.786E+01   0.124E+00 0.227E+00 -.823E-01   -.778E-01 -.379E-01 -.382E-02
   0.177E+02 0.307E+02 0.219E+02   -.182E+02 -.314E+02 -.216E+02   0.416E+00 0.714E+00 -.329E+00   0.584E-01 0.713E-01 -.328E-02
   0.176E+02 0.306E+02 0.221E+02   -.181E+02 -.313E+02 -.217E+02   0.416E+00 0.721E+00 -.329E+00   0.122E-01 0.644E-01 -.687E-02
   0.178E+02 0.308E+02 0.217E+02   -.182E+02 -.316E+02 -.214E+02   0.407E+00 0.710E+00 -.328E+00   0.254E-01 0.307E-01 -.962E-02
   -.146E+01 -.275E+01 0.489E+03   0.109E+01 0.185E+01 -.494E+03   0.440E+00 0.762E+00 0.478E+01   -.667E-01 0.119E+00 -.668E-01
   0.949E+01 0.163E+02 -.498E+03   -.973E+01 -.168E+02 0.503E+03   0.180E+00 0.318E+00 -.512E+01   0.589E-01 0.129E+00 0.638E-01
   -.148E+01 -.252E+01 0.489E+03   0.965E+00 0.174E+01 -.494E+03   0.439E+00 0.767E+00 0.477E+01   0.651E-01 0.572E-03 -.214E-01
   0.948E+01 0.165E+02 -.498E+03   -.966E+01 -.169E+02 0.503E+03   0.194E+00 0.322E+00 -.512E+01   -.453E-02 0.260E-01 -.774E-02
   -.162E+01 -.259E+01 0.489E+03   0.106E+01 0.176E+01 -.494E+03   0.440E+00 0.758E+00 0.478E+01   0.107E+00 0.632E-01 -.108E+00
   0.958E+01 0.165E+02 -.498E+03   -.983E+01 -.169E+02 0.503E+03   0.185E+00 0.328E+00 -.512E+01   0.666E-01 0.547E-01 0.256E-01
   0.111E+02 0.191E+02 0.628E+03   -.114E+02 -.195E+02 -.632E+03   0.260E+00 0.452E+00 0.401E+01   0.189E-01 0.340E-01 0.270E-01
   0.393E+01 0.664E+01 -.622E+03   -.449E+01 -.757E+01 0.626E+03   0.538E+00 0.900E+00 -.358E+01   0.108E-01 0.160E-01 -.385E-01
   0.109E+02 0.193E+02 0.628E+03   -.112E+02 -.197E+02 -.632E+03   0.264E+00 0.454E+00 0.400E+01   0.755E-03 0.121E-01 0.313E-01
   0.374E+01 0.658E+01 -.622E+03   -.427E+01 -.750E+01 0.625E+03   0.522E+00 0.920E+00 -.359E+01   0.533E-02 -.843E-02 -.277E-01
   0.112E+02 0.191E+02 0.628E+03   -.114E+02 -.196E+02 -.632E+03   0.263E+00 0.455E+00 0.400E+01   0.200E-01 0.225E-01 0.349E-01
   0.393E+01 0.687E+01 -.623E+03   -.443E+01 -.776E+01 0.627E+03   0.512E+00 0.902E+00 -.358E+01   -.218E-01 -.173E-01 -.292E-01
   -.934E+01 -.163E+02 0.588E+03   0.104E+02 0.181E+02 -.592E+03   -.999E+00 -.176E+01 0.305E+01   -.276E-01 -.256E-01 0.345E-01
   -.118E+02 -.209E+02 -.587E+03   0.126E+02 0.219E+02 0.590E+03   -.561E+00 -.978E+00 -.320E+01   -.151E+00 0.633E-02 0.592E-01
   -.930E+01 -.160E+02 0.588E+03   0.104E+02 0.179E+02 -.591E+03   -.103E+01 -.176E+01 0.305E+01   -.190E-01 -.963E-01 -.304E-01
   -.119E+02 -.208E+02 -.587E+03   0.124E+02 0.219E+02 0.590E+03   -.566E+00 -.975E+00 -.320E+01   0.367E-01 -.670E-01 0.442E-02
   -.943E+01 -.163E+02 0.589E+03   0.106E+02 0.182E+02 -.592E+03   -.101E+01 -.174E+01 0.305E+01   -.989E-01 -.130E+00 -.898E-01
   -.123E+02 -.206E+02 -.587E+03   0.128E+02 0.217E+02 0.590E+03   -.562E+00 -.976E+00 -.321E+01   0.163E-01 -.109E+00 0.117E+00
 -----------------------------------------------------------------------------------------------
   0.119E+01 0.207E+01 0.970E+00   -.817E-13 -.249E-13 0.227E-12   -.116E+01 -.202E+01 -.953E+00   -.285E-01 -.493E-01 -.522E-02
 
 
 POSITION                                       TOTAL-FORCE (eV/Angst)
 -----------------------------------------------------------------------------------
     -5.66868      2.93144      0.04749        -0.009384     -0.003473      0.026171
     -0.14780     -0.25599      0.04804        -0.004638     -0.014930      0.027095
      5.40080      6.16579      0.04798         0.003279     -0.000678      0.024200
     -0.02631      6.34024      0.02290         0.003988      0.019086     -0.005125
      2.74134      4.74264      0.02277         0.002681      0.005551     -0.005894
      5.50186      3.14852      0.02290         0.011907      0.007602     -0.005373
      2.92734      1.88232     -0.06774        -0.002237     -0.003139     -0.023761
      0.16702      3.47672     -0.06815        -0.000574     -0.002575     -0.023469
     -2.59396      5.06950     -0.06726        -0.002640     -0.003511     -0.023074
     -0.92417      1.58664     28.71080        -0.002007     -0.012995      0.015614
      0.92019      1.59377      1.30950         0.000036      0.000724     -0.017441
     -3.68457      3.17997     28.71113        -0.007838     -0.008292      0.014143
     -1.84014      3.18683      1.30972         0.003735      0.006342     -0.012255
     -6.44533      4.77440     28.71094        -0.008677     -0.010832      0.017703
     -4.60124      4.78107      1.31008         0.001886      0.002973     -0.014244
      1.87418      3.24530     28.27428         0.006251      0.009123     -0.018260
      3.71170      3.23955      1.67766        -0.006041     -0.011322     -0.012295
     -0.88741      4.83910     28.27433         0.004846      0.009116     -0.017764
      0.95065      4.83481      1.67603        -0.005343     -0.010091     -0.013691
     -3.64736      6.43208     28.27459         0.004535      0.009132     -0.018340
     -1.81083      6.42707      1.67944        -0.006659     -0.009885     -0.010420
      4.62633      4.82380     28.42827         0.009035      0.014744      0.010150
      6.46741      4.82615      1.59615         0.000513     -0.014622      0.018564
      1.86468      6.41788     28.42955         0.010486      0.017912      0.013938
      3.70701      6.42003      1.59580        -0.009473     -0.010573      0.021044
     -0.89529      8.01256     28.42713         0.012296      0.022476      0.015193
      0.94577      8.01442      1.59569        -0.009963     -0.007864      0.017595
 -----------------------------------------------------------------------------------
    total drift:                                0.000068     -0.000667      0.011976


--------------------------------------------------------------------------------------------------------



  FREE ENERGIE OF THE ION-ELECTRON SYSTEM (eV)
  ---------------------------------------------------
  free  energy   TOTEN  =      -192.44084972 eV

  energy  without entropy=     -192.29978653  energy(sigma->0) =     -192.37031812
 
 d Force =-0.4560384E-04[-0.458E-04,-0.454E-04]  d Energy =-0.9955461E-04 0.540E-04
 d Force = 0.1220634E+00[ 0.122E+00, 0.122E+00]  d Ewald  =-0.6380735E+00 0.760E+00


--------------------------------------------------------------------------------------------------------


    POTLOK:  cpu time    0.0337: real time    0.0338


--------------------------------------------------------------------------------------------------------


 Quasi-Newton relaxation of ions (Broydens 2nd method)
  g(Force)  = 0.604E-03   g(Stress)= 0.172E-04

 retain information from N=  2 steps
 eigenvalues of (default step * inverse Hessian matrix)
  average eigenvalue of G=   0.4065
 eigenvalue spectrum of G is  0.0264  0.7865


--------------------------------------------------------------------------------------------------------


  
 reached required accuracy - stopping structural energy minimisation
     LOOP+:  cpu time   85.8147: real time   86.0288
    4ORBIT:  cpu time    0.0000: real time    0.0000

 total amount of memory used by VASP on root node   650782. kBytes
========================================================================

   base      :      30000. kBytes
   nonl-proj :     559647. kBytes
   fftplans  :       2414. kBytes
   grid      :      12150. kBytes
   one-center:        419. kBytes
   wavefun   :      46152. kBytes
 
  
  
 General timing and accounting informations for this job:
 ========================================================
  
                  Total CPU time used (sec):     6078.582
                            User time (sec):     6055.924
                          System time (sec):       22.658
                         Elapsed time (sec):     6094.484
  
                   Maximum memory used (kb):      738224.
                   Average memory used (kb):           0.
  
                          Minor page faults:       637460
                          Major page faults:            2
                 Voluntary context switches:         5728
