unknown system                          
           1
     8.859767    5.102606    0.000000
    -8.860047    5.103089    0.000000
     0.000000    0.000000   30.000000
   V    Mo   W    S 
   3   3   3  18
Direct configuration=     1
   0.00000000  0.66666669  0.00000000
   0.66666669  0.33333334  0.00000000
   0.33333334  0.00000000  0.00000000
   0.66666669  0.66666669  0.00000000
   0.66666669  0.00000000  0.00000000
   0.33333334  0.33333334  0.00000000
   0.00000000  0.00000000  0.00000000
   1.00000000  0.33333334  0.00000000
   0.33333334  0.66666669  0.00000000
   0.11068511  0.22244981  0.95539999
   0.22244981  0.11068511  0.04460000
   0.11068511  0.55578315  0.95539999
   0.22244981  0.44401845  0.04460000
   0.11068511  0.88911647  0.95539999
   0.22244981  0.77735180  0.04460000
   0.44401845  0.22244981  0.95539999
   0.55578315  0.11068511  0.04460000
   0.44401845  0.55578315  0.95539999
   0.55578315  0.44401845  0.04460000
   0.44401845  0.88911647  0.95539999
   0.55578315  0.77735180  0.04460000
   0.77735180  0.22244981  0.95539999
   0.88911647  0.11068511  0.04460000
   0.77735180  0.55578315  0.95539999
   0.88911647  0.44401845  0.04460000
   0.77735180  0.88911647  0.95539999
   0.88911647  0.77735180  0.04460000
unknown system                          
           1
     8.669754    4.996110    0.000000
    -8.670001    4.996535    0.000000
     0.000000    0.000000   30.000000
   V    Mo   W    S 
   3   3   3  18
Direct configuration=     2
  -0.00121606  0.66664253 -0.00001559
   0.66541846  0.33335186 -0.00002436
   0.33463747  0.00123114  0.00004461
   0.66535246  0.66645806 -0.00024566
   0.66668506 -0.00122442  0.00021423
   0.33471240  0.33460383 -0.00016986
  -0.00119075 -0.00034723 -0.00021780
   0.99956949  0.33199700  0.00021310
   0.33612758  0.66701827  0.00026724
   0.11034356  0.22158016  0.95069534
   0.22361019  0.10816683  0.04793073
   0.10900499  0.55745904  0.95206109
   0.22156596  0.44492367  0.04925046
   0.11271415  0.88706362  0.95304910
   0.22036315  0.77939464  0.04690076
   0.44652394  0.21995681  0.95302629
   0.55324191  0.11314690  0.04693494
   0.44399519  0.55580513  0.95065048
   0.55791058  0.44193785  0.04800147
   0.44141898  0.89029290  0.95201299
   0.55433710  0.77730942  0.04930909
   0.77622263  0.22503911  0.95204363
   0.88950361  0.11162110  0.04934453
   0.77983613  0.55329716  0.95306710
   0.88707389  0.44608486  0.04694346
   0.77877849  0.88917958  0.95074399
   0.89167389  0.77622463  0.04796853
unknown system                          
           1
     8.489306    4.897833    0.000000
    -8.489032    4.897354    0.000000
     0.000000    0.000000   30.000000
   V    Mo   W    S 
   3   3   3  18
Direct configuration=     3
  -0.00152743  0.66667583 -0.00002345
   0.66507588  0.33338693 -0.00002724
   0.33494264  0.00153703  0.00009554
   0.66456944  0.66655908 -0.00026027
   0.66696112 -0.00179960  0.00018882
   0.33497583  0.33533898 -0.00014157
  -0.00173054 -0.00016041 -0.00022878
   0.99954827  0.33128844  0.00016728
   0.33720667  0.66697738  0.00027441
   0.11010826  0.22148026  0.95068117
   0.22341015  0.10801349  0.04784311
   0.10912376  0.55737476  0.95221655
   0.22148054  0.44504784  0.04927536
   0.11261961  0.88716621  0.95313267
   0.22047435  0.77929972  0.04676572
   0.44658541  0.21992948  0.95302308
   0.55319748  0.11318780  0.04689017
   0.44386922  0.55595970  0.95050368
   0.55799068  0.44189317  0.04802908
   0.44125348  0.89008262  0.95204732
   0.55412391  0.77715922  0.04946760
   0.77641753  0.22518671  0.95212121
   0.88974361  0.11169561  0.04942309
   0.77984986  0.55325086  0.95310445
   0.88714401  0.44597868  0.04685883
   0.77900150  0.88929523  0.95064053
   0.89179919  0.77640943  0.04793155
unknown system                          
           1
     8.288143    4.770511    0.000000
    -8.286802    4.768185    0.000000
     0.000000    0.000000   30.000000
   V    Mo   W    S 
   3   3   3  18
Direct configuration=     4
  -0.00252899  0.66686663 -0.00004078
   0.66402317  0.33357708 -0.00002799
   0.33577966  0.00239371  0.00026875
   0.66118287  0.66732148 -0.00021221
   0.66862082 -0.00415224  0.00004291
   0.33542937  0.33846473  0.00001107
  -0.00402003  0.00116127 -0.00015517
   0.99974930  0.32813890 -0.00006535
   0.34126314  0.66636038  0.00018911
   0.11008996  0.22148301  0.94897905
   0.22371321  0.10750659  0.04889803
   0.10902357  0.55781581  0.95141426
   0.22145595  0.44517644  0.05099630
   0.11309896  0.88684837  0.95211152
   0.22017807  0.77963900  0.04756244
   0.44714807  0.21950036  0.95169993
   0.55283967  0.11370067  0.04800141
   0.44378831  0.55615226  0.94826791
   0.55874945  0.44148567  0.04954536
   0.44070544  0.89042945  0.95075723
   0.55431207  0.77706592  0.05174139
   0.77591111  0.22562041  0.95099066
   0.88983904  0.11151281  0.05140739
   0.78015973  0.55271794  0.95194198
   0.88662000  0.44626171  0.04786488
   0.77898800  0.88922716  0.94861066
   0.89209452  0.77593892  0.04919918
unknown system                          
           1
     8.313132    4.771416    0.000000
    -8.311296    4.768235    0.000000
     0.000000    0.000000   30.000000
   V    Mo   W    S 
   3   3   3  18
Direct configuration=     5
  -0.00433270  0.66782849 -0.00007140
   0.66241558  0.33454089 -0.00002878
   0.33655097  0.00319189  0.00048815
   0.65451427  0.66877633 -0.00006329
   0.67258248 -0.00866397 -0.00011498
   0.33626293  0.34500741  0.00018657
  -0.00873119  0.00379106  0.00002144
   0.99983656  0.32133086 -0.00034113
   0.34905808  0.66525179  0.00001065
   0.11100841  0.22126429  0.94655664
   0.22391533  0.10771979  0.05005867
   0.10968212  0.55812900  0.95076554
   0.22150306  0.44569833  0.05330800
   0.11346854  0.88696243  0.95074465
   0.22046396  0.77967509  0.04857355
   0.44749357  0.21963450  0.94989307
   0.55323052  0.11394481  0.04947713
   0.44419697  0.55612508  0.94493600
   0.55938814  0.44168772  0.05156344
   0.44086206  0.89065454  0.94921615
   0.55492655  0.77730602  0.05503933
   0.77497213  0.22520780  0.94963974
   0.88925719  0.11103499  0.05433461
   0.77958420  0.55239266  0.95029763
   0.88597819  0.44599063  0.04912214
   0.77870376  0.88828355  0.94567949
   0.89142276  0.77544845  0.05070687
unknown system                          
           1
     8.303696    4.763165    0.000000
    -8.302634    4.761336    0.000000
     0.000000    0.000000   30.000000
   V    Mo   W    S 
   3   3   3  18
Direct configuration=     6
  -0.00488906  0.66875380 -0.00013199
   0.66200693  0.33527405 -0.00002918
   0.33638274  0.00282991  0.00055597
   0.65419945  0.66839757 -0.00018075
   0.67365262 -0.00863265  0.00002801
   0.33642831  0.34602584  0.00004115
  -0.00958398  0.00401146 -0.00013527
   0.99959925  0.31950057 -0.00025094
   0.34990285  0.66534523  0.00008117
   0.11160497  0.22104592  0.94641677
   0.22358672  0.10852459  0.04981376
   0.11036598  0.55769427  0.95118437
   0.22137891  0.44609841  0.05334994
   0.11315462  0.88749756  0.95083276
   0.22104389  0.77914813  0.04838710
   0.44719460  0.22011738  0.95000360
   0.55386039  0.11361993  0.04928041
   0.44442603  0.55600745  0.94464359
   0.55900860  0.44235705  0.05156274
   0.44166208  0.89036900  0.94933241
   0.55513741  0.77769974  0.05528751
   0.77493420  0.22431007  0.94981726
   0.88885652  0.11085421  0.05469341
   0.77888173  0.55271025  0.95033720
   0.88617140  0.44545570  0.04890335
   0.77865770  0.88749683  0.94550888
   0.89058958  0.77570218  0.05066666
unknown system                          
           1
     8.313774    4.765616    0.000000
    -8.313029    4.764339    0.000000
     0.000000    0.000000   30.000000
   V    Mo   W    S 
   3   3   3  18
Direct configuration=     7
  -0.00593119  0.67026118 -0.00017537
   0.66121816  0.33636171  0.00001543
   0.33641371  0.00229983  0.00070284
   0.65284607  0.66821857 -0.00015068
   0.67550429 -0.00933951  0.00006184
   0.33685970  0.34831597 -0.00000018
  -0.01147232  0.00452758 -0.00014762
   0.99923800  0.31616311 -0.00024020
   0.35237800  0.66545865  0.00003210
   0.11211118  0.22088673  0.94602627
   0.22333630  0.10915569  0.04958888
   0.11080365  0.55725481  0.95166745
   0.22125145  0.44634107  0.05358602
   0.11295962  0.88797144  0.95075006
   0.22143487  0.77866836  0.04827831
   0.44696128  0.22047999  0.94993963
   0.55443406  0.11343085  0.04919177
   0.44455091  0.55611294  0.94404991
   0.55870027  0.44281890  0.05176365
   0.44244249  0.89028591  0.94932013
   0.55553755  0.77788189  0.05579272
   0.77484750  0.22359104  0.94990242
   0.88869099  0.11048347  0.05535337
   0.77831507  0.55288091  0.95013939
   0.88634928  0.44502297  0.04871590
   0.77849017  0.88681049  0.94504613
   0.88994340  0.77586991  0.05078976
unknown system                          
           1
     8.321779    4.765228    0.000000
    -8.321863    4.765399    0.000000
     0.000000    0.000000   30.000000
   V    Mo   W    S 
   3   3   3  18
Direct configuration=     8
  -0.00642445  0.67105001 -0.00022401
   0.66083736  0.33686365  0.00002025
   0.33652167  0.00192891  0.00078456
   0.65279905  0.66794420 -0.00018966
   0.67599144 -0.00935325  0.00010074
   0.33709615  0.34891507 -0.00004517
  -0.01198963  0.00442595 -0.00020146
   0.99904693  0.31513423 -0.00020891
   0.35296979  0.66570460  0.00004067
   0.11226051  0.22077442  0.94600137
   0.22323541  0.10934916  0.04940307
   0.11083900  0.55704267  0.95196590
   0.22116862  0.44642265  0.05354297
   0.11288117  0.88812037  0.95078943
   0.22148016  0.77846699  0.04816273
   0.44686749  0.22056858  0.95002220
   0.55461839  0.11339438  0.04906677
   0.44462047  0.55616895  0.94397605
   0.55853033  0.44292910  0.05177650
   0.44274340  0.89028410  0.94937262
   0.55567258  0.77795357  0.05583722
   0.77487429  0.22339212  0.95002029
   0.88865329  0.11035592  0.05549927
   0.77819269  0.55290733  0.95013051
   0.88648003  0.44493166  0.04853413
   0.77845340  0.88656344  0.94500405
   0.88979491  0.77597566  0.05081781
unknown system                          
           1
     8.323150    4.765301    0.000000
    -8.323491    4.765921    0.000000
     0.000000    0.000000   30.000000
   V    Mo   W    S 
   3   3   3  18
Direct configuration=     9
  -0.00751112  0.67268778 -0.00031260
   0.65997828  0.33789835  0.00003495
   0.33686127  0.00117065  0.00095999
   0.65238182  0.66746010 -0.00021933
   0.67705442 -0.00963661  0.00014982
   0.33765940  0.35043955 -0.00010351
  -0.01327873  0.00430826 -0.00025837
   0.99868165  0.31281843 -0.00016396
   0.35452944  0.66615978  0.00002679
   0.11258967  0.22057230  0.94586577
   0.22308629  0.10972490  0.04907175
   0.11092738  0.55667923  0.95252663
   0.22105457  0.44658491  0.05354045
   0.11277462  0.88843295  0.95079328
   0.22156623  0.77807474  0.04799029
   0.44668531  0.22074087  0.95010570
   0.55501628  0.11335154  0.04889588
   0.44473804  0.55629160  0.94371126
   0.55821547  0.44311909  0.05187890
   0.44332352  0.89030644  0.94940451
   0.55598468  0.77806253  0.05604068
   0.77486382  0.22300093  0.95020020
   0.88858165  0.11005089  0.05587023
   0.77791733  0.55292198  0.95001734
   0.88669563  0.44474888  0.04822719
   0.77833470  0.88608792  0.94480439
   0.88950288  0.77615647  0.05094168
unknown system                          
           1
     8.311109    4.760999    0.000000
    -8.310030    4.759139    0.000000
     0.000000    0.000000   30.000000
   V    Mo   W    S 
   3   3   3  18
Direct configuration=    10
  -0.00780070  0.67310780 -0.00033715
   0.65975704  0.33816751  0.00003624
   0.33699533  0.00093575  0.00100802
   0.65236463  0.66733736 -0.00022324
   0.67725580 -0.00970207  0.00015870
   0.33781689  0.35078013 -0.00011603
  -0.01358821  0.00421762 -0.00026738
   0.99859555  0.31232014 -0.00015047
   0.35486946  0.66631415  0.00002060
   0.11265056  0.22051955  0.94585096
   0.22305997  0.10978693  0.04897741
   0.11091326  0.55660380  0.95267424
   0.22103105  0.44661380  0.05352402
   0.11275889  0.88850356  0.95079716
   0.22155555  0.77797764  0.04794742
   0.44664046  0.22076561  0.95013278
   0.55511028  0.11335968  0.04885431
   0.44476415  0.55633398  0.94366802
   0.55814322  0.44314469  0.05190168
   0.44344338  0.89032090  0.94940861
   0.55605930  0.77807041  0.05606983
   0.77486341  0.22293615  0.95025152
   0.88857886  0.10997400  0.05593833
   0.77786553  0.55291386  0.94998710
   0.88675194  0.44472428  0.04814094
   0.77829938  0.88598845  0.94477079
   0.88945946  0.77619879  0.05097549
unknown system                          
           1
     8.331695    4.766572    0.000000
    -8.333331    4.769453    0.000000
     0.000000    0.000000   30.000000
   V    Mo   W    S 
   3   3   3  18
Direct configuration=    11
  -0.00717846  0.67213387 -0.00025760
   0.66027543  0.33761349  0.00005761
   0.33642769  0.00170390  0.00088003
   0.65224242  0.66765755 -0.00020938
   0.67728526 -0.00948651  0.00014633
   0.33741703  0.35009105 -0.00009524
  -0.01300860  0.00471815 -0.00024893
   0.99867196  0.31295990 -0.00018554
   0.35430548  0.66585516  0.00003658
   0.11253531  0.22069224  0.94584004
   0.22306820  0.10970654  0.04925916
   0.11103253  0.55670260  0.95230331
   0.22102755  0.44652311  0.05359116
   0.11281740  0.88835199  0.95077658
   0.22169778  0.77822730  0.04803523
   0.44679006  0.22072994  0.95005040
   0.55486690  0.11329549  0.04892771
   0.44465942  0.55620447  0.94372079
   0.55833426  0.44310369  0.05182598
   0.44317643  0.89024000  0.94945111
   0.55587369  0.77810031  0.05602487
   0.77486627  0.22302723  0.95011215
   0.88859263  0.11018082  0.05582764
   0.77795106  0.55290727  0.95008612
   0.88660480  0.44470191  0.04836594
   0.77837846  0.88617508  0.94483142
   0.88950351  0.77609790  0.05084642
unknown system                          
           1
     8.336055    4.767093    0.000000
    -8.338604    4.771571    0.000000
     0.000000    0.000000   30.000000
   V    Mo   W    S 
   3   3   3  18
Direct configuration=    12
  -0.00912290  0.67501139 -0.00045715
   0.65875174  0.33939908  0.00003368
   0.33767023 -0.00019688  0.00123269
   0.65235474  0.66679699 -0.00024851
   0.67808074 -0.01003296  0.00020028
   0.33853304  0.35231472 -0.00017631
  -0.01498837  0.00373329 -0.00031360
   0.99823806  0.31016671 -0.00008608
   0.35637467  0.66705190 -0.00000565
   0.11292453  0.22025690  0.94577256
   0.22294679  0.11004756  0.04854501
   0.11082313  0.55628045  0.95334719
   0.22092689  0.44675552  0.05346593
   0.11268150  0.88882365  0.95080746
   0.22147340  0.77752184  0.04776599
   0.44642848  0.22087112  0.95024298
   0.55555125  0.11341324  0.04868652
   0.44490820  0.55653690  0.94345157
   0.55782357  0.44326918  0.05203441
   0.44398183  0.89039629  0.94939516
   0.55640397  0.77810029  0.05622816
   0.77485449  0.22265432  0.95047573
   0.88855431  0.10961910  0.05626670
   0.77763046  0.55288682  0.94982929
   0.88701133  0.44463066  0.04775269
   0.77813586  0.88552152  0.94459605
   0.88926252  0.77638485  0.05115715
unknown system                          
           1
     8.330685    4.764763    0.000000
    -8.332721    4.768342    0.000000
     0.000000    0.000000   30.000000
   V    Mo   W    S 
   3   3   3  18
Direct configuration=    13
  -0.00992950  0.67604438 -0.00053857
   0.65811562  0.34019811  0.00002177
   0.33820619 -0.00094094  0.00137459
   0.65248411  0.66650772 -0.00026261
   0.67849250 -0.01026789  0.00022502
   0.33901953  0.35318749 -0.00021200
  -0.01586151  0.00332677 -0.00033987
   0.99804804  0.30904582 -0.00003911
   0.35721067  0.66756845 -0.00002429
   0.11306023  0.22008706  0.94574047
   0.22291132  0.11016132  0.04827514
   0.11071207  0.55611856  0.95374101
   0.22088112  0.44682818  0.05342309
   0.11268244  0.88903238  0.95080874
   0.22135402  0.77724054  0.04768185
   0.44630139  0.22089695  0.95030646
   0.55583500  0.11350127  0.04860577
   0.44501152  0.55668071  0.94334139
   0.55764800  0.44331334  0.05212300
   0.44426760  0.89045681  0.94936491
   0.55660754  0.77809962  0.05630742
   0.77481824  0.22253549  0.95060797
   0.88853477  0.10939398  0.05644981
   0.77748592  0.55284358  0.94972010
   0.88713987  0.44459673  0.04751946
   0.77801941  0.88525105  0.94449226
   0.88915832  0.77650696  0.05128613
unknown system                          
           1
     8.330658    4.764705    0.000000
    -8.332720    4.768329    0.000000
     0.000000    0.000000   30.000000
   V    Mo   W    S 
   3   3   3  18
Direct configuration=    14
  -0.00959649  0.67573598 -0.00049637
   0.65842102  0.33977631  0.00004236
   0.33784634 -0.00054696  0.00130094
   0.65231640  0.66656236 -0.00026012
   0.67838653 -0.01011773  0.00021463
   0.33876894  0.35282044 -0.00019658
  -0.01542459  0.00363015 -0.00033355
   0.99810464  0.30941161 -0.00006302
   0.35689249  0.66727603 -0.00001337
   0.11301497  0.22018870  0.94574574
   0.22290637  0.11013464  0.04843529
   0.11080917  0.55617623  0.95355522
   0.22087763  0.44678604  0.05344453
   0.11266475  0.88891639  0.95080085
   0.22147740  0.77739534  0.04770106
   0.44637652  0.22089873  0.95027688
   0.55565137  0.11340116  0.04862959
   0.44493513  0.55658289  0.94339111
   0.55773814  0.44328873  0.05206420
   0.44412366  0.89040480  0.94939866
   0.55650823  0.77811084  0.05626770
   0.77486961  0.22256768  0.95053250
   0.88855394  0.10952047  0.05635827
   0.77757734  0.55286255  0.94979103
   0.88711182  0.44460074  0.04763627
   0.77809551  0.88539260  0.94456247
   0.88920761  0.77643776  0.05121358
unknown system                          
           1
     8.333473    4.767896    0.000000
    -8.335341    4.771175    0.000000
     0.000000    0.000000   30.000000
   V    Mo   W    S 
   3   3   3  18
Direct configuration=    15
  -0.00961863  0.67575812 -0.00049919
   0.65840102  0.33980238  0.00004089
   0.33787310 -0.00057478  0.00130566
   0.65232460  0.66655792 -0.00026025
   0.67839163 -0.01012824  0.00021525
   0.33878637  0.35284793 -0.00019748
  -0.01545597  0.00361126 -0.00033383
   0.99810108  0.30938417 -0.00006150
   0.35691510  0.66729464 -0.00001386
   0.11301617  0.22018290  0.94574734
   0.22290664  0.11013557  0.04842431
   0.11080458  0.55617338  0.95356675
   0.22087870  0.44678888  0.05344195
   0.11266552  0.88892214  0.95080247
   0.22147089  0.77738678  0.04769930
   0.44637184  0.22089873  0.95027978
   0.55566226  0.11340725  0.04862754
   0.44493866  0.55658894  0.94339004
   0.55773265  0.44329015  0.05206645
   0.44413126  0.89040686  0.94939686
   0.55651281  0.77810925  0.05626850
   0.77486746  0.22256602  0.95053820
   0.88855403  0.10951428  0.05636115
   0.77757222  0.55286148  0.94978763
   0.88711282  0.44460055  0.04762877
   0.77809160  0.88538630  0.94456009
   0.88920603  0.77644160  0.05121706
unknown system                          
           1
     8.336189    4.765020    0.000000
    -8.340426    4.772438    0.000000
     0.000000    0.000000   30.000000
   V    Mo   W    S 
   3   3   3  18
Direct configuration=    16
  -0.00893618  0.67672227 -0.00032608
   0.65961844  0.33858898  0.00023297
   0.33541934  0.00018840  0.00099144
   0.65231309  0.66681538 -0.00030763
   0.67854086 -0.00971513  0.00020421
   0.33747287  0.35211444 -0.00025790
  -0.01428738  0.00376950 -0.00033538
   0.99850876  0.30986361 -0.00008069
   0.35651551  0.66632484 -0.00003551
   0.11316080  0.22039955  0.94569685
   0.22279929  0.11030287  0.04899272
   0.11081712  0.55609402  0.95326276
   0.22083988  0.44671550  0.05350994
   0.11254842  0.88887907  0.95070512
   0.22180742  0.77766817  0.04766705
   0.44616878  0.22056492  0.95011751
   0.55506172  0.11286206  0.04862321
   0.44488573  0.55627652  0.94346223
   0.55791852  0.44356496  0.05195788
   0.44407570  0.89045052  0.94961312
   0.55665405  0.77817615  0.05618332
   0.77497484  0.22242426  0.95022938
   0.88852864  0.10951778  0.05623031
   0.77800801  0.55328827  0.95003028
   0.88737770  0.44465907  0.04788233
   0.77829276  0.88534625  0.94478950
   0.88912975  0.77635221  0.05096095
unknown system                          
           1
     8.341501    4.767622    0.000000
    -8.345856    4.775246    0.000000
     0.000000    0.000000   30.000000
   V    Mo   W    S 
   3   3   3  18
Direct configuration=    17
  -0.01013816  0.67791321 -0.00051303
   0.65844208  0.33969578  0.00018916
   0.33622806 -0.00055185  0.00133176
   0.65221834  0.66619099 -0.00029300
   0.67929246 -0.00998275  0.00023897
   0.33856220  0.35319029 -0.00022056
  -0.01516814  0.00354940 -0.00034001
   0.99795650  0.30830071 -0.00005983
   0.35760576  0.66723016 -0.00004196
   0.11319584  0.21994542  0.94565933
   0.22290608  0.11058899  0.04844991
   0.11056990  0.55594889  0.95405599
   0.22079491  0.44686699  0.05342775
   0.11250941  0.88917141  0.95058703
   0.22148891  0.77714249  0.04746771
   0.44621472  0.22084475  0.95034927
   0.55540553  0.11294018  0.04839380
   0.44518401  0.55656621  0.94322931
   0.55744588  0.44337324  0.05201543
   0.44452693  0.89045427  0.94959698
   0.55690537  0.77810505  0.05628514
   0.77511466  0.22227133  0.95056634
   0.88857288  0.10911664  0.05651720
   0.77774723  0.55300730  0.94983337
   0.88768120  0.44470846  0.04737462
   0.77810046  0.88502315  0.94452623
   0.88885144  0.77660375  0.05137298
unknown system                          
           1
     8.347611    4.769180    0.000000
    -8.353238    4.779027    0.000000
     0.000000    0.000000   30.000000
   V    Mo   W    S 
   3   3   3  18
Direct configuration=    18
  -0.01082319  0.67857672 -0.00058285
   0.65786359  0.34040994  0.00014644
   0.33680492 -0.00121055  0.00145503
   0.65238984  0.66601207 -0.00030773
   0.67951880 -0.01031213  0.00024866
   0.33910383  0.35392000 -0.00027815
  -0.01595407  0.00308008 -0.00036621
   0.99779351  0.30748892  0.00000364
   0.35830619  0.66777051 -0.00007058
   0.11326873  0.21978591  0.94566597
   0.22294919  0.11067330  0.04820144
   0.11041736  0.55591302  0.95439630
   0.22080568  0.44693259  0.05338136
   0.11253843  0.88933788  0.95057769
   0.22126638  0.77688244  0.04741384
   0.44614597  0.22088919  0.95041947
   0.55569987  0.11306262  0.04834085
   0.44524511  0.55669508  0.94318291
   0.55731235  0.44334345  0.05211963
   0.44473220  0.89052231  0.94955223
   0.55703638  0.77806131  0.05633889
   0.77503127  0.22220303  0.95069102
   0.88861330  0.10896835  0.05663816
   0.77757193  0.55289767  0.94970970
   0.88776513  0.44474334  0.04715548
   0.77801041  0.88485864  0.94445734
   0.88880135  0.77670875  0.05150935
unknown system                          
           1
     8.349366    4.769908    0.000000
    -8.355232    4.780172    0.000000
     0.000000    0.000000   30.000000
   V    Mo   W    S 
   3   3   3  18
Direct configuration=    19
  -0.01217668  0.67985112 -0.00074094
   0.65664993  0.34190529  0.00005525
   0.33816982 -0.00268740  0.00173355
   0.65278023  0.66562565 -0.00030857
   0.67984578 -0.01096830  0.00028943
   0.34021058  0.35542839 -0.00033439
  -0.01759152  0.00203731 -0.00039210
   0.99754241  0.30595329  0.00010310
   0.35963637  0.66891971 -0.00010340
   0.11337411  0.21945259  0.94572339
   0.22302865  0.11081711  0.04762235
   0.11011756  0.55583076  0.95510271
   0.22088718  0.44709166  0.05324375
   0.11259300  0.88969301  0.95059466
   0.22080262  0.77635607  0.04730355
   0.44595934  0.22095077  0.95056821
   0.55632661  0.11335043  0.04822136
   0.44542196  0.55702040  0.94307920
   0.55701923  0.44331732  0.05229733
   0.44517129  0.89066476  0.94943981
   0.55730564  0.77795528  0.05642137
   0.77489395  0.22208448  0.95098946
   0.88865159  0.10860348  0.05684986
   0.77720766  0.55272280  0.94946815
   0.88788723  0.44479564  0.04669998
   0.77781201  0.88449361  0.94430701
   0.88868790  0.77694925  0.05176579
unknown system                          
           1
     8.342576    4.766150    0.000000
    -8.347131    4.774118    0.000000
     0.000000    0.000000   30.000000
   V    Mo   W    S 
   3   3   3  18
Direct configuration=    20
  -0.01238024  0.68003353 -0.00077056
   0.65649083  0.34215276  0.00003367
   0.33845299 -0.00299444  0.00177668
   0.65290178  0.66561336 -0.00030850
   0.67983019 -0.01108697  0.00029421
   0.34037350  0.35567492 -0.00034365
  -0.01787891  0.00179324 -0.00039170
   0.99752329  0.30576480  0.00011855
   0.35981778  0.66911727 -0.00011050
   0.11339197  0.21939861  0.94573795
   0.22304749  0.11081842  0.04751421
   0.11006132  0.55582806  0.95520822
   0.22090991  0.44712708  0.05322600
   0.11260476  0.88974341  0.95060941
   0.22071080  0.77626722  0.04729581
   0.44590009  0.22093687  0.95059047
   0.55644219  0.11341795  0.04821236
   0.44545881  0.55708750  0.94306376
   0.55697434  0.44333469  0.05233198
   0.44523824  0.89069563  0.94940955
   0.55735269  0.77793731  0.05643887
   0.77485976  0.22207586  0.95103977
   0.88864610  0.10853967  0.05688082
   0.77715672  0.55272154  0.94942855
   0.88789056  0.44481133  0.04663108
   0.77776547  0.88442502  0.94428028
   0.88867201  0.77697982  0.05180263
unknown system                          
           1
     8.342578    4.766184    0.000000
    -8.347124    4.774138    0.000000
     0.000000    0.000000   30.000000
   V    Mo   W    S 
   3   3   3  18
Direct configuration=    21
  -0.01179818  0.68003486 -0.00066490
   0.65700393  0.34121738  0.00013718
   0.33690513 -0.00199393  0.00165574
   0.65264460  0.66562262 -0.00032972
   0.68007708 -0.01064618  0.00026071
   0.33965105  0.35465282 -0.00035477
  -0.01673404  0.00264013 -0.00042266
   0.99746926  0.30618064  0.00006727
   0.35945137  0.66877057 -0.00011397
   0.11344520  0.21965894  0.94561218
   0.22303898  0.11085883  0.04796902
   0.11017339  0.55580669  0.95495530
   0.22076120  0.44690382  0.05329774
   0.11263605  0.88957445  0.95051032
   0.22105003  0.77667644  0.04723460
   0.44605354  0.22086831  0.95046551
   0.55582283  0.11297095  0.04818192
   0.44525088  0.55678039  0.94305178
   0.55706620  0.44326004  0.05234352
   0.44501600  0.89064366  0.94957666
   0.55722945  0.77798872  0.05644518
   0.77503351  0.22198590  0.95083418
   0.88874577  0.10879869  0.05689609
   0.77744217  0.55273023  0.94951650
   0.88809770  0.44482112  0.04682619
   0.77792284  0.88453132  0.94432379
   0.88875851  0.77687708  0.05172454
unknown system                          
           1
     8.348147    4.767280    0.000000
    -8.355214    4.779642    0.000000
     0.000000    0.000000   30.000000
   V    Mo   W    S 
   3   3   3  18
Direct configuration=    22
  -0.01179123  0.68003352 -0.00066345
   0.65700962  0.34120530  0.00013897
   0.33688051 -0.00197650  0.00165380
   0.65264014  0.66562053 -0.00032976
   0.68008155 -0.01064095  0.00026080
   0.33964354  0.35463782 -0.00035453
  -0.01671653  0.00265229 -0.00042288
   0.99746834  0.30618630  0.00006682
   0.35944657  0.66876497 -0.00011397
   0.11344554  0.21966199  0.94561024
   0.22303857  0.11085992  0.04797583
   0.11017464  0.55580710  0.95495195
   0.22076015  0.44690119  0.05329849
   0.11263635  0.88957306  0.95050822
   0.22105357  0.77668092  0.04723404
   0.44605690  0.22086810  0.95046384
   0.55581480  0.11296495  0.04818121
   0.44524850  0.55677635  0.94305192
   0.55706756  0.44325806  0.05234281
   0.44501410  0.89064412  0.94957892
   0.55722855  0.77798940  0.05644493
   0.77503495  0.22198454  0.95083101
   0.88874706  0.10880102  0.05689585
   0.77744563  0.55272950  0.94951793
   0.88810037  0.44482176  0.04682866
   0.77792554  0.88453291  0.94432452
   0.88875917  0.77687627  0.05172371
unknown system                          
           1
     8.353811    4.767820    0.000000
    -8.361657    4.781541    0.000000
     0.000000    0.000000   30.000000
   V    Mo   W    S 
   3   3   3  18
Direct configuration=    23
  -0.01304714  0.68076945 -0.00082730
   0.65603561  0.34274439  0.00004470
   0.33814310 -0.00327630  0.00186483
   0.65293357  0.66534170 -0.00030381
   0.68039135 -0.01130208  0.00033797
   0.34061302  0.35605851 -0.00035960
  -0.01816244  0.00167796 -0.00040500
   0.99739258  0.30492114  0.00015626
   0.36054690  0.66954567 -0.00014298
   0.11345286  0.21927476  0.94571587
   0.22305146  0.11099099  0.04741355
   0.10986807  0.55576243  0.95559361
   0.22096852  0.44718921  0.05314199
   0.11262137  0.88992905  0.95052562
   0.22046209  0.77597911  0.04722214
   0.44588564  0.22096797  0.95060788
   0.55666387  0.11338982  0.04811648
   0.44550396  0.55720387  0.94300251
   0.55681158  0.44325827  0.05242800
   0.44551283  0.89086242  0.94940064
   0.55752476  0.77786083  0.05648917
   0.77485681  0.22194374  0.95113922
   0.88871898  0.10834950  0.05699729
   0.77702765  0.55260337  0.94930005
   0.88810465  0.44485915  0.04639624
   0.77772012  0.88418575  0.94419201
   0.88861270  0.77712379  0.05195257
unknown system                          
           1
     8.361011    4.774979    0.000000
    -8.368506    4.788092    0.000000
     0.000000    0.000000   30.000000
   V    Mo   W    S 
   3   3   3  18
Direct configuration=    24
  -0.01410044  0.68140380 -0.00097861
   0.65519118  0.34412401 -0.00009703
   0.33972749 -0.00483719  0.00209723
   0.65346207  0.66531604 -0.00030510
   0.68032557 -0.01197258  0.00034396
   0.34144873  0.35738536 -0.00042139
  -0.01966719  0.00046070 -0.00041641
   0.99737334  0.30397258  0.00022677
   0.36140410  0.67049630 -0.00017429
   0.11350241  0.21893613  0.94582746
   0.22314358  0.11104521  0.04683151
   0.10960029  0.55572467  0.95615225
   0.22111404  0.44746310  0.05304740
   0.11263342  0.89020044  0.95060521
   0.21997078  0.77544500  0.04719693
   0.44561099  0.22099556  0.95074524
   0.55743551  0.11384871  0.04806414
   0.44573825  0.55758342  0.94292914
   0.55658019  0.44335563  0.05258354
   0.44591864  0.89099784  0.94924521