   27   27  100    1
  0.9710400E+02  0.1002848E-08  0.1002848E-08  0.3000000E-08  0.5000000E-15
  1.000000000000000E-004
  CAR 
 unknown system                          
    159     34    120
 
  0.0000000E+00  0.0000000E+00  0.0000000E+00  0.1562500E-01
    1      -17.813536   1.000000
    2      -16.752618   1.000000
    3      -16.645383   1.000000
    4      -16.588729   1.000000
    5      -16.554006   1.000000
    6      -16.510555   1.000000
    7      -16.433439   1.000000
    8      -16.238823   1.000000
    9      -16.170105   1.000000
   10      -16.098651   1.000000
   11      -16.026953   1.000000
   12      -15.992907   1.000000
   13      -15.859197   1.000000
   14      -15.709622   1.000000
   15      -15.582468   1.000000
   16      -15.463759   1.000000
   17      -15.360808   1.000000
   18      -15.286631   1.000000
   19       -9.315335   1.000000
   20       -9.014484   1.000000
   21       -8.967025   1.000000
   22       -8.854007   1.000000
   23       -8.788042   1.000000
   24       -8.699836   1.000000
   25       -8.633649   1.000000
   26       -8.586372   1.000000
   27       -8.531490   1.000000
   28       -8.514575   1.000000
   29       -8.442652   1.000000
   30       -8.323850   1.000000
   31       -8.299311   1.000000
   32       -8.105228   1.000000
   33       -8.014696   1.000000
   34       -7.905650   1.000000
   35       -7.853571   1.000000
   36       -7.786547   1.000000
   37       -7.748338   1.000000
   38       -7.560871   1.000000
   39       -7.478560   1.000000
   40       -7.415787   1.000000
   41       -7.364332   1.000000
   42       -7.350103   1.000000
   43       -7.032902   1.000000
   44       -6.906752   1.000000
   45       -6.844218   1.000000
   46       -6.800130   1.000000
   47       -6.744317   1.000000
   48       -6.575622   1.000000
   49       -6.549785   1.000000
   50       -6.464011   1.000000
   51       -6.434397   1.000000
   52       -6.389848   1.000000
   53       -6.359629   1.000000
   54       -6.301683   1.000000
   55       -6.185291   1.000000
   56       -6.150157   1.000000
   57       -6.037622   1.000000
   58       -5.954437   1.000000
   59       -5.703743   1.000000
   60       -5.624797   1.000000
   61       -5.483132   1.000000
   62       -5.430995   1.000000
   63       -5.183100   1.000000
   64       -5.147578   1.000000
   65       -5.064612   1.000000
   66       -5.031736   1.000000
   67       -4.909312   1.000000
   68       -4.839787   1.000000
   69       -4.791694   1.000000
   70       -4.689045   1.000000
   71       -4.660802   1.000000
   72       -4.623176   1.000000
   73       -4.586776   1.000000
   74       -4.253876   1.000000
   75       -4.030124   1.000000
   76       -3.936233   0.999991
   77       -3.799625   0.999536
   78       -3.683615   0.993631
   79       -3.542625   0.932423
   80       -3.353146   0.561300
   81       -3.314071   0.451435
   82       -2.870523   0.000560
   83       -2.736612   0.000013
   84       -2.687308   0.000003
   85       -2.486235   0.000000
   86       -2.468474   0.000000
   87       -2.274918   0.000000
   88       -2.205763   0.000000
   89       -2.168490   0.000000
   90       -2.129066   0.000000
   91       -1.659623   0.000000
   92       -1.584867   0.000000
   93       -1.397529   0.000000
   94       -1.372412   0.000000
   95       -1.195229   0.000000
   96       -1.000089   0.000000
   97       -0.926391   0.000000
   98       -0.897120   0.000000
   99       -0.743053   0.000000
  100       -0.603528   0.000000
  101       -0.577275   0.000000
  102       -0.554990   0.000000
  103       -0.530370   0.000000
  104       -0.419925   0.000000
  105       -0.276401   0.000000
  106       -0.203612   0.000000
  107       -0.132355   0.000000
  108        0.069246   0.000000
  109        0.197103   0.000000
  110        0.271399   0.000000
  111        0.369913   0.000000
  112        0.433663   0.000000
  113        0.709385   0.000000
  114        0.902719   0.000000
  115        0.981351   0.000000
  116        1.026498   0.000000
  117        1.159334   0.000000
  118        1.644395   0.000000
  119        1.833930   0.000000
  120        2.148734   0.000000
 
  0.1250000E+00  0.2775558E-16  0.0000000E+00  0.3125000E-01
    1      -17.789889   1.000000
    2      -16.775048   1.000000
    3      -16.718385   1.000000
    4      -16.656899   1.000000
    5      -16.570257   1.000000
    6      -16.470094   1.000000
    7      -16.388906   1.000000
    8      -16.258712   1.000000
    9      -16.144541   1.000000
   10      -16.048081   1.000000
   11      -16.002664   1.000000
   12      -15.978317   1.000000
   13      -15.846926   1.000000
   14      -15.707102   1.000000
   15      -15.593519   1.000000
   16      -15.465562   1.000000
   17      -15.365721   1.000000
   18      -15.296525   1.000000
   19       -9.324161   1.000000
   20       -9.109107   1.000000
   21       -9.056802   1.000000
   22       -8.944924   1.000000
   23       -8.842333   1.000000
   24       -8.699455   1.000000
   25       -8.678690   1.000000
   26       -8.603926   1.000000
   27       -8.524774   1.000000
   28       -8.509852   1.000000
   29       -8.411442   1.000000
   30       -8.211041   1.000000
   31       -8.163863   1.000000
   32       -8.045657   1.000000
   33       -7.965753   1.000000
   34       -7.879589   1.000000
   35       -7.799682   1.000000
   36       -7.755401   1.000000
   37       -7.664548   1.000000
   38       -7.577271   1.000000
   39       -7.513001   1.000000
   40       -7.459060   1.000000
   41       -7.344017   1.000000
   42       -7.260456   1.000000
   43       -7.099571   1.000000
   44       -6.958186   1.000000
   45       -6.860083   1.000000
   46       -6.816270   1.000000
   47       -6.717506   1.000000
   48       -6.674502   1.000000
   49       -6.522312   1.000000
   50       -6.475901   1.000000
   51       -6.439964   1.000000
   52       -6.359791   1.000000
   53       -6.332390   1.000000
   54       -6.286661   1.000000
   55       -6.190020   1.000000
   56       -6.137862   1.000000
   57       -6.015504   1.000000
   58       -5.919575   1.000000
   59       -5.688778   1.000000
   60       -5.597384   1.000000
   61       -5.498034   1.000000
   62       -5.457394   1.000000
   63       -5.333157   1.000000
   64       -5.185206   1.000000
   65       -5.079850   1.000000
   66       -5.074823   1.000000
   67       -4.961155   1.000000
   68       -4.858108   1.000000
   69       -4.744080   1.000000
   70       -4.702279   1.000000
   71       -4.643348   1.000000
   72       -4.567513   1.000000
   73       -4.518814   1.000000
   74       -4.198186   1.000000
   75       -4.015010   0.999999
   76       -3.933443   0.999990
   77       -3.819300   0.999720
   78       -3.714789   0.996651
   79       -3.595875   0.969301
   80       -3.487952   0.865959
   81       -3.127844   0.075095
   82       -2.867856   0.000524
   83       -2.734722   0.000012
   84       -2.645042   0.000001
   85       -2.508905   0.000000
   86       -2.446922   0.000000
   87       -2.294683   0.000000
   88       -2.213027   0.000000
   89       -2.149596   0.000000
   90       -2.083015   0.000000
   91       -1.676854   0.000000
   92       -1.586184   0.000000
   93       -1.401037   0.000000
   94       -1.358956   0.000000
   95       -1.192361   0.000000
   96       -1.001324   0.000000
   97       -0.946363   0.000000
   98       -0.891125   0.000000
   99       -0.761613   0.000000
  100       -0.690813   0.000000
  101       -0.636440   0.000000
  102       -0.609510   0.000000
  103       -0.559998   0.000000
  104       -0.456022   0.000000
  105       -0.328411   0.000000
  106       -0.239753   0.000000
  107       -0.158936   0.000000
  108        0.109645   0.000000
  109        0.211405   0.000000
  110        0.276271   0.000000
  111        0.364210   0.000000
  112        0.433587   0.000000
  113        0.657951   0.000000
  114        0.885137   0.000000
  115        1.039294   0.000000
  116        1.095833   0.000000
  117        1.194900   0.000000
  118        1.689286   0.000000
  119        1.873186   0.000000
  120        2.183931   0.000000
 
  0.2500000E+00  0.5551115E-16  0.0000000E+00  0.3125000E-01
    1      -17.721507   1.000000
    2      -16.953226   1.000000
    3      -16.748432   1.000000
    4      -16.706008   1.000000
    5      -16.615245   1.000000
    6      -16.426263   1.000000
    7      -16.380678   1.000000
    8      -16.200566   1.000000
    9      -16.102713   1.000000
   10      -16.036756   1.000000
   11      -15.952945   1.000000
   12      -15.922221   1.000000
   13      -15.805570   1.000000
   14      -15.690845   1.000000
   15      -15.611154   1.000000
   16      -15.486899   1.000000
   17      -15.372286   1.000000
   18      -15.316883   1.000000
   19       -9.482345   1.000000
   20       -9.229175   1.000000
   21       -9.152179   1.000000
   22       -9.044686   1.000000
   23       -8.947390   1.000000
   24       -8.809834   1.000000
   25       -8.649085   1.000000
   26       -8.531943   1.000000
   27       -8.487208   1.000000
   28       -8.421295   1.000000
   29       -8.337480   1.000000
   30       -8.134738   1.000000
   31       -8.108905   1.000000
   32       -8.061166   1.000000
   33       -7.877691   1.000000
   34       -7.786537   1.000000
   35       -7.768409   1.000000
   36       -7.651676   1.000000
   37       -7.634238   1.000000
   38       -7.522048   1.000000
   39       -7.439227   1.000000
   40       -7.376806   1.000000
   41       -7.266900   1.000000
   42       -7.225419   1.000000
   43       -7.166615   1.000000
   44       -7.003814   1.000000
   45       -6.882421   1.000000
   46       -6.810033   1.000000
   47       -6.729544   1.000000
   48       -6.682980   1.000000
   49       -6.565134   1.000000
   50       -6.543788   1.000000
   51       -6.433174   1.000000
   52       -6.349273   1.000000
   53       -6.283514   1.000000
   54       -6.216351   1.000000
   55       -6.164093   1.000000
   56       -6.080005   1.000000
   57       -5.981609   1.000000
   58       -5.859305   1.000000
   59       -5.706589   1.000000
   60       -5.675065   1.000000
   61       -5.622379   1.000000
   62       -5.567890   1.000000
   63       -5.438557   1.000000
   64       -5.324455   1.000000
   65       -5.174417   1.000000
   66       -5.102180   1.000000
   67       -5.004038   1.000000
   68       -4.816783   1.000000
   69       -4.759439   1.000000
   70       -4.626282   1.000000
   71       -4.542015   1.000000
   72       -4.491043   1.000000
   73       -4.397077   1.000000
   74       -4.251114   1.000000
   75       -4.092991   1.000000
   76       -3.996231   0.999999
   77       -3.904103   0.999974
   78       -3.704672   0.995854
   79       -3.518809   0.907527
   80       -3.474318   0.844010
   81       -3.004141   0.010346
   82       -2.881519   0.000735
   83       -2.704993   0.000005
   84       -2.585851   0.000000
   85       -2.509029   0.000000
   86       -2.443215   0.000000
   87       -2.328807   0.000000
   88       -2.212438   0.000000
   89       -2.064942   0.000000
   90       -2.019561   0.000000
   91       -1.707987   0.000000
   92       -1.592939   0.000000
   93       -1.403000   0.000000
   94       -1.333970   0.000000
   95       -1.185361   0.000000
   96       -1.043598   0.000000
   97       -0.996638   0.000000
   98       -0.913053   0.000000
   99       -0.892268   0.000000
  100       -0.788482   0.000000
  101       -0.747535   0.000000
  102       -0.698272   0.000000
  103       -0.605833   0.000000
  104       -0.524722   0.000000
  105       -0.420297   0.000000
  106       -0.304341   0.000000
  107       -0.213038   0.000000
  108        0.067574   0.000000
  109        0.123045   0.000000
  110        0.305082   0.000000
  111        0.333068   0.000000
  112        0.466066   0.000000
  113        0.670582   0.000000
  114        0.883479   0.000000
  115        1.127467   0.000000
  116        1.224231   0.000000
  117        1.292430   0.000000
  118        1.812889   0.000000
  119        1.985890   0.000000
  120        2.288013   0.000000
 
  0.3750000E+00  0.0000000E+00  0.0000000E+00  0.3125000E-01
    1      -17.620980   1.000000
    2      -17.147317   1.000000
    3      -16.783082   1.000000
    4      -16.705334   1.000000
    5      -16.652274   1.000000
    6      -16.415050   1.000000
    7      -16.387809   1.000000
    8      -16.127036   1.000000
    9      -16.056996   1.000000
   10      -16.009620   1.000000
   11      -15.927671   1.000000
   12      -15.903751   1.000000
   13      -15.796827   1.000000
   14      -15.644640   1.000000
   15      -15.603791   1.000000
   16      -15.528321   1.000000
   17      -15.398161   1.000000
   18      -15.313831   1.000000
   19       -9.682301   1.000000
   20       -9.304142   1.000000
   21       -9.211843   1.000000
   22       -9.067727   1.000000
   23       -8.986171   1.000000
   24       -8.900275   1.000000
   25       -8.597969   1.000000
   26       -8.446885   1.000000
   27       -8.394677   1.000000
   28       -8.333249   1.000000
   29       -8.299131   1.000000
   30       -8.178038   1.000000
   31       -8.137239   1.000000
   32       -8.034700   1.000000
   33       -7.933435   1.000000
   34       -7.831327   1.000000
   35       -7.761976   1.000000
   36       -7.681153   1.000000
   37       -7.569170   1.000000
   38       -7.440692   1.000000
   39       -7.393459   1.000000
   40       -7.266853   1.000000
   41       -7.181404   1.000000
   42       -7.160932   1.000000
   43       -7.057378   1.000000
   44       -6.938775   1.000000
   45       -6.873130   1.000000
   46       -6.818988   1.000000
   47       -6.690681   1.000000
   48       -6.637548   1.000000
   49       -6.594277   1.000000
   50       -6.537980   1.000000
   51       -6.413487   1.000000
   52       -6.329938   1.000000
   53       -6.243294   1.000000
   54       -6.162619   1.000000
   55       -6.102128   1.000000
   56       -6.075706   1.000000
   57       -5.977128   1.000000
   58       -5.940717   1.000000
   59       -5.834962   1.000000
   60       -5.760200   1.000000
   61       -5.742017   1.000000
   62       -5.680796   1.000000
   63       -5.554339   1.000000
   64       -5.329855   1.000000
   65       -5.227211   1.000000
   66       -5.101584   1.000000
   67       -4.987074   1.000000
   68       -4.850414   1.000000
   69       -4.729624   1.000000
   70       -4.690416   1.000000
   71       -4.462693   1.000000
   72       -4.440484   1.000000
   73       -4.413430   1.000000
   74       -4.321086   1.000000
   75       -4.194777   1.000000
   76       -3.937626   0.999991
   77       -3.878650   0.999946
   78       -3.706296   0.995992
   79       -3.504485   0.889598
   80       -3.296525   0.402799
   81       -2.950573   0.003547
   82       -2.918697   0.001763
   83       -2.693878   0.000003
   84       -2.559785   0.000000
   85       -2.485071   0.000000
   86       -2.448713   0.000000
   87       -2.317295   0.000000
   88       -2.206724   0.000000
   89       -2.005158   0.000000
   90       -1.945308   0.000000
   91       -1.713901   0.000000
   92       -1.601791   0.000000
   93       -1.395804   0.000000
   94       -1.318229   0.000000
   95       -1.209493   0.000000
   96       -1.123277   0.000000
   97       -1.085732   0.000000
   98       -1.018287   0.000000
   99       -0.967872   0.000000
  100       -0.881876   0.000000
  101       -0.790496   0.000000
  102       -0.720466   0.000000
  103       -0.633496   0.000000
  104       -0.597095   0.000000
  105       -0.460097   0.000000
  106       -0.373030   0.000000
  107       -0.278750   0.000000
  108       -0.039598   0.000000
  109        0.026699   0.000000
  110        0.252814   0.000000
  111        0.324886   0.000000
  112        0.531307   0.000000
  113        0.715392   0.000000
  114        0.914984   0.000000
  115        1.204469   0.000000
  116        1.317630   0.000000
  117        1.398701   0.000000
  118        1.994482   0.000000
  119        2.160954   0.000000
  120        2.451876   0.000000
 
  0.5000000E+00  0.1110223E-15  0.0000000E+00  0.1562500E-01
    1      -17.551629   1.000000
    2      -17.250131   1.000000
    3      -16.797467   1.000000
    4      -16.699069   1.000000
    5      -16.668102   1.000000
    6      -16.419641   1.000000
    7      -16.385247   1.000000
    8      -16.111648   1.000000
    9      -16.004917   1.000000
   10      -15.994971   1.000000
   11      -15.936039   1.000000
   12      -15.903525   1.000000
   13      -15.798820   1.000000
   14      -15.633074   1.000000
   15      -15.594032   1.000000
   16      -15.533590   1.000000
   17      -15.425094   1.000000
   18      -15.303831   1.000000
   19       -9.757857   1.000000
   20       -9.336615   1.000000
   21       -9.238435   1.000000
   22       -9.081097   1.000000
   23       -8.976466   1.000000
   24       -8.919814   1.000000
   25       -8.571795   1.000000
   26       -8.415392   1.000000
   27       -8.377716   1.000000
   28       -8.310463   1.000000
   29       -8.256979   1.000000
   30       -8.194326   1.000000
   31       -8.118998   1.000000
   32       -8.037606   1.000000
   33       -7.946203   1.000000
   34       -7.886444   1.000000
   35       -7.803864   1.000000
   36       -7.732394   1.000000
   37       -7.543036   1.000000
   38       -7.423007   1.000000
   39       -7.408913   1.000000
   40       -7.219180   1.000000
   41       -7.164577   1.000000
   42       -7.054920   1.000000
   43       -6.976700   1.000000
   44       -6.921890   1.000000
   45       -6.813982   1.000000
   46       -6.731716   1.000000
   47       -6.674461   1.000000
   48       -6.667888   1.000000
   49       -6.567373   1.000000
   50       -6.510098   1.000000
   51       -6.446599   1.000000
   52       -6.358744   1.000000
   53       -6.312732   1.000000
   54       -6.186504   1.000000
   55       -6.144507   1.000000
   56       -6.030363   1.000000
   57       -5.954465   1.000000
   58       -5.948499   1.000000
   59       -5.844115   1.000000
   60       -5.783143   1.000000
   61       -5.718848   1.000000
   62       -5.705832   1.000000
   63       -5.522290   1.000000
   64       -5.397362   1.000000
   65       -5.331770   1.000000
   66       -5.091666   1.000000
   67       -5.058086   1.000000
   68       -4.957810   1.000000
   69       -4.704446   1.000000
   70       -4.626887   1.000000
   71       -4.452631   1.000000
   72       -4.432815   1.000000
   73       -4.397270   1.000000
   74       -4.319012   1.000000
   75       -4.244078   1.000000
   76       -3.904043   0.999974
   77       -3.844843   0.999859
   78       -3.704271   0.995819
   79       -3.518937   0.907676
   80       -3.181464   0.144638
   81       -2.983609   0.006971
   82       -2.918657   0.001761
   83       -2.696664   0.000004
   84       -2.550460   0.000000
   85       -2.491654   0.000000
   86       -2.435166   0.000000
   87       -2.299438   0.000000
   88       -2.203021   0.000000
   89       -1.996294   0.000000
   90       -1.906531   0.000000
   91       -1.701149   0.000000
   92       -1.605162   0.000000
   93       -1.386027   0.000000
   94       -1.312603   0.000000
   95       -1.253552   0.000000
   96       -1.152963   0.000000
   97       -1.140403   0.000000
   98       -1.036257   0.000000
   99       -1.033254   0.000000
  100       -0.867996   0.000000
  101       -0.829809   0.000000
  102       -0.725504   0.000000
  103       -0.639279   0.000000
  104       -0.606659   0.000000
  105       -0.503885   0.000000
  106       -0.378600   0.000000
  107       -0.313467   0.000000
  108       -0.097621   0.000000
  109       -0.007031   0.000000
  110        0.235952   0.000000
  111        0.324252   0.000000
  112        0.547353   0.000000
  113        0.736420   0.000000
  114        0.930105   0.000000
  115        1.235827   0.000000
  116        1.350621   0.000000
  117        1.442590   0.000000
  118        2.193891   0.000000
  119        2.254617   0.000000
  120        2.376923   0.000000
 
  0.0000000E+00  0.1250000E+00  0.0000000E+00  0.3125000E-01
    1      -17.788896   1.000000
    2      -16.805391   1.000000
    3      -16.729807   1.000000
    4      -16.640969   1.000000
    5      -16.535260   1.000000
    6      -16.433496   1.000000
    7      -16.405323   1.000000
    8      -16.276300   1.000000
    9      -16.155174   1.000000
   10      -16.075729   1.000000
   11      -16.009427   1.000000
   12      -15.934118   1.000000
   13      -15.850509   1.000000
   14      -15.717454   1.000000
   15      -15.595519   1.000000
   16      -15.465055   1.000000
   17      -15.366826   1.000000
   18      -15.292255   1.000000
   19       -9.299364   1.000000
   20       -9.214092   1.000000
   21       -9.037401   1.000000
   22       -8.928520   1.000000
   23       -8.782374   1.000000
   24       -8.727318   1.000000
   25       -8.640920   1.000000
   26       -8.578965   1.000000
   27       -8.511325   1.000000
   28       -8.486078   1.000000
   29       -8.361682   1.000000
   30       -8.317285   1.000000
   31       -8.165681   1.000000
   32       -8.046627   1.000000
   33       -7.984126   1.000000
   34       -7.963436   1.000000
   35       -7.767253   1.000000
   36       -7.733629   1.000000
   37       -7.678374   1.000000
   38       -7.550225   1.000000
   39       -7.508940   1.000000
   40       -7.442929   1.000000
   41       -7.356752   1.000000
   42       -7.281238   1.000000
   43       -7.083960   1.000000
   44       -6.971461   1.000000
   45       -6.856299   1.000000
   46       -6.816504   1.000000
   47       -6.733443   1.000000
   48       -6.582188   1.000000
   49       -6.554679   1.000000
   50       -6.487445   1.000000
   51       -6.418232   1.000000
   52       -6.383647   1.000000
   53       -6.358665   1.000000
   54       -6.246973   1.000000
   55       -6.181922   1.000000
   56       -6.146746   1.000000
   57       -5.998270   1.000000
   58       -5.972227   1.000000
   59       -5.707476   1.000000
   60       -5.601004   1.000000
   61       -5.521848   1.000000
   62       -5.457623   1.000000
   63       -5.339051   1.000000
   64       -5.261574   1.000000
   65       -5.020128   1.000000
   66       -4.981965   1.000000
   67       -4.893090   1.000000
   68       -4.874550   1.000000
   69       -4.801385   1.000000
   70       -4.668714   1.000000
   71       -4.638838   1.000000
   72       -4.576969   1.000000
   73       -4.532046   1.000000
   74       -4.198325   1.000000
   75       -4.036667   1.000000
   76       -3.956715   0.999995
   77       -3.824288   0.999755
   78       -3.741748   0.998147
   79       -3.635543   0.984266
   80       -3.321205   0.471464
   81       -3.259177   0.304957
   82       -2.841934   0.000270
   83       -2.713000   0.000006
   84       -2.662443   0.000001
   85       -2.472636   0.000000
   86       -2.459912   0.000000
   87       -2.258688   0.000000
   88       -2.220866   0.000000
   89       -2.155726   0.000000
   90       -2.085292   0.000000
   91       -1.686990   0.000000
   92       -1.558094   0.000000
   93       -1.411862   0.000000
   94       -1.359202   0.000000
   95       -1.190231   0.000000
   96       -1.012027   0.000000
   97       -0.956680   0.000000
   98       -0.885238   0.000000
   99       -0.783045   0.000000
  100       -0.702648   0.000000
  101       -0.639046   0.000000
  102       -0.612863   0.000000
  103       -0.539859   0.000000
  104       -0.424857   0.000000
  105       -0.353100   0.000000
  106       -0.225640   0.000000
  107       -0.140317   0.000000
  108        0.084704   0.000000
  109        0.228454   0.000000
  110        0.304406   0.000000
  111        0.358470   0.000000
  112        0.413808   0.000000
  113        0.656415   0.000000
  114        0.925288   0.000000
  115        0.996388   0.000000
  116        1.090758   0.000000
  117        1.178160   0.000000
  118        1.687558   0.000000
  119        1.873988   0.000000
  120        2.183664   0.000000
 
  0.1250000E+00  0.1250000E+00  0.0000000E+00  0.3125000E-01
    1      -17.742725   1.000000
    2      -16.889190   1.000000
    3      -16.801832   1.000000
    4      -16.713547   1.000000
    5      -16.490889   1.000000
    6      -16.436722   1.000000
    7      -16.372404   1.000000
    8      -16.287676   1.000000
    9      -16.081492   1.000000
   10      -16.045554   1.000000
   11      -16.004179   1.000000
   12      -15.887054   1.000000
   13      -15.823968   1.000000
   14      -15.715810   1.000000
   15      -15.613040   1.000000
   16      -15.477706   1.000000
   17      -15.373707   1.000000
   18      -15.301606   1.000000
   19       -9.359931   1.000000
   20       -9.317296   1.000000
   21       -9.159478   1.000000
   22       -9.046358   1.000000
   23       -8.832237   1.000000
   24       -8.698455   1.000000
   25       -8.621352   1.000000
   26       -8.566402   1.000000
   27       -8.511160   1.000000
   28       -8.464122   1.000000
   29       -8.332052   1.000000
   30       -8.222061   1.000000
   31       -8.093097   1.000000
   32       -8.054906   1.000000
   33       -8.003270   1.000000
   34       -7.806991   1.000000
   35       -7.755738   1.000000
   36       -7.718259   1.000000
   37       -7.582803   1.000000
   38       -7.513678   1.000000
   39       -7.433584   1.000000
   40       -7.363557   1.000000
   41       -7.314278   1.000000
   42       -7.260366   1.000000
   43       -7.176676   1.000000
   44       -7.006341   1.000000
   45       -6.865142   1.000000
   46       -6.827271   1.000000
   47       -6.719685   1.000000
   48       -6.671203   1.000000
   49       -6.578184   1.000000
   50       -6.491438   1.000000
   51       -6.423854   1.000000
   52       -6.363269   1.000000
   53       -6.318566   1.000000
   54       -6.245342   1.000000
   55       -6.180394   1.000000
   56       -6.087847   1.000000
   57       -5.967698   1.000000
   58       -5.918874   1.000000
   59       -5.690771   1.000000
   60       -5.653140   1.000000
   61       -5.593575   1.000000
   62       -5.518135   1.000000
   63       -5.414497   1.000000
   64       -5.338541   1.000000
   65       -5.149795   1.000000
   66       -5.058183   1.000000
   67       -4.948851   1.000000
   68       -4.802978   1.000000
   69       -4.744060   1.000000
   70       -4.641930   1.000000
   71       -4.606759   1.000000
   72       -4.510962   1.000000
   73       -4.445211   1.000000
   74       -4.151799   1.000000
   75       -4.105162   1.000000
   76       -3.984283   0.999998
   77       -3.871713   0.999934
   78       -3.754468   0.998614
   79       -3.619187   0.979098
   80       -3.417514   0.728876
   81       -3.110834   0.059481
   82       -2.815908   0.000134
   83       -2.700996   0.000004
   84       -2.600748   0.000000
   85       -2.487106   0.000000
   86       -2.438502   0.000000
   87       -2.282986   0.000000
   88       -2.203124   0.000000
   89       -2.109379   0.000000
   90       -2.038103   0.000000
   91       -1.708128   0.000000
   92       -1.545777   0.000000
   93       -1.431913   0.000000
   94       -1.344173   0.000000
   95       -1.188232   0.000000
   96       -1.033672   0.000000
   97       -0.991869   0.000000
   98       -0.898956   0.000000
   99       -0.862132   0.000000
  100       -0.794419   0.000000
  101       -0.724572   0.000000
  102       -0.656089   0.000000
  103       -0.618973   0.000000
  104       -0.486897   0.000000
  105       -0.404996   0.000000
  106       -0.276304   0.000000
  107       -0.187556   0.000000
  108        0.108457   0.000000
  109        0.213281   0.000000
  110        0.274046   0.000000
  111        0.341336   0.000000
  112        0.427562   0.000000
  113        0.637054   0.000000
  114        0.892612   0.000000
  115        1.045434   0.000000
  116        1.201562   0.000000
  117        1.282366   0.000000
  118        1.771114   0.000000
  119        1.951128   0.000000
  120        2.253170   0.000000
 
  0.2500000E+00  0.1250000E+00  0.0000000E+00  0.3125000E-01
    1      -17.656216   1.000000
    2      -17.044030   1.000000
    3      -16.912905   1.000000
    4      -16.701730   1.000000
    5      -16.499806   1.000000
    6      -16.415228   1.000000
    7      -16.382341   1.000000
    8      -16.212220   1.000000
    9      -16.056589   1.000000
   10      -16.021678   1.000000
   11      -15.954081   1.000000
   12      -15.871235   1.000000
   13      -15.807247   1.000000
   14      -15.655905   1.000000
   15      -15.635106   1.000000
   16      -15.520565   1.000000
   17      -15.371436   1.000000
   18      -15.313154   1.000000
   19       -9.570497   1.000000
   20       -9.401092   1.000000
   21       -9.277378   1.000000
   22       -9.063709   1.000000
   23       -8.857379   1.000000
   24       -8.727578   1.000000
   25       -8.594125   1.000000
   26       -8.467985   1.000000
   27       -8.438937   1.000000
   28       -8.406794   1.000000
   29       -8.283342   1.000000
   30       -8.183791   1.000000
   31       -8.134608   1.000000
   32       -8.080440   1.000000
   33       -7.974887   1.000000
   34       -7.891462   1.000000
   35       -7.790661   1.000000
   36       -7.650874   1.000000
   37       -7.514883   1.000000
   38       -7.448587   1.000000
   39       -7.341286   1.000000
   40       -7.288189   1.000000
   41       -7.222955   1.000000
   42       -7.168834   1.000000
   43       -7.092696   1.000000
   44       -7.017102   1.000000
   45       -6.876440   1.000000
   46       -6.826884   1.000000
   47       -6.724795   1.000000