<?xml version="1.0" encoding="ISO-8859-1"?>
<modeling>
 <generator>
  <i name="program" type="string">vasp </i>
  <i name="version" type="string">5.4.1  </i>
  <i name="subversion" type="string">05Feb16 (build Jul 05 2020 17:13:04) complex                          parallel </i>
  <i name="platform" type="string">IFC91_ompi </i>
  <i name="date" type="string">2024 07 11 </i>
  <i name="time" type="string">06:20:05 </i>
 </generator>
 <incar>
  <i type="int" name="ISTART">     0</i>
  <i type="string" name="PREC">normal</i>
  <i type="string" name="ALGO"> Normal</i>
  <i type="int" name="ISPIN">     1</i>
  <i type="int" name="ICHARG">     2</i>
  <i type="int" name="IBRION">     1</i>
  <i type="int" name="NSW">   100</i>
  <i type="int" name="ISIF">     3</i>
  <i type="int" name="ISYM">     0</i>
  <i name="SYMPREC">      0.00000001</i>
  <i name="POTIM">      0.50000000</i>
  <i type="logical" name="LREAL"> F  </i>
  <i type="logical" name="LPLANE"> F  </i>
  <i type="int" name="ISMEAR">     0</i>
  <i type="logical" name="LWAVE"> F  </i>
  <i type="logical" name="LCHARG"> F  </i>
  <v type="int" name="KPOINT_BSE">    -1     0     0     0</v>
 </incar>
 <kpoints>
  <generation param="Gamma">
   <v type="int" name="divisions">       8        8        1 </v>
   <v name="usershift">      0.00000000       0.00000000       0.00000000 </v>
   <v name="genvec1">      0.12500000       0.00000000       0.00000000 </v>
   <v name="genvec2">     -0.00000000       0.12500000       0.00000000 </v>
   <v name="genvec3">      0.00000000       0.00000000       1.00000000 </v>
   <v name="shift">      0.00000000       0.00000000       0.00000000 </v>
  </generation>
  <varray name="kpointlist" >
   <v>       0.00000000       0.00000000       0.00000000 </v>
   <v>       0.12500000       0.00000000       0.00000000 </v>
   <v>       0.25000000       0.00000000       0.00000000 </v>
   <v>       0.37500000       0.00000000       0.00000000 </v>
   <v>       0.50000000       0.00000000       0.00000000 </v>
   <v>       0.00000000       0.12500000       0.00000000 </v>
   <v>       0.12500000       0.12500000       0.00000000 </v>
   <v>       0.25000000       0.12500000       0.00000000 </v>
   <v>       0.37500000       0.12500000       0.00000000 </v>
   <v>       0.50000000       0.12500000       0.00000000 </v>
   <v>      -0.37500000       0.12500000       0.00000000 </v>
   <v>      -0.25000000       0.12500000       0.00000000 </v>
   <v>      -0.12500000       0.12500000       0.00000000 </v>
   <v>       0.00000000       0.25000000       0.00000000 </v>
   <v>       0.12500000       0.25000000       0.00000000 </v>
   <v>       0.25000000       0.25000000       0.00000000 </v>
   <v>       0.37500000       0.25000000       0.00000000 </v>
   <v>       0.50000000       0.25000000       0.00000000 </v>
   <v>      -0.37500000       0.25000000       0.00000000 </v>
   <v>      -0.25000000       0.25000000       0.00000000 </v>
   <v>      -0.12500000       0.25000000       0.00000000 </v>
   <v>      -0.00000000       0.37500000       0.00000000 </v>
   <v>       0.12500000       0.37500000       0.00000000 </v>
   <v>       0.25000000       0.37500000       0.00000000 </v>
   <v>       0.37500000       0.37500000       0.00000000 </v>
   <v>       0.50000000       0.37500000       0.00000000 </v>
   <v>      -0.37500000       0.37500000       0.00000000 </v>
   <v>      -0.25000000       0.37500000       0.00000000 </v>
   <v>      -0.12500000       0.37500000       0.00000000 </v>
   <v>       0.00000000       0.50000000       0.00000000 </v>
   <v>       0.12500000       0.50000000       0.00000000 </v>
   <v>       0.25000000       0.50000000       0.00000000 </v>
   <v>       0.37500000       0.50000000       0.00000000 </v>
   <v>       0.50000000       0.50000000       0.00000000 </v>
  </varray>
  <varray name="weights" >
   <v>       0.01562500 </v>
   <v>       0.03125000 </v>
   <v>       0.03125000 </v>
   <v>       0.03125000 </v>
   <v>       0.01562500 </v>
   <v>       0.03125000 </v>
   <v>       0.03125000 </v>
   <v>       0.03125000 </v>
   <v>       0.03125000 </v>
   <v>       0.03125000 </v>
   <v>       0.03125000 </v>
   <v>       0.03125000 </v>
   <v>       0.03125000 </v>
   <v>       0.03125000 </v>
   <v>       0.03125000 </v>
   <v>       0.03125000 </v>
   <v>       0.03125000 </v>
   <v>       0.03125000 </v>
   <v>       0.03125000 </v>
   <v>       0.03125000 </v>
   <v>       0.03125000 </v>
   <v>       0.03125000 </v>
   <v>       0.03125000 </v>
   <v>       0.03125000 </v>
   <v>       0.03125000 </v>
   <v>       0.03125000 </v>
   <v>       0.03125000 </v>
   <v>       0.03125000 </v>
   <v>       0.03125000 </v>
   <v>       0.01562500 </v>
   <v>       0.03125000 </v>
   <v>       0.03125000 </v>
   <v>       0.03125000 </v>
   <v>       0.01562500 </v>
  </varray>
 </kpoints>
 <parameters>
  <separator name="general" >
   <i type="string" name="SYSTEM">unknown system</i>
   <i type="logical" name="LCOMPAT"> F  </i>
  </separator>
  <separator name="electronic" >
   <i type="string" name="PREC">normal</i>
   <i name="ENMAX">    280.00000000</i>
   <i name="ENAUG">    373.43800000</i>
   <i name="EDIFF">      0.00010000</i>
   <i type="int" name="IALGO">    38</i>
   <i type="int" name="IWAVPR">    11</i>
   <i type="int" name="NBANDS">   120</i>
   <i name="NELECT">    159.00000000</i>
   <i type="int" name="TURBO">     0</i>
   <i type="int" name="IRESTART">     0</i>
   <i type="int" name="NREBOOT">     0</i>
   <i type="int" name="NMIN">     0</i>
   <i name="EREF">      0.00000000</i>
   <separator name="electronic smearing" >
    <i type="int" name="ISMEAR">     0</i>
    <i name="SIGMA">      0.20000000</i>
    <i name="KSPACING">      0.50000000</i>
    <i type="logical" name="KGAMMA"> T  </i>
   </separator>
   <separator name="electronic projectors" >
    <i type="logical" name="LREAL"> F  </i>
    <v name="ROPT">      0.00000000      0.00000000      0.00000000      0.00000000</v>
    <i type="int" name="LMAXPAW">  -100</i>
    <i type="int" name="LMAXMIX">     2</i>
    <i type="logical" name="NLSPLINE"> F  </i>
   </separator>
   <separator name="electronic startup" >
    <i type="int" name="ISTART">     0</i>
    <i type="int" name="ICHARG">     2</i>
    <i type="int" name="INIWAV">     1</i>
   </separator>
   <separator name="electronic spin" >
    <i type="int" name="ISPIN">     1</i>
    <i type="logical" name="LNONCOLLINEAR"> F  </i>
    <v name="MAGMOM">      1.00000000      1.00000000      1.00000000      1.00000000      1.00000000      1.00000000      1.00000000      1.00000000      1.00000000      1.00000000      1.00000000      1.00000000      1.00000000      1.00000000      1.00000000      1.00000000      1.00000000      1.00000000      1.00000000      1.00000000
      1.00000000      1.00000000      1.00000000      1.00000000      1.00000000      1.00000000      1.00000000</v>
    <i name="NUPDOWN">     -1.00000000</i>
    <i type="logical" name="LSORBIT"> F  </i>
    <v name="SAXIS">      0.00000000      0.00000000      1.00000000</v>
    <i type="logical" name="LSPIRAL"> F  </i>
    <v name="QSPIRAL">      0.00000000      0.00000000      0.00000000</v>
    <i type="logical" name="LZEROZ"> F  </i>
   </separator>
   <separator name="electronic exchange-correlation" >
    <i type="logical" name="LASPH"> F  </i>
    <i type="logical" name="LMETAGGA"> F  </i>
   </separator>
   <separator name="electronic convergence" >
    <i type="int" name="NELM">    60</i>
    <i type="int" name="NELMDL">    -5</i>
    <i type="int" name="NELMIN">     2</i>
    <i name="ENINI">    280.00000000</i>
    <separator name="electronic convergence detail" >
     <i type="logical" name="LDIAG"> T  </i>
     <i type="logical" name="LSUBROT"> F  </i>
     <i name="WEIMIN">      0.00100000</i>
     <i name="EBREAK">      0.00000021</i>
     <i name="DEPER">      0.30000000</i>
     <i type="int" name="NRMM">     4</i>
     <i name="TIME">      0.40000000</i>
    </separator>
   </separator>
   <separator name="electronic mixer" >
    <i name="AMIX">      0.40000000</i>
    <i name="BMIX">      1.00000000</i>
    <i name="AMIN">      0.10000000</i>
    <i name="AMIX_MAG">      1.60000000</i>
    <i name="BMIX_MAG">      1.00000000</i>
    <separator name="electronic mixer details" >
     <i type="int" name="IMIX">     4</i>
     <i type="logical" name="MIXFIRST"> F  </i>
     <i type="int" name="MAXMIX">   -45</i>
     <i name="WC">    100.00000000</i>
     <i type="int" name="INIMIX">     1</i>
     <i type="int" name="MIXPRE">     1</i>
     <i type="int" name="MREMOVE">     5</i>
    </separator>
   </separator>
   <separator name="electronic dipolcorrection" >
    <i type="logical" name="LDIPOL"> F  </i>
    <i type="logical" name="LMONO"> F  </i>
    <i type="int" name="IDIPOL">     0</i>
    <i name="EPSILON">      1.00000000</i>
    <v name="DIPOL">   -100.00000000   -100.00000000   -100.00000000</v>
    <i name="EFIELD">      0.00000000</i>
   </separator>
  </separator>
  <separator name="grids" >
   <i type="int" name="NGX">    42</i>
   <i type="int" name="NGY">    42</i>
   <i type="int" name="NGZ">   126</i>
   <i type="int" name="NGXF">    84</i>
   <i type="int" name="NGYF">    84</i>
   <i type="int" name="NGZF">   252</i>
   <i type="logical" name="ADDGRID"> F  </i>
  </separator>
  <separator name="ionic" >
   <i type="int" name="NSW">   100</i>
   <i type="int" name="IBRION">     1</i>
   <i type="int" name="ISIF">     3</i>
   <i name="PSTRESS">      0.00000000</i>
   <i name="EDIFFG">      0.00100000</i>
   <i type="int" name="NFREE">     0</i>
   <i name="POTIM">      0.50000000</i>
   <i name="SMASS">     -3.00000000</i>
   <i name="SCALEE">      1.00000000</i>
  </separator>
  <separator name="ionic md" >
   <i name="TEBEG">      0.00010000</i>
   <i name="TEEND">      0.00010000</i>
   <i type="int" name="NBLOCK">     1</i>
   <i type="int" name="KBLOCK">   100</i>
   <i type="int" name="NPACO">   256</i>
   <i name="APACO">     16.00000000</i>
  </separator>
  <separator name="symmetry" >
   <i type="int" name="ISYM">     0</i>
   <i name="SYMPREC">      0.00000001</i>
  </separator>
  <separator name="dos" >
   <i type="logical" name="LORBIT"> F  </i>
   <v name="RWIGS">     -1.00000000     -1.00000000     -1.00000000     -1.00000000</v>
   <i type="int" name="NEDOS">   301</i>
   <i name="EMIN">     10.00000000</i>
   <i name="EMAX">    -10.00000000</i>
   <i name="EFERMI">      0.00000000</i>
  </separator>
  <separator name="writing" >
   <i type="int" name="NWRITE">     2</i>
   <i type="logical" name="LWAVE"> F  </i>
   <i type="logical" name="LCHARG"> F  </i>
   <i type="logical" name="LPARD"> F  </i>
   <i type="logical" name="LVTOT"> F  </i>
   <i type="logical" name="LVHAR"> F  </i>
   <i type="logical" name="LELF"> F  </i>
   <i type="logical" name="LOPTICS"> F  </i>
   <v name="STM">      0.00000000      0.00000000      0.00000000      0.00000000      0.00000000      0.00000000      0.00000000</v>
  </separator>
  <separator name="performance" >
   <i type="int" name="NPAR">    40</i>
   <i type="int" name="NSIM">     4</i>
   <i type="int" name="NBLK">    -1</i>
   <i type="logical" name="LPLANE"> F  </i>
   <i type="logical" name="LSCALAPACK"> T  </i>
   <i type="logical" name="LSCAAWARE"> F  </i>
   <i type="logical" name="LSCALU"> F  </i>
   <i type="logical" name="LASYNC"> F  </i>
   <i type="logical" name="LORBITALREAL"> F  </i>
  </separator>
  <separator name="miscellaneous" >
   <i type="int" name="IDIOT">     3</i>
   <i type="logical" name="LMUSIC"> F  </i>
   <v name="POMASS">     50.94100000     95.94000000    183.85000000     32.06600000</v>
   <v name="DARWINR">      0.00000000      0.00000000      0.00000000      0.00000000</v>
   <v name="DARWINV">      1.00000000      1.00000000      1.00000000      1.00000000</v>
   <i type="logical" name="LCORR"> T  </i>
  </separator>
  <i type="logical" name="GGA_COMPAT"> T  </i>
  <i type="logical" name="LBERRY"> F  </i>
  <i type="int" name="ICORELEVEL">     0</i>
  <i type="logical" name="LDAU"> F  </i>
  <i type="int" name="I_CONSTRAINED_M">     0</i>
  <separator name="electronic exchange-correlation" >
   <i type="string" name="GGA">--</i>
   <i type="int" name="VOSKOWN">     0</i>
   <i type="logical" name="LHFCALC"> F  </i>
   <i type="string" name="PRECFOCK"></i>
   <i type="logical" name="LSYMGRAD"> F  </i>
   <i type="logical" name="LHFONE"> F  </i>
   <i type="logical" name="LRHFCALC"> F  </i>
   <i type="logical" name="LTHOMAS"> F  </i>
   <i type="logical" name="LMODELHF"> F  </i>
   <i name="ENCUT4O">     -1.00000000</i>
   <i type="int" name="EXXOEP">     0</i>
   <i type="int" name="FOURORBIT">     0</i>
   <i name="AEXX">      0.00000000</i>
   <i name="HFALPHA">      0.00000000</i>
   <i name="MCALPHA">      0.00000000</i>
   <i name="ALDAX">      1.00000000</i>
   <i name="AGGAX">      1.00000000</i>
   <i name="ALDAC">      1.00000000</i>
   <i name="AGGAC">      1.00000000</i>
   <i type="int" name="NKREDX">     1</i>
   <i type="int" name="NKREDY">     1</i>
   <i type="int" name="NKREDZ">     1</i>
   <i type="logical" name="SHIFTRED"> F  </i>
   <i type="logical" name="ODDONLY"> F  </i>
   <i type="logical" name="EVENONLY"> F  </i>
   <i type="int" name="LMAXFOCK">     0</i>
   <i type="int" name="NMAXFOCKAE">     0</i>
   <i type="logical" name="LFOCKAEDFT"> F  </i>
   <i name="HFSCREEN">      0.00000000</i>
   <i name="HFSCREENC">      0.00000000</i>
   <i type="int" name="NBANDSGWLOW">     0</i>
  </separator>
  <separator name="vdW DFT" >
   <i type="logical" name="LUSE_VDW"> F  </i>
   <i name="Zab_VDW">     -0.84910000</i>
   <i name="PARAM1">      0.12340000</i>
   <i name="PARAM2">      1.00000000</i>
   <i name="PARAM3">      0.00000000</i>
  </separator>
  <separator name="model GW" >
   <i type="int" name="MODEL_GW">     0</i>
   <i name="MODEL_EPS0">     58.26239943</i>
   <i name="MODEL_ALPHA">      1.00000000</i>
  </separator>
  <separator name="linear response parameters" >
   <i type="logical" name="LEPSILON"> F  </i>
   <i type="logical" name="LRPA"> F  </i>
   <i type="logical" name="LNABLA"> F  </i>
   <i type="logical" name="LVEL"> F  </i>
   <i type="int" name="KINTER">     0</i>
   <i name="CSHIFT">      0.10000000</i>
   <i name="OMEGAMAX">     -1.00000000</i>
   <i name="DEG_THRESHOLD">      0.00200000</i>
  </separator>
  <separator name="orbital magnetization" >
   <i type="logical" name="NUCIND"> F  </i>
   <v name="MAGPOS">      0.00000000      0.00000000      0.00000000</v>
   <i type="logical" name="LNICSALL"> T  </i>
   <i type="logical" name="ORBITALMAG"> F  </i>
   <i type="logical" name="LMAGBLOCH"> F  </i>
   <i type="logical" name="LCHIMAG"> F  </i>
   <i type="logical" name="LGAUGE"> T  </i>
   <i type="int" name="MAGATOM">     0</i>
   <v name="MAGDIPOL">      0.00000000      0.00000000      0.00000000</v>
   <v name="AVECCONST">      0.00000000      0.00000000      0.00000000</v>
  </separator>
  <separator name="response functions" >
   <i type="logical" name="LADDER"> F  </i>
   <i type="logical" name="LFXC"> F  </i>
   <i type="logical" name="LHARTREE"> T  </i>
   <i type="int" name="IBSE">     0</i>
   <v type="int" name="KPOINT">    -1     0     0     0</v>
   <i type="logical" name="LTCTE"> F  </i>
   <i type="logical" name="LTETE"> F  </i>
   <i type="logical" name="LTRIPLET"> F  </i>
   <i type="logical" name="LFXCEPS"> F  </i>
   <i type="logical" name="LFXHEG"> F  </i>
   <i type="int" name="NATURALO">     0</i>
   <i type="logical" name="L2ORDER"> F  </i>
   <i type="logical" name="LUSEW"> F  </i>
   <i name="ENCUTGW">     -2.00000000</i>
   <i name="ENCUTGWSOFT">     -2.00000000</i>
   <i name="ENCUTLF">     -1.00000000</i>
   <i type="int" name="LMAXMP2">    -1</i>
   <i name="SCISSOR">      0.00000000</i>
   <i type="int" name="NOMEGA">     0</i>
   <i type="int" name="NOMEGAR">     0</i>
   <i type="int" name="NBANDSGW">    -1</i>
   <i type="int" name="NBANDSO">    -1</i>
   <i type="int" name="NBANDSV">    -1</i>
   <i type="int" name="NELM">     1</i>
   <i type="int" name="NELMHF">     1</i>
   <i type="int" name="DIM">     3</i>
   <i type="int" name="ANTIRES">     0</i>
   <i name="OMEGAMAX">    -30.00000000</i>
   <i name="OMEGAMIN">    -30.00000000</i>
   <i name="OMEGATL">   -200.00000000</i>
   <i type="int" name="OMEGAGRID">     0</i>
   <i name="CSHIFT">     -0.10000000</i>
   <i type="logical" name="SELFENERGY"> F  </i>
   <i type="logical" name="LSPECTRAL"> F  </i>
   <i type="logical" name="LSPECTRALGW"> F  </i>
   <i type="logical" name="LSINGLES"> F  </i>
   <i type="logical" name="LFERMIGW"> F  </i>
   <i type="logical" name="ODDONLYGW"> F  </i>
   <i type="logical" name="EVENONLYGW"> F  </i>
   <i type="int" name="NKREDLFX">     1</i>
   <i type="int" name="NKREDLFY">     1</i>
   <i type="int" name="NKREDLFZ">     1</i>
   <i type="int" name="MAXMEM">  1800</i>
   <i type="int" name="TELESCOPE">     0</i>
   <i type="int" name="TAUPAR">     1</i>
   <i type="int" name="OMEGAPAR">    -1</i>
   <i name="LAMBDA">      1.00000000</i>
  </separator>
  <separator name="External order field" >
   <i name="OFIELD_KAPPA">      0.00000000</i>
   <v name="OFIELD_K">      0.00000000      0.00000000      0.00000000</v>
   <i name="OFIELD_Q6_NEAR">      0.00000000</i>
   <i name="OFIELD_Q6_FAR">      0.00000000</i>
   <i name="OFIELD_A">      0.00000000</i>
  </separator>
 </parameters>
 <atominfo>
  <atoms>      27 </atoms>
  <types>       4 </types>
  <array name="atoms" >
   <dimension dim="1">ion</dimension>
   <field type="string">element</field>
   <field type="int">atomtype</field>
   <set>
    <rc><c>V </c><c>   1</c></rc>
    <rc><c>V </c><c>   1</c></rc>
    <rc><c>V </c><c>   1</c></rc>
    <rc><c>Mo</c><c>   2</c></rc>
    <rc><c>Mo</c><c>   2</c></rc>
    <rc><c>Mo</c><c>   2</c></rc>
    <rc><c>W </c><c>   3</c></rc>
    <rc><c>W </c><c>   3</c></rc>
    <rc><c>W </c><c>   3</c></rc>
    <rc><c>S </c><c>   4</c></rc>
    <rc><c>S </c><c>   4</c></rc>
    <rc><c>S </c><c>   4</c></rc>
    <rc><c>S </c><c>   4</c></rc>
    <rc><c>S </c><c>   4</c></rc>
    <rc><c>S </c><c>   4</c></rc>
    <rc><c>S </c><c>   4</c></rc>
    <rc><c>S </c><c>   4</c></rc>
    <rc><c>S </c><c>   4</c></rc>
    <rc><c>S </c><c>   4</c></rc>
    <rc><c>S </c><c>   4</c></rc>
    <rc><c>S </c><c>   4</c></rc>
    <rc><c>S </c><c>   4</c></rc>
    <rc><c>S </c><c>   4</c></rc>
    <rc><c>S </c><c>   4</c></rc>
    <rc><c>S </c><c>   4</c></rc>
    <rc><c>S </c><c>   4</c></rc>
    <rc><c>S </c><c>   4</c></rc>
   </set>
  </array>
  <array name="atomtypes" >
   <dimension dim="1">type</dimension>
   <field type="int">atomspertype</field>
   <field type="string">element</field>
   <field>mass</field>
   <field>valence</field>
   <field type="string">pseudopotential</field>
   <set>
    <rc><c>   3</c><c>V </c><c>     50.94100000</c><c>      5.00000000</c><c> PAW_PBE V 08Apr2002                    </c></rc>
    <rc><c>   3</c><c>Mo</c><c>     95.94000000</c><c>      6.00000000</c><c> PAW_PBE Mo 08Apr2002                   </c></rc>
    <rc><c>   3</c><c>W </c><c>    183.85000000</c><c>      6.00000000</c><c> PAW_PBE W 08Apr2002                    </c></rc>
    <rc><c>  18</c><c>S </c><c>     32.06600000</c><c>      6.00000000</c><c>  PAW_PBE S 17Jan2003                   </c></rc>
   </set>
  </array>
 </atominfo>
 <structure name="initialpos" >
  <crystal>
   <varray name="basis" >
    <v>       8.66999996       5.03999989       0.00000000 </v>
    <v>      -8.66999982       5.04000013       0.00000000 </v>
    <v>       0.00000000       0.00000000      30.00000000 </v>
   </varray>
   <i name="volume">   2621.80797419 </i>
   <varray name="rec_basis" >
    <v>       0.05767013       0.09920635       0.00000000 </v>
    <v>      -0.05767013       0.09920635       0.00000000 </v>
    <v>       0.00000000       0.00000000       0.03333333 </v>
   </varray>
  </crystal>
  <varray name="positions" >
   <v>       0.00000000       0.66666669       0.00000000 </v>
   <v>       1.00000000       0.33333334       0.00000000 </v>
   <v>       0.00000000       0.00000000       0.00000000 </v>
   <v>       0.33333334       0.33333334       0.00000000 </v>
   <v>       0.33333334       0.66666669       0.00000000 </v>
   <v>       0.66666669       0.66666669       0.00000000 </v>
   <v>       0.33333334       0.00000000       0.00000000 </v>
   <v>       0.66666669       0.00000000       0.00000000 </v>
   <v>       0.66666669       0.33333334       0.00000000 </v>
   <v>       0.11068511       0.22244981       0.95539999 </v>
   <v>       0.22244981       0.11068511       0.04460000 </v>
   <v>       0.11068511       0.55578315       0.95539999 </v>
   <v>       0.22244981       0.44401845       0.04460000 </v>
   <v>       0.11068511       0.88911647       0.95539999 </v>
   <v>       0.22244981       0.77735180       0.04460000 </v>
   <v>       0.44401845       0.22244981       0.95539999 </v>
   <v>       0.55578315       0.11068511       0.04460000 </v>
   <v>       0.44401845       0.55578315       0.95539999 </v>
   <v>       0.55578315       0.44401845       0.04460000 </v>
   <v>       0.44401845       0.88911647       0.95539999 </v>
   <v>       0.55578315       0.77735180       0.04460000 </v>
   <v>       0.77735180       0.22244981       0.95539999 </v>
   <v>       0.88911647       0.11068511       0.04460000 </v>
   <v>       0.77735180       0.55578315       0.95539999 </v>
   <v>       0.88911647       0.44401845       0.04460000 </v>
   <v>       0.77735180       0.88911647       0.95539999 </v>
   <v>       0.88911647       0.77735180       0.04460000 </v>
  </varray>
 </structure>
 <calculation>
  <scstep>
   <time name="dav">   21.69   21.74</time>
   <time name="total">   21.73   21.79</time>
   <energy>
    <i name="alphaZ">     81.65567618 </i>
    <i name="ewald">  41891.19377234 </i>
    <i name="hartreedc"> -47723.83912525 </i>
    <i name="XCdc">   -242.92452232 </i>
    <i name="pawpsdc">   3467.42045192 </i>
    <i name="pawaedc">  -2871.19716117 </i>
    <i name="eentropy">     -0.53471149 </i>
    <i name="bandstr">   -237.33634535 </i>
    <i name="atom">   6761.44252427 </i>
    <i name="e_fr_energy">   1125.88055913 </i>
    <i name="e_wo_entrp">   1126.41527062 </i>
    <i name="e_0_energy">   1126.14791488 </i>
   </energy>
  </scstep>
  <scstep>
   <time name="dav">   28.18   28.25</time>
   <time name="total">   28.18   28.25</time>
   <energy>
    <i name="e_fr_energy">     -4.23712884 </i>
    <i name="e_wo_entrp">     -4.03131331 </i>
    <i name="e_0_energy">     -4.13422108 </i>
   </energy>
  </scstep>
  <scstep>
   <time name="dav">   27.47   27.54</time>
   <time name="total">   27.47   27.55</time>
   <energy>
    <i name="e_fr_energy">   -199.85683475 </i>
    <i name="e_wo_entrp">   -199.58244367 </i>
    <i name="e_0_energy">   -199.71963921 </i>
   </energy>
  </scstep>
  <scstep>
   <time name="dav">   30.47   30.54</time>
   <time name="total">   30.47   30.55</time>
   <energy>
    <i name="e_fr_energy">   -209.04954099 </i>
    <i name="e_wo_entrp">   -208.77146792 </i>
    <i name="e_0_energy">   -208.91050446 </i>
   </energy>
  </scstep>
  <scstep>
   <time name="dav">   28.56   28.63</time>
   <time name="total">   29.02   29.10</time>
   <energy>
    <i name="e_fr_energy">   -209.35674827 </i>
    <i name="e_wo_entrp">   -209.08178967 </i>
    <i name="e_0_energy">   -209.21926897 </i>
   </energy>
  </scstep>
  <scstep>
   <time name="dav">   30.92   30.99</time>
   <time name="total">   31.42   31.50</time>
   <energy>
    <i name="e_fr_energy">   -240.94284638 </i>
    <i name="e_wo_entrp">   -240.66800889 </i>
    <i name="e_0_energy">   -240.80542764 </i>
   </energy>
  </scstep>
  <scstep>
   <time name="dav">   31.76   31.84</time>
   <time name="total">   32.27   32.35</time>
   <energy>
    <i name="e_fr_energy">   -196.27520983 </i>
    <i name="e_wo_entrp">   -195.94436546 </i>
    <i name="e_0_energy">   -196.10978764 </i>
   </energy>
  </scstep>
  <scstep>
   <time name="dav">   30.05   30.12</time>
   <time name="total">   30.57   30.65</time>
   <energy>
    <i name="e_fr_energy">   -189.53141751 </i>
    <i name="e_wo_entrp">   -189.19441527 </i>
    <i name="e_0_energy">   -189.36291639 </i>
   </energy>
  </scstep>
  <scstep>
   <time name="dav">   30.96   31.03</time>
   <time name="total">   31.48   31.56</time>
   <energy>
    <i name="e_fr_energy">   -188.08321461 </i>
    <i name="e_wo_entrp">   -187.73763759 </i>
    <i name="e_0_energy">   -187.91042610 </i>
   </energy>
  </scstep>
  <scstep>
   <time name="dav">   32.51   32.59</time>
   <time name="total">   33.04   33.13</time>
   <energy>
    <i name="e_fr_energy">   -186.92920940 </i>
    <i name="e_wo_entrp">   -186.57537894 </i>
    <i name="e_0_energy">   -186.75229417 </i>
   </energy>
  </scstep>
  <scstep>
   <time name="dav">   32.45   32.53</time>
   <time name="total">   32.98   33.07</time>
   <energy>
    <i name="e_fr_energy">   -187.07707107 </i>
    <i name="e_wo_entrp">   -186.73800164 </i>
    <i name="e_0_energy">   -186.90753636 </i>
   </energy>
  </scstep>
  <scstep>
   <time name="dav">   31.48   31.55</time>
   <time name="total">   32.02   32.10</time>
   <energy>
    <i name="e_fr_energy">   -186.92401986 </i>
    <i name="e_wo_entrp">   -186.58331504 </i>
    <i name="e_0_energy">   -186.75366745 </i>
   </energy>
  </scstep>
  <scstep>
   <time name="dav">   31.89   31.96</time>
   <time name="total">   32.43   32.51</time>
   <energy>
    <i name="e_fr_energy">   -186.85493211 </i>
    <i name="e_wo_entrp">   -186.51053769 </i>
    <i name="e_0_energy">   -186.68273490 </i>
   </energy>
  </scstep>
  <scstep>
   <time name="dav">   31.35   31.43</time>
   <time name="total">   31.89   31.97</time>
   <energy>
    <i name="e_fr_energy">   -186.84303380 </i>
    <i name="e_wo_entrp">   -186.49685197 </i>
    <i name="e_0_energy">   -186.66994288 </i>
   </energy>
  </scstep>
  <scstep>
   <time name="dav">   32.52   32.60</time>
   <time name="total">   33.06   33.14</time>
   <energy>
    <i name="e_fr_energy">   -186.82966794 </i>
    <i name="e_wo_entrp">   -186.48257952 </i>
    <i name="e_0_energy">   -186.65612373 </i>
   </energy>
  </scstep>
  <scstep>
   <time name="dav">   30.29   30.37</time>
   <time name="total">   30.83   30.91</time>
   <energy>
    <i name="e_fr_energy">   -186.82745603 </i>
    <i name="e_wo_entrp">   -186.48082018 </i>
    <i name="e_0_energy">   -186.65413811 </i>
   </energy>
  </scstep>
  <scstep>
   <time name="dav">   30.97   31.04</time>
   <time name="total">   31.51   31.59</time>
   <energy>
    <i name="e_fr_energy">   -186.82612696 </i>
    <i name="e_wo_entrp">   -186.48030543 </i>
    <i name="e_0_energy">   -186.65321620 </i>
   </energy>
  </scstep>
  <scstep>
   <time name="dav">   30.98   31.06</time>
   <time name="total">   31.52   31.60</time>
   <energy>
    <i name="e_fr_energy">   -186.82563060 </i>
    <i name="e_wo_entrp">   -186.47939904 </i>
    <i name="e_0_energy">   -186.65251482 </i>
   </energy>
  </scstep>
  <scstep>
   <time name="dav">   26.37   26.43</time>
   <time name="total">   26.90   26.98</time>
   <energy>
    <i name="e_fr_energy">   -186.82627929 </i>
    <i name="e_wo_entrp">   -186.48045348 </i>
    <i name="e_0_energy">   -186.65336639 </i>
   </energy>
  </scstep>
  <scstep>
   <time name="dav">   20.68   20.73</time>
   <time name="total">   21.21   21.27</time>
   <energy>
    <i name="e_fr_energy">   -186.82674544 </i>
    <i name="e_wo_entrp">   -186.48098403 </i>
    <i name="e_0_energy">   -186.65386474 </i>
   </energy>
  </scstep>
  <scstep>
   <time name="dav">   20.13   20.18</time>
   <time name="total">   20.67   20.73</time>
   <energy>
    <i name="e_fr_energy">   -186.82780782 </i>
    <i name="e_wo_entrp">   -186.48199149 </i>
    <i name="e_0_energy">   -186.65489965 </i>
   </energy>
  </scstep>
  <scstep>
   <time name="dav">   21.56   21.62</time>
   <time name="total">   22.10   22.16</time>
   <energy>
    <i name="e_fr_energy">   -186.82891603 </i>
    <i name="e_wo_entrp">   -186.48307948 </i>
    <i name="e_0_energy">   -186.65599775 </i>
   </energy>
  </scstep>
  <scstep>
   <time name="dav">   17.56   17.61</time>
   <time name="total">   18.10   18.15</time>
   <energy>
    <i name="e_fr_energy">   -186.82937169 </i>
    <i name="e_wo_entrp">   -186.48353662 </i>
    <i name="e_0_energy">   -186.65645415 </i>
   </energy>
  </scstep>
  <scstep>
   <time name="dav">   19.71   19.76</time>
   <time name="total">   20.24   20.30</time>
   <energy>
    <i name="e_fr_energy">   -186.83001324 </i>
    <i name="e_wo_entrp">   -186.48417572 </i>
    <i name="e_0_energy">   -186.65709448 </i>
   </energy>
  </scstep>
  <scstep>
   <time name="dav">   18.01   18.05</time>
   <time name="total">   18.55   18.60</time>
   <energy>
    <i name="e_fr_energy">   -186.83036401 </i>
    <i name="e_wo_entrp">   -186.48451311 </i>
    <i name="e_0_energy">   -186.65743856 </i>
   </energy>
  </scstep>
  <scstep>
   <time name="dav">   19.00   19.05</time>
   <time name="total">   19.54   19.59</time>
   <energy>
    <i name="e_fr_energy">   -186.83060842 </i>
    <i name="e_wo_entrp">   -186.48476878 </i>
    <i name="e_0_energy">   -186.65768860 </i>
   </energy>
  </scstep>
  <scstep>
   <time name="dav">   20.77   20.82</time>
   <time name="total">   20.81   20.87</time>
   <energy>
    <i name="alphaZ">     81.65567618 </i>
    <i name="ewald">  41891.19377234 </i>
    <i name="hartreedc"> -47833.69813000 </i>
    <i name="XCdc">   -231.60754130 </i>
    <i name="pawpsdc">   4192.07306834 </i>
    <i name="pawaedc">  -3610.07341188 </i>
    <i name="eentropy">     -0.34583934 </i>
    <i name="bandstr">  -1437.47079625 </i>
    <i name="atom">   6761.44252427 </i>
    <i name="e_fr_energy">   -186.83067764 </i>
    <i name="e_wo_entrp">   -186.48483830 </i>
    <i name="e_0_energy">   -186.65775797 </i>
   </energy>
  </scstep>
  <structure>
   <crystal>
    <varray name="basis" >
     <v>       8.66999996       5.03999989       0.00000000 </v>
     <v>      -8.66999982       5.04000013       0.00000000 </v>
     <v>       0.00000000       0.00000000      30.00000000 </v>
    </varray>
    <i name="volume">   2621.80797419 </i>
    <varray name="rec_basis" >
     <v>       0.05767013       0.09920635       0.00000000 </v>
     <v>      -0.05767013       0.09920635       0.00000000 </v>
     <v>       0.00000000       0.00000000       0.03333333 </v>
    </varray>
   </crystal>
   <varray name="positions" >
    <v>       0.00000000       0.66666669       0.00000000 </v>
    <v>       1.00000000       0.33333334       0.00000000 </v>
    <v>       0.00000000       0.00000000       0.00000000 </v>
    <v>       0.33333334       0.33333334       0.00000000 </v>
    <v>       0.33333334       0.66666669       0.00000000 </v>
    <v>       0.66666669       0.66666669       0.00000000 </v>
    <v>       0.33333334       0.00000000       0.00000000 </v>
    <v>       0.66666669       0.00000000       0.00000000 </v>
    <v>       0.66666669       0.33333334       0.00000000 </v>
    <v>       0.11068511       0.22244981       0.95539999 </v>
    <v>       0.22244981       0.11068511       0.04460000 </v>
    <v>       0.11068511       0.55578315       0.95539999 </v>
    <v>       0.22244981       0.44401845       0.04460000 </v>
    <v>       0.11068511       0.88911647       0.95539999 </v>
    <v>       0.22244981       0.77735180       0.04460000 </v>
    <v>       0.44401845       0.22244981       0.95539999 </v>
    <v>       0.55578315       0.11068511       0.04460000 </v>
    <v>       0.44401845       0.55578315       0.95539999 </v>
    <v>       0.55578315       0.44401845       0.04460000 </v>
    <v>       0.44401845       0.88911647       0.95539999 </v>
    <v>       0.55578315       0.77735180       0.04460000 </v>
    <v>       0.77735180       0.22244981       0.95539999 </v>
    <v>       0.88911647       0.11068511       0.04460000 </v>
    <v>       0.77735180       0.55578315       0.95539999 </v>
    <v>       0.88911647       0.44401845       0.04460000 </v>
    <v>       0.77735180       0.88911647       0.95539999 </v>
    <v>       0.88911647       0.77735180       0.04460000 </v>
   </varray>
  </structure>
  <varray name="forces" >
   <v>      -0.00952566      -0.01225476       0.02781998 </v>
   <v>       0.22841733       0.37878543      -0.05663547 </v>
   <v>      -0.00951644      -0.01353769       0.02644139 </v>
   <v>      -0.27833301       0.39420704      -0.13237613 </v>
   <v>       0.49876474      -0.02929218      -0.13698050 </v>
   <v>      -0.23618220      -0.39449242       0.17381657 </v>
   <v>      -0.05077916      -0.07558120      -0.09177623 </v>
   <v>       0.34374932      -0.39841857       0.11421934 </v>
   <v>      -0.51528090       0.07619415       0.12011774 </v>
   <v>      -0.32608678      -0.66058693      -1.40909394 </v>
   <v>      -0.37047913      -0.69265422       2.11339990 </v>
   <v>      -0.31606234      -0.66796918      -1.40576123 </v>
   <v>      -0.53500015      -0.70533939       2.16717285 </v>
   <v>      -0.23318952      -0.51534445      -1.43261033 </v>
   <v>      -0.61415951      -0.54733109       2.10521683 </v>
   <v>       0.26060900      -0.03262067      -2.91560729 </v>
   <v>      -0.10909061       0.04347770       2.92648990 </v>
   <v>       0.09609941      -0.03153198      -2.94196951 </v>
   <v>       0.06988203       0.03647086       2.92930210 </v>
   <v>       0.02867391       0.10621761      -2.91879659 </v>
   <v>      -0.18810532       0.19026252       2.92746714 </v>
   <v>       0.46531219       0.56646073      -2.09358905 </v>
   <v>       0.23827713       0.52151732       1.41523948 </v>
   <v>       0.62457835       0.56078548      -2.14827144 </v>
   <v>       0.23847319       0.52253169       1.41200324 </v>
   <v>       0.37352148       0.71133460      -2.15650296 </v>
   <v>       0.32543265       0.66870961       1.38126422 </v>
  </varray>
  <varray name="stress" >
   <v>       7.27062517       0.13421420      -1.56551650 </v>
   <v>       0.13421427       4.50430044       0.00062438 </v>
   <v>      -1.56551643       0.00062429      30.31226219 </v>
  </varray>
  <energy>
   <i name="e_fr_energy">   -186.83067764 </i>
   <i name="e_wo_entrp">   -186.65775797 </i>
   <i name="e_0_energy">     -0.34583934 </i>
  </energy>
  <time name="totalsc">  781.87  783.95</time>
 </calculation>
 <calculation>
  <scstep>
   <time name="dav">   21.65   21.70</time>
   <time name="total">   22.19   22.24</time>
   <energy>
    <i name="alphaZ">     78.91662658 </i>
    <i name="ewald">  39376.57871518 </i>
    <i name="hartreedc"> -45333.84259982 </i>
    <i name="XCdc">   -239.07969377 </i>
    <i name="pawpsdc">   4192.05015943 </i>
    <i name="pawaedc">  -3610.05086156 </i>
    <i name="eentropy">     -0.28810305 </i>
    <i name="bandstr">  -1413.24917502 </i>
    <i name="atom">   6761.44252427 </i>
    <i name="e_fr_energy">   -187.52240774 </i>
    <i name="e_wo_entrp">   -187.23430470 </i>
    <i name="e_0_energy">   -187.37835622 </i>
   </energy>
  </scstep>
  <scstep>
   <time name="dav">   30.16   30.24</time>
   <time name="total">   30.70   30.78</time>
   <energy>
    <i name="e_fr_energy">   -189.50759460 </i>
    <i name="e_wo_entrp">   -189.18104591 </i>
    <i name="e_0_energy">   -189.34432026 </i>
   </energy>
  </scstep>
  <scstep>
   <time name="dav">   30.65   30.72</time>
   <time name="total">   31.21   31.29</time>
   <energy>
    <i name="e_fr_energy">   -189.34962364 </i>
    <i name="e_wo_entrp">   -189.07511669 </i>
    <i name="e_0_energy">   -189.21237017 </i>
   </energy>
  </scstep>
  <scstep>
   <time name="dav">   31.18   31.26</time>
   <time name="total">   31.72   31.81</time>
   <energy>
    <i name="e_fr_energy">   -188.77270250 </i>
    <i name="e_wo_entrp">   -188.48615662 </i>
    <i name="e_0_energy">   -188.62942956 </i>
   </energy>
  </scstep>
  <scstep>
   <time name="dav">   26.38   26.44</time>
   <time name="total">   26.92   27.00</time>
   <energy>
    <i name="e_fr_energy">   -188.73057943 </i>
    <i name="e_wo_entrp">   -188.44421634 </i>
    <i name="e_0_energy">   -188.58739789 </i>
   </energy>
  </scstep>
  <scstep>
   <time name="dav">   32.39   32.47</time>
   <time name="total">   32.93   33.02</time>
   <energy>
    <i name="e_fr_energy">   -188.77930767 </i>
    <i name="e_wo_entrp">   -188.49029644 </i>
    <i name="e_0_energy">   -188.63480206 </i>
   </energy>
  </scstep>
  <scstep>
   <time name="dav">   31.18   31.25</time>
   <time name="total">   31.72   31.81</time>
   <energy>
    <i name="e_fr_energy">   -188.71216153 </i>
    <i name="e_wo_entrp">   -188.42577877 </i>
    <i name="e_0_energy">   -188.56897015 </i>
   </energy>
  </scstep>
  <scstep>
   <time name="dav">   28.52   28.59</time>
   <time name="total">   29.06   29.14</time>
   <energy>
    <i name="e_fr_energy">   -188.68890876 </i>
    <i name="e_wo_entrp">   -188.40336095 </i>
    <i name="e_0_energy">   -188.54613485 </i>
   </energy>
  </scstep>
  <scstep>
   <time name="dav">   30.63   30.71</time>
   <time name="total">   31.17   31.26</time>
   <energy>
    <i name="e_fr_energy">   -188.68993270 </i>
    <i name="e_wo_entrp">   -188.40460499 </i>
    <i name="e_0_energy">   -188.54726885 </i>
   </energy>
  </scstep>
  <scstep>
   <time name="dav">   31.86   31.93</time>
   <time name="total">   32.40   32.48</time>
   <energy>
    <i name="e_fr_energy">   -188.68783425 </i>
    <i name="e_wo_entrp">   -188.40290825 </i>
    <i name="e_0_energy">   -188.54537125 </i>
   </energy>
  </scstep>
  <scstep>
   <time name="dav">   28.67   28.74</time>
   <time name="total">   29.21   29.29</time>
   <energy>
    <i name="e_fr_energy">   -188.68735002 </i>
    <i name="e_wo_entrp">   -188.40264439 </i>
    <i name="e_0_energy">   -188.54499721 </i>
   </energy>
  </scstep>
  <scstep>
   <time name="dav">   25.64   25.70</time>
   <time name="total">   25.68   25.75</time>
   <energy>
    <i name="alphaZ">     78.91662658 </i>
    <i name="ewald">  39376.57871518 </i>
    <i name="hartreedc"> -45344.81709225 </i>
    <i name="XCdc">   -237.98147443 </i>
    <i name="pawpsdc">   3950.91148010 </i>
    <i name="pawaedc">  -3365.42448887 </i>
    <i name="eentropy">     -0.28471243 </i>
    <i name="bandstr">  -1408.02901304 </i>
    <i name="atom">   6761.44252427 </i>
    <i name="e_fr_energy">   -188.68743489 </i>
    <i name="e_wo_entrp">   -188.40272246 </i>
    <i name="e_0_energy">   -188.54507867 </i>
   </energy>
  </scstep>
  <structure>
   <crystal>
    <varray name="basis" >
     <v>       8.85628765       5.10977891       0.00000000 </v>
     <v>      -8.85233186       5.10297451       0.00000000 </v>
     <v>       0.00000000       0.00000000      30.00000000 </v>
    </varray>
    <i name="volume">   2712.80606148 </i>
    <varray name="rec_basis" >
     <v>       0.05643206       0.09789493       0.00000000 </v>
     <v>      -0.05650731       0.09793867       0.00000000 </v>
     <v>       0.00000000       0.00000000       0.03333333 </v>
    </varray>
   </crystal>
   <varray name="positions" >
    <v>      -0.00008515       0.66663454       0.00004474 </v>
    <v>       1.00244835       0.33451071      -0.00009107 </v>
    <v>      -0.00009127      -0.00003831       0.00004252 </v>
    <v>       0.33444564       0.33599438      -0.00021287 </v>
    <v>       0.33458079       0.66513885      -0.00022028 </v>
    <v>       0.66412156       0.66543575       0.00027951 </v>
    <v>       0.33283034      -0.00022045      -0.00014758 </v>
    <v>       0.66571623      -0.00286319       0.00018367 </v>
    <v>       0.66559776       0.33513160       0.00019316 </v>
    <v>       0.10661633       0.22019548       0.95313404 </v>
    <v>       0.21810405       0.10840081       0.04799853 </v>
    <v>       0.10660889       0.55346560       0.95313940 </v>
    <v>       0.21758561       0.44213117       0.04808500 </v>
    <v>       0.10756991       0.88729881       0.95309623 </v>
    <v>       0.21812160       0.77644097       0.04798537 </v>
    <v>       0.44458739       0.22156863       0.95071144 </v>
    <v>       0.55568773       0.11119670       0.04930605 </v>
    <v>       0.44413491       0.55536488       0.95066904 </v>
    <v>       0.55615212       0.44399858       0.04931058 </v>
    <v>       0.44460658       0.88954505       0.95070631 </v>
    <v>       0.55617041       0.77878573       0.04930762 </v>
    <v>       0.78135744       0.22386630       0.95203331 </v>
    <v>       0.89227536       0.11251816       0.04687583 </v>
    <v>       0.78177338       0.55672938       0.95194538 </v>
    <v>       0.89228076       0.44585581       0.04687062 </v>
    <v>       0.78179542       0.89148170       0.95193214 </v>
    <v>       0.89322230       0.77964682       0.04682119 </v>
   </varray>
  </structure>
  <varray name="forces" >
   <v>      -0.00659943      -0.00076790       0.08964266 </v>
   <v>       0.18195739       0.32015114      -0.11077658 </v>
   <v>       0.00257838      -0.00460354       0.08909568 </v>
   <v>      -0.09220964       0.58679591      -0.03319790 </v>
   <v>       0.55602927       0.20861247      -0.03715084 </v>
   <v>      -0.32258674      -0.55889266       0.02205304 </v>
   <v>       0.07171756       0.13696724       0.08887224 </v>
   <v>       0.17843276      -0.51727694      -0.07829148 </v>
   <v>      -0.53117709      -0.10733487      -0.07237265 </v>
   <v>      -0.01497218      -0.03418930       0.05439766 </v>
   <v>       0.09678646      -0.03849504      -0.17123984 </v>
   <v>       0.00243447      -0.04303956       0.05920493 </v>
   <v>      -0.02979834      -0.07108733       0.11747469 </v>
   <v>       0.05127288       0.06161245       0.04817866 </v>
   <v>      -0.06407411       0.05204003      -0.17060481 </v>
   <v>       0.09555436       0.00535875      -0.04081809 </v>
   <v>       0.01970054       0.00930120      -0.11422500 </v>
   <v>       0.00076472       0.00919810      -0.40040818 </v>
   <v>       0.11311527      -0.00527006       0.28544753 </v>
   <v>      -0.06074543       0.09488019      -0.03333384 </v>
   <v>      -0.04853465       0.08754545       0.29324381 </v>
   <v>      -0.06336455      -0.08055803       0.38506307 </v>
   <v>      -0.04959795      -0.07170396      -0.13550493 </v>
   <v>       0.06438997      -0.05004596       0.07232677 </v>
   <v>      -0.06083672      -0.06802816      -0.14139699 </v>
   <v>      -0.09635407       0.04139727       0.07190913 </v>
   <v>       0.00611686       0.03743311      -0.13758873 </v>
  </varray>
  <varray name="stress" >
   <v>     -19.94410312      -0.04592841      -0.00215657 </v>
   <v>      -0.04592843     -19.56040883      -0.07977632 </v>
   <v>      -0.00215632      -0.07977640      -1.85180130 </v>
  </varray>
  <energy>
   <i name="e_fr_energy">   -188.68743489 </i>
   <i name="e_wo_entrp">   -188.54507867 </i>
   <i name="e_0_energy">     -0.28471243 </i>
  </energy>
  <time name="totalsc">  396.96  398.01</time>
 </calculation>
 <calculation>
  <scstep>
   <time name="dav">   23.71   23.77</time>
   <time name="total">   24.24   24.30</time>
   <energy>
    <i name="alphaZ">     82.34696833 </i>
    <i name="ewald">  41303.46196083 </i>
    <i name="hartreedc"> -47302.34974836 </i>
    <i name="XCdc">   -233.85077884 </i>
    <i name="pawpsdc">   3950.28924009 </i>
    <i name="pawaedc">  -3364.79502178 </i>
    <i name="eentropy">     -0.24031435 </i>
    <i name="bandstr">  -1386.93262994 </i>
    <i name="atom">   6761.44252427 </i>
    <i name="e_fr_energy">   -190.62779975 </i>
    <i name="e_wo_entrp">   -190.38748540 </i>
    <i name="e_0_energy">   -190.50764258 </i>
   </energy>
  </scstep>
  <scstep>
   <time name="dav">   28.80   28.87</time>
   <time name="total">   29.32   29.40</time>
   <energy>
    <i name="e_fr_energy">   -190.54653052 </i>
    <i name="e_wo_entrp">   -190.30879845 </i>
    <i name="e_0_energy">   -190.42766449 </i>
   </energy>
  </scstep>
  <scstep>
   <time name="dav">   30.21   30.28</time>
   <time name="total">   30.73   30.81</time>
   <energy>
    <i name="e_fr_energy">   -190.12353386 </i>
    <i name="e_wo_entrp">   -189.87114654 </i>
    <i name="e_0_energy">   -189.99734020 </i>
   </energy>
  </scstep>
  <scstep>
   <time name="dav">   30.93   31.00</time>
   <time name="total">   31.46   31.54</time>
   <energy>
    <i name="e_fr_energy">   -189.89568433 </i>
    <i name="e_wo_entrp">   -189.65650205 </i>
    <i name="e_0_energy">   -189.77609319 </i>
   </energy>
  </scstep>
  <scstep>
   <time name="dav">   29.21   29.28</time>
   <time name="total">   29.74   29.82</time>
   <energy>
    <i name="e_fr_energy">   -189.81230809 </i>
    <i name="e_wo_entrp">   -189.56908342 </i>
    <i name="e_0_energy">   -189.69069576 </i>
   </energy>
  </scstep>
  <scstep>
   <time name="dav">   29.42   29.49</time>
   <time name="total">   29.95   30.03</time>
   <energy>
    <i name="e_fr_energy">   -189.80028718 </i>
    <i name="e_wo_entrp">   -189.55698348 </i>
    <i name="e_0_energy">   -189.67863533 </i>
   </energy>
  </scstep>
  <scstep>
   <time name="dav">   28.84   28.91</time>
   <time name="total">   29.37   29.45</time>
   <energy>
    <i name="e_fr_energy">   -189.79399475 </i>
    <i name="e_wo_entrp">   -189.55090363 </i>
    <i name="e_0_energy">   -189.67244919 </i>
   </energy>
  </scstep>
  <scstep>
   <time name="dav">   28.56   28.63</time>
   <time name="total">   29.09   29.17</time>
   <energy>
    <i name="e_fr_energy">   -189.79366680 </i>
    <i name="e_wo_entrp">   -189.55052709 </i>
    <i name="e_0_energy">   -189.67209695 </i>
   </energy>
  </scstep>
  <scstep>
   <time name="dav">   26.93   26.99</time>
   <time name="total">   27.46   27.54</time>
   <energy>
    <i name="e_fr_energy">   -189.79418037 </i>
    <i name="e_wo_entrp">   -189.55095533 </i>
    <i name="e_0_energy">   -189.67256785 </i>
   </energy>
  </scstep>
  <scstep>
   <time name="dav">   26.87   26.93</time>
   <time name="total">   27.40   27.47</time>
   <energy>
    <i name="e_fr_energy">   -189.79400060 </i>
    <i name="e_wo_entrp">   -189.55066099 </i>
    <i name="e_0_energy">   -189.67233080 </i>
   </energy>
  </scstep>
  <scstep>
   <time name="dav">   23.26   23.32</time>
   <time name="total">   23.80   23.86</time>
   <energy>
    <i name="e_fr_energy">   -189.79382066 </i>
    <i name="e_wo_entrp">   -189.55048281 </i>
    <i name="e_0_energy">   -189.67215173 </i>
   </energy>
  </scstep>
  <scstep>
   <time name="dav">   17.32   17.36</time>
   <time name="total">   17.36   17.41</time>
   <energy>
    <i name="alphaZ">     82.34696833 </i>
    <i name="ewald">  41303.46196083 </i>
    <i name="hartreedc"> -47275.59238627 </i>
    <i name="XCdc">   -235.24709944 </i>
    <i name="pawpsdc">   4038.89395212 </i>
    <i name="pawaedc">  -3454.59973980 </i>
    <i name="eentropy">     -0.24332514 </i>
    <i name="bandstr">  -1410.25667901 </i>
    <i name="atom">   6761.44252427 </i>
    <i name="e_fr_energy">   -189.79382410 </i>
    <i name="e_wo_entrp">   -189.55049896 </i>
    <i name="e_0_energy">   -189.67216153 </i>
   </energy>
  </scstep>
  <structure>
   <crystal>
    <varray name="basis" >
     <v>       8.66780096       5.00282869       0.00000000 </v>
     <v>      -8.66442913       4.99703290       0.00000000 </v>
     <v>       0.00000000       0.00000000      30.00000000 </v>
    </varray>
    <i name="volume">   2599.79823532 </i>
    <varray name="rec_basis" >
     <v>       0.05766255       0.09998194       0.00000000 </v>
     <v>      -0.05772943       0.10002085       0.00000000 </v>
     <v>       0.00000000       0.00000000       0.03333333 </v>
    </varray>
   </crystal>
   <varray name="positions" >
    <v>      -0.00009276       0.66663960       0.00009552 </v>
    <v>       1.00315546       0.33486883      -0.00015383 </v>
    <v>      -0.00009645      -0.00004845       0.00009299 </v>
    <v>       0.33533342       0.33705956      -0.00023168 </v>
    <v>       0.33546108       0.66495211      -0.00024132 </v>
    <v>       0.66288241       0.66481533       0.00029200 </v>
    <v>       0.33312698      -0.00006136      -0.00009724 </v>
    <v>       0.66502680      -0.00389547       0.00013933 </v>
    <v>       0.66490979       0.33546304       0.00015216 </v>
    <v>       0.10654509       0.22015295       0.95316486 </v>
    <v>       0.21813283       0.10824380       0.04790153 </v>
    <v>       0.10653962       0.55339163       0.95317294 </v>
    <v>       0.21743878       0.44204147       0.04815155 </v>
    <v>       0.10772158       0.88735212       0.95312352 </v>
    <v>       0.21814673       0.77658911       0.04788873 </v>
    <v>       0.44468794       0.22148579       0.95068831 </v>
    <v>       0.55572209       0.11119326       0.04924135 </v>
    <v>       0.44415094       0.55537945       0.95044223 </v>
    <v>       0.55625183       0.44388119       0.04947227 </v>
    <v>       0.44470617       0.88976129       0.95068742 </v>
    <v>       0.55626950       0.77897804       0.04947374 </v>
    <v>       0.78116265       0.22379307       0.95225144 </v>
    <v>       0.89210851       0.11244644       0.04679907 </v>
    <v>       0.78175187       0.55658426       0.95198635 </v>
    <v>       0.89210925       0.44580100       0.04679053 </v>
    <v>       0.78177189       0.89164313       0.95197288 </v>
    <v>       0.89329044       0.77970325       0.04674325 </v>
   </varray>
  </structure>
  <varray name="forces" >
   <v>      -0.00584001       0.00236231       0.08540241 </v>
   <v>       0.17292775       0.30572993      -0.09710713 </v>
   <v>       0.00641073      -0.00508327       0.08521520 </v>
   <v>      -0.02499074       0.63922433       0.00010888 </v>
   <v>       0.56598977       0.29527918      -0.00020700 </v>
   <v>      -0.35667214      -0.61621844      -0.01324323 </v>
   <v>       0.11603780       0.20923004       0.10753911 </v>
   <v>       0.12071204      -0.57125592      -0.10036438 </v>
   <v>      -0.54371615      -0.18300183      -0.09852220 </v>
   <v>      -0.03411606      -0.08462653      -0.38704867 </v>
   <v>      -0.03589971      -0.07595453       0.30572122 </v>
   <v>      -0.03025565      -0.08367526      -0.38328346 </v>
   <v>      -0.06336444      -0.12162125       0.60048135 </v>
   <v>      -0.02715584      -0.07166860      -0.41561463 </v>
   <v>      -0.03017860      -0.07873292       0.30506873 </v>
   <v>       0.00712682      -0.00121304      -0.60582805 </v>
   <v>       0.02580666       0.02151548       0.44167379 </v>
   <v>       0.00649593       0.01893935      -0.97438231 </v>
   <v>       0.01184789      -0.01080079       0.86885670 </v>
   <v>      -0.02002727       0.01303273      -0.59851572 </v>
   <v>      -0.00679230      -0.00190727       0.87477719 </v>
   <v>       0.00354729       0.03364571      -0.07543923 </v>
   <v>       0.01454467       0.05927301       0.31312581 </v>
   <v>       0.03669203       0.08970417      -0.42052136 </v>
   <v>       0.02131706       0.05289541       0.31001480 </v>
   <v>       0.04146047       0.08686948      -0.42037672 </v>
   <v>       0.02809200       0.07805851       0.29246888 </v>
  </varray>
  <varray name="stress" >
   <v>     -10.16420242      -0.01640815      -0.02838855 </v>
   <v>      -0.01640816      -9.84531075      -0.09552775 </v>
   <v>      -0.02838874      -0.09552775       6.48186957 </v>
  </varray>
  <energy>
   <i name="e_fr_energy">   -189.79382410 </i>
   <i name="e_wo_entrp">   -189.67216153 </i>
   <i name="e_0_energy">     -0.24332514 </i>
  </energy>
  <time name="totalsc">  372.04  373.02</time>
 </calculation>
 <calculation>
  <scstep>
   <time name="dav">   21.65   21.70</time>
   <time name="total">   22.17   22.22</time>
   <energy>
    <i name="alphaZ">     85.82043351 </i>
    <i name="ewald">  42834.33372357 </i>
    <i name="hartreedc"> -48850.79712457 </i>
    <i name="XCdc">   -232.96125084 </i>
    <i name="pawpsdc">   4038.91621727 </i>
    <i name="pawaedc">  -3454.61959712 </i>
    <i name="eentropy">     -0.20905840 </i>
    <i name="bandstr">  -1373.33372340 </i>
    <i name="atom">   6761.44252427 </i>
    <i name="e_fr_energy">   -191.40785570 </i>
    <i name="e_wo_entrp">   -191.19879730 </i>
    <i name="e_0_energy">   -191.30332650 </i>
   </energy>
  </scstep>
  <scstep>
   <time name="dav">   31.36   31.44</time>
   <time name="total">   31.87   31.96</time>
   <energy>
    <i name="e_fr_energy">   -191.15924013 </i>
    <i name="e_wo_entrp">   -190.95028237 </i>
    <i name="e_0_energy">   -191.05476125 </i>
   </energy>
  </scstep>
  <scstep>
   <time name="dav">   29.98   30.05</time>
   <time name="total">   30.49   30.57</time>
   <energy>
    <i name="e_fr_energy">   -191.37526121 </i>
    <i name="e_wo_entrp">   -191.14763760 </i>
    <i name="e_0_energy">   -191.26144940 </i>
   </energy>
  </scstep>
  <scstep>
   <time name="dav">   29.93   30.00</time>
   <time name="total">   30.44   30.52</time>
   <energy>
    <i name="e_fr_energy">   -190.98464214 </i>
    <i name="e_wo_entrp">   -190.77658138 </i>
    <i name="e_0_energy">   -190.88061176 </i>
   </energy>
  </scstep>
  <scstep>
   <time name="dav">   29.93   30.00</time>
   <time name="total">   30.44   30.52</time>
   <energy>
    <i name="e_fr_energy">   -190.85867019 </i>
    <i name="e_wo_entrp">   -190.64461023 </i>
    <i name="e_0_energy">   -190.75164021 </i>
   </energy>
  </scstep>
  <scstep>
   <time name="dav">   29.82   29.89</time>
   <time name="total">   30.33   30.41</time>
   <energy>
    <i name="e_fr_energy">   -190.85998444 </i>
    <i name="e_wo_entrp">   -190.64396446 </i>
    <i name="e_0_energy">   -190.75197445 </i>
   </energy>
  </scstep>
  <scstep>
   <time name="dav">   28.90   28.97</time>
   <time name="total">   29.41   29.49</time>
   <energy>
    <i name="e_fr_energy">   -190.83854202 </i>
    <i name="e_wo_entrp">   -190.62262685 </i>
    <i name="e_0_energy">   -190.73058444 </i>
   </energy>
  </scstep>
  <scstep>
   <time name="dav">   28.63   28.70</time>
   <time name="total">   29.14   29.22</time>
   <energy>
    <i name="e_fr_energy">   -190.83470848 </i>
    <i name="e_wo_entrp">   -190.61926962 </i>
    <i name="e_0_energy">   -190.72698905 </i>
   </energy>
  </scstep>
  <scstep>
   <time name="dav">   31.14   31.21</time>
   <time name="total">   31.65   31.73</time>
   <energy>
    <i name="e_fr_energy">   -190.83466750 </i>
    <i name="e_wo_entrp">   -190.61917102 </i>
    <i name="e_0_energy">   -190.72691926 </i>
   </energy>
  </scstep>
  <scstep>
   <time name="dav">   27.62   27.69</time>
   <time name="total">   28.14   28.21</time>
   <energy>
    <i name="e_fr_energy">   -190.83446236 </i>
    <i name="e_wo_entrp">   -190.61886122 </i>
    <i name="e_0_energy">   -190.72666179 </i>
   </energy>
  </scstep>
  <scstep>
   <time name="dav">   19.74   19.78</time>
   <time name="total">   19.77   19.83</time>
   <energy>
    <i name="alphaZ">     85.82043351 </i>
    <i name="ewald">  42834.33372357 </i>
    <i name="hartreedc"> -48822.00736164 </i>
    <i name="XCdc">   -234.28617347 </i>
    <i name="pawpsdc">   4064.52215318 </i>
    <i name="pawaedc">  -3480.42290193 </i>
    <i name="eentropy">     -0.21569655 </i>
    <i name="bandstr">  -1400.02116141 </i>
    <i name="atom">   6761.44252427 </i>
    <i name="e_fr_energy">   -190.83446047 </i>
    <i name="e_wo_entrp">   -190.61876392 </i>
    <i name="e_0_energy">   -190.72661220 </i>
   </energy>
  </scstep>
  <structure>
   <crystal>
    <varray name="basis" >
     <v>       8.48603207       4.90305387       0.00000000 </v>
     <v>      -8.48282997       4.89754522       0.00000000 </v>
     <v>       0.00000000       0.00000000      30.00000000 </v>
    </varray>
    <i name="volume">   2494.57494184 </i>
    <varray name="rec_basis" >
     <v>       0.05889835       0.10201534       0.00000000 </v>
     <v>      -0.05896460       0.10205384       0.00000000 </v>
     <v>       0.00000000       0.00000000       0.03333333 </v>
    </varray>
   </crystal>
   <varray name="positions" >
    <v>      -0.00009019       0.66668218       0.00026858 </v>
    <v>       1.00564394       0.33613483      -0.00034312 </v>
    <v>      -0.00010082      -0.00011013       0.00026597 </v>
    <v>       0.33946985       0.34118520      -0.00020325 </v>
    <v>       0.33958152       0.66495659      -0.00021047 </v>
    <v>       0.65754762       0.66215309       0.00023473 </v>
    <v>       0.33509828       0.00094522       0.00014101 </v>
    <v>       0.66167094      -0.00795902      -0.00008697 </v>
    <v>       0.66159597       0.33611196      -0.00007377 </v>
    <v>       0.10573955       0.21964850       0.95199048 </v>
    <v>       0.21724463       0.10799533       0.04893775 </v>
    <v>       0.10575892       0.55292301       0.95200547 </v>
    <v>       0.21627525       0.44143158       0.04980260 </v>
    <v>       0.10673128       0.88678263       0.95187113 </v>
    <v>       0.21726855       0.77583135       0.04892251 </v>
    <v>       0.44456298       0.22156302       0.94895677 </v>
    <v>       0.55598900       0.11125631       0.05062562 </v>
    <v>       0.44432534       0.55549054       0.94794073 </v>
    <v>       0.55606811       0.44390235       0.05176347 </v>
    <v>       0.44457028       0.88965320       0.94897086 </v>
    <v>       0.55607046       0.77870821       0.05177560 </v>
    <v>       0.78176587       0.22417893       0.95170550 </v>
    <v>       0.89294952       0.11299868       0.04782662 </v>
    <v>       0.78275343       0.55740060       0.95069921 </v>
    <v>       0.89293562       0.44623799       0.04781400 </v>
    <v>       0.78277573       0.89195241       0.95068652 </v>
    <v>       0.89401280       0.78015989       0.04771235 </v>
   </varray>
  </structure>
  <varray name="forces" >
   <v>       0.00032373      -0.00434004       0.05336267 </v>
   <v>       0.19114719       0.33343086      -0.05824958 </v>
   <v>      -0.00137858      -0.00172384       0.05362009 </v>
   <v>       0.05160935       0.62244656       0.02488579 </v>
   <v>       0.51750309       0.35166015       0.02967421 </v>
   <v>      -0.34721735      -0.59851116      -0.04017273 </v>
   <v>       0.14350317       0.25987308       0.07447663 </v>
   <v>       0.14005089      -0.64054100      -0.05609320 </v>
   <v>      -0.61944352      -0.20150299      -0.06268935 </v>
   <v>       0.04316351       0.05054029      -0.29340797 </v>
   <v>      -0.05913961       0.05604222       0.16366711 </v>
   <v>       0.03853252       0.05309910      -0.29549927 </v>
   <v>       0.00982658       0.01930259       0.40598722 </v>
   <v>       0.00712772      -0.00560998      -0.26751228 </v>
   <v>       0.07590965      -0.02121679       0.16124636 </v>
   <v>      -0.08622226      -0.03752031      -0.46130035 </v>
   <v>       0.03814831       0.06560920       0.29241386 </v>
   <v>      -0.00016748      -0.00543941      -0.76478184 </v>
   <v>      -0.05809302       0.01749895       0.67188696 </v>
   <v>       0.01083745      -0.09342577      -0.46137588 </v>
   <v>       0.04052058      -0.03911641       0.67367633 </v>
   <v>      -0.02058764      -0.03643012       0.07516211 </v>
   <v>      -0.02636742      -0.01882147       0.19048206 </v>
   <v>      -0.07461339       0.02167142      -0.25468580 </v>
   <v>      -0.01939348      -0.02215707       0.19214202 </v>
   <v>       0.05732587      -0.05330909      -0.25893925 </v>
   <v>      -0.05290585      -0.07150897       0.21202408 </v>
  </varray>
  <varray name="stress" >
   <v>      -5.85913072       0.17816094      -0.02056632 </v>
   <v>       0.17816084      -5.67943120       0.09689236 </v>
   <v>      -0.02056638       0.09689250       4.56141820 </v>
  </varray>
  <energy>
   <i name="e_fr_energy">   -190.83446047 </i>
   <i name="e_wo_entrp">   -190.72661220 </i>
   <i name="e_0_energy">     -0.21569655 </i>
  </energy>
  <time name="totalsc">  355.37  356.31</time>
 </calculation>
 <calculation>
  <scstep>
   <time name="dav">   21.64   21.69</time>
   <time name="total">   22.15   22.20</time>
   <energy>
    <i name="alphaZ">     90.20619240 </i>
    <i name="ewald">  44679.28399061 </i>
    <i name="hartreedc"> -50722.43664275 </i>
    <i name="XCdc">   -231.82896440 </i>
    <i name="pawpsdc">   4064.61721464 </i>
    <i name="pawaedc">  -3480.51455017 </i>
    <i name="eentropy">     -0.20452302 </i>
    <i name="bandstr">  -1352.82993717 </i>
    <i name="atom">   6761.44252427 </i>
    <i name="e_fr_energy">   -192.26469560 </i>
    <i name="e_wo_entrp">   -192.06017258 </i>
    <i name="e_0_energy">   -192.16243409 </i>
   </energy>
  </scstep>
  <scstep>
   <time name="dav">   25.35   25.41</time>
   <time name="total">   25.85   25.92</time>
   <energy>
    <i name="e_fr_energy">   -191.97282693 </i>
    <i name="e_wo_entrp">   -191.75218498 </i>
    <i name="e_0_energy">   -191.86250595 </i>
   </energy>
  </scstep>
  <scstep>
   <time name="dav">   27.20   27.27</time>
   <time name="total">   27.71   27.78</time>
   <energy>
    <i name="e_fr_energy">   -191.84795969 </i>
    <i name="e_wo_entrp">   -191.64978856 </i>
    <i name="e_0_energy">   -191.74887412 </i>
   </energy>
  </scstep>
  <scstep>
   <time name="dav">   29.75   29.82</time>
   <time name="total">   30.26   30.34</time>
   <energy>
    <i name="e_fr_energy">   -191.86403191 </i>
    <i name="e_wo_entrp">   -191.64082655 </i>
    <i name="e_0_energy">   -191.75242923 </i>
   </energy>
  </scstep>
  <scstep>
   <time name="dav">   30.16   30.24</time>
   <time name="total">   30.67   30.75</time>
   <energy>
    <i name="e_fr_energy">   -191.61255526 </i>
    <i name="e_wo_entrp">   -191.40193713 </i>
    <i name="e_0_energy">   -191.50724620 </i>
   </energy>
  </scstep>
  <scstep>
   <time name="dav">   29.93   30.01</time>
   <time name="total">   30.44   30.52</time>
   <energy>
    <i name="e_fr_energy">   -191.61098742 </i>
    <i name="e_wo_entrp">   -191.39580912 </i>
    <i name="e_0_energy">   -191.50339827 </i>
   </energy>
  </scstep>
  <scstep>
   <time name="dav">   30.07   30.14</time>
   <time name="total">   30.57   30.65</time>
   <energy>
    <i name="e_fr_energy">   -191.57550828 </i>
    <i name="e_wo_entrp">   -191.35815856 </i>
    <i name="e_0_energy">   -191.46683342 </i>
   </energy>
  </scstep>
  <scstep>
   <time name="dav">   28.65   28.71</time>
   <time name="total">   29.15   29.23</time>
   <energy>
    <i name="e_fr_energy">   -191.57170648 </i>
    <i name="e_wo_entrp">   -191.35593015 </i>
    <i name="e_0_energy">   -191.46381831 </i>
   </energy>
  </scstep>
  <scstep>
   <time name="dav">   29.43   29.50</time>
   <time name="total">   29.94   30.02</time>
   <energy>
    <i name="e_fr_energy">   -191.57022760 </i>
    <i name="e_wo_entrp">   -191.35449172 </i>
    <i name="e_0_energy">   -191.46235966 </i>
   </energy>
  </scstep>
  <scstep>
   <time name="dav">   28.69   28.76</time>
   <time name="total">   29.20   29.27</time>
   <energy>
    <i name="e_fr_energy">   -191.57006668 </i>
    <i name="e_wo_entrp">   -191.35425908 </i>
    <i name="e_0_energy">   -191.46216288 </i>
   </energy>
  </scstep>
  <scstep>
   <time name="dav">   24.80   24.86</time>
   <time name="total">   24.84   24.90</time>
   <energy>
    <i name="alphaZ">     90.20619240 </i>
    <i name="ewald">  44679.28399061 </i>
    <i name="hartreedc"> -50688.56888766 </i>
    <i name="XCdc">   -233.33936193 </i>
    <i name="pawpsdc">   4089.02959749 </i>
    <i name="pawaedc">  -3505.07572997 </i>
    <i name="eentropy">     -0.21597482 </i>
    <i name="bandstr">  -1384.33237062 </i>
    <i name="atom">   6761.44252427 </i>
    <i name="e_fr_energy">   -191.57002024 </i>
    <i name="e_wo_entrp">   -191.35404542 </i>
    <i name="e_0_energy">   -191.46203283 </i>
   </energy>
  </scstep>
  <structure>
   <crystal>
    <varray name="basis" >
     <v>       8.27753737       4.79486483       0.00000000 </v>
     <v>      -8.26342696       4.77046101       0.00000000 </v>
     <v>       0.00000000       0.00000000      30.00000000 </v>
    </varray>
    <i name="volume">   2373.29053854 </i>
    <varray name="rec_basis" >
     <v>       0.06030186       0.10445531       0.00000000 </v>
     <v>      -0.06061034       0.10463368       0.00000000 </v>
     <v>       0.00000000       0.00000000       0.03333333 </v>
    </varray>
   </crystal>
   <varray name="positions" >
    <v>      -0.00012587       0.66665127       0.00049675 </v>
    <v>       1.01101014       0.33883756      -0.00058531 </v>
    <v>      -0.00012503      -0.00014265       0.00049530 </v>
    <v>       0.34775447       0.34865819      -0.00008328 </v>
    <v>       0.34784570       0.66570216      -0.00007034 </v>
    <v>       0.64740505       0.65710075       0.00005232 </v>
    <v>       0.33950930       0.00321184       0.00047755 </v>
    <v>       0.65459378      -0.01680835      -0.00035883 </v>
    <v>       0.65454530       0.33780455      -0.00037171 </v>
    <v>       0.10619166       0.21969832       0.95031956 </v>
    <v>       0.21698440       0.10898079       0.05014703 </v>
    <v>       0.10622094       0.55307796       0.95032824 </v>
    <v>       0.21607291       0.44134357       0.05202291 </v>
    <v>       0.10604878       0.88632809       0.95025306 </v>
    <v>       0.21702470       0.77459472       0.05012171 </v>
    <v>       0.44346740       0.22181502       0.94645914 </v>
    <v>       0.55703241       0.11175847       0.05243602 </v>
    <v>       0.44434228       0.55547769       0.94417584 </v>
    <v>       0.55570393       0.44457269       0.05515647 </v>
    <v>       0.44347130       0.88832198       0.94647674 </v>
    <v>       0.55570224       0.77771239       0.05517617 </v>
    <v>       0.78175446       0.22419000       0.95147060 </v>
    <v>       0.89318851       0.11331959       0.04910543 </v>
    <v>       0.78307142       0.55866194       0.94909447 </v>
    <v>       0.89317880       0.44640332       0.04909968 </v>
    <v>       0.78310965       0.89103503       0.94906756 </v>
    <v>       0.89323584       0.77990755       0.04903682 </v>
   </varray>
  </structure>
  <varray name="forces" >
   <v>       0.01657095      -0.03797546       0.06006443 </v>
   <v>       0.25644899       0.44333008      -0.07438803 </v>
   <v>      -0.03776328      -0.00584219       0.05687341 </v>
   <v>       0.09868054       0.03528522      -0.10420909 </v>
   <v>      -0.01015926       0.09375915      -0.11308487 </v>
   <v>       0.00455189       0.00873898       0.06019422 </v>
   <v>       0.13267896       0.23855158      -0.04152080 </v>
   <v>       0.13612304      -0.46330911       0.08055359 </v>
   <v>      -0.47807396      -0.11355845       0.09266243 </v>
   <v>       0.11519215       0.18187362      -0.00667369 </v>
   <v>      -0.00699029       0.20638579      -0.10212052 </v>
   <v>       0.09845529       0.19310691      -0.00850566 </v>
   <v>       0.10167396       0.17387669       0.09513029 </v>
   <v>       0.04735610       0.08264828       0.05138786 </v>
   <v>       0.17778325       0.10022341      -0.10473709 </v>
   <v>      -0.15573281      -0.07732075      -0.19007847 </v>
   <v>       0.07439687       0.13475194       0.02029573 </v>
   <v>      -0.04430664      -0.07583392      -0.23829563 </v>
   <v>      -0.07611478       0.08396108       0.26030128 </v>
   <v>       0.01398596      -0.17439744      -0.18017935 </v>
   <v>       0.11129538      -0.02558688       0.26664113 </v>
   <v>      -0.09749069      -0.17723875       0.42358039 </v>
   <v>      -0.09711312      -0.11965061      -0.12196349 </v>
   <v>      -0.22241119      -0.10635876      -0.00269448 </v>
   <v>      -0.05627446      -0.14296031      -0.12160677 </v>
   <v>       0.01772990      -0.24673232       0.00094872 </v>
   <v>      -0.12049274      -0.20972778      -0.05857556 </v>
  </varray>
  <varray name="stress" >
   <v>       0.13816399       0.60257903       0.37913319 </v>
   <v>       0.60257897       0.87913336       0.67956030 </v>
   <v>       0.37913323       0.67956020      -0.73775491 </v>
  </varray>
  <energy>
   <i name="e_fr_energy">   -191.57002024 </i>
   <i name="e_wo_entrp">   -191.46203283 </i>
   <i name="e_0_energy">     -0.21597482 </i>
  </energy>
  <time name="totalsc">  352.62  353.55</time>
 </calculation>
 <calculation>
  <scstep>
   <time name="dav">   21.65   21.70</time>
   <time name="total">   22.16   22.21</time>
   <energy>
    <i name="alphaZ">     89.88585156 </i>
    <i name="ewald">  44519.41513355 </i>
    <i name="hartreedc"> -50525.82663801 </i>
    <i name="XCdc">   -233.62648364 </i>
    <i name="pawpsdc">   4089.27929945 </i>
    <i name="pawaedc">  -3505.32174726 </i>
    <i name="eentropy">     -0.21670254 </i>
    <i name="bandstr">  -1386.67664737 </i>
    <i name="atom">   6761.44252427 </i>
    <i name="e_fr_energy">   -191.64541000 </i>
    <i name="e_wo_entrp">   -191.42870746 </i>
    <i name="e_0_energy">   -191.53705873 </i>
   </energy>
  </scstep>
  <scstep>
   <time name="dav">   30.47   30.55</time>
   <time name="total">   30.98   31.06</time>
   <energy>
    <i name="e_fr_energy">   -191.72287342 </i>
    <i name="e_wo_entrp">   -191.49530414 </i>
    <i name="e_0_energy">   -191.60908878 </i>
   </energy>
  </scstep>
  <scstep>
   <time name="dav">   30.49   30.56</time>
   <time name="total">   30.99   31.07</time>
   <energy>
    <i name="e_fr_energy">   -191.65650742 </i>
    <i name="e_wo_entrp">   -191.43900982 </i>
    <i name="e_0_energy">   -191.54775862 </i>
   </energy>
  </scstep>
  <scstep>
   <time name="dav">   26.79   26.86</time>
   <time name="total">   27.30   27.37</time>
   <energy>
    <i name="e_fr_energy">   -191.66119979 </i>
    <i name="e_wo_entrp">   -191.44248401 </i>
    <i name="e_0_energy">   -191.55184190 </i>
   </energy>
  </scstep>
  <scstep>
   <time name="dav">   27.04   27.11</time>
   <time name="total">   27.55   27.62</time>
   <energy>
    <i name="e_fr_energy">   -191.65218771 </i>
    <i name="e_wo_entrp">   -191.43233533 </i>
    <i name="e_0_energy">   -191.54226152 </i>
   </energy>
  </scstep>
  <scstep>
   <time name="dav">   28.04   28.10</time>
   <time name="total">   28.54   28.62</time>
   <energy>
    <i name="e_fr_energy">   -191.65176554 </i>
    <i name="e_wo_entrp">   -191.43333833 </i>
    <i name="e_0_energy">   -191.54255194 </i>
   </energy>
  </scstep>
  <scstep>
   <time name="dav">   27.45   27.51</time>
   <time name="total">   27.96   28.03</time>
   <energy>
    <i name="e_fr_energy">   -191.65155311 </i>
    <i name="e_wo_entrp">   -191.43266367 </i>
    <i name="e_0_energy">   -191.54210839 </i>
   </energy>
  </scstep>
  <scstep>
   <time name="dav">   22.68   22.73</time>
   <time name="total">   23.19   23.25</time>
   <energy>
    <i name="e_fr_energy">   -191.65145131 </i>
    <i name="e_wo_entrp">   -191.43252853 </i>
    <i name="e_0_energy">   -191.54198992 </i>
   </energy>
  </scstep>
  <scstep>
   <time name="dav">   17.34   17.38</time>
   <time name="total">   17.37   17.42</time>
   <energy>
    <i name="alphaZ">     89.88585156 </i>
    <i name="ewald">  44519.41513355 </i>
    <i name="hartreedc"> -50529.45748587 </i>
    <i name="XCdc">   -233.50116040 </i>
    <i name="pawpsdc">   4084.29879689 </i>
    <i name="pawaedc">  -3500.27432275 </i>
    <i name="eentropy">     -0.21892006 </i>
    <i name="bandstr">  -1383.24183446 </i>
    <i name="atom">   6761.44252427 </i>
    <i name="e_fr_energy">   -191.65141727 </i>
    <i name="e_wo_entrp">   -191.43249721 </i>
    <i name="e_0_energy">   -191.54195724 </i>
   </energy>
  </scstep>
  <structure>
   <crystal>
    <varray name="basis" >
     <v>       8.29184071       4.81984244       0.00000000 </v>
     <v>      -8.26372179       4.77117025       0.00000000 </v>
     <v>       0.00000000       0.00000000      30.00000000 </v>
    </varray>
    <i name="volume">   2381.74862039 </i>
    <varray name="rec_basis" >
     <v>       0.06009665       0.10408809       0.00000000 </v>
     <v>      -0.06070971       0.10444227       0.00000000 </v>
     <v>       0.00000000       0.00000000       0.03333333 </v>
    </varray>
   </crystal>
   <varray name="positions" >
    <v>      -0.00025974       0.66642570       0.00057934 </v>
    <v>       1.01362908       0.34014429      -0.00068922 </v>
    <v>      -0.00025548      -0.00006482       0.00057301 </v>
    <v>       0.34789472       0.34828728      -0.00024572 </v>
    <v>       0.34796595       0.66614717      -0.00024695 </v>
    <v>       0.64782292       0.65731103       0.00015035 </v>
    <v>       0.34084466       0.00389844       0.00040199 </v>
    <v>       0.65302202      -0.01907424      -0.00022624 </v>
    <v>       0.65294925       0.33852683      -0.00021989 </v>
    <v>       0.10736518       0.22024996       0.95037973 </v>
    <v>       0.21796589       0.10994905       0.04993699 </v>
    <v>       0.10740131       0.55372441       0.95038581 </v>
    <v>       0.21719527       0.44189905       0.05207506 </v>
    <v>       0.10661011       0.88661431       0.95040047 </v>
    <v>       0.21800785       0.77463530       0.04990808 </v>
    <v>       0.44271313       0.22186505       0.94627429 </v>
    <v>       0.55783953       0.11217717       0.05238821 </v>
    <v>       0.44385860       0.55523851       0.94396366 </v>
    <v>       0.55591050       0.44515663       0.05541500 </v>
    <v>       0.44272154       0.88750400       0.94630666 </v>
    <v>       0.55590270       0.77732476       0.05544403 </v>
    <v>       0.78063340       0.22360840       0.95213268 </v>
    <v>       0.89233112       0.11299849       0.04886380 </v>
    <v>       0.78193295       0.55871351       0.94916044 </v>
    <v>       0.89232263       0.44586603       0.04885835 </v>
    <v>       0.78196233       0.88984258       0.94913947 </v>
    <v>       0.89192702       0.77924558       0.04889050 </v>
   </varray>
  </structure>
  <varray name="forces" >
   <v>      -0.00074067      -0.07343026       0.07189700 </v>
   <v>       0.29387709       0.50683061      -0.03681932 </v>
   <v>      -0.06048828      -0.03717648       0.07030470 </v>
   <v>       0.07659830       0.16397677       0.00194276 </v>
   <v>       0.11328245       0.14281178       0.00653072 </v>
   <v>      -0.08064621      -0.13905001      -0.04845410 </v>
   <v>       0.14402270       0.26678966       0.00100966 </v>
   <v>       0.16864224      -0.51779447      -0.00608171 </v>
   <v>      -0.53591241      -0.11440444      -0.01092109 </v>
   <v>       0.08353353       0.09925474      -0.04235368 </v>
   <v>       0.01488397       0.09424446      -0.11982607 </v>
   <v>       0.04421546       0.12255956      -0.04368927 </v>
   <v>       0.05563121       0.09615993       0.05755085 </v>
   <v>       0.03431024       0.05817151       0.08249363 </v>
   <v>       0.07153655       0.06302564      -0.12538179 </v>
   <v>      -0.06394667      -0.02908669      -0.15516035 </v>
   <v>       0.04060365       0.07383411      -0.00963460 </v>
   <v>      -0.00424739      -0.01209491      -0.12749612 </v>
   <v>      -0.09377774       0.00268540       0.21783569 </v>
   <v>       0.00721410      -0.07361252      -0.15189480 </v>
   <v>       0.04573622      -0.07958474       0.21212205 </v>
   <v>      -0.06090300      -0.10805939       0.47996999 </v>
   <v>      -0.08089681      -0.07816534      -0.14510721 </v>
   <v>      -0.12293551      -0.07497825       0.00277088 </v>
   <v>      -0.02936589      -0.10816944      -0.14402822 </v>
   <v>      -0.00160068      -0.14519996       0.00264773 </v>
   <v>      -0.05862644      -0.09953726      -0.04022732 </v>
  </varray>
  <varray name="stress" >
   <v>      -0.14943311      -0.01026964       0.05803917 </v>
   <v>      -0.01026932      -0.16474841       0.14369800 </v>
   <v>       0.05803917       0.14369796      -1.38232136 </v>
  </varray>
  <energy>
   <i name="e_fr_energy">   -191.65141727 </i>
   <i name="e_wo_entrp">   -191.54195724 </i>
   <i name="e_0_energy">     -0.21892006 </i>
  </energy>
  <time name="totalsc">  278.10  278.83</time>
 </calculation>
 <calculation>
  <scstep>
   <time name="dav">   21.63   21.68</time>
   <time name="total">   22.13   22.19</time>
   <energy>
    <i name="alphaZ">     89.98629419 </i>
    <i name="ewald">  44567.44565631 </i>
    <i name="hartreedc"> -50578.36562415 </i>
    <i name="XCdc">   -233.42609825 </i>
    <i name="pawpsdc">   4083.85763120 </i>
    <i name="pawaedc">  -3499.82918929 </i>
    <i name="eentropy">     -0.21747285 </i>
    <i name="bandstr">  -1382.62264678 </i>
    <i name="atom">   6761.44252427 </i>
    <i name="e_fr_energy">   -191.72892534 </i>
    <i name="e_wo_entrp">   -191.51145249 </i>
    <i name="e_0_energy">   -191.62018891 </i>
   </energy>
  </scstep>
  <scstep>
   <time name="dav">   31.99   32.07</time>
   <time name="total">   32.50   32.58</time>
   <energy>
    <i name="e_fr_energy">   -191.78505847 </i>
    <i name="e_wo_entrp">   -191.55551851 </i>
    <i name="e_0_energy">   -191.67028849 </i>
   </energy>
  </scstep>
  <scstep>
   <time name="dav">   30.53   30.61</time>
   <time name="total">   31.04   31.12</time>
   <energy>
    <i name="e_fr_energy">   -191.73714291 </i>
    <i name="e_wo_entrp">   -191.51907486 </i>
    <i name="e_0_energy">   -191.62810889 </i>
   </energy>
  </scstep>
  <scstep>
   <time name="dav">   26.42   26.49</time>
   <time name="total">   26.93   27.00</time>
   <energy>
    <i name="e_fr_energy">   -191.73870989 </i>
    <i name="e_wo_entrp">   -191.52014481 </i>
    <i name="e_0_energy">   -191.62942735 </i>
   </energy>
  </scstep>
  <scstep>
   <time name="dav">   27.63   27.69</time>
   <time name="total">   28.13   28.21</time>
   <energy>
    <i name="e_fr_energy">   -191.73389707 </i>
    <i name="e_wo_entrp">   -191.51382919 </i>
    <i name="e_0_energy">   -191.62386313 </i>
   </energy>
  </scstep>
  <scstep>
   <time name="dav">   26.50   26.56</time>
   <time name="total">   27.00   27.07</time>
   <energy>
    <i name="e_fr_energy">   -191.73367628 </i>
    <i name="e_wo_entrp">   -191.51415474 </i>
    <i name="e_0_energy">   -191.62391551 </i>
   </energy>
  </scstep>
  <scstep>
   <time name="dav">   27.44   27.50</time>
   <time name="total">   27.94   28.02</time>
   <energy>
    <i name="e_fr_energy">   -191.73356336 </i>
    <i name="e_wo_entrp">   -191.51357636 </i>
    <i name="e_0_energy">   -191.62356986 </i>
   </energy>
  </scstep>
  <scstep>
   <time name="dav">   22.42   22.47</time>
   <time name="total">   22.46   22.52</time>
   <energy>
    <i name="alphaZ">     89.98629419 </i>
    <i name="ewald">  44567.44565631 </i>
    <i name="hartreedc"> -50578.21767549 </i>
    <i name="XCdc">   -233.44326296 </i>
    <i name="pawpsdc">   4087.07165878 </i>
    <i name="pawaedc">  -3503.08271890 </i>
    <i name="eentropy">     -0.21996544 </i>
    <i name="bandstr">  -1382.71598245 </i>
    <i name="atom">   6761.44252427 </i>
    <i name="e_fr_energy">   -191.73347168 </i>
    <i name="e_wo_entrp">   -191.51350624 </i>
    <i name="e_0_energy">   -191.62348896 </i>
   </energy>
  </scstep>
  <structure>
   <crystal>
    <varray name="basis" >
     <v>       8.28723684       4.81745670       0.00000000 </v>
     <v>      -8.25885775       4.76833412       0.00000000 </v>
[...]
      <set comment="kpoint 31">
       <r>  -17.5204    1.0000 </r>
       <r>  -17.2729    1.0000 </r>
       <r>  -16.8976    1.0000 </r>
       <r>  -16.5535    1.0000 </r>
       <r>  -16.5285    1.0000 </r>
       <r>  -16.4626    1.0000 </r>
       <r>  -16.2678    1.0000 </r>
       <r>  -16.1712    1.0000 </r>
       <r>  -16.1237    1.0000 </r>
       <r>  -16.0882    1.0000 </r>
       <r>  -15.8756    1.0000 </r>
       <r>  -15.8410    1.0000 </r>
       <r>  -15.7991    1.0000 </r>
       <r>  -15.7065    1.0000 </r>
       <r>  -15.6082    1.0000 </r>
       <r>  -15.5082    1.0000 </r>
       <r>  -15.3947    1.0000 </r>
       <r>  -15.3829    1.0000 </r>
       <r>   -9.7849    1.0000 </r>
       <r>   -9.5114    1.0000 </r>
       <r>   -9.2636    1.0000 </r>
       <r>   -8.9209    1.0000 </r>
       <r>   -8.8195    1.0000 </r>
       <r>   -8.7002    1.0000 </r>
       <r>   -8.6265    1.0000 </r>
       <r>   -8.5374    1.0000 </r>
       <r>   -8.4080    1.0000 </r>
       <r>   -8.3555    1.0000 </r>
       <r>   -8.2744    1.0000 </r>
       <r>   -8.1520    1.0000 </r>
       <r>   -8.0714    1.0000 </r>
       <r>   -7.9861    1.0000 </r>
       <r>   -7.9519    1.0000 </r>
       <r>   -7.9226    1.0000 </r>
       <r>   -7.7528    1.0000 </r>
       <r>   -7.6544    1.0000 </r>
       <r>   -7.6019    1.0000 </r>
       <r>   -7.4969    1.0000 </r>
       <r>   -7.4229    1.0000 </r>
       <r>   -7.2056    1.0000 </r>
       <r>   -7.0985    1.0000 </r>
       <r>   -7.0615    1.0000 </r>
       <r>   -6.9587    1.0000 </r>
       <r>   -6.9050    1.0000 </r>
       <r>   -6.8094    1.0000 </r>
       <r>   -6.7547    1.0000 </r>
       <r>   -6.6617    1.0000 </r>
       <r>   -6.6319    1.0000 </r>
       <r>   -6.5913    1.0000 </r>
       <r>   -6.5321    1.0000 </r>
       <r>   -6.4413    1.0000 </r>
       <r>   -6.3859    1.0000 </r>
       <r>   -6.2879    1.0000 </r>
       <r>   -6.1491    1.0000 </r>
       <r>   -6.1152    1.0000 </r>
       <r>   -6.0551    1.0000 </r>
       <r>   -5.9656    1.0000 </r>
       <r>   -5.9435    1.0000 </r>
       <r>   -5.8396    1.0000 </r>
       <r>   -5.8097    1.0000 </r>
       <r>   -5.7237    1.0000 </r>
       <r>   -5.6523    1.0000 </r>
       <r>   -5.6314    1.0000 </r>
       <r>   -5.4386    1.0000 </r>
       <r>   -5.2784    1.0000 </r>
       <r>   -5.1560    1.0000 </r>
       <r>   -5.0393    1.0000 </r>
       <r>   -4.8902    1.0000 </r>
       <r>   -4.8004    1.0000 </r>
       <r>   -4.7079    1.0000 </r>
       <r>   -4.5094    1.0000 </r>
       <r>   -4.4126    1.0000 </r>
       <r>   -4.3062    1.0000 </r>
       <r>   -4.2229    1.0000 </r>
       <r>   -4.1871    1.0000 </r>
       <r>   -3.9529    1.0000 </r>
       <r>   -3.8038    1.0000 </r>
       <r>   -3.5977    0.9987 </r>
       <r>   -3.3389    0.8798 </r>
       <r>   -3.1286    0.3771 </r>
       <r>   -3.0242    0.1466 </r>
       <r>   -2.8332    0.0081 </r>
       <r>   -2.7482    0.0013 </r>
       <r>   -2.6551    0.0001 </r>
       <r>   -2.5911    0.0000 </r>
       <r>   -2.5148    0.0000 </r>
       <r>   -2.4156    0.0000 </r>
       <r>   -2.1487    0.0000 </r>
       <r>   -2.0401    0.0000 </r>
       <r>   -1.9447    0.0000 </r>
       <r>   -1.8420    0.0000 </r>
       <r>   -1.5275    0.0000 </r>
       <r>   -1.3916    0.0000 </r>
       <r>   -1.2583    0.0000 </r>
       <r>   -1.2382    0.0000 </r>
       <r>   -1.1631    0.0000 </r>
       <r>   -1.0340    0.0000 </r>
       <r>   -0.9822    0.0000 </r>
       <r>   -0.9301    0.0000 </r>
       <r>   -0.8547    0.0000 </r>
       <r>   -0.7870    0.0000 </r>
       <r>   -0.7183    0.0000 </r>
       <r>   -0.6631    0.0000 </r>
       <r>   -0.6012    0.0000 </r>
       <r>   -0.4623    0.0000 </r>
       <r>   -0.3122    0.0000 </r>
       <r>   -0.2218    0.0000 </r>
       <r>   -0.0994    0.0000 </r>
       <r>    0.0402    0.0000 </r>
       <r>    0.2453    0.0000 </r>
       <r>    0.3063    0.0000 </r>
       <r>    0.4667    0.0000 </r>
       <r>    0.8469    0.0000 </r>
       <r>    0.8788    0.0000 </r>
       <r>    1.1749    0.0000 </r>
       <r>    1.3614    0.0000 </r>
       <r>    1.5053    0.0000 </r>
       <r>    2.1465    0.0000 </r>
       <r>    2.2911    0.0000 </r>
       <r>    2.4072    0.0000 </r>
      </set>
      <set comment="kpoint 32">
       <r>  -17.5338    1.0000 </r>
       <r>  -17.2024    1.0000 </r>
       <r>  -17.0089    1.0000 </r>
       <r>  -16.5482    1.0000 </r>
       <r>  -16.5140    1.0000 </r>
       <r>  -16.3522    1.0000 </r>
       <r>  -16.2799    1.0000 </r>
       <r>  -16.1890    1.0000 </r>
       <r>  -16.1479    1.0000 </r>
       <r>  -16.0940    1.0000 </r>
       <r>  -15.8952    1.0000 </r>
       <r>  -15.8567    1.0000 </r>
       <r>  -15.7993    1.0000 </r>
       <r>  -15.7173    1.0000 </r>
       <r>  -15.5953    1.0000 </r>
       <r>  -15.4975    1.0000 </r>
       <r>  -15.3993    1.0000 </r>
       <r>  -15.3711    1.0000 </r>
       <r>   -9.7289    1.0000 </r>
       <r>   -9.6051    1.0000 </r>
       <r>   -9.3239    1.0000 </r>
       <r>   -8.9037    1.0000 </r>
       <r>   -8.7124    1.0000 </r>
       <r>   -8.6634    1.0000 </r>
       <r>   -8.5799    1.0000 </r>
       <r>   -8.4414    1.0000 </r>
       <r>   -8.4124    1.0000 </r>
       <r>   -8.3529    1.0000 </r>
       <r>   -8.2666    1.0000 </r>
       <r>   -8.1947    1.0000 </r>
       <r>   -8.1549    1.0000 </r>
       <r>   -8.0823    1.0000 </r>
       <r>   -8.0357    1.0000 </r>
       <r>   -7.9536    1.0000 </r>
       <r>   -7.7060    1.0000 </r>
       <r>   -7.6516    1.0000 </r>
       <r>   -7.5509    1.0000 </r>
       <r>   -7.4925    1.0000 </r>
       <r>   -7.3430    1.0000 </r>
       <r>   -7.2913    1.0000 </r>
       <r>   -7.1071    1.0000 </r>
       <r>   -7.0720    1.0000 </r>
       <r>   -6.9939    1.0000 </r>
       <r>   -6.8922    1.0000 </r>
       <r>   -6.7914    1.0000 </r>
       <r>   -6.7496    1.0000 </r>
       <r>   -6.6862    1.0000 </r>
       <r>   -6.6408    1.0000 </r>
       <r>   -6.5613    1.0000 </r>
       <r>   -6.5195    1.0000 </r>
       <r>   -6.4141    1.0000 </r>
       <r>   -6.3974    1.0000 </r>
       <r>   -6.3376    1.0000 </r>
       <r>   -6.1592    1.0000 </r>
       <r>   -6.0975    1.0000 </r>
       <r>   -6.0436    1.0000 </r>
       <r>   -5.9715    1.0000 </r>
       <r>   -5.9232    1.0000 </r>
       <r>   -5.8678    1.0000 </r>
       <r>   -5.7381    1.0000 </r>
       <r>   -5.7014    1.0000 </r>
       <r>   -5.5890    1.0000 </r>
       <r>   -5.5266    1.0000 </r>
       <r>   -5.3881    1.0000 </r>
       <r>   -5.3404    1.0000 </r>
       <r>   -5.2836    1.0000 </r>
       <r>   -5.0233    1.0000 </r>
       <r>   -4.9085    1.0000 </r>
       <r>   -4.8457    1.0000 </r>
       <r>   -4.7830    1.0000 </r>
       <r>   -4.4901    1.0000 </r>
       <r>   -4.4492    1.0000 </r>
       <r>   -4.2990    1.0000 </r>
       <r>   -4.2129    1.0000 </r>
       <r>   -4.1788    1.0000 </r>
       <r>   -3.9444    1.0000 </r>
       <r>   -3.7987    1.0000 </r>
       <r>   -3.5458    0.9958 </r>
       <r>   -3.2949    0.8058 </r>
       <r>   -3.1422    0.4141 </r>
       <r>   -3.0453    0.1835 </r>
       <r>   -2.8468    0.0106 </r>
       <r>   -2.7475    0.0013 </r>
       <r>   -2.6531    0.0001 </r>
       <r>   -2.5894    0.0000 </r>
       <r>   -2.5174    0.0000 </r>
       <r>   -2.4239    0.0000 </r>
       <r>   -2.1487    0.0000 </r>
       <r>   -2.0435    0.0000 </r>
       <r>   -1.9442    0.0000 </r>
       <r>   -1.8620    0.0000 </r>
       <r>   -1.5272    0.0000 </r>
       <r>   -1.3938    0.0000 </r>
       <r>   -1.2771    0.0000 </r>
       <r>   -1.2388    0.0000 </r>
       <r>   -1.1660    0.0000 </r>
       <r>   -1.0231    0.0000 </r>
       <r>   -0.9513    0.0000 </r>
       <r>   -0.9055    0.0000 </r>
       <r>   -0.8507    0.0000 </r>
       <r>   -0.8149    0.0000 </r>
       <r>   -0.7314    0.0000 </r>
       <r>   -0.6389    0.0000 </r>
       <r>   -0.5872    0.0000 </r>
       <r>   -0.4118    0.0000 </r>
       <r>   -0.3564    0.0000 </r>
       <r>   -0.1948    0.0000 </r>
       <r>   -0.1408    0.0000 </r>
       <r>    0.0634    0.0000 </r>
       <r>    0.2343    0.0000 </r>
       <r>    0.2817    0.0000 </r>
       <r>    0.4690    0.0000 </r>
       <r>    0.8360    0.0000 </r>
       <r>    0.8816    0.0000 </r>
       <r>    1.1631    0.0000 </r>
       <r>    1.3609    0.0000 </r>
       <r>    1.4965    0.0000 </r>
       <r>    2.1145    0.0000 </r>
       <r>    2.2591    0.0000 </r>
       <r>    2.5746    0.0000 </r>
      </set>
      <set comment="kpoint 33">
       <r>  -17.5200    1.0000 </r>
       <r>  -17.2719    1.0000 </r>
       <r>  -16.9001    1.0000 </r>
       <r>  -16.5493    1.0000 </r>
       <r>  -16.5333    1.0000 </r>
       <r>  -16.4650    1.0000 </r>
       <r>  -16.2501    1.0000 </r>
       <r>  -16.1782    1.0000 </r>
       <r>  -16.1359    1.0000 </r>
       <r>  -16.0896    1.0000 </r>
       <r>  -15.8737    1.0000 </r>
       <r>  -15.8473    1.0000 </r>
       <r>  -15.7643    1.0000 </r>
       <r>  -15.7291    1.0000 </r>
       <r>  -15.6122    1.0000 </r>
       <r>  -15.5038    1.0000 </r>
       <r>  -15.4133    1.0000 </r>
       <r>  -15.3653    1.0000 </r>
       <r>   -9.7852    1.0000 </r>
       <r>   -9.5119    1.0000 </r>
       <r>   -9.2654    1.0000 </r>
       <r>   -8.9216    1.0000 </r>
       <r>   -8.8176    1.0000 </r>
       <r>   -8.7083    1.0000 </r>
       <r>   -8.6228    1.0000 </r>
       <r>   -8.5381    1.0000 </r>
       <r>   -8.4034    1.0000 </r>
       <r>   -8.3526    1.0000 </r>
       <r>   -8.2735    1.0000 </r>
       <r>   -8.1599    1.0000 </r>
       <r>   -8.0672    1.0000 </r>
       <r>   -7.9967    1.0000 </r>
       <r>   -7.9516    1.0000 </r>
       <r>   -7.9225    1.0000 </r>
       <r>   -7.7404    1.0000 </r>
       <r>   -7.6584    1.0000 </r>
       <r>   -7.5859    1.0000 </r>
       <r>   -7.5033    1.0000 </r>
       <r>   -7.4248    1.0000 </r>
       <r>   -7.2098    1.0000 </r>
       <r>   -7.0925    1.0000 </r>
       <r>   -7.0663    1.0000 </r>
       <r>   -6.9585    1.0000 </r>
       <r>   -6.9046    1.0000 </r>
       <r>   -6.8214    1.0000 </r>
       <r>   -6.7584    1.0000 </r>
       <r>   -6.6691    1.0000 </r>
       <r>   -6.6255    1.0000 </r>
       <r>   -6.5966    1.0000 </r>
       <r>   -6.5249    1.0000 </r>
       <r>   -6.4375    1.0000 </r>
       <r>   -6.3827    1.0000 </r>
       <r>   -6.2701    1.0000 </r>
       <r>   -6.1319    1.0000 </r>
       <r>   -6.1080    1.0000 </r>
       <r>   -6.0588    1.0000 </r>
       <r>   -5.9742    1.0000 </r>
       <r>   -5.9473    1.0000 </r>
       <r>   -5.8481    1.0000 </r>
       <r>   -5.8085    1.0000 </r>
       <r>   -5.7207    1.0000 </r>
       <r>   -5.6778    1.0000 </r>
       <r>   -5.6290    1.0000 </r>
       <r>   -5.4187    1.0000 </r>
       <r>   -5.2904    1.0000 </r>
       <r>   -5.1532    1.0000 </r>
       <r>   -5.0557    1.0000 </r>
       <r>   -4.8861    1.0000 </r>
       <r>   -4.7981    1.0000 </r>
       <r>   -4.7033    1.0000 </r>
       <r>   -4.5284    1.0000 </r>
       <r>   -4.4320    1.0000 </r>
       <r>   -4.2723    1.0000 </r>
       <r>   -4.2203    1.0000 </r>
       <r>   -4.1864    1.0000 </r>
       <r>   -3.9552    1.0000 </r>
       <r>   -3.7962    1.0000 </r>
       <r>   -3.5790    0.9980 </r>
       <r>   -3.3198    0.8506 </r>
       <r>   -3.1696    0.4907 </r>
       <r>   -2.9621    0.0681 </r>
       <r>   -2.8499    0.0112 </r>
       <r>   -2.7597    0.0017 </r>
       <r>   -2.6724    0.0002 </r>
       <r>   -2.6181    0.0000 </r>
       <r>   -2.5308    0.0000 </r>
       <r>   -2.4189    0.0000 </r>
       <r>   -2.1476    0.0000 </r>
       <r>   -2.0348    0.0000 </r>
       <r>   -1.9510    0.0000 </r>
       <r>   -1.8190    0.0000 </r>
       <r>   -1.5177    0.0000 </r>
       <r>   -1.3822    0.0000 </r>
       <r>   -1.2738    0.0000 </r>
       <r>   -1.2402    0.0000 </r>
       <r>   -1.1664    0.0000 </r>
       <r>   -1.0312    0.0000 </r>
       <r>   -0.9887    0.0000 </r>
       <r>   -0.9208    0.0000 </r>
       <r>   -0.8380    0.0000 </r>
       <r>   -0.7880    0.0000 </r>
       <r>   -0.7119    0.0000 </r>
       <r>   -0.6557    0.0000 </r>
       <r>   -0.5928    0.0000 </r>
       <r>   -0.4886    0.0000 </r>
       <r>   -0.3124    0.0000 </r>
       <r>   -0.2470    0.0000 </r>
       <r>   -0.1054    0.0000 </r>
       <r>    0.0459    0.0000 </r>
       <r>    0.2394    0.0000 </r>
       <r>    0.2941    0.0000 </r>
       <r>    0.4826    0.0000 </r>
       <r>    0.8420    0.0000 </r>
       <r>    0.8933    0.0000 </r>
       <r>    1.1736    0.0000 </r>
       <r>    1.3620    0.0000 </r>
       <r>    1.5128    0.0000 </r>
       <r>    2.1470    0.0000 </r>
       <r>    2.2907    0.0000 </r>
       <r>    2.4085    0.0000 </r>
      </set>
      <set comment="kpoint 34">
       <r>  -17.5019    1.0000 </r>
       <r>  -17.3245    1.0000 </r>
       <r>  -16.7396    1.0000 </r>
       <r>  -16.6749    1.0000 </r>
       <r>  -16.5417    1.0000 </r>
       <r>  -16.5016    1.0000 </r>
       <r>  -16.2461    1.0000 </r>
       <r>  -16.1680    1.0000 </r>
       <r>  -16.1297    1.0000 </r>
       <r>  -16.0879    1.0000 </r>
       <r>  -15.8709    1.0000 </r>
       <r>  -15.8161    1.0000 </r>
       <r>  -15.7473    1.0000 </r>
       <r>  -15.6982    1.0000 </r>
       <r>  -15.6566    1.0000 </r>
       <r>  -15.5119    1.0000 </r>
       <r>  -15.4217    1.0000 </r>
       <r>  -15.3639    1.0000 </r>
       <r>   -9.8180    1.0000 </r>
       <r>   -9.4293    1.0000 </r>
       <r>   -9.1482    1.0000 </r>
       <r>   -9.0604    1.0000 </r>
       <r>   -8.8583    1.0000 </r>
       <r>   -8.7714    1.0000 </r>
       <r>   -8.6522    1.0000 </r>
       <r>   -8.5464    1.0000 </r>
       <r>   -8.4466    1.0000 </r>
       <r>   -8.3714    1.0000 </r>
       <r>   -8.2148    1.0000 </r>
       <r>   -8.1691    1.0000 </r>
       <r>   -8.0414    1.0000 </r>
       <r>   -7.9425    1.0000 </r>
       <r>   -7.8849    1.0000 </r>
       <r>   -7.7990    1.0000 </r>
       <r>   -7.7559    1.0000 </r>
       <r>   -7.6929    1.0000 </r>
       <r>   -7.6255    1.0000 </r>
       <r>   -7.5312    1.0000 </r>
       <r>   -7.4074    1.0000 </r>
       <r>   -7.2908    1.0000 </r>
       <r>   -7.0779    1.0000 </r>
       <r>   -7.0040    1.0000 </r>
       <r>   -6.9524    1.0000 </r>
       <r>   -6.8811    1.0000 </r>
       <r>   -6.8488    1.0000 </r>
       <r>   -6.7527    1.0000 </r>
       <r>   -6.6770    1.0000 </r>
       <r>   -6.6015    1.0000 </r>
       <r>   -6.5504    1.0000 </r>
       <r>   -6.5310    1.0000 </r>
       <r>   -6.4499    1.0000 </r>
       <r>   -6.4059    1.0000 </r>
       <r>   -6.2626    1.0000 </r>
       <r>   -6.1934    1.0000 </r>
       <r>   -6.1387    1.0000 </r>
       <r>   -5.9960    1.0000 </r>
       <r>   -5.9894    1.0000 </r>
       <r>   -5.9601    1.0000 </r>
       <r>   -5.8492    1.0000 </r>
       <r>   -5.8057    1.0000 </r>
       <r>   -5.7631    1.0000 </r>
       <r>   -5.7215    1.0000 </r>
       <r>   -5.6463    1.0000 </r>
       <r>   -5.4610    1.0000 </r>
       <r>   -5.3696    1.0000 </r>
       <r>   -5.0221    1.0000 </r>
       <r>   -4.9763    1.0000 </r>
       <r>   -4.9135    1.0000 </r>
       <r>   -4.7927    1.0000 </r>
       <r>   -4.6484    1.0000 </r>
       <r>   -4.5546    1.0000 </r>
       <r>   -4.3291    1.0000 </r>
       <r>   -4.3097    1.0000 </r>
       <r>   -4.2270    1.0000 </r>
       <r>   -4.1931    1.0000 </r>
       <r>   -3.9748    1.0000 </r>
       <r>   -3.7990    1.0000 </r>
       <r>   -3.6197    0.9992 </r>
       <r>   -3.3411    0.8829 </r>
       <r>   -3.1732    0.5009 </r>
       <r>   -2.8991    0.0264 </r>
       <r>   -2.8475    0.0107 </r>
       <r>   -2.7881    0.0033 </r>
       <r>   -2.6910    0.0003 </r>
       <r>   -2.6273    0.0001 </r>
       <r>   -2.5417    0.0000 </r>
       <r>   -2.4140    0.0000 </r>
       <r>   -2.1459    0.0000 </r>
       <r>   -2.0239    0.0000 </r>
       <r>   -1.9563    0.0000 </r>
       <r>   -1.7880    0.0000 </r>
       <r>   -1.5085    0.0000 </r>
       <r>   -1.3728    0.0000 </r>
       <r>   -1.2666    0.0000 </r>
       <r>   -1.2398    0.0000 </r>
       <r>   -1.1686    0.0000 </r>
       <r>   -1.0684    0.0000 </r>
       <r>   -0.9902    0.0000 </r>
       <r>   -0.9206    0.0000 </r>
       <r>   -0.8456    0.0000 </r>
       <r>   -0.7596    0.0000 </r>
       <r>   -0.6968    0.0000 </r>
       <r>   -0.6642    0.0000 </r>
       <r>   -0.6163    0.0000 </r>
       <r>   -0.5439    0.0000 </r>
       <r>   -0.2924    0.0000 </r>
       <r>   -0.2674    0.0000 </r>
       <r>   -0.0748    0.0000 </r>
       <r>    0.0227    0.0000 </r>
       <r>    0.2399    0.0000 </r>
       <r>    0.3085    0.0000 </r>
       <r>    0.4925    0.0000 </r>
       <r>    0.8412    0.0000 </r>
       <r>    0.9124    0.0000 </r>
       <r>    1.1824    0.0000 </r>
       <r>    1.3621    0.0000 </r>
       <r>    1.5273    0.0000 </r>
       <r>    2.2369    0.0000 </r>
       <r>    2.2515    0.0000 </r>
       <r>    2.3752    0.0000 </r>
      </set>
     </set>
    </set>
   </array>
  </eigenvalues>
  <separator name="orbital magnetization" >
   <v name="MAGDIPOLOUT">      0.00000000      0.00000000      0.00000000</v>
  </separator>
 </calculation>
 <structure name="finalpos" >
  <crystal>
   <varray name="basis" >
    <v>       8.33852164       4.83669948       0.00000000 </v>
    <v>      -8.32169112       4.80754443       0.00000000 </v>
    <v>       0.00000000       0.00000000      30.00000000 </v>
   </varray>
   <i name="volume">   2410.11997324 </i>
   <varray name="rec_basis" >
    <v>       0.05984197       0.10358436       0.00000000 </v>
    <v>      -0.06020488       0.10379386       0.00000000 </v>
    <v>       0.00000000       0.00000000       0.03333333 </v>
   </varray>
  </crystal>
  <varray name="positions" >
   <v>       0.00162334       0.65571002       0.00145837 </v>
   <v>       1.03474214       0.35063434      -0.00119063 </v>
   <v>       0.01325574       0.01846047       0.00104087 </v>
   <v>       0.34512479       0.34386562      -0.00041174 </v>
   <v>       0.34776353       0.66905063      -0.00049419 </v>
   <v>       0.63487653       0.64983397       0.00099495 </v>
   <v>       0.34936123       0.00811349      -0.00069349 </v>
   <v>       0.64500735      -0.03554624      -0.00005106 </v>
   <v>       0.64657306       0.34784215      -0.00004122 </v>
   <v>       0.10971540       0.22151462       0.94816924 </v>
   <v>       0.22129844       0.10861548       0.04979625 </v>
   <v>       0.10922013       0.55565341       0.94873752 </v>
   <v>       0.22110742       0.44420634       0.05302240 </v>
   <v>       0.10816954       0.88736827       0.95229561 </v>
   <v>       0.21920715       0.77793367       0.04878787 </v>
   <v>       0.44266776       0.22324093       0.94533334 </v>
   <v>       0.56087763       0.11343787       0.05126956 </v>
   <v>       0.43891963       0.55277409       0.94357330 </v>
   <v>       0.55053282       0.44411991       0.05734483 </v>
   <v>       0.44246189       0.88604307       0.94514957 </v>
   <v>       0.55114852       0.77289819       0.05738141 </v>
   <v>       0.77924523       0.22276052       0.95948287 </v>
   <v>       0.89234972       0.11614563       0.04674387 </v>
   <v>       0.77632076       0.56016373       0.94967391 </v>
   <v>       0.89117925       0.44150274       0.04744597 </v>
   <v>       0.77734374       0.88315244       0.95039015 </v>
   <v>       0.88812169       0.77871908       0.04479034 </v>
  </varray>
 </structure>
</modeling>
