unknown system                          
           1
     8.861763    5.106575    0.000000
    -8.860415    5.104256    0.000000
     0.000000    0.000000   30.000000
   V    Mo   W    S 
   3   3   3  18
Direct configuration=     1
   0.66666669  0.00000000  0.00000000
   0.33333334  0.00000000  0.00000000
   0.66666669  0.33333334  0.00000000
   0.00000000  0.00000000  0.00000000
   0.33333334  0.33333334  0.00000000
   0.33333334  0.66666669  0.00000000
   1.00000000  0.33333334  0.00000000
   0.00000000  0.66666669  0.00000000
   0.66666669  0.66666669  0.00000000
   0.11068511  0.22244981  0.95539999
   0.22244981  0.11068511  0.04460000
   0.11068511  0.55578315  0.95539999
   0.22244981  0.44401845  0.04460000
   0.11068511  0.88911647  0.95539999
   0.22244981  0.77735180  0.04460000
   0.44401845  0.22244981  0.95539999
   0.55578315  0.11068511  0.04460000
   0.44401845  0.55578315  0.95539999
   0.55578315  0.44401845  0.04460000
   0.44401845  0.88911647  0.95539999
   0.55578315  0.77735180  0.04460000
   0.77735180  0.22244981  0.95539999
   0.88911647  0.11068511  0.04460000
   0.77735180  0.55578315  0.95539999
   0.88911647  0.44401845  0.04460000
   0.77735180  0.88911647  0.95539999
   0.88911647  0.77735180  0.04460000
unknown system                          
           1
     8.671512    4.999546    0.000000
    -8.670191    4.997272    0.000000
     0.000000    0.000000   30.000000
   V    Mo   W    S 
   3   3   3  18
Direct configuration=     2
   0.66615623 -0.00068727 -0.00000962
   0.33313958  0.00048699 -0.00001240
   0.66507491  0.33249658  0.00001935
   0.00143772  0.00137647 -0.00009231
   0.33202686  0.33315754  0.00014675
   0.33338153  0.66550914  0.00005551
   1.00239803  0.33277994  0.00017059
   0.00173731  0.66835315 -0.00015456
   0.66500557  0.66669509 -0.00017325
   0.11047762  0.22239158  0.95068999
   0.22463196  0.10873006  0.04798986
   0.11004610  0.55508301  0.95076922
   0.22110118  0.44383124  0.04937094
   0.11488291  0.88993537  0.95188089
   0.22339319  0.78163442  0.04807464
   0.44651124  0.21988212  0.95308033
   0.55559563  0.11087733  0.04584852
   0.44552685  0.55598665  0.95078016
   0.55822090  0.44279473  0.04797420
   0.44634412  0.89325091  0.95316485
   0.55802461  0.78171131  0.04810938
   0.77409893  0.22057436  0.95318293
   0.88476719  0.10990822  0.04803482
   0.77598734  0.55188990  0.95191540
   0.88510883  0.44253740  0.04801465
   0.77483544  0.89014922  0.95199785
   0.88830266  0.77687901  0.04917118
unknown system                          
           1
     8.487612    4.899996    0.000000
    -8.486328    4.897783    0.000000
     0.000000    0.000000   30.000000
   V    Mo   W    S 
   3   3   3  18
Direct configuration=     3
   0.66603816 -0.00099053 -0.00006330
   0.33289748  0.00049970 -0.00002190
   0.66472250  0.33241895  0.00001248
   0.00190367  0.00180964 -0.00005692
   0.33124234  0.33338507  0.00017028
   0.33314165  0.66460209  0.00002524
   1.00361395  0.33287231  0.00019569
   0.00216562  0.66888675 -0.00011590
   0.66455478  0.66669214 -0.00019026
   0.11034688  0.22251287  0.95057054
   0.22471678  0.10868978  0.04803574
   0.10977957  0.55495700  0.95077991
   0.22086955  0.44368551  0.04954545
   0.11490513  0.88980153  0.95182873
   0.22325490  0.78163199  0.04804938
   0.44652895  0.21982183  0.95314017
   0.55555453  0.11087200  0.04576880
   0.44575893  0.55609512  0.95070303
   0.55834227  0.44298154  0.04795564
   0.44642179  0.89334362  0.95325739
   0.55819218  0.78169016  0.04812764
   0.77426876  0.22061906  0.95332636
   0.88478686  0.11008905  0.04801391
   0.77604050  0.55207331  0.95199197
   0.88529520  0.44258932  0.04786523
   0.77467910  0.88995631  0.95200284
   0.88819243  0.77662834  0.04908175
unknown system                          
           1
     8.285861    4.781288    0.000000
    -8.280904    4.772714    0.000000
     0.000000    0.000000   30.000000
   V    Mo   W    S 
   3   3   3  18
Direct configuration=     4
   0.66591522 -0.00239883 -0.00026537
   0.33124184  0.00006676 -0.00006642
   0.66388717  0.33284263 -0.00003489
   0.00352990  0.00322119  0.00008192
   0.32787310  0.33487029  0.00018561
   0.33182508  0.66026870 -0.00008079
   1.00877329  0.33373152  0.00019565
   0.00336475  0.67074467  0.00008521
   0.66315342  0.66661672 -0.00015929
   0.11033525  0.22254735  0.94845569
   0.22556977  0.10826398  0.04966138
   0.10942495  0.55470141  0.94919320
   0.22091859  0.44361775  0.05196052
   0.11626993  0.89064762  0.95010416
   0.22414909  0.78283678  0.04941757
   0.44684386  0.21930220  0.95206767
   0.55538275  0.11080411  0.04671097
   0.44572443  0.55590074  0.94875895
   0.55865881  0.44250910  0.04932818
   0.44698327  0.89433796  0.95231257
   0.55868527  0.78277483  0.04968132
   0.77363435  0.22018140  0.95257491
   0.88365580  0.10959610  0.04941410
   0.77555363  0.55130392  0.95079117
   0.88460093  0.44200028  0.04873096
   0.77425371  0.89050542  0.95055702
   0.88800629  0.77641984  0.05033790
unknown system                          
           1
     8.295727    4.783660    0.000000
    -8.289577    4.773023    0.000000
     0.000000    0.000000   30.000000
   V    Mo   W    S 
   3   3   3  18
Direct configuration=     5
   0.66575730 -0.00487035 -0.00054380
   0.32780129 -0.00083364 -0.00015906
   0.66236242  0.33381381 -0.00016145
   0.00658783  0.00544303  0.00027463
   0.32171813  0.33844098  0.00007795
   0.32922558  0.65118827 -0.00015346
   1.01850888  0.33549217  0.00010681
   0.00512846  0.67453555  0.00039037
   0.66054822  0.66613356  0.00000543
   0.11067612  0.22223994  0.94550610
   0.22683191  0.10869380  0.05183305
   0.10928085  0.55423338  0.94722434
   0.22146223  0.44379216  0.05574690
   0.11796047  0.89201958  0.94774138
   0.22598536  0.78409968  0.05106284
   0.44630874  0.21910219  0.95066000
   0.55495255  0.11052334  0.04815951
   0.44517953  0.55503433  0.94607457
   0.55786615  0.44174562  0.05105310
   0.44682106  0.89410924  0.95113652
   0.55836856  0.78359929  0.05164896
   0.77411424  0.22009788  0.95177964
   0.88302991  0.10951564  0.05115708
   0.77519065  0.55079779  0.94922548
   0.88450354  0.44121441  0.04960356
   0.77432299  0.89117522  0.94868190
   0.88772149  0.77687757  0.05186754
unknown system                          
           1
     8.284495    4.776110    0.000000
    -8.279425    4.767351    0.000000
     0.000000    0.000000   30.000000
   V    Mo   W    S 
   3   3   3  18
Direct configuration=     6
   0.66562038 -0.00527609 -0.00056836
   0.32699713 -0.00070304 -0.00011020
   0.66149568  0.33368608 -0.00016354
   0.00728359  0.00531026  0.00024397
   0.32180008  0.33894162  0.00006077
   0.32933482  0.65008739 -0.00004459
   1.01940187  0.33550134  0.00015552
   0.00514517  0.67594546  0.00040662
   0.65981903  0.66565171 -0.00002272
   0.11080025  0.22194826  0.94519169
   0.22716271  0.10971642  0.05187938
   0.10934473  0.55405634  0.94724795
   0.22160259  0.44386452  0.05625195
   0.11787781  0.89216769  0.94754499
   0.22646135  0.78373876  0.05094795
   0.44544791  0.21957476  0.95066461
   0.55477091  0.11037491  0.04815388
   0.44490287  0.55455996  0.94585305
   0.55686838  0.44162088  0.05104407
   0.44590044  0.89258522  0.95127681
   0.55773251  0.78309465  0.05169670
   0.77554715  0.22072969  0.95201668
   0.88378462  0.11010344  0.05111724
   0.77545178  0.55140621  0.94924451
   0.88540958  0.44120249  0.04929924
   0.77465499  0.89094910  0.94870172
   0.88759609  0.77737643  0.05191001
unknown system                          
           1
     8.294078    4.780638    0.000000
    -8.288824    4.771560    0.000000
     0.000000    0.000000   30.000000
   V    Mo   W    S 
   3   3   3  18
Direct configuration=     7
   0.66535372 -0.00594500 -0.00066842
   0.32572584 -0.00042644 -0.00005932
   0.65997154  0.33329280 -0.00017365
   0.00858221  0.00536519  0.00018616
   0.32105598  0.33996348  0.00003175
   0.32951248  0.64782082 -0.00000210
   1.02185523  0.33540534  0.00015831
   0.00527932  0.67838316  0.00046420
   0.65845453  0.66492922 -0.00008561
   0.11094298  0.22171143  0.94482871
   0.22754716  0.11055364  0.05207889
   0.10941399  0.55401118  0.94731304
   0.22175728  0.44376898  0.05688681
   0.11801965  0.89248497  0.94714004
   0.22696715  0.78355826  0.05087050
   0.44472793  0.21990712  0.95054892
   0.55456992  0.11024781  0.04817115
   0.44470440  0.55417712  0.94548068
   0.55610355  0.44152847  0.05118858
   0.44503622  0.89122758  0.95145440
   0.55729016  0.78270902  0.05188443
   0.77675148  0.22128058  0.95228681
   0.88441466  0.11041088  0.05116459
   0.77565824  0.55194744  0.94919786
   0.88622779  0.44132478  0.04892776
   0.77493901  0.89074081  0.94867418
   0.88735201  0.77783578  0.05205125
unknown system                          
           1
     8.299084    4.781470    0.000000
    -8.293895    4.772510    0.000000
     0.000000    0.000000   30.000000
   V    Mo   W    S 
   3   3   3  18
Direct configuration=     8
   0.66527559 -0.00596199 -0.00068362
   0.32563698 -0.00027534 -0.00004962
   0.65960266  0.33305309 -0.00016849
   0.00872942  0.00523645  0.00019205
   0.32133275  0.33991997  0.00003171
   0.32985706  0.64797517  0.00002033
   1.02169858  0.33514227  0.00018814
   0.00517724  0.67883604  0.00047693
   0.65828112  0.66477886 -0.00009454
   0.11097859  0.22166914  0.94486550
   0.22755984  0.11060847  0.05204056
   0.10941062  0.55404279  0.94743385
   0.22176776  0.44374974  0.05682532
   0.11803557  0.89250176  0.94714071
   0.22695249  0.78352857  0.05077662
   0.44471726  0.21990595  0.95056157
   0.55455243  0.11025242  0.04811088
   0.44473353  0.55414945  0.94550195
   0.55612039  0.44157787  0.05116114
   0.44495351  0.89113748  0.95154145
   0.55729875  0.78266883  0.05184400
   0.77682245  0.22133753  0.95237088
   0.88448868  0.11040368  0.05110183
   0.77568525  0.55198420  0.94925242
   0.88631863  0.44142393  0.04879669
   0.77494678  0.89068410  0.94874609
   0.88728051  0.77788402  0.05201555
unknown system                          
           1
     8.286498    4.779303    0.000000
    -8.280514    4.768953    0.000000
     0.000000    0.000000   30.000000
   V    Mo   W    S 
   3   3   3  18
Direct configuration=     9
   0.66498621 -0.00630188 -0.00076766
   0.32487557  0.00012210 -0.00001556
   0.65816503  0.33238903 -0.00016412
   0.00966997  0.00509754  0.00017249
   0.32137232  0.34038174  0.00001225
   0.33060499  0.64707682  0.00005948
   1.02267758  0.33455812  0.00022850
   0.00503216  0.68086419  0.00051851
   0.65731187  0.66415130 -0.00014831
   0.11111911  0.22151353  0.94473196
   0.22776873  0.11100725  0.05211847
   0.10942304  0.55407899  0.94767488
   0.22188282  0.44367496  0.05704411
   0.11818803  0.89271852  0.94691576
   0.22716672  0.78346818  0.05060659
   0.44444790  0.21999408  0.95048063
   0.55441478  0.11019608  0.04805099
   0.44470250  0.55393262  0.94532913
   0.55588704  0.44162173  0.05122464
   0.44448749  0.89051375  0.95174056
   0.55717795  0.78249505  0.05190359
   0.77737536  0.22164297  0.95260849
   0.88482025  0.11045921  0.05106168
   0.77578783  0.55221850  0.94930125
   0.88678668  0.44165424  0.04841258
   0.77506572  0.89052060  0.94883191
   0.88701683  0.77816524  0.05206710
unknown system                          
           1
     8.284041    4.780330    0.000000
    -8.277584    4.769155    0.000000
     0.000000    0.000000   30.000000
   V    Mo   W    S 
   3   3   3  18
Direct configuration=    10
   0.66567056 -0.00565823 -0.00057876
   0.32633146 -0.00079563 -0.00008280
   0.66146888  0.33411365 -0.00019039
   0.00769062  0.00533436  0.00019630
   0.32091935  0.33955208  0.00005452
   0.32848779  0.64841600 -0.00003110
   1.02111839  0.33613197  0.00010539
   0.00559089  0.67660127  0.00044591
   0.65936677  0.66553002 -0.00002053
   0.11079002  0.22181017  0.94496421
   0.22739351  0.11034516  0.05194433
   0.10942044  0.55396066  0.94705333
   0.22162848  0.44381598  0.05673406
   0.11783600  0.89222226  0.94737492
   0.22686806  0.78357881  0.05100381
   0.44477514  0.21992671  0.95072355
   0.55470985  0.11029653  0.04814482
   0.44469335  0.55436287  0.94567462
   0.55611155  0.44146631  0.05106504
   0.44529268  0.89147113  0.95136582
   0.55726197  0.78277016  0.05178045
   0.77651769  0.22109848  0.95214933
   0.88428799  0.11050246  0.05113125
   0.77560800  0.55188256  0.94918377
   0.88591424  0.44109003  0.04926040
   0.77485538  0.89081596  0.94861120
   0.88760539  0.77757274  0.05193644
unknown system                          
           1
     8.278504    4.778006    0.000000
    -8.272063    4.766855    0.000000
     0.000000    0.000000   30.000000
   V    Mo   W    S 
   3   3   3  18
Direct configuration=    11
   0.66625652 -0.00544705 -0.00046334
   0.32698596 -0.00148615 -0.00012679
   0.66391647  0.33566982 -0.00023089
   0.00643283  0.00551350  0.00020296
   0.32016987  0.33916744  0.00008006
   0.32634163  0.64857216 -0.00003744
   1.02081204  0.33780329  0.00005623
   0.00640439  0.67362124  0.00042443
   0.66056621  0.66650615  0.00007899
   0.11053677  0.22185533  0.94498214
   0.22720169  0.11017509  0.05183434
   0.10940333  0.55385491  0.94647650
   0.22136897  0.44385349  0.05676102
   0.11758582  0.89183271  0.94761537
   0.22681806  0.78355663  0.05130734
   0.44469305  0.22010822  0.95098455
   0.55493104  0.11040645  0.04814167
   0.44458227  0.55455359  0.94584352
   0.55592023  0.44128796  0.05092734
   0.44551855  0.89152875  0.95121853
   0.55701470  0.78274239  0.05170077
   0.77645236  0.22095217  0.95195356
   0.88422925  0.11077029  0.05113035
   0.77567716  0.55196296  0.94910471
   0.88560238  0.44071747  0.04978689
   0.77478036  0.89091565  0.94841955
   0.88801255  0.77722001  0.05182753
unknown system                          
           1
     8.284878    4.780810    0.000000
    -8.278452    4.769689    0.000000
     0.000000    0.000000   30.000000
   V    Mo   W    S 
   3   3   3  18
Direct configuration=    12
   0.66640387 -0.00585338 -0.00050204
   0.32662977 -0.00158509 -0.00014524
   0.66406708  0.33607850 -0.00027782
   0.00658972  0.00589937  0.00017460
   0.31959202  0.33928777  0.00007161
   0.32548965  0.64782640  0.00000290
   1.02169245  0.33861972  0.00002157
   0.00716141  0.67310653  0.00041145
   0.66016171  0.66660745  0.00009946
   0.11041601  0.22177697  0.94492526
   0.22718756  0.11038732  0.05180254
   0.10942638  0.55384139  0.94633345
   0.22129915  0.44379574  0.05698351
   0.11750313  0.89165271  0.94763545
   0.22689188  0.78339206  0.05133759
   0.44444619  0.22036901  0.95113855
   0.55501001  0.11049695  0.04801912
   0.44441352  0.55449324  0.94586338
   0.55566579  0.44129304  0.05085035
   0.44518805  0.89092713  0.95138463
   0.55667384  0.78246347  0.05166516
   0.77694763  0.22118257  0.95212711
   0.88452800  0.11104828  0.05105241
   0.77600584  0.55240489  0.94916250
   0.88592929  0.44078062  0.04974691
   0.77481127  0.89075942  0.94840752
   0.88808324  0.77716236  0.05170796
unknown system                          
           1
     8.288042    4.782310    0.000000
    -8.281449    4.770900    0.000000
     0.000000    0.000000   30.000000
   V    Mo   W    S 
   3   3   3  18
Direct configuration=    13
   0.66627700 -0.00621288 -0.00056184
   0.32602498 -0.00128113 -0.00012008
   0.66303128  0.33571787 -0.00028364
   0.00728623  0.00602270  0.00017197
   0.31965545  0.33946588  0.00008552
   0.32595170  0.64732545  0.00006166
   1.02228876  0.33830376  0.00006844
   0.00732454  0.67421005  0.00044293
   0.65929139  0.66612641  0.00007507
   0.11048167  0.22167457  0.94480805
   0.22728655  0.11060338  0.05187559
   0.10945861  0.55388031  0.94643537
   0.22137265  0.44371942  0.05713748
   0.11760705  0.89178836  0.94747685
   0.22704672  0.78338743  0.05126056
   0.44429564  0.22042477  0.95105623
   0.55494598  0.11049628  0.04796986
   0.44435948  0.55434247  0.94572413
   0.55556909  0.44134367  0.05091267
   0.44486151  0.89054468  0.95151351
   0.55658350  0.78236097  0.05174053
   0.77729745  0.22139847  0.95229262
   0.88473712  0.11109685  0.05102746
   0.77612621  0.55262136  0.94920202
   0.88621762  0.44092269  0.04950495
   0.77491371  0.89063335  0.94844015
   0.88792258  0.77729731  0.05168184
unknown system                          
           1
     8.286417    4.781739    0.000000
    -8.279814    4.770309    0.000000
     0.000000    0.000000   30.000000
   V    Mo   W    S 
   3   3   3  18
Direct configuration=    14
   0.66622163 -0.00656250 -0.00061212
   0.32560253 -0.00103802 -0.00010633
   0.66229302  0.33549397 -0.00029972
   0.00777622  0.00618854  0.00015252
   0.31965674  0.33959412  0.00008606
   0.32613434  0.64691152  0.00009190
   1.02281527  0.33819356  0.00007679
   0.00768605  0.67492013  0.00045717
   0.65848983  0.66579804  0.00005077
   0.11052407  0.22163060  0.94474862
   0.22734223  0.11076021  0.05192941
   0.10950028  0.55388940  0.94650484
   0.22141315  0.44364114  0.05725436
   0.11766734  0.89185906  0.94738449
   0.22718739  0.78340092  0.05121397
   0.44415762  0.22047041  0.95100944
   0.55492181  0.11049573  0.04790495
   0.44427963  0.55423113  0.94565024
   0.55548145  0.44139044  0.05095362
   0.44464247  0.89025213  0.95164351
   0.55651585  0.78229775  0.05178217
   0.77757702  0.22153517  0.95244953
   0.88488824  0.11114128  0.05098933
   0.77622813  0.55283321  0.94925910
   0.88643587  0.44101514  0.04932900
   0.77497520  0.89052163  0.94847867
   0.88780109  0.77734974  0.05161760
unknown system                          
           1
     8.281550    4.778849    0.000000
    -8.275254    4.767953    0.000000
     0.000000    0.000000   30.000000
   V    Mo   W    S 
   3   3   3  18
Direct configuration=    15
   0.66626554 -0.00626301 -0.00057116
   0.32600864 -0.00134354 -0.00012009
   0.66306101  0.33567415 -0.00028320
   0.00721043  0.00597285  0.00015848
   0.31953944  0.33952500  0.00006902
   0.32595847  0.64721620  0.00004844
   1.02238615  0.33831315  0.00005012
   0.00717410  0.67425615  0.00043065
   0.65941413  0.66626849  0.00006640
   0.11045897  0.22166234  0.94480425
   0.22730743  0.11064715  0.05188658
   0.10945854  0.55388358  0.94646151
   0.22137263  0.44371841  0.05717872
   0.11757785  0.89176816  0.94746265
   0.22701967  0.78333295  0.05124985
   0.44427865  0.22046843  0.95106341
   0.55496326  0.11048416  0.04796434
   0.44437143  0.55434084  0.94572242
   0.55554176  0.44133372  0.05091428
   0.44485078  0.89046250  0.95153258
   0.55657934  0.78237077  0.05173277
   0.77734866  0.22139375  0.95231180
   0.88474041  0.11111064  0.05102142
   0.77617771  0.55265865  0.94918538
   0.88628745  0.44095921  0.04949678
   0.77490907  0.89065248  0.94844689
   0.88795293  0.77734728  0.05171564
unknown system                          
           1
     8.286907    4.781376    0.000000
    -8.280428    4.770163    0.000000
     0.000000    0.000000   30.000000
   V    Mo   W    S 
   3   3   3  18
Direct configuration=    16
   0.66614396 -0.00619589 -0.00055908
   0.32585291 -0.00126459 -0.00010580
   0.66291811  0.33571509 -0.00027308
   0.00741130  0.00582307  0.00017020
   0.31943134  0.33963572  0.00008915
   0.32598812  0.64684111  0.00008341
   1.02270897  0.33831716  0.00008190
   0.00686259  0.67460919  0.00045042
   0.65949063  0.66603909  0.00007649
   0.11043886  0.22160523  0.94476773
   0.22734559  0.11072826  0.05186473
   0.10946246  0.55389824  0.94651852
   0.22136867  0.44370296  0.05720960
   0.11758709  0.89179559  0.94742483
   0.22699100  0.78325888  0.05117440
   0.44428147  0.22053664  0.95110603
   0.55494941  0.11053875  0.04793048
   0.44441660  0.55430458  0.94570127
   0.55553910  0.44133648  0.05085964
   0.44465168  0.89024231  0.95156949
   0.55652658  0.78228498  0.05173845
   0.77750137  0.22155092  0.95236545
   0.88485793  0.11117356  0.05100028
   0.77619108  0.55266985  0.94919465
   0.88637038  0.44100544  0.04939683
   0.77498553  0.89063030  0.94843098
   0.88794171  0.77743156  0.05173293
unknown system                          
           1
     8.278643    4.777198    0.000000
    -8.272770    4.767034    0.000000
     0.000000    0.000000   30.000000
   V    Mo   W    S 
   3   3   3  18
Direct configuration=    17
   0.66611346 -0.00659696 -0.00062138
   0.32543119 -0.00092696 -0.00009474
   0.66198294  0.33538540 -0.00029510
   0.00800286  0.00610354  0.00015023
   0.31963260  0.33970173  0.00008963
   0.32629430  0.64663557  0.00010993
   1.02308576  0.33808559  0.00009226
   0.00751637  0.67539446  0.00046838
   0.65836107  0.66560203  0.00004283
   0.11053545  0.22159231  0.94472134
   0.22738716  0.11084121  0.05193588
   0.10951051  0.55390197  0.94658199
   0.22143048  0.44361733  0.05729274
   0.11769470  0.89190645  0.94733557
   0.22719914  0.78336566  0.05115000
   0.44413704  0.22050462  0.95101021
   0.55490025  0.11051299  0.04787681
   0.44429850  0.55418370  0.94562042
   0.55546938  0.44140344  0.05094179
   0.44449931  0.89008437  0.95169470
   0.55649733  0.78225395  0.05179361
   0.77770684  0.22163831  0.95251521
   0.88497028  0.11116280  0.05097150
   0.77624531  0.55286572  0.94927399
   0.88653319  0.44107391  0.04922159
   0.77502423  0.89049269  0.94849003
   0.88775481  0.77742860  0.05163050
unknown system                          
           1
     8.283959    4.779384    0.000000
    -8.277673    4.768507    0.000000
     0.000000    0.000000   30.000000
   V    Mo   W    S 
   3   3   3  18
Direct configuration=    18
   0.66602568 -0.00558256 -0.00045296
   0.32677297 -0.00209563 -0.00014160
   0.66517561  0.33640144 -0.00024797
   0.00580101  0.00479826  0.00012975
   0.31881261  0.33964584  0.00000427
   0.32558567  0.64706750 -0.00000096
   1.02200855  0.33879652 -0.00000508
   0.00479000  0.67318597  0.00036197
   0.66252670  0.66757566  0.00009674
   0.11020558  0.22156153  0.94480480
   0.22739547  0.11063097  0.05176831
   0.10940755  0.55393854  0.94639089
   0.22127597  0.44387085  0.05726504
   0.11739005  0.89158656  0.94752936
   0.22658001  0.78295635  0.05121187
   0.44445232  0.22073913  0.95134062
   0.55508452  0.11055657  0.04804196
   0.44469805  0.55449663  0.94586410
   0.55550276  0.44107481  0.05071995
   0.44486300  0.89026107  0.95137390
   0.55657915  0.78239304  0.05161904
   0.77723928  0.22135900  0.95209543
   0.88456475  0.11121022  0.05107055
   0.77613938  0.55228454  0.94889112
   0.88614191  0.44087959  0.04980649
   0.77483102  0.89097959  0.94830133
   0.88836486  0.77764250  0.05216097
unknown system                          
           1
     8.289228    4.781760    0.000000
    -8.282421    4.769981    0.000000
     0.000000    0.000000   30.000000
   V    Mo   W    S 
   3   3   3  18
Direct configuration=    19
   0.66579237 -0.00574766 -0.00042061
   0.32657137 -0.00223639 -0.00010365
   0.66555502  0.33650188 -0.00020905
   0.00553126  0.00401902  0.00017740
   0.31820571  0.33968815  0.00007625
   0.32567430  0.64651043  0.00006094
   1.02251932  0.33889942  0.00006141
   0.00369934  0.67376123  0.00038304
   0.66378520  0.66817041  0.00014342
   0.11010836  0.22147568  0.94477778
   0.22737890  0.11069614  0.05166663
   0.10943526  0.55403730  0.94647941
   0.22122977  0.44379968  0.05725480
   0.11739082  0.89158571  0.94748259
   0.22638706  0.78278777  0.05108394
   0.44438266  0.22088661  0.95141685
   0.55512205  0.11057858  0.04800402
   0.44488503  0.55449803  0.94589447
   0.55546548  0.44115317  0.05058387
   0.44469927  0.88994991  0.95141695
   0.55661765  0.78230334  0.05156373
   0.77742577  0.22140693  0.95211716
   0.88464564  0.11126735  0.05099006
   0.77615166  0.55232082  0.94877408
   0.88632874  0.44103873  0.04976270
   0.77477879  0.89100716  0.94824369
   0.88844765  0.77785506  0.05231802
unknown system                          
           1
     8.289717    4.781727    0.000000
    -8.282924    4.769971    0.000000
     0.000000    0.000000   30.000000
   V    Mo   W    S 
   3   3   3  18
Direct configuration=    20
   0.66563980 -0.00612513 -0.00049235
   0.32611743 -0.00183466 -0.00009667
   0.66459692  0.33609987 -0.00022759
   0.00610728  0.00400749  0.00013099
   0.31830348  0.33971585  0.00003163
   0.32610900  0.64620955  0.00005131
   1.02294507  0.33858819  0.00003913
   0.00399001  0.67485249  0.00038743
   0.66303145  0.66781427  0.00008329
   0.11018468  0.22144103  0.94477215
   0.22741247  0.11079384  0.05173218
   0.10947908  0.55406265  0.94663824
   0.22129473  0.44372258  0.05735985
   0.11749535  0.89171543  0.94739009
   0.22652861  0.78286295  0.05101073
   0.44426246  0.22086061  0.95135252
   0.55506220  0.11056269  0.04793724
   0.44482127  0.55436053  0.94586569
   0.55543221  0.44125803  0.05062774
   0.44450704  0.88976463  0.95156160
   0.55661984  0.78224468  0.05162077
   0.77765633  0.22152497  0.95228398
   0.88478266  0.11124864  0.05094953
   0.77619442  0.55250325  0.94885443
   0.88653903  0.44118060  0.04954444
   0.77483524  0.89087514  0.94830566
   0.88826638  0.77790427  0.05228591
unknown system                          
           1
     8.287080    4.780059    0.000000
    -8.280189    4.768133    0.000000
     0.000000    0.000000   30.000000
   V    Mo   W    S 
   3   3   3  18
Direct configuration=    21
   0.66557841 -0.00624646 -0.00050720
   0.32596552 -0.00170264 -0.00008510
   0.66430599  0.33597454 -0.00022458
   0.00625625  0.00392840  0.00013120
   0.31832874  0.33974595  0.00003920
   0.32628106  0.64609053  0.00006793
   1.02309523  0.33848119  0.00005431
   0.00399030  0.67524557  0.00039935
   0.66286584  0.66773429  0.00007601
   0.11020458  0.22141502  0.94475814
   0.22741790  0.11082310  0.05174877
   0.10948934  0.55408267  0.94669206
   0.22131535  0.44369192  0.05737213
   0.11753214  0.89176326  0.94734878
   0.22655902  0.78287731  0.05097367
   0.44422742  0.22085404  0.95132237
   0.55503857  0.11055520  0.04791798
   0.44482041  0.55431815  0.94584478
   0.55542120  0.44128984  0.05063620
   0.44444215  0.88970245  0.95160092
   0.55662770  0.78222356  0.05163333
   0.77773143  0.22156233  0.95233141
   0.88483102  0.11123871  0.05093069
   0.77621000  0.55255448  0.94887190
   0.88661364  0.44123690  0.04946558
   0.77485481  0.89084197  0.94831759
   0.88821044  0.77793217  0.05228247
unknown system                          
           1
     8.292924    4.782373    0.000000
    -8.285754    4.769969    0.000000
     0.000000    0.000000   30.000000
   V    Mo   W    S 
   3   3   3  18
Direct configuration=    22
   0.66545406 -0.00649348 -0.00051627
   0.32577928 -0.00170206 -0.00006944
   0.66421791  0.33587536 -0.00021857
   0.00618489  0.00352390  0.00013176
   0.31813365  0.33982632  0.00003991
   0.32643073  0.64579871  0.00008142
   1.02339074  0.33845934  0.00006753
   0.00365955  0.67580856  0.00040837
   0.66318633  0.66799952  0.00007165
   0.11018600  0.22137210  0.94475238
   0.22740983  0.11087310  0.05174511
   0.10950205  0.55413169  0.94679089
   0.22131677  0.44364146  0.05740299
   0.11753428  0.89179021  0.94729632
   0.22650126  0.78282026  0.05090080
   0.44413352  0.22089138  0.95132003
   0.55502599  0.11052554  0.04788419
   0.44486981  0.55427188  0.94585867
   0.55537824  0.44137363  0.05060454
   0.44434801  0.88953724  0.95166337
   0.55665608  0.78217038  0.05162383
   0.77789196  0.22158212  0.95239076
   0.88491028  0.11125890  0.05087942
   0.77625962  0.55268536  0.94886075
   0.88680583  0.44138081  0.04938010
   0.77485560  0.89079969  0.94832204
   0.88819220  0.77801252  0.05232736
unknown system                          
           1
     8.300064    4.784773    0.000000
    -8.292977    4.772516    0.000000
     0.000000    0.000000   30.000000
   V    Mo   W    S 
   3   3   3  18
Direct configuration=    23
   0.66536555 -0.00647524 -0.00056222
   0.32554369 -0.00122474 -0.00005824
   0.66346295  0.33562759 -0.00021458
   0.00679354  0.00374365  0.00011191
   0.31834962  0.33976398  0.00003535
   0.32683587  0.64573282  0.00009286
   1.02351182  0.33809166  0.00007515
   0.00385459  0.67637994  0.00043105
   0.66245464  0.66740792  0.00003869
   0.11026333  0.22135009  0.94474333
   0.22744625  0.11089978  0.05179123
   0.10951912  0.55412413  0.94687074
   0.22137283  0.44362070  0.05741034
   0.11764953  0.89189584  0.94725156
   0.22663710  0.78290948  0.05085156
   0.44418172  0.22084845  0.95126238
   0.55497984  0.11056942  0.04786197
   0.44482712  0.55419809  0.94581347
   0.55541835  0.44135538  0.05064752
   0.44424184  0.88953679  0.95171934
   0.55665011  0.78215708  0.05165954
   0.77791984  0.22171802  0.95247237
   0.88496784  0.11120912  0.05088165
   0.77622503  0.55261503  0.94892103
   0.88677699  0.44136774  0.04923099
   0.77490799  0.89076420  0.94836894
   0.88805735  0.77802752  0.05229197
unknown system                          
           1
     8.299038    4.785147    0.000000
    -8.291824    4.772667    0.000000
     0.000000    0.000000   30.000000
   V    Mo   W    S 
   3   3   3  18
Direct configuration=    24
   0.66500507 -0.00688619 -0.00061962
   0.32501853 -0.00072929 -0.00002126
   0.66247837  0.33507536 -0.00019487
   0.00719594  0.00314773  0.00008833
   0.31842443  0.33987181  0.00002286
   0.32771902  0.64532571  0.00011825
   1.02397294  0.33758531  0.00009847
   0.00336304  0.67801829  0.00044356
   0.66230907  0.66735379 -0.00001075
   0.11032233  0.22120596  0.94468925
   0.22748823  0.11100629  0.05187510
   0.10957189  0.55423546  0.94712595
   0.22147775  0.44351993  0.05750944
   0.11780082  0.89209880  0.94707119
   0.22671673  0.78293682  0.05068699
   0.44405403  0.22082708  0.95114585
   0.55486822  0.11050670  0.04781756
   0.44489032  0.55402062  0.94574284
   0.55536127  0.44144929  0.05068780
   0.44399395  0.88929702  0.95185820