 vasp.5.4.1 05Feb16 (build Jul 05 2020 17:13:04) complex                        
  
 executed on           IFC91_ompi date 2024.08.03  11:17:01
 running on   40 total cores
 distrk:  each k-point on   40 cores,    1 groups
 distr:  one band on NCORES_PER_BAND=   1 cores,   40 groups


--------------------------------------------------------------------------------------------------------


 INCAR:
 POTCAR:   PAW_PBE V 08Apr2002                    
 POTCAR:   PAW_PBE Mo 08Apr2002                   
 POTCAR:   PAW_PBE W 08Apr2002                    
 POTCAR:    PAW_PBE S 17Jan2003                   

 ----------------------------------------------------------------------------- 
|                                                                             |
|           W    W    AA    RRRRR   N    N  II  N    N   GGGG   !!!           |
|           W    W   A  A   R    R  NN   N  II  NN   N  G    G  !!!           |
|           W    W  A    A  R    R  N N  N  II  N N  N  G       !!!           |
|           W WW W  AAAAAA  RRRRR   N  N N  II  N  N N  G  GGG   !            |
|           WW  WW  A    A  R   R   N   NN  II  N   NN  G    G                |
|           W    W  A    A  R    R  N    N  II  N    N   GGGG   !!!           |
|                                                                             |
|      For optimal performance we recommend to set                            |
|        NCORE= 4 - approx SQRT( number of cores)                             |
|      NCORE specifies how many cores store one orbital (NPAR=cpu/NCORE).     |
|      This setting can  greatly improve the performance of VASP for DFT.     |
|      The default, NPAR=number of cores might be grossly inefficient         |
|      on modern multi-core architectures or massively parallel machines.     |
|      Do your own testing !!!!                                               |
|      Unfortunately you need to use the default for GW and RPA calculations. |
|      (for HF NCORE is supported but not extensively tested yet)             |
|                                                                             |
 ----------------------------------------------------------------------------- 

 POTCAR:   PAW_PBE V 08Apr2002                    
   VRHFIN =V: p6 d4 s1                                                          
   LEXCH  = PE                                                                  
   EATOM  =   170.8679 eV,   12.5584 Ry                                         
                                                                                
   TITEL  = PAW_PBE V 08Apr2002                                                 
   LULTRA =        F    use ultrasoft PP ?                                      
   IUNSCR =        1    unscreen: 0-lin 1-nonlin 2-no                           
   RPACOR =    2.000    partial core radius                                     
   POMASS =   50.941; ZVAL   =    5.000    mass and valenz                      
   RCORE  =    2.700    outmost cutoff radius                                   
   RWIGS  =    2.500; RWIGS  =    1.323    wigner-seitz radius (au A)           
   ENMAX  =  192.543; ENMIN  =  144.408 eV                                      
   RCLOC  =    1.779    cutoff for local pot                                    
   LCOR   =        T    correct aug charges                                     
   LPAW   =        T    paw PP                                                  
   EAUG   =  358.662                                                            
   DEXC   =    -.034                                                            
   RMAX   =    3.323    core radius for proj-oper                               
   RAUG   =    1.300    factor for augmentation sphere                          
   RDEP   =    2.762    radius for radial grids                                 
   QCUT   =   -3.762; QGAM   =    7.524    optimization parameters              
                                                                                
   Description                                                                  
     l     E      TYP  RCUT    TYP  RCUT                                        
     2   .000     23  2.700                                                     
     2   .000     23  2.700                                                     
     0   .000     23  2.700                                                     
     0  2.000     23  2.700                                                     
     1   .000     23  2.700                                                     
     1  2.000     23  2.700                                                     
     3   .000      7   .000                                                     
  local pseudopotential read in
  partial core-charges read in
  atomic valenz-charges read in
  non local Contribution for L=           2  read in
    real space projection operators read in
  non local Contribution for L=           2  read in
    real space projection operators read in
  non local Contribution for L=           0  read in
    real space projection operators read in
  non local Contribution for L=           0  read in
    real space projection operators read in
  non local Contribution for L=           1  read in
    real space projection operators read in
  non local Contribution for L=           1  read in
    real space projection operators read in
    PAW grid and wavefunctions read in
 
   number of l-projection  operators is LMAX  =           6
   number of lm-projection operators is LMMAX =          18
 
 POTCAR:   PAW_PBE Mo 08Apr2002                   
   VRHFIN =Mo: 4p5s4d                                                           
   LEXCH  = PE                                                                  
   EATOM  =   217.5180 eV,   15.9871 Ry                                         
                                                                                
   TITEL  = PAW_PBE Mo 08Apr2002                                                
   LULTRA =        F    use ultrasoft PP ?                                      
   IUNSCR =        1    unscreen: 0-lin 1-nonlin 2-no                           
   RPACOR =    2.200    partial core radius                                     
   POMASS =   95.940; ZVAL   =    6.000    mass and valenz                      
   RCORE  =    2.750    outmost cutoff radius                                   
   RWIGS  =    2.750; RWIGS  =    1.455    wigner-seitz radius (au A)           
   ENMAX  =  224.584; ENMIN  =  168.438 eV                                      
   RCLOC  =    2.111    cutoff for local pot                                    
   LCOR   =        T    correct aug charges                                     
   LPAW   =        T    paw PP                                                  
   EAUG   =  345.278                                                            
   DEXC   =    -.088                                                            
   RMAX   =    3.077    core radius for proj-oper                               
   RAUG   =    1.300    factor for augmentation sphere                          
   RDEP   =    2.815    radius for radial grids                                 
   QCUT   =   -4.063; QGAM   =    8.126    optimization parameters              
                                                                                
   Description                                                                  
     l     E      TYP  RCUT    TYP  RCUT                                        
     2   .000     23  2.500                                                     
     2   .000     23  2.500                                                     
     0   .000     23  2.600                                                     
     0  1.000     23  2.600                                                     
     1   .400     23  2.750                                                     
     1  2.000     23  2.750                                                     
     3   .000      7   .000                                                     
  local pseudopotential read in
  partial core-charges read in
  atomic valenz-charges read in
  non local Contribution for L=           2  read in
    real space projection operators read in
  non local Contribution for L=           2  read in
    real space projection operators read in
  non local Contribution for L=           0  read in
    real space projection operators read in
  non local Contribution for L=           0  read in
    real space projection operators read in
  non local Contribution for L=           1  read in
    real space projection operators read in
  non local Contribution for L=           1  read in
    real space projection operators read in
    PAW grid and wavefunctions read in
 
   number of l-projection  operators is LMAX  =           6
   number of lm-projection operators is LMMAX =          18
 
 POTCAR:   PAW_PBE W 08Apr2002                    
   VRHFIN =W : 6s5d                                                             
   LEXCH  = PE                                                                  
   EATOM  =   204.6100 eV,   15.0384 Ry                                         
                                                                                
   TITEL  = PAW_PBE W 08Apr2002                                                 
   LULTRA =        F    use ultrasoft PP ?                                      
   IUNSCR =        1    unscreen: 0-lin 1-nonlin 2-no                           
   RPACOR =    2.330    partial core radius                                     
   POMASS =  183.850; ZVAL   =    6.000    mass and valenz                      
   RCORE  =    2.750    outmost cutoff radius                                   
   RWIGS  =    2.750; RWIGS  =    1.455    wigner-seitz radius (au A)           
   ENMAX  =  223.057; ENMIN  =  167.293 eV                                      
   RCLOC  =    2.147    cutoff for local pot                                    
   LCOR   =        T    correct aug charges                                     
   LPAW   =        T    paw PP                                                  
   EAUG   =  373.438                                                            
   DEXC   =    -.060                                                            
   RMAX   =    3.087    core radius for proj-oper                               
   RAUG   =    1.300    factor for augmentation sphere                          
   RDEP   =    2.886    radius for radial grids                                 
   QCUT   =   -4.049; QGAM   =    8.098    optimization parameters              
                                                                                
   Description                                                                  
     l     E      TYP  RCUT    TYP  RCUT                                        
     2   .000     23  2.500                                                     
     2   .000     23  2.500                                                     
     0   .000     23  2.500                                                     
     0   .000     23  2.500                                                     
     1   .200     23  2.750                                                     
     1  2.000     23  2.750                                                     
     3   .000      7   .000                                                     
  local pseudopotential read in
  partial core-charges read in
  atomic valenz-charges read in
  non local Contribution for L=           2  read in
    real space projection operators read in
  non local Contribution for L=           2  read in
    real space projection operators read in
  non local Contribution for L=           0  read in
    real space projection operators read in
  non local Contribution for L=           0  read in
    real space projection operators read in
  non local Contribution for L=           1  read in
    real space projection operators read in
  non local Contribution for L=           1  read in
    real space projection operators read in
    PAW grid and wavefunctions read in
 
   number of l-projection  operators is LMAX  =           6
   number of lm-projection operators is LMMAX =          18
 
 POTCAR:    PAW_PBE S 17Jan2003                   
   VRHFIN =S : s2p4                                                             
   LEXCH  = PE                                                                  
   EATOM  =   276.8230 eV,   20.3459 Ry                                         
                                                                                
   TITEL  = PAW_PBE S 17Jan2003                                                 
   LULTRA =        F    use ultrasoft PP ?                                      
   IUNSCR =        1    unscreen: 0-lin 1-nonlin 2-no                           
   RPACOR =    1.500    partial core radius                                     
   POMASS =   32.066; ZVAL   =    6.000    mass and valenz                      
   RCORE  =    1.900    outmost cutoff radius                                   
   RWIGS  =    2.200; RWIGS  =    1.164    wigner-seitz radius (au A)           
   ENMAX  =  280.000; ENMIN  =  194.016 eV                                      
   ICORE  =        2    local potential                                         
   LCOR   =        T    correct aug charges                                     
   LPAW   =        T    paw PP                                                  
   EAUG   =  335.092                                                            
   DEXC   =     .000                                                            
   RMAX   =    2.867    core radius for proj-oper                               
   RAUG   =    1.300    factor for augmentation sphere                          
   RDEP   =    1.954    radius for radial grids                                 
   QCUT   =   -4.360; QGAM   =    8.721    optimization parameters              
                                                                                
   Description                                                                  
     l     E      TYP  RCUT    TYP  RCUT                                        
     0   .000     23  1.900                                                     
     0   .000     23  1.900                                                     
     1   .000     23  1.900                                                     
     1   .000     23  1.900                                                     
     2   .000     23  1.900                                                     
  local pseudopotential read in
  partial core-charges read in
  atomic valenz-charges read in
  non local Contribution for L=           0  read in
    real space projection operators read in
  non local Contribution for L=           0  read in
    real space projection operators read in
  non local Contribution for L=           1  read in
    real space projection operators read in
  non local Contribution for L=           1  read in
    real space projection operators read in
    PAW grid and wavefunctions read in
 
   number of l-projection  operators is LMAX  =           4
   number of lm-projection operators is LMMAX =           8
 

 ----------------------------------------------------------------------------- 
|                                                                             |
|  ADVICE TO THIS USER RUNNING 'VASP/VAMP'   (HEAR YOUR MASTER'S VOICE ...):  |
|                                                                             |
|      You have a (more or less) 'large supercell' and for larger cells       |
|      it might be more efficient to use real space projection operators      |
|      So try LREAL= Auto  in the INCAR   file.                               |
|      Mind: If you want to do a very accurate calculations keep the          |
|      reciprocal projection scheme          (i.e. LREAL=.FALSE.)             |
|                                                                             |
 ----------------------------------------------------------------------------- 

 PAW_PBE V 08Apr2002                    :
 energy of atom  1       EATOM= -170.8679
 kinetic energy error for atom=    0.0047 (will be added to EATOM!!)
 PAW_PBE Mo 08Apr2002                   :
 energy of atom  2       EATOM= -217.5180
 kinetic energy error for atom=    0.0215 (will be added to EATOM!!)
 PAW_PBE W 08Apr2002                    :
 energy of atom  3       EATOM= -204.6100
 kinetic energy error for atom=    0.0205 (will be added to EATOM!!)
  PAW_PBE S 17Jan2003                   :
 energy of atom  4       EATOM= -276.8230
 kinetic energy error for atom=    0.0122 (will be added to EATOM!!)
 
 
 POSCAR: crystal structure from VMoWS2 with Hexag
  positions in cartesian coordinates
  No initial velocities read in
 exchange correlation table for  LEXCH =        8
   RHO(1)=    0.500       N(1)  =     2000
   RHO(2)=  100.500       N(2)  =     4000
 


--------------------------------------------------------------------------------------------------------


 ion  position               nearest neighbor table
   1  0.667  0.667  0.000-  21 2.34  24 2.34  27 2.36  26 2.36  19 2.36  18 2.36
   2  0.000  0.000  0.000-  23 2.34  14 2.34  11 2.36  10 2.36  27 2.36  26 2.36
   3  0.667  0.333  0.000-  19 2.34  22 2.34  25 2.36  24 2.36  17 2.36  16 2.36
   4  1.000  0.333  0.000-  25 2.34  10 2.34  13 2.36  12 2.36  22 2.36  23 2.36   7 3.34   9 3.34
                             5 3.36   6 3.36
   5  0.667  0.000  0.000-  17 2.34  26 2.34  23 2.36  22 2.36  21 2.36  20 2.36   8 3.34   4 3.36
                             6 3.36
   6  0.333  0.667  0.000-  15 2.34  18 2.34  20 2.36  21 2.36  13 2.36  12 2.36   8 3.34   9 3.34
                             7 3.34   5 3.36   4 3.36
   7  0.000  0.667  0.000-  27 2.34  12 2.34  14 2.36  15 2.36  24 2.36  25 2.36   4 3.34   6 3.34
                             8 3.36
   8  0.333  0.000  0.000-  11 2.34  20 2.34  17 2.36  16 2.36  15 2.36  14 2.36   6 3.34   9 3.34
                             5 3.34   7 3.36
   9  0.333  0.333  0.000-  13 2.34  16 2.34  19 2.36  18 2.36  11 2.36  10 2.36   6 3.34   8 3.34
                             4 3.34
  10  0.111  0.222  0.955-   4 2.34   2 2.36   9 2.36
  11  0.222  0.111  0.045-   8 2.34   2 2.36   9 2.36
  12  0.111  0.556  0.955-   7 2.34   4 2.36   6 2.36
  13  0.222  0.444  0.045-   9 2.34   4 2.36   6 2.36
  14  0.111  0.889  0.955-   2 2.34   7 2.36   8 2.36
  15  0.222  0.777  0.045-   6 2.34   7 2.36   8 2.36
  16  0.444  0.222  0.955-   9 2.34   8 2.36   3 2.36
  17  0.556  0.111  0.045-   5 2.34   8 2.36   3 2.36
  18  0.444  0.556  0.955-   6 2.34   9 2.36   1 2.36
  19  0.556  0.444  0.045-   3 2.34   9 2.36   1 2.36
  20  0.444  0.889  0.955-   8 2.34   6 2.36   5 2.36
  21  0.556  0.777  0.045-   1 2.34   6 2.36   5 2.36
  22  0.777  0.222  0.955-   3 2.34   5 2.36   4 2.36
  23  0.889  0.111  0.045-   2 2.34   5 2.36   4 2.36
  24  0.777  0.556  0.955-   1 2.34   3 2.36   7 2.36
  25  0.889  0.444  0.045-   4 2.34   3 2.36   7 2.36
  26  0.777  0.889  0.955-   5 2.34   1 2.36   2 2.36
  27  0.889  0.777  0.045-   7 2.34   1 2.36   2 2.36
 

IMPORTANT INFORMATION: All symmetrisations will be switched off!
NOSYMM: (Re-)initialisation of all symmetry stuff for point group C_1.

 
 
 KPOINTS: K-POINTS 	#supercell of CrS2 in hexagona

Automatic generation of k-mesh.
Space group operators:
 irot       det(A)        alpha          n_x          n_y          n_z        tau_x        tau_y        tau_z
    1     1.000000     0.000000     1.000000     0.000000     0.000000     0.000000     0.000000     0.000000
 
 Subroutine IBZKPT returns following result:
 ===========================================
 
 Found     34 irreducible k-points:
 
 Following reciprocal coordinates:
            Coordinates               Weight
  0.000000  0.000000  0.000000      1.000000
  0.125000  0.000000  0.000000      2.000000
  0.250000  0.000000  0.000000      2.000000
  0.375000  0.000000  0.000000      2.000000
  0.500000  0.000000  0.000000      1.000000
  0.000000  0.125000  0.000000      2.000000
  0.125000  0.125000  0.000000      2.000000
  0.250000  0.125000  0.000000      2.000000
  0.375000  0.125000  0.000000      2.000000
  0.500000  0.125000  0.000000      2.000000
 -0.375000  0.125000  0.000000      2.000000
 -0.250000  0.125000  0.000000      2.000000
 -0.125000  0.125000  0.000000      2.000000
  0.000000  0.250000  0.000000      2.000000
  0.125000  0.250000  0.000000      2.000000
  0.250000  0.250000  0.000000      2.000000
  0.375000  0.250000  0.000000      2.000000
  0.500000  0.250000  0.000000      2.000000
 -0.375000  0.250000  0.000000      2.000000
 -0.250000  0.250000  0.000000      2.000000
 -0.125000  0.250000  0.000000      2.000000
 -0.000000  0.375000  0.000000      2.000000
  0.125000  0.375000  0.000000      2.000000
  0.250000  0.375000  0.000000      2.000000
  0.375000  0.375000  0.000000      2.000000
  0.500000  0.375000  0.000000      2.000000
 -0.375000  0.375000  0.000000      2.000000
 -0.250000  0.375000  0.000000      2.000000
 -0.125000  0.375000  0.000000      2.000000
  0.000000  0.500000  0.000000      1.000000
  0.125000  0.500000  0.000000      2.000000
  0.250000  0.500000  0.000000      2.000000
  0.375000  0.500000  0.000000      2.000000
  0.500000  0.500000  0.000000      1.000000
 
 Following cartesian coordinates:
            Coordinates               Weight
  0.000000  0.000000  0.000000      1.000000
  0.007209  0.012401  0.000000      2.000000
  0.014418  0.024802  0.000000      2.000000
  0.021626  0.037202  0.000000      2.000000
  0.028835  0.049603  0.000000      1.000000
 -0.007209  0.012401  0.000000      2.000000
  0.000000  0.024802  0.000000      2.000000
  0.007209  0.037202  0.000000      2.000000
  0.014418  0.049603  0.000000      2.000000
  0.021626  0.062004  0.000000      2.000000
 -0.028835 -0.024802  0.000000      2.000000
 -0.021626 -0.012401  0.000000      2.000000
 -0.014418  0.000000  0.000000      2.000000
 -0.014418  0.024802  0.000000      2.000000
 -0.007209  0.037202  0.000000      2.000000
  0.000000  0.049603  0.000000      2.000000
  0.007209  0.062004  0.000000      2.000000
  0.014418  0.074405  0.000000      2.000000
 -0.036044 -0.012401  0.000000      2.000000
 -0.028835  0.000000  0.000000      2.000000
 -0.021626  0.012401  0.000000      2.000000
 -0.021626  0.037202  0.000000      2.000000
 -0.014418  0.049603  0.000000      2.000000
 -0.007209  0.062004  0.000000      2.000000
  0.000000  0.074405  0.000000      2.000000
  0.007209  0.086806  0.000000      2.000000
 -0.043253  0.000000  0.000000      2.000000
 -0.036044  0.012401  0.000000      2.000000
 -0.028835  0.024802  0.000000      2.000000
 -0.028835  0.049603  0.000000      1.000000
 -0.021626  0.062004  0.000000      2.000000
 -0.014418  0.074405  0.000000      2.000000
 -0.007209  0.086806  0.000000      2.000000
  0.000000  0.099206  0.000000      1.000000
 


--------------------------------------------------------------------------------------------------------




 Dimension of arrays:
   k-points           NKPTS =     34   k-points in BZ     NKDIM =     34   number of bands    NBANDS=    120
   number of dos      NEDOS =    301   number of ions     NIONS =     27
   non local maximal  LDIM  =      6   non local SUM 2l+1 LMDIM =     18
   total plane-waves  NPLWV = 222264
   max r-space proj   IRMAX =      1   max aug-charges    IRDMAX=   5642
   dimension x,y,z NGX =    42 NGY =   42 NGZ =  126
   dimension x,y,z NGXF=    84 NGYF=   84 NGZF=  252
   support grid    NGXF=    84 NGYF=   84 NGZF=  252
   ions per type =               3   3   3  18
 NGX,Y,Z   is equivalent  to a cutoff of   6.96,  6.96,  6.98 a.u.
 NGXF,Y,Z  is equivalent  to a cutoff of  13.92, 13.92, 13.96 a.u.


 I would recommend the setting:
   dimension x,y,z NGX =    41 NGY =   41 NGZ =  123
 SYSTEM =  unknown system                          
 POSCAR =  crystal structure from VMoWS2 with Hexag

 Startparameter for this run:
   NWRITE =      2    write-flag & timer
   PREC   = normal    normal or accurate (medium, high low for compatibility)
   ISTART =      0    job   : 0-new  1-cont  2-samecut
   ICHARG =      2    charge: 1-file 2-atom 10-const
   ISPIN  =      1    spin polarized calculation?
   LNONCOLLINEAR =      F non collinear calculations
   LSORBIT =      F    spin-orbit coupling
   INIWAV =      1    electr: 0-lowe 1-rand  2-diag
   LASPH  =      F    aspherical Exc in radial PAW
   METAGGA=      F    non-selfconsistent MetaGGA calc.

 Electronic Relaxation 1
   ENCUT  =  280.0 eV  20.58 Ry    4.54 a.u.  13.68 13.68 40.93*2*pi/ulx,y,z
   ENINI  =  280.0     initial cutoff
   ENAUG  =  373.4 eV  augmentation charge cutoff
   NELM   =     60;   NELMIN=  2; NELMDL= -5     # of ELM steps 
   EDIFF  = 0.1E-03   stopping-criterion for ELM
   LREAL  =      F    real-space projection
   NLSPLINE    = F    spline interpolate recip. space projectors
   LCOMPAT=      F    compatible to vasp.4.4
   GGA_COMPAT  = T    GGA compatible to vasp.4.4-vasp.4.6
   LMAXPAW     = -100 max onsite density
   LMAXMIX     =    2 max onsite mixed and CHGCAR
   VOSKOWN=      0    Vosko Wilk Nusair interpolation
   ROPT   =    0.00000   0.00000   0.00000   0.00000
 Ionic relaxation
   EDIFFG = 0.1E-02   stopping-criterion for IOM
   NSW    =    100    number of steps for IOM
   NBLOCK =      1;   KBLOCK =    100    inner block; outer block 
   IBRION =      1    ionic relax: 0-MD 1-quasi-New 2-CG
   NFREE  =      0    steps in history (QN), initial steepest desc. (CG)
   ISIF   =      3    stress and relaxation
   IWAVPR =     11    prediction:  0-non 1-charg 2-wave 3-comb
   ISYM   =      0    0-nonsym 1-usesym 2-fastsym
   LCORR  =      T    Harris-Foulkes like correction to forces

   POTIM  = 0.5000    time-step for ionic-motion
   TEIN   =    0.0    initial temperature
   TEBEG  =    0.0;   TEEND  =   0.0 temperature during run
   SMASS  =  -3.00    Nose mass-parameter (am)
   estimated Nose-frequenzy (Omega)   =  0.10E-29 period in steps =****** mass=  -0.230E-26a.u.
   SCALEE = 1.0000    scale energy and forces
   NPACO  =    256;   APACO  = 16.0  distance and # of slots for P.C.
   PSTRESS=    0.0 pullay stress

  Mass of Ions in am
   POMASS =  50.94 95.94183.85 32.07
  Ionic Valenz
   ZVAL   =   5.00  6.00  6.00  6.00
  Atomic Wigner-Seitz radii
   RWIGS  =  -1.00 -1.00 -1.00 -1.00
  virtual crystal weights 
   VCA    =   1.00  1.00  1.00  1.00
   NELECT =     159.0000    total number of electrons
   NUPDOWN=      -1.0000    fix difference up-down

 DOS related values:
   EMIN   =  10.00;   EMAX   =-10.00  energy-range for DOS
   EFERMI =   0.00
   ISMEAR =     0;   SIGMA  =   0.20  broadening in eV -4-tet -1-fermi 0-gaus

 Electronic relaxation 2 (details)
   IALGO  =     38    algorithm
   LDIAG  =      T    sub-space diagonalisation (order eigenvalues)
   LSUBROT=      F    optimize rotation matrix (better conditioning)
   TURBO    =      0    0=normal 1=particle mesh
   IRESTART =      0    0=no restart 2=restart with 2 vectors
   NREBOOT  =      0    no. of reboots
   NMIN     =      0    reboot dimension
   EREF     =   0.00    reference energy to select bands
   IMIX   =      4    mixing-type and parameters
     AMIX     =   0.40;   BMIX     =  1.00
     AMIX_MAG =   1.60;   BMIX_MAG =  1.00
     AMIN     =   0.10
     WC   =   100.;   INIMIX=   1;  MIXPRE=   1;  MAXMIX= -45

 Intra band minimization:
   WEIMIN = 0.0010     energy-eigenvalue tresh-hold
   EBREAK =  0.21E-06  absolut break condition
   DEPER  =   0.30     relativ break condition  

   TIME   =   0.40     timestep for ELM

  volume/ion in A,a.u.               =      97.10       655.29
  Fermi-wavevector in a.u.,A,eV,Ry     =   0.643191  1.215456  5.628665  0.413695
  Thomas-Fermi vector in A             =   1.710110
 
 Write flags
   LWAVE  =      F    write WAVECAR
   LCHARG =      F    write CHGCAR
   LVTOT  =      F    write LOCPOT, total local potential
   LVHAR  =      F    write LOCPOT, Hartree potential only
   LELF   =      F    write electronic localiz. function (ELF)
   LORBIT =      0    0 simple, 1 ext, 2 COOP (PROOUT)


 Dipole corrections
   LMONO  =      F    monopole corrections only (constant potential shift)
   LDIPOL =      F    correct potential (dipole corrections)
   IDIPOL =      0    1-x, 2-y, 3-z, 4-all directions 
   EPSILON=  1.0000000 bulk dielectric constant

 Exchange correlation treatment:
   GGA     =    --    GGA type
   LEXCH   =     8    internal setting for exchange type
   VOSKOWN=      0    Vosko Wilk Nusair interpolation
   LHFCALC =     F    Hartree Fock is set to
   LHFONE  =     F    Hartree Fock one center treatment
   AEXX    =    0.0000 exact exchange contribution

 Linear response parameters
   LEPSILON=     F    determine dielectric tensor
   LRPA    =     F    only Hartree local field effects (RPA)
   LNABLA  =     F    use nabla operator in PAW spheres
   LVEL    =     F    velocity operator in full k-point grid
   LINTERFAST=   F  fast interpolation
   KINTER  =     0    interpolate to denser k-point grid
   CSHIFT  =0.1000    complex shift for real part using Kramers Kronig
   OMEGAMAX=  -1.0    maximum frequency
   DEG_THRESHOLD= 0.2000000E-02 threshold for treating states as degnerate
   RTIME   =    0.100 relaxation time in fs

 Orbital magnetization related:
   ORBITALMAG=     F  switch on orbital magnetization
   LCHIMAG   =     F  perturbation theory with respect to B field
   DQ        =  0.001000  dq finite difference perturbation B field



--------------------------------------------------------------------------------------------------------


 quasi-Newton-method for relaxation of ions
 charge density and potential will be updated during run
 non-spin polarized calculation
 Variant of blocked Davidson
 Davidson routine will perform the subspace rotation
 perform sub-space diagonalisation
    after iterative eigenvector-optimisation
 modified Broyden-mixing scheme, WC =      100.0
 initial mixing is a Kerker type mixing with AMIX =  0.4000 and BMIX =      1.0000
 Hartree-type preconditioning will be used
 using additional bands           40
 reciprocal scheme for non local part
 use partial core corrections
 calculate Harris-corrections to forces 
   (improved forces if not selfconsistent)
 use gradient corrections 
 use of overlap-Matrix (Vanderbilt PP)
 Gauss-broadening in eV      SIGMA  =   0.20


--------------------------------------------------------------------------------------------------------


  energy-cutoff  :      280.00
  volume of cell :     2621.81
      direct lattice vectors                 reciprocal lattice vectors
     8.669999960  5.039999894  0.000000000     0.057670129  0.099206348  0.000000000
    -8.669999821  5.040000133  0.000000000    -0.057670126  0.099206350  0.000000000
     0.000000000  0.000000000 30.000000000     0.000000000  0.000000000  0.033333333

  length of vectors
    10.028484344 10.028484344 30.000000000     0.114750788  0.114750788  0.033333333


 
 k-points in units of 2pi/SCALE and weight: K-POINTS 	#supercell of CrS2 in hexagona
   0.00000000  0.00000000  0.00000000       0.016
   0.00720877  0.01240079  0.00000000       0.031
   0.01441753  0.02480159  0.00000000       0.031
   0.02162630  0.03720238  0.00000000       0.031
   0.02883506  0.04960317  0.00000000       0.016
  -0.00720877  0.01240079  0.00000000       0.031
   0.00000000  0.02480159  0.00000000       0.031
   0.00720877  0.03720238  0.00000000       0.031
   0.01441753  0.04960317  0.00000000       0.031
   0.02162630  0.06200397  0.00000000       0.031
  -0.02883506 -0.02480159  0.00000000       0.031
  -0.02162630 -0.01240079  0.00000000       0.031
  -0.01441753  0.00000000  0.00000000       0.031
  -0.01441753  0.02480159  0.00000000       0.031
  -0.00720877  0.03720238  0.00000000       0.031
   0.00000000  0.04960317  0.00000000       0.031
   0.00720877  0.06200397  0.00000000       0.031
   0.01441753  0.07440476  0.00000000       0.031
  -0.03604383 -0.01240079  0.00000000       0.031
  -0.02883506  0.00000000  0.00000000       0.031
  -0.02162630  0.01240079  0.00000000       0.031
  -0.02162630  0.03720238  0.00000000       0.031
  -0.01441753  0.04960317  0.00000000       0.031
  -0.00720877  0.06200397  0.00000000       0.031
   0.00000000  0.07440476  0.00000000       0.031
   0.00720877  0.08680556  0.00000000       0.031
  -0.04325260  0.00000000  0.00000000       0.031
  -0.03604383  0.01240079  0.00000000       0.031
  -0.02883506  0.02480159  0.00000000       0.031
  -0.02883506  0.04960317  0.00000000       0.016
  -0.02162630  0.06200397  0.00000000       0.031
  -0.01441753  0.07440476  0.00000000       0.031
  -0.00720876  0.08680556  0.00000000       0.031
   0.00000000  0.09920635  0.00000000       0.016
 
 k-points in reciprocal lattice and weights: K-POINTS 	#supercell of CrS2 in hexagona
   0.00000000  0.00000000  0.00000000       0.016
   0.12500000  0.00000000  0.00000000       0.031
   0.25000000  0.00000000  0.00000000       0.031
   0.37500000  0.00000000  0.00000000       0.031
   0.50000000  0.00000000  0.00000000       0.016
   0.00000000  0.12500000  0.00000000       0.031
   0.12500000  0.12500000  0.00000000       0.031
   0.25000000  0.12500000  0.00000000       0.031
   0.37500000  0.12500000  0.00000000       0.031
   0.50000000  0.12500000  0.00000000       0.031
  -0.37500000  0.12500000  0.00000000       0.031
  -0.25000000  0.12500000  0.00000000       0.031
  -0.12500000  0.12500000  0.00000000       0.031
   0.00000000  0.25000000  0.00000000       0.031
   0.12500000  0.25000000  0.00000000       0.031
   0.25000000  0.25000000  0.00000000       0.031
   0.37500000  0.25000000  0.00000000       0.031
   0.50000000  0.25000000  0.00000000       0.031
  -0.37500000  0.25000000  0.00000000       0.031
  -0.25000000  0.25000000  0.00000000       0.031
  -0.12500000  0.25000000  0.00000000       0.031
  -0.00000000  0.37500000  0.00000000       0.031
   0.12500000  0.37500000  0.00000000       0.031
   0.25000000  0.37500000  0.00000000       0.031
   0.37500000  0.37500000  0.00000000       0.031
   0.50000000  0.37500000  0.00000000       0.031
  -0.37500000  0.37500000  0.00000000       0.031
  -0.25000000  0.37500000  0.00000000       0.031
  -0.12500000  0.37500000  0.00000000       0.031
   0.00000000  0.50000000  0.00000000       0.016
   0.12500000  0.50000000  0.00000000       0.031
   0.25000000  0.50000000  0.00000000       0.031
   0.37500000  0.50000000  0.00000000       0.031
   0.50000000  0.50000000  0.00000000       0.016
 
 position of ions in fractional coordinates (direct lattice) 
   0.66666669  0.66666669  0.00000000
   0.00000000  0.00000000  0.00000000
   0.66666669  0.33333334  0.00000000
   1.00000000  0.33333334  0.00000000
   0.66666669  0.00000000  0.00000000
   0.33333334  0.66666669  0.00000000
   0.00000000  0.66666669  0.00000000
   0.33333334  0.00000000  0.00000000
   0.33333334  0.33333334  0.00000000
   0.11068511  0.22244981  0.95539999
   0.22244981  0.11068511  0.04460000
   0.11068511  0.55578315  0.95539999
   0.22244981  0.44401845  0.04460000
   0.11068511  0.88911647  0.95539999
   0.22244981  0.77735180  0.04460000
   0.44401845  0.22244981  0.95539999
   0.55578315  0.11068511  0.04460000
   0.44401845  0.55578315  0.95539999
   0.55578315  0.44401845  0.04460000
   0.44401845  0.88911647  0.95539999
   0.55578315  0.77735180  0.04460000
   0.77735180  0.22244981  0.95539999
   0.88911647  0.11068511  0.04460000
   0.77735180  0.55578315  0.95539999
   0.88911647  0.44401845  0.04460000
   0.77735180  0.88911647  0.95539999
   0.88911647  0.77735180  0.04460000
 
 position of ions in cartesian coordinates  (Angst):
   0.00000009  6.72000022  0.00000000
   0.00000000  0.00000000  0.00000000
   2.89000012  5.04000012  0.00000000
   5.77999993  6.71999999  0.00000000
   5.78000015  3.36000003  0.00000000
  -2.88999998  5.04000020  0.00000000
  -5.78000005  3.36000019  0.00000000
   2.89000007  1.68000002  0.00000000
   0.00000005  3.36000011  0.00000000
  -0.96899991  1.67900001 28.66199970
   0.96899995  1.67899998  1.33799996
  -3.85899993  3.35900011 28.66199970
  -1.92100007  3.35900008  1.33799996
  -6.74899970  5.03900005 28.66199970
  -4.81100010  5.03900017  1.33799996
   1.92100017  3.35900003 28.66199970
   3.85900003  3.35900000  1.33799996
  -0.96899986  5.03900012 28.66199970
   0.96900000  5.03900009  1.33799996
  -3.85899963  6.71900006 28.66199970
  -1.92100003  6.71900019  1.33799996
   4.81100024  5.03900004 28.66199970
   6.74899984  5.03899987  1.33799996
   1.92100021  6.71900014 28.66199970
   3.85899981  6.71899996  1.33799996
  -0.96899956  8.39900008 28.66199970
   0.96899979  8.39900005  1.33799996
 


--------------------------------------------------------------------------------------------------------


 k-point  1 :   0.0000 0.0000 0.0000  plane waves:   27959
 k-point  2 :   0.1250 0.0000 0.0000  plane waves:   27889
 k-point  3 :   0.2500 0.0000 0.0000  plane waves:   27875
 k-point  4 :   0.3750 0.0000 0.0000  plane waves:   27893
 k-point  5 :   0.5000 0.0000 0.0000  plane waves:   27932
 k-point  6 :   0.0000 0.1250 0.0000  plane waves:   27889
 k-point  7 :   0.1250 0.1250 0.0000  plane waves:   27906
 k-point  8 :   0.2500 0.1250 0.0000  plane waves:   27898
 k-point  9 :   0.3750 0.1250 0.0000  plane waves:   27888
 k-point 10 :   0.5000 0.1250 0.0000  plane waves:   27873
 k-point 11 :  -0.3750 0.1250 0.0000  plane waves:   27874
 k-point 12 :  -0.2500 0.1250 0.0000  plane waves:   27895
 k-point 13 :  -0.1250 0.1250 0.0000  plane waves:   27879
 k-point 14 :   0.0000 0.2500 0.0000  plane waves:   27875
 k-point 15 :   0.1250 0.2500 0.0000  plane waves:   27898
 k-point 16 :   0.2500 0.2500 0.0000  plane waves:   27920
 k-point 17 :   0.3750 0.2500 0.0000  plane waves:   27901
 k-point 18 :   0.5000 0.2500 0.0000  plane waves:   27875
 k-point 19 :  -0.3750 0.2500 0.0000  plane waves:   27894
 k-point 20 :  -0.2500 0.2500 0.0000  plane waves:   27870
 k-point 21 :  -0.1250 0.2500 0.0000  plane waves:   27895
 k-point 22 :  -0.0000 0.3750 0.0000  plane waves:   27893
 k-point 23 :   0.1250 0.3750 0.0000  plane waves:   27888
 k-point 24 :   0.2500 0.3750 0.0000  plane waves:   27901
 k-point 25 :   0.3750 0.3750 0.0000  plane waves:   27860
 k-point 26 :   0.5000 0.3750 0.0000  plane waves:   27895
 k-point 27 :  -0.3750 0.3750 0.0000  plane waves:   27858
 k-point 28 :  -0.2500 0.3750 0.0000  plane waves:   27894
 k-point 29 :  -0.1250 0.3750 0.0000  plane waves:   27874
 k-point 30 :   0.0000 0.5000 0.0000  plane waves:   27932
 k-point 31 :   0.1250 0.5000 0.0000  plane waves:   27873
 k-point 32 :   0.2500 0.5000 0.0000  plane waves:   27875
 k-point 33 :   0.3750 0.5000 0.0000  plane waves:   27895
 k-point 34 :   0.5000 0.5000 0.0000  plane waves:   27910

 maximum and minimum number of plane-waves per node :     27959    27858

 maximum number of plane-waves:     27959
 maximum index in each direction: 
   IXMAX=   14   IYMAX=   13   IZMAX=   40
   IXMIN=  -14   IYMIN=  -14   IZMIN=  -40

 WARNING: aliasing errors must be expected set NGX to  58 to avoid them
 WARNING: aliasing errors must be expected set NGY to  56 to avoid them
 WARNING: aliasing errors must be expected set NGZ to 162 to avoid them
 aliasing errors are usually negligible using standard VASP settings
 and one can safely disregard these warnings

 serial   3D FFT for wavefunctions

 total amount of memory used by VASP on root node   650782. kBytes
========================================================================

   base      :      30000. kBytes
   nonl-proj :     559647. kBytes
   fftplans  :       2414. kBytes
   grid      :      12150. kBytes
   one-center:        419. kBytes
   wavefun   :      46152. kBytes
 
     INWAV:  cpu time    0.0000: real time    0.0000
 Broyden mixing: mesh for mixing (old mesh)
   NGX = 27   NGY = 27   NGZ = 81
  (NGX  = 84   NGY  = 84   NGZ  =252)
  gives a total of  59049 points

 initial charge density was supplied:
 charge density of overlapping atoms calculated
 number of electron     159.0000000 magnetization 
 keeping initial charge density in first step


--------------------------------------------------------------------------------------------------------


 Maximum index for augmentation-charges          146 (set IRDMAX)


--------------------------------------------------------------------------------------------------------


 First call to EWALD:  gamma=   0.129
 Maximum number of real-space cells 4x 4x 2
 Maximum number of reciprocal cells 2x 2x 5

 FEWALD executed in parallel
    FEWALD:  cpu time    0.0023: real time    0.0022


----------------------------------------- Iteration    1(   1)  ---------------------------------------


    POTLOK:  cpu time    0.0441: real time    0.0444
    SETDIJ:  cpu time    0.0039: real time    0.0040
     EDDAV:  cpu time   29.3170: real time   29.3909
       DOS:  cpu time    0.0019: real time    0.0022
    --------------------------------------------
      LOOP:  cpu time   29.3749: real time   29.4505

 eigenvalue-minimisations  :  8160
 total energy-change (2. order) : 0.1126036E+04  (-0.3597448E+04)
 number of electron     159.0000000 magnetization 
 augmentation part      159.0000000 magnetization 

 Free energy of the ion-electron system (eV)
  ---------------------------------------------------
  alpha Z        PSCENC =        81.65567618
  Ewald energy   TEWEN  =     41890.23009656
  -Hartree energ DENC   =    -47722.85861847
  -exchange      EXHF   =         0.00000000
  -V(xc)+E(xc)   XCENC  =      -242.92963158
  PAW double counting   =      3467.42045192    -2871.19716117
  entropy T*S    EENTRO =        -0.54622859
  eigenvalues    EBANDS =      -237.18153487
  atomic energy  EATOM  =      6761.44252427
  Solvation  Ediel_sol  =         0.00000000
  ---------------------------------------------------
  free energy    TOTEN  =      1126.03557425 eV

  energy without entropy =     1126.58180284  energy(sigma->0) =     1126.30868854


--------------------------------------------------------------------------------------------------------




----------------------------------------- Iteration    1(   2)  ---------------------------------------


     EDDAV:  cpu time   37.9175: real time   38.0084
       DOS:  cpu time    0.0027: real time    0.0027
    --------------------------------------------
      LOOP:  cpu time   37.9213: real time   38.0198

 eigenvalue-minimisations  : 11160
 total energy-change (2. order) :-0.1128439E+04  (-0.1087943E+04)
 number of electron     159.0000000 magnetization 
 augmentation part      159.0000000 magnetization 

 Free energy of the ion-electron system (eV)
  ---------------------------------------------------
  alpha Z        PSCENC =        81.65567618
  Ewald energy   TEWEN  =     41890.23009656
  -Hartree energ DENC   =    -47722.85861847
  -exchange      EXHF   =         0.00000000
  -V(xc)+E(xc)   XCENC  =      -242.92963158
  PAW double counting   =      3467.42045192    -2871.19716117
  entropy T*S    EENTRO =        -0.18531867
  eigenvalues    EBANDS =     -1365.98166688
  atomic energy  EATOM  =      6761.44252427
  Solvation  Ediel_sol  =         0.00000000
  ---------------------------------------------------
  free energy    TOTEN  =        -2.40364784 eV

  energy without entropy =       -2.21832918  energy(sigma->0) =       -2.31098851


--------------------------------------------------------------------------------------------------------




----------------------------------------- Iteration    1(   3)  ---------------------------------------


     EDDAV:  cpu time   37.2133: real time   37.3030
       DOS:  cpu time    0.0017: real time    0.0017
    --------------------------------------------
      LOOP:  cpu time   37.2161: real time   37.3151

 eigenvalue-minimisations  : 10920
 total energy-change (2. order) :-0.1972772E+03  (-0.1893644E+03)
 number of electron     159.0000000 magnetization 
 augmentation part      159.0000000 magnetization 

 Free energy of the ion-electron system (eV)
  ---------------------------------------------------
  alpha Z        PSCENC =        81.65567618
  Ewald energy   TEWEN  =     41890.23009656
  -Hartree energ DENC   =    -47722.85861847
  -exchange      EXHF   =         0.00000000
  -V(xc)+E(xc)   XCENC  =      -242.92963158
  PAW double counting   =      3467.42045192    -2871.19716117
  entropy T*S    EENTRO =        -0.26280640
  eigenvalues    EBANDS =     -1563.18142483
  atomic energy  EATOM  =      6761.44252427
  Solvation  Ediel_sol  =         0.00000000
  ---------------------------------------------------
  free energy    TOTEN  =      -199.68089352 eV

  energy without entropy =     -199.41808712  energy(sigma->0) =     -199.54949032


--------------------------------------------------------------------------------------------------------




----------------------------------------- Iteration    1(   4)  ---------------------------------------


     EDDAV:  cpu time   40.9687: real time   41.0666
       DOS:  cpu time    0.0018: real time    0.0018
    --------------------------------------------
      LOOP:  cpu time   40.9717: real time   41.0763

 eigenvalue-minimisations  : 12280
 total energy-change (2. order) :-0.9288435E+01  (-0.8985169E+01)
 number of electron     159.0000000 magnetization 
 augmentation part      159.0000000 magnetization 

 Free energy of the ion-electron system (eV)
  ---------------------------------------------------
  alpha Z        PSCENC =        81.65567618
  Ewald energy   TEWEN  =     41890.23009656
  -Hartree energ DENC   =    -47722.85861847
  -exchange      EXHF   =         0.00000000
  -V(xc)+E(xc)   XCENC  =      -242.92963158
  PAW double counting   =      3467.42045192    -2871.19716117
  entropy T*S    EENTRO =        -0.29804464
  eigenvalues    EBANDS =     -1572.43462117
  atomic energy  EATOM  =      6761.44252427
  Solvation  Ediel_sol  =         0.00000000
  ---------------------------------------------------
  free energy    TOTEN  =      -208.96932810 eV

  energy without entropy =     -208.67128346  energy(sigma->0) =     -208.82030578


--------------------------------------------------------------------------------------------------------




----------------------------------------- Iteration    1(   5)  ---------------------------------------


     EDDAV:  cpu time   38.4234: real time   38.5156
       DOS:  cpu time    0.0018: real time    0.0018
    CHARGE:  cpu time    0.5787: real time    0.5801
    MIXING:  cpu time    0.0027: real time    0.0030
    --------------------------------------------
      LOOP:  cpu time   39.0078: real time   39.1108

 eigenvalue-minimisations  : 11360
 total energy-change (2. order) :-0.3103565E+00  (-0.3094152E+00)
 number of electron     159.0000111 magnetization 
 augmentation part       -9.7979320 magnetization 

 Broyden mixing:
  rms(total) = 0.27470E+01    rms(broyden)= 0.27466E+01
  rms(prec ) = 0.29324E+01
  weight for this iteration     100.00

 Free energy of the ion-electron system (eV)
  ---------------------------------------------------
  alpha Z        PSCENC =        81.65567618
  Ewald energy   TEWEN  =     41890.23009656
  -Hartree energ DENC   =    -47722.85861847
  -exchange      EXHF   =         0.00000000
  -V(xc)+E(xc)   XCENC  =      -242.92963158
  PAW double counting   =      3467.42045192    -2871.19716117
  entropy T*S    EENTRO =        -0.29458667
  eigenvalues    EBANDS =     -1572.74843564
  atomic energy  EATOM  =      6761.44252427
  Solvation  Ediel_sol  =         0.00000000
  ---------------------------------------------------
  free energy    TOTEN  =      -209.27968460 eV

  energy without entropy =     -208.98509793  energy(sigma->0) =     -209.13239126


--------------------------------------------------------------------------------------------------------




----------------------------------------- Iteration    1(   6)  ---------------------------------------


    POTLOK:  cpu time    0.0444: real time    0.0445
    SETDIJ:  cpu time    0.0034: real time    0.0034
     EDDAV:  cpu time   41.8805: real time   41.9815
       DOS:  cpu time    0.0021: real time    0.0021
    CHARGE:  cpu time    0.5990: real time    0.6005
    MIXING:  cpu time    0.0014: real time    0.0024
    --------------------------------------------
      LOOP:  cpu time   42.5331: real time   42.6441

 eigenvalue-minimisations  : 12600
 total energy-change (2. order) :-0.2790197E+02  (-0.1078973E+02)
 number of electron     159.0000106 magnetization 
 augmentation part        7.0915192 magnetization 

 Broyden mixing:
  rms(total) = 0.59400E+01    rms(broyden)= 0.59393E+01
  rms(prec ) = 0.65217E+01
  weight for this iteration     100.00

 eigenvalues of (default mixing * dielectric matrix)
  average eigenvalue GAMMA=   0.2933
  0.2933

 Free energy of the ion-electron system (eV)
  ---------------------------------------------------
  alpha Z        PSCENC =        81.65567618
  Ewald energy   TEWEN  =     41890.23009656
  -Hartree energ DENC   =    -47701.21640606
  -exchange      EXHF   =         0.00000000
  -V(xc)+E(xc)   XCENC  =      -233.63043669
  PAW double counting   =      3676.40777959    -3082.49728732
  entropy T*S    EENTRO =        -0.27129965
  eigenvalues    EBANDS =     -1629.30230471
  atomic energy  EATOM  =      6761.44252427
  Solvation  Ediel_sol  =         0.00000000
  ---------------------------------------------------
  free energy    TOTEN  =      -237.18165783 eV

  energy without entropy =     -236.91035818  energy(sigma->0) =     -237.04600800


--------------------------------------------------------------------------------------------------------




----------------------------------------- Iteration    1(   7)  ---------------------------------------


    POTLOK:  cpu time    0.0476: real time    0.0477
    SETDIJ:  cpu time    0.0032: real time    0.0032
     EDDAV:  cpu time   43.5870: real time   43.6913
       DOS:  cpu time    0.0015: real time    0.0015
    CHARGE:  cpu time    0.5881: real time    0.5895
    MIXING:  cpu time    0.0015: real time    0.0015
    --------------------------------------------
      LOOP:  cpu time   44.2303: real time   44.3377

 eigenvalue-minimisations  : 13200
 total energy-change (2. order) : 0.4053583E+02  (-0.1778167E+02)
 number of electron     159.0000087 magnetization 
 augmentation part       -6.2244124 magnetization 

 Broyden mixing:
  rms(total) = 0.20372E+01    rms(broyden)= 0.20352E+01
  rms(prec ) = 0.22618E+01
  weight for this iteration     100.00

 eigenvalues of (default mixing * dielectric matrix)
  average eigenvalue GAMMA=   0.5397
  0.8682  0.2112

 Free energy of the ion-electron system (eV)
  ---------------------------------------------------
  alpha Z        PSCENC =        81.65567618
  Ewald energy   TEWEN  =     41890.23009656
  -Hartree energ DENC   =    -47738.75636802
  -exchange      EXHF   =         0.00000000
  -V(xc)+E(xc)   XCENC  =      -235.01454078
  PAW double counting   =      3764.22742056    -3178.27127595
  entropy T*S    EENTRO =        -0.33670225
  eigenvalues    EBANDS =     -1541.82265496
  atomic energy  EATOM  =      6761.44252427
  Solvation  Ediel_sol  =         0.00000000
  ---------------------------------------------------
  free energy    TOTEN  =      -196.64582439 eV

  energy without entropy =     -196.30912214  energy(sigma->0) =     -196.47747326


--------------------------------------------------------------------------------------------------------




----------------------------------------- Iteration    1(   8)  ---------------------------------------


    POTLOK:  cpu time    0.0414: real time    0.0415
    SETDIJ:  cpu time    0.0032: real time    0.0032
     EDDAV:  cpu time   39.2772: real time   39.3722
       DOS:  cpu time    0.0015: real time    0.0015
    CHARGE:  cpu time    0.5882: real time    0.5896
    MIXING:  cpu time    0.0015: real time    0.0015
    --------------------------------------------
      LOOP:  cpu time   39.9143: real time   40.0192

 eigenvalue-minimisations  : 11720
 total energy-change (2. order) : 0.6529502E+01  (-0.2049269E+01)
 number of electron     159.0000095 magnetization 
 augmentation part       -6.4032643 magnetization 

 Broyden mixing:
  rms(total) = 0.13757E+01    rms(broyden)= 0.13752E+01
  rms(prec ) = 0.14867E+01
  weight for this iteration     100.00

 eigenvalues of (default mixing * dielectric matrix)
  average eigenvalue GAMMA=   0.5258
  1.0472  0.2651  0.2651

 Free energy of the ion-electron system (eV)
  ---------------------------------------------------
  alpha Z        PSCENC =        81.65567618
  Ewald energy   TEWEN  =     41890.23009656
  -Hartree energ DENC   =    -47761.61673843
  -exchange      EXHF   =         0.00000000
  -V(xc)+E(xc)   XCENC  =      -235.05256683
  PAW double counting   =      3902.75788141    -3318.35165125
  entropy T*S    EENTRO =        -0.26823316
  eigenvalues    EBANDS =     -1510.91331138
  atomic energy  EATOM  =      6761.44252427
  Solvation  Ediel_sol  =         0.00000000
  ---------------------------------------------------
  free energy    TOTEN  =      -190.11632264 eV

  energy without entropy =     -189.84808948  energy(sigma->0) =     -189.98220606


--------------------------------------------------------------------------------------------------------




----------------------------------------- Iteration    1(   9)  ---------------------------------------


    POTLOK:  cpu time    0.0409: real time    0.0410
    SETDIJ:  cpu time    0.0033: real time    0.0033
     EDDAV:  cpu time   40.6255: real time   40.7239
       DOS:  cpu time    0.0016: real time    0.0016
    CHARGE:  cpu time    0.6023: real time    0.6038
    MIXING:  cpu time    0.0016: real time    0.0016
    --------------------------------------------
      LOOP:  cpu time   41.2768: real time   41.3865

 eigenvalue-minimisations  : 12160
 total energy-change (2. order) : 0.1803356E+01  (-0.3507890E+00)
 number of electron     159.0000094 magnetization 
 augmentation part       -5.7280192 magnetization 

 Broyden mixing:
  rms(total) = 0.93949E+00    rms(broyden)= 0.93905E+00
  rms(prec ) = 0.10110E+01
  weight for this iteration     100.00

 eigenvalues of (default mixing * dielectric matrix)
  average eigenvalue GAMMA=   0.6943
  1.7041  0.5732  0.2199  0.2801

 Free energy of the ion-electron system (eV)
  ---------------------------------------------------
  alpha Z        PSCENC =        81.65567618
  Ewald energy   TEWEN  =     41890.23009656
  -Hartree energ DENC   =    -47765.64896843
  -exchange      EXHF   =         0.00000000
  -V(xc)+E(xc)   XCENC  =      -234.37355211
  PAW double counting   =      3960.82476822    -3377.13339650
  entropy T*S    EENTRO =        -0.32723504
  eigenvalues    EBANDS =     -1504.98288008
  atomic energy  EATOM  =      6761.44252427
  Solvation  Ediel_sol  =         0.00000000
  ---------------------------------------------------
  free energy    TOTEN  =      -188.31296692 eV

  energy without entropy =     -187.98573188  energy(sigma->0) =     -188.14934940


--------------------------------------------------------------------------------------------------------




----------------------------------------- Iteration    1(  10)  ---------------------------------------


    POTLOK:  cpu time    0.0397: real time    0.0407
    SETDIJ:  cpu time    0.0031: real time    0.0031
     EDDAV:  cpu time   43.8340: real time   43.9398
       DOS:  cpu time    0.0017: real time    0.0017
    CHARGE:  cpu time    0.6268: real time    0.6283
    MIXING:  cpu time    0.0017: real time    0.0017
    --------------------------------------------
      LOOP:  cpu time   44.5093: real time   44.6258

 eigenvalue-minimisations  : 13320
 total energy-change (2. order) : 0.1178838E+01  (-0.1782771E+00)
 number of electron     159.0000092 magnetization 
 augmentation part       -4.4093919 magnetization 

 Broyden mixing:
  rms(total) = 0.34812E+00    rms(broyden)= 0.34779E+00
  rms(prec ) = 0.38097E+00
  weight for this iteration     100.00

 eigenvalues of (default mixing * dielectric matrix)
  average eigenvalue GAMMA=   0.6929
  1.8686  0.6125  0.5012  0.2243  0.2578

 Free energy of the ion-electron system (eV)
  ---------------------------------------------------
  alpha Z        PSCENC =        81.65567618
  Ewald energy   TEWEN  =     41890.23009656
  -Hartree energ DENC   =    -47777.85326487
  -exchange      EXHF   =         0.00000000
  -V(xc)+E(xc)   XCENC  =      -232.75630102
  PAW double counting   =      4088.68013572    -3506.62798929
  entropy T*S    EENTRO =        -0.34128800
  eigenvalues    EBANDS =     -1491.56371866
  atomic energy  EATOM  =      6761.44252427
  Solvation  Ediel_sol  =         0.00000000
  ---------------------------------------------------
  free energy    TOTEN  =      -187.13412910 eV

  energy without entropy =     -186.79284110  energy(sigma->0) =     -186.96348510


--------------------------------------------------------------------------------------------------------




----------------------------------------- Iteration    1(  11)  ---------------------------------------


    POTLOK:  cpu time    0.0423: real time    0.0431
    SETDIJ:  cpu time    0.0032: real time    0.0032
     EDDAV:  cpu time   41.8294: real time   41.9310
       DOS:  cpu time    0.0008: real time    0.0016
    CHARGE:  cpu time    0.6359: real time    0.6374
    MIXING:  cpu time    0.0018: real time    0.0019
    --------------------------------------------
      LOOP:  cpu time   42.5165: real time   42.6294

 eigenvalue-minimisations  : 12600
 total energy-change (2. order) : 0.1245178E+00  (-0.6780240E-01)
 number of electron     159.0000092 magnetization 
 augmentation part       -4.2813725 magnetization 

 Broyden mixing:
  rms(total) = 0.23450E+00    rms(broyden)= 0.23412E+00
  rms(prec ) = 0.25723E+00
  weight for this iteration     100.00

 eigenvalues of (default mixing * dielectric matrix)
  average eigenvalue GAMMA=   0.8679
  1.9176  1.9176  0.6149  0.2876  0.2219  0.2481

 Free energy of the ion-electron system (eV)
  ---------------------------------------------------
  alpha Z        PSCENC =        81.65567618
  Ewald energy   TEWEN  =     41890.23009656
  -Hartree energ DENC   =    -47783.81241452
  -exchange      EXHF   =         0.00000000
  -V(xc)+E(xc)   XCENC  =      -232.40247099
  PAW double counting   =      4126.08827285    -3544.34593746
  entropy T*S    EENTRO =        -0.34864958
  eigenvalues    EBANDS =     -1485.51670864
  atomic energy  EATOM  =      6761.44252427
  Solvation  Ediel_sol  =         0.00000000
  ---------------------------------------------------
  free energy    TOTEN  =      -187.00961132 eV

  energy without entropy =     -186.66096174  energy(sigma->0) =     -186.83528653


--------------------------------------------------------------------------------------------------------




----------------------------------------- Iteration    1(  12)  ---------------------------------------


    POTLOK:  cpu time    0.0426: real time    0.0427
    SETDIJ:  cpu time    0.0036: real time    0.0036
     EDDAV:  cpu time   42.4512: real time   42.5526
       DOS:  cpu time    0.0016: real time    0.0016
    CHARGE:  cpu time    0.6112: real time    0.6127
    MIXING:  cpu time    0.0017: real time    0.0017
    --------------------------------------------
      LOOP:  cpu time   43.1132: real time   43.2255

 eigenvalue-minimisations  : 12840
 total energy-change (2. order) :-0.5571734E-02  (-0.4445826E-01)
 number of electron     159.0000089 magnetization 
 augmentation part       -4.4703708 magnetization 

 Broyden mixing:
  rms(total) = 0.32730E+00    rms(broyden)= 0.32720E+00
  rms(prec ) = 0.36271E+00
  weight for this iteration     100.00

 eigenvalues of (default mixing * dielectric matrix)
  average eigenvalue GAMMA=   0.7966
  1.9932  1.9932  0.6170  0.2765  0.2765  0.2113  0.2085

 Free energy of the ion-electron system (eV)
  ---------------------------------------------------
  alpha Z        PSCENC =        81.65567618
  Ewald energy   TEWEN  =     41890.23009656
  -Hartree energ DENC   =    -47796.77674741
  -exchange      EXHF   =         0.00000000
  -V(xc)+E(xc)   XCENC  =      -232.07252778
  PAW double counting   =      4179.97938593    -3598.20784335
  entropy T*S    EENTRO =        -0.33402208
  eigenvalues    EBANDS =     -1472.93172537
  atomic energy  EATOM  =      6761.44252427
  Solvation  Ediel_sol  =         0.00000000
  ---------------------------------------------------
  free energy    TOTEN  =      -187.01518306 eV

  energy without entropy =     -186.68116097  energy(sigma->0) =     -186.84817201


--------------------------------------------------------------------------------------------------------




----------------------------------------- Iteration    1(  13)  ---------------------------------------


    POTLOK:  cpu time    0.0411: real time    0.0412
    SETDIJ:  cpu time    0.0031: real time    0.0031
     EDDAV:  cpu time   43.8607: real time   43.9665
       DOS:  cpu time    0.0016: real time    0.0016
    CHARGE:  cpu time    0.6182: real time    0.6197
    MIXING:  cpu time    0.0020: real time    0.0020
    --------------------------------------------
      LOOP:  cpu time   44.5280: real time   44.6450

 eigenvalue-minimisations  : 13320
 total energy-change (2. order) : 0.8534004E-01  (-0.2545334E-01)
 number of electron     159.0000089 magnetization 
 augmentation part       -4.4065698 magnetization 

 Broyden mixing:
  rms(total) = 0.19166E+00    rms(broyden)= 0.19151E+00
  rms(prec ) = 0.21240E+00
  weight for this iteration     100.00

 eigenvalues of (default mixing * dielectric matrix)
  average eigenvalue GAMMA=   0.7796
  2.2852  1.7041  0.7497  0.5899  0.2993  0.2246  0.2409  0.1430

 Free energy of the ion-electron system (eV)
  ---------------------------------------------------
  alpha Z        PSCENC =        81.65567618
  Ewald energy   TEWEN  =     41890.23009656
  -Hartree energ DENC   =    -47799.24111685
  -exchange      EXHF   =         0.00000000
  -V(xc)+E(xc)   XCENC  =      -231.98846026
  PAW double counting   =      4187.65550315    -3605.87378635
  entropy T*S    EENTRO =        -0.33642742
  eigenvalues    EBANDS =     -1470.47385230
  atomic energy  EATOM  =      6761.44252427
  Solvation  Ediel_sol  =         0.00000000
  ---------------------------------------------------
  free energy    TOTEN  =      -186.92984302 eV

  energy without entropy =     -186.59341560  energy(sigma->0) =     -186.76162931


--------------------------------------------------------------------------------------------------------




----------------------------------------- Iteration    1(  14)  ---------------------------------------


    POTLOK:  cpu time    0.0424: real time    0.0425
    SETDIJ:  cpu time    0.0035: real time    0.0035
     EDDAV:  cpu time   42.7500: real time   42.8521
       DOS:  cpu time    0.0017: real time    0.0017
    CHARGE:  cpu time    0.6167: real time    0.6182
    MIXING:  cpu time    0.0020: real time    0.0020
    --------------------------------------------
      LOOP:  cpu time   43.4176: real time   43.5302

 eigenvalue-minimisations  : 12920
 total energy-change (2. order) : 0.2964303E-01  (-0.1055979E-01)
 number of electron     159.0000089 magnetization 
 augmentation part       -4.1698863 magnetization 

 Broyden mixing:
  rms(total) = 0.89940E-01    rms(broyden)= 0.89796E-01
  rms(prec ) = 0.10151E+00
  weight for this iteration     100.00

 eigenvalues of (default mixing * dielectric matrix)
  average eigenvalue GAMMA=   0.7432
  2.2879  1.6424  0.9886  0.5986  0.3004  0.2755  0.2292  0.2292  0.1372

 Free energy of the ion-electron system (eV)
  ---------------------------------------------------
  alpha Z        PSCENC =        81.65567618
  Ewald energy   TEWEN  =     41890.23009656
  -Hartree energ DENC   =    -47802.59857187
  -exchange      EXHF   =         0.00000000
  -V(xc)+E(xc)   XCENC  =      -231.87288625
  PAW double counting   =      4192.45724694    -3610.64916572
  entropy T*S    EENTRO =        -0.34102345
  eigenvalues    EBANDS =     -1467.22409664
  atomic energy  EATOM  =      6761.44252427
  Solvation  Ediel_sol  =         0.00000000
  ---------------------------------------------------
  free energy    TOTEN  =      -186.90019999 eV

  energy without entropy =     -186.55917653  energy(sigma->0) =     -186.72968826


--------------------------------------------------------------------------------------------------------




----------------------------------------- Iteration    1(  15)  ---------------------------------------


    POTLOK:  cpu time    0.0417: real time    0.0418
    SETDIJ:  cpu time    0.0033: real time    0.0033
     EDDAV:  cpu time   40.4877: real time   40.5854
       DOS:  cpu time    0.0008: real time    0.0016
    CHARGE:  cpu time    0.6101: real time    0.6115
    MIXING:  cpu time    0.0021: real time    0.0021
    --------------------------------------------
      LOOP:  cpu time   41.1478: real time   41.2567

 eigenvalue-minimisations  : 12120
 total energy-change (2. order) : 0.6295528E-02  (-0.3736982E-02)
 number of electron     159.0000090 magnetization 
 augmentation part       -4.1169475 magnetization 

 Broyden mixing:
  rms(total) = 0.87320E-01    rms(broyden)= 0.87250E-01
  rms(prec ) = 0.96836E-01
  weight for this iteration     100.00

 eigenvalues of (default mixing * dielectric matrix)
  average eigenvalue GAMMA=   0.7014
  2.2881  1.6391  1.0926  0.5963  0.3510  0.3032  0.2279  0.2338  0.1492  0.1329

 Free energy of the ion-electron system (eV)
  ---------------------------------------------------
  alpha Z        PSCENC =        81.65567618
  Ewald energy   TEWEN  =     41890.23009656
  -Hartree energ DENC   =    -47804.91183706
  -exchange      EXHF   =         0.00000000
  -V(xc)+E(xc)   XCENC  =      -231.83667138
  PAW double counting   =      4192.79701577    -3610.95928463
  entropy T*S    EENTRO =        -0.34325250
  eigenvalues    EBANDS =     -1464.96817167
  atomic energy  EATOM  =      6761.44252427
  Solvation  Ediel_sol  =         0.00000000
  ---------------------------------------------------
  free energy    TOTEN  =      -186.89390446 eV

  energy without entropy =     -186.55065196  energy(sigma->0) =     -186.72227821


--------------------------------------------------------------------------------------------------------




----------------------------------------- Iteration    1(  16)  ---------------------------------------


    POTLOK:  cpu time    0.0395: real time    0.0396
    SETDIJ:  cpu time    0.0030: real time    0.0030
     EDDAV:  cpu time   42.4950: real time   42.5965
       DOS:  cpu time    0.0014: real time    0.0014
    CHARGE:  cpu time    0.6183: real time    0.6197
    MIXING:  cpu time    0.0021: real time    0.0021
    --------------------------------------------
      LOOP:  cpu time   43.1606: real time   43.2722

 eigenvalue-minimisations  : 12880
 total energy-change (2. order) : 0.4121785E-02  (-0.1398380E-02)
 number of electron     159.0000090 magnetization 
 augmentation part       -4.1303334 magnetization 

 Broyden mixing:
  rms(total) = 0.50133E-01    rms(broyden)= 0.50103E-01
  rms(prec ) = 0.56529E-01
  weight for this iteration     100.00

 eigenvalues of (default mixing * dielectric matrix)
  average eigenvalue GAMMA=   0.7656
  2.3704  1.9252  1.5089  0.6985  0.6202  0.3084  0.2678  0.2246  0.2401  0.1389
  0.1184

 Free energy of the ion-electron system (eV)
  ---------------------------------------------------
  alpha Z        PSCENC =        81.65567618
  Ewald energy   TEWEN  =     41890.23009656
  -Hartree energ DENC   =    -47806.22535230
  -exchange      EXHF   =         0.00000000
  -V(xc)+E(xc)   XCENC  =      -231.81959362
  PAW double counting   =      4193.10234754    -3611.25039099
  entropy T*S    EENTRO =        -0.34326187
  eigenvalues    EBANDS =     -1463.68182845
  atomic energy  EATOM  =      6761.44252427
  Solvation  Ediel_sol  =         0.00000000
  ---------------------------------------------------
  free energy    TOTEN  =      -186.88978267 eV

  energy without entropy =     -186.54652080  energy(sigma->0) =     -186.71815174


--------------------------------------------------------------------------------------------------------




----------------------------------------- Iteration    1(  17)  ---------------------------------------


    POTLOK:  cpu time    0.0411: real time    0.0412
    SETDIJ:  cpu time    0.0032: real time    0.0032
     EDDAV:  cpu time   42.0062: real time   42.1078
       DOS:  cpu time    0.0008: real time    0.0016
    CHARGE:  cpu time    0.6162: real time    0.6177
    MIXING:  cpu time    0.0022: real time    0.0022
    --------------------------------------------
      LOOP:  cpu time   42.6728: real time   42.7830

 eigenvalue-minimisations  : 12720
 total energy-change (2. order) : 0.2715351E-02  (-0.7337681E-03)
 number of electron     159.0000090 magnetization 
 augmentation part       -4.1930043 magnetization 

 Broyden mixing:
  rms(total) = 0.17592E-01    rms(broyden)= 0.17528E-01
  rms(prec ) = 0.21546E-01
  weight for this iteration     100.00

 eigenvalues of (default mixing * dielectric matrix)
  average eigenvalue GAMMA=   0.7793
  2.3451  2.3451  1.4389  0.8581  0.6036  0.4716  0.3089  0.2239  0.2558  0.2438
  0.1389  0.1178

 Free energy of the ion-electron system (eV)
  ---------------------------------------------------
  alpha Z        PSCENC =        81.65567618
  Ewald energy   TEWEN  =     41890.23009656
  -Hartree energ DENC   =    -47811.79224396
  -exchange      EXHF   =         0.00000000
  -V(xc)+E(xc)   XCENC  =      -231.74716781
  PAW double counting   =      4194.69138565    -3612.78044384
  entropy T*S    EENTRO =        -0.34133595
  eigenvalues    EBANDS =     -1458.24555841
  atomic energy  EATOM  =      6761.44252427
  Solvation  Ediel_sol  =         0.00000000
  ---------------------------------------------------
  free energy    TOTEN  =      -186.88706732 eV

  energy without entropy =     -186.54573137  energy(sigma->0) =     -186.71639935


--------------------------------------------------------------------------------------------------------




----------------------------------------- Iteration    1(  18)  ---------------------------------------


    POTLOK:  cpu time    0.0415: real time    0.0416
    SETDIJ:  cpu time    0.0032: real time    0.0032
     EDDAV:  cpu time   39.2386: real time   39.3323
       DOS:  cpu time    0.0014: real time    0.0014
    CHARGE:  cpu time    0.6255: real time    0.6270
    MIXING:  cpu time    0.0026: real time    0.0026
    --------------------------------------------
      LOOP:  cpu time   39.9142: real time   40.0191

 eigenvalue-minimisations  : 11680
 total energy-change (2. order) : 0.5430189E-03  (-0.2033610E-03)
 number of electron     159.0000090 magnetization 
 augmentation part       -4.2080506 magnetization 

 Broyden mixing:
  rms(total) = 0.17740E-01    rms(broyden)= 0.17730E-01
  rms(prec ) = 0.20593E-01
  weight for this iteration     100.00

 eigenvalues of (default mixing * dielectric matrix)
  average eigenvalue GAMMA=   0.7860
  2.3662  2.3662  1.2615  1.2615  0.6751  0.6178  0.3820  0.3066  0.2242  0.2575
  0.2422  0.1389  0.1177

 Free energy of the ion-electron system (eV)
  ---------------------------------------------------
  alpha Z        PSCENC =        81.65567618
  Ewald energy   TEWEN  =     41890.23009656
  -Hartree energ DENC   =    -47815.27863782
  -exchange      EXHF   =         0.00000000
  -V(xc)+E(xc)   XCENC  =      -231.71299249
  PAW double counting   =      4194.95998109    -3613.01547247
  entropy T*S    EENTRO =        -0.34105631
  eigenvalues    EBANDS =     -1454.82664331
  atomic energy  EATOM  =      6761.44252427
  Solvation  Ediel_sol  =         0.00000000
  ---------------------------------------------------
  free energy    TOTEN  =      -186.88652430 eV

  energy without entropy =     -186.54546799  energy(sigma->0) =     -186.71599615


--------------------------------------------------------------------------------------------------------




----------------------------------------- Iteration    1(  19)  ---------------------------------------


    POTLOK:  cpu time    0.0396: real time    0.0396
    SETDIJ:  cpu time    0.0030: real time    0.0030
     EDDAV:  cpu time   37.1821: real time   37.2709
       DOS:  cpu time    0.0016: real time    0.0016
    CHARGE:  cpu time    0.6370: real time    0.6385
    MIXING:  cpu time    0.0024: real time    0.0024
    --------------------------------------------
      LOOP:  cpu time   37.8671: real time   37.9671

 eigenvalue-minimisations  : 10960
 total energy-change (2. order) : 0.2413166E-03  (-0.7947941E-04)
 number of electron     159.0000090 magnetization 
 augmentation part       -4.1831138 magnetization 

 Broyden mixing:
  rms(total) = 0.45624E-02    rms(broyden)= 0.45455E-02
  rms(prec ) = 0.75337E-02
  weight for this iteration     100.00

 eigenvalues of (default mixing * dielectric matrix)
  average eigenvalue GAMMA=   0.8838
  2.6892  2.6892  1.5983  1.4814  0.9971  0.6282  0.6282  0.3736  0.3073  0.2242
  0.2577  0.2422  0.1389  0.1177

 Free energy of the ion-electron system (eV)
  ---------------------------------------------------
  alpha Z        PSCENC =        81.65567618
  Ewald energy   TEWEN  =     41890.23009656
  -Hartree energ DENC   =    -47817.69590422
  -exchange      EXHF   =         0.00000000
  -V(xc)+E(xc)   XCENC  =      -231.69273212
  PAW double counting   =      4194.41148490    -3612.45376235
  entropy T*S    EENTRO =        -0.34158035
  eigenvalues    EBANDS =     -1452.44208587
  atomic energy  EATOM  =      6761.44252427
  Solvation  Ediel_sol  =         0.00000000
  ---------------------------------------------------
  free energy    TOTEN  =      -186.88628299 eV

  energy without entropy =     -186.54470264  energy(sigma->0) =     -186.71549281


--------------------------------------------------------------------------------------------------------




----------------------------------------- Iteration    1(  20)  ---------------------------------------


    POTLOK:  cpu time    0.0387: real time    0.0405
    SETDIJ:  cpu time    0.0033: real time    0.0033
     EDDAV:  cpu time   31.8745: real time   31.9515
       DOS:  cpu time    0.0015: real time    0.0015
    CHARGE:  cpu time    0.6258: real time    0.6273
    MIXING:  cpu time    0.0026: real time    0.0026
    --------------------------------------------
      LOOP:  cpu time   32.5497: real time   32.6369

 eigenvalue-minimisations  :  9120
 total energy-change (2. order) :-0.8970020E-03  (-0.8532784E-04)
 number of electron     159.0000090 magnetization 
 augmentation part       -4.1873397 magnetization 

 Broyden mixing:
  rms(total) = 0.42392E-02    rms(broyden)= 0.42382E-02
  rms(prec ) = 0.56735E-02
  weight for this iteration     100.00

 eigenvalues of (default mixing * dielectric matrix)
  average eigenvalue GAMMA=   0.9203
  3.1217  2.5672  1.8785  1.5114  0.8991  0.8991  0.6333  0.6333  0.3737  0.3073
  0.2242  0.2577  0.2422  0.1389  0.1177

 Free energy of the ion-electron system (eV)
  ---------------------------------------------------
  alpha Z        PSCENC =        81.65567618
  Ewald energy   TEWEN  =     41890.23009656
  -Hartree energ DENC   =    -47824.33509355
  -exchange      EXHF   =         0.00000000
  -V(xc)+E(xc)   XCENC  =      -231.63628899
  PAW double counting   =      4193.08884984    -3611.10960177
  entropy T*S    EENTRO =        -0.34125981
  eigenvalues    EBANDS =     -1445.88208272
  atomic energy  EATOM  =      6761.44252427
  Solvation  Ediel_sol  =         0.00000000
  ---------------------------------------------------
  free energy    TOTEN  =      -186.88717999 eV

  energy without entropy =     -186.54592018  energy(sigma->0) =     -186.71655008


--------------------------------------------------------------------------------------------------------




----------------------------------------- Iteration    1(  21)  ---------------------------------------


    POTLOK:  cpu time    0.0424: real time    0.0425
    SETDIJ:  cpu time    0.0034: real time    0.0034
     EDDAV:  cpu time   29.3676: real time   29.4378
       DOS:  cpu time    0.0014: real time    0.0014
    CHARGE:  cpu time    0.6109: real time    0.6123
    MIXING:  cpu time    0.0027: real time    0.0028
    --------------------------------------------
      LOOP:  cpu time   30.0298: real time   30.1104

 eigenvalue-minimisations  :  8200
 total energy-change (2. order) :-0.8673551E-03  (-0.2210023E-04)
 number of electron     159.0000090 magnetization 
 augmentation part       -4.1804161 magnetization 

 Broyden mixing:
  rms(total) = 0.35768E-02    rms(broyden)= 0.35727E-02
  rms(prec ) = 0.45817E-02
  weight for this iteration     100.00

 eigenvalues of (default mixing * dielectric matrix)
  average eigenvalue GAMMA=   0.9532
  3.6100  2.4209  2.1682  1.5971  1.0526  1.0526  0.6359  0.6359  0.4163  0.3739
  0.3073  0.2242  0.2422  0.2577  0.1389  0.1177

 Free energy of the ion-electron system (eV)
  ---------------------------------------------------
  alpha Z        PSCENC =        81.65567618
  Ewald energy   TEWEN  =     41890.23009656
  -Hartree energ DENC   =    -47827.10410000
  -exchange      EXHF   =         0.00000000
  -V(xc)+E(xc)   XCENC  =      -231.61759522
  PAW double counting   =      4192.73059371    -3610.75122114
  entropy T*S    EENTRO =        -0.34139349
  eigenvalues    EBANDS =     -1443.13262822
  atomic energy  EATOM  =      6761.44252427
  Solvation  Ediel_sol  =         0.00000000
  ---------------------------------------------------
  free energy    TOTEN  =      -186.88804734 eV

  energy without entropy =     -186.54665385  energy(sigma->0) =     -186.71735060


--------------------------------------------------------------------------------------------------------




----------------------------------------- Iteration    1(  22)  ---------------------------------------


    POTLOK:  cpu time    0.0408: real time    0.0409
    SETDIJ:  cpu time    0.0032: real time    0.0032
     EDDAV:  cpu time   25.6029: real time   25.6641
       DOS:  cpu time    0.0012: real time    0.0020
    CHARGE:  cpu time    0.6125: real time    0.6139
    MIXING:  cpu time    0.0025: real time    0.0025
    --------------------------------------------
      LOOP:  cpu time   26.2654: real time   26.3375

 eigenvalue-minimisations  :  6760
 total energy-change (2. order) :-0.8071767E-03  (-0.1011323E-04)
 number of electron     159.0000090 magnetization 
 augmentation part       -4.1795181 magnetization 

 Broyden mixing:
  rms(total) = 0.33721E-02    rms(broyden)= 0.33707E-02
  rms(prec ) = 0.39833E-02
  weight for this iteration     100.00

 eigenvalues of (default mixing * dielectric matrix)
  average eigenvalue GAMMA=   1.0842
  4.8896  2.5293  2.5293  1.7181  1.4886  0.9900  0.9900  0.6268  0.6268  0.2242
  0.2422  0.2577  0.3073  0.3722  0.3823  0.1389  0.1177

 Free energy of the ion-electron system (eV)
  ---------------------------------------------------
  alpha Z        PSCENC =        81.65567618
  Ewald energy   TEWEN  =     41890.23009656
  -Hartree energ DENC   =    -47829.21331250
[...]
    104      -0.6191      0.00000
    105      -0.4451      0.00000
    106      -0.2950      0.00000
    107      -0.1633      0.00000
    108      -0.0133      0.00000
    109       0.0490      0.00000
    110       0.1238      0.00000
    111       0.4532      0.00000
    112       0.7162      0.00000
    113       0.8098      0.00000
    114       0.9070      0.00000
    115       1.0646      0.00000
    116       1.2124      0.00000
    117       1.2822      0.00000
    118       2.1324      0.00000
    119       2.3178      0.00000
    120       2.3807      0.00000

 k-point    34 :       0.5000    0.5000    0.0000
  band No.  band energies     occupation 
      1     -17.5049      2.00000
      2     -17.3591      2.00000
      3     -16.7589      2.00000
      4     -16.6788      2.00000
      5     -16.6720      2.00000
      6     -16.4358      2.00000
      7     -16.3301      2.00000
      8     -16.2391      2.00000
      9     -16.0444      2.00000
     10     -15.9950      2.00000
     11     -15.9365      2.00000
     12     -15.8454      2.00000
     13     -15.7221      2.00000
     14     -15.7082      2.00000
     15     -15.6544      2.00000
     16     -15.5562      2.00000
     17     -15.2894      2.00000
     18     -15.2546      2.00000
     19      -9.8372      2.00000
     20      -9.4164      2.00000
     21      -9.1697      2.00000
     22      -9.1064      2.00000
     23      -8.9541      2.00000
     24      -8.8278      2.00000
     25      -8.5374      2.00000
     26      -8.4612      2.00000
     27      -8.4187      2.00000
     28      -8.3028      2.00000
     29      -8.2777      2.00000
     30      -8.1957      2.00000
     31      -8.1468      2.00000
     32      -8.1067      2.00000
     33      -7.9655      2.00000
     34      -7.8813      2.00000
     35      -7.7770      2.00000
     36      -7.7362      2.00000
     37      -7.5234      2.00000
     38      -7.3525      2.00000
     39      -7.3104      2.00000
     40      -7.2371      2.00000
     41      -7.1265      2.00000
     42      -7.0824      2.00000
     43      -7.0551      2.00000
     44      -7.0429      2.00000
     45      -6.8169      2.00000
     46      -6.7465      2.00000
     47      -6.6173      2.00000
     48      -6.5829      2.00000
     49      -6.5607      2.00000
     50      -6.5301      2.00000
     51      -6.4532      2.00000
     52      -6.3386      2.00000
     53      -6.2595      2.00000
     54      -6.2211      2.00000
     55      -6.1681      2.00000
     56      -6.0748      2.00000
     57      -6.0442      2.00000
     58      -5.8811      2.00000
     59      -5.8394      2.00000
     60      -5.7935      2.00000
     61      -5.7035      2.00000
     62      -5.6126      2.00000
     63      -5.5327      2.00000
     64      -5.4020      2.00000
     65      -5.2782      2.00000
     66      -5.1904      2.00000
     67      -4.9557      2.00000
     68      -4.8685      2.00000
     69      -4.7926      2.00000
     70      -4.6594      2.00000
     71      -4.5138      2.00000
     72      -4.4457      2.00000
     73      -4.3566      2.00000
     74      -4.2299      2.00000
     75      -4.1563      2.00000
     76      -4.0492      2.00000
     77      -4.0240      2.00000
     78      -3.7288      1.99967
     79      -3.5526      1.98113
     80      -3.0946      0.37323
     81      -2.9871      0.09892
     82      -2.7688      0.00140
     83      -2.6635      0.00008
     84      -2.5474      0.00000
     85      -2.4515      0.00000
     86      -2.3640      0.00000
     87      -2.0542      0.00000
     88      -2.0211      0.00000
     89      -1.9806      0.00000
     90      -1.8249      0.00000
     91      -1.7005      0.00000
     92      -1.6204      0.00000
     93      -1.5100      0.00000
     94      -1.4350      0.00000
     95      -1.3301      0.00000
     96      -1.2128      0.00000
     97      -1.0686      0.00000
     98      -1.0608      0.00000
     99      -0.9732      0.00000
    100      -0.9085      0.00000
    101      -0.8554      0.00000
    102      -0.6833      0.00000
    103      -0.6455      0.00000
    104      -0.6237      0.00000
    105      -0.4085      0.00000
    106      -0.2801      0.00000
    107      -0.1651      0.00000
    108       0.0152      0.00000
    109       0.0283      0.00000
    110       0.0981      0.00000
    111       0.4356      0.00000
    112       0.7624      0.00000
    113       0.8317      0.00000
    114       0.9140      0.00000
    115       1.0640      0.00000
    116       1.1974      0.00000
    117       1.2664      0.00000
    118       2.1908      0.00000
    119       2.2565      0.00000
    120       2.4092      0.00000


--------------------------------------------------------------------------------------------------------


 soft charge-density along one line, spin component           1
         0         1         2         3         4         5         6         7         8         9
 total charge-density along one line
 
 pseudopotential strength for first ion, spin component:           1
 -7.187  -0.013   0.026  -0.025  -0.002   0.664   0.003  -0.008
 -0.013  -7.106  -0.017  -0.019   0.025   0.003   0.639   0.005
  0.026  -0.017  -7.041  -0.001  -0.020  -0.008   0.005   0.621
 -0.025  -0.019  -0.001  -7.074   0.003   0.007   0.005   0.000
 -0.002   0.025  -0.020   0.003  -7.189   0.001  -0.008   0.006
  0.664   0.003  -0.008   0.007   0.001   0.336  -0.000   0.002
  0.003   0.639   0.005   0.005  -0.008  -0.000   0.344  -0.002
 -0.008   0.005   0.621   0.000   0.006   0.002  -0.002   0.348
  0.007   0.005   0.000   0.630  -0.000  -0.002  -0.002  -0.000
  0.001  -0.008   0.006  -0.000   0.664  -0.000   0.002  -0.002
  0.007   0.009  -0.022   0.001  -0.006  -0.002  -0.002   0.005
  0.002   0.003  -0.007   0.000  -0.002  -0.001  -0.001   0.002
 -0.008  -0.002  -0.000   0.000  -0.000  -0.000   0.000   0.000
  0.000   0.001   0.000  -0.011   0.003  -0.000  -0.001  -0.000
  0.001   0.000   0.003   0.003  -0.008  -0.001  -0.000   0.001
 -0.005  -0.003   0.000   0.000   0.001   0.001   0.000   0.000
  0.000  -0.000  -0.000  -0.009   0.003  -0.000   0.000   0.000
  0.000   0.000   0.001   0.003  -0.005  -0.000  -0.000  -0.000
 total augmentation occupancy for first ion, spin component:           1
  0.859   0.139   0.063  -0.019  -0.039   0.449   0.218   0.006  -0.001  -0.009  -0.003  -0.002   0.011   0.011   0.022   0.004
  0.139   1.076  -0.042   0.018   0.019   0.216   0.660   0.003  -0.003  -0.000   0.003  -0.002  -0.051   0.002  -0.007  -0.002
  0.063  -0.042   0.890  -0.026  -0.047   0.003   0.004   0.347  -0.034  -0.007   0.132   0.006  -0.012  -0.003  -0.065  -0.000
 -0.019   0.018  -0.026   1.040  -0.143  -0.001  -0.003  -0.034   0.629  -0.212   0.006  -0.003   0.012  -0.071   0.068   0.000
 -0.039   0.019  -0.047  -0.143   0.794  -0.009  -0.001  -0.008  -0.214   0.437   0.034  -0.001   0.002   0.054   0.013  -0.001
  0.449   0.216   0.003  -0.001  -0.009   0.370   0.220   0.002  -0.001  -0.004  -0.005  -0.001  -0.027   0.003   0.002   0.001
  0.218   0.660   0.004  -0.003  -0.001   0.220   0.588   0.003  -0.004  -0.004   0.008  -0.000  -0.060  -0.002   0.005  -0.005
  0.006   0.003   0.347  -0.034  -0.008   0.002   0.003   0.278  -0.021   0.003   0.034   0.009   0.000  -0.001  -0.023  -0.000
 -0.001  -0.003  -0.034   0.629  -0.214  -0.001  -0.004  -0.021   0.573  -0.219  -0.019  -0.003   0.003  -0.095   0.067   0.000
 -0.009  -0.000  -0.007  -0.212   0.437  -0.004  -0.004   0.003  -0.219   0.383  -0.014  -0.001   0.002   0.067  -0.028  -0.000
 -0.003   0.003   0.132   0.006   0.034  -0.005   0.008   0.034  -0.019  -0.014   1.375   0.141   0.013   0.009  -0.035   0.000
 -0.002  -0.002   0.006  -0.003  -0.001  -0.001  -0.000   0.009  -0.003  -0.001   0.141   0.026  -0.001  -0.000  -0.010  -0.000
  0.011  -0.051  -0.012   0.012   0.002  -0.027  -0.060   0.000   0.003   0.002   0.013  -0.001   0.347   0.001  -0.003   0.027
  0.011   0.002  -0.003  -0.071   0.054   0.003  -0.002  -0.001  -0.095   0.067   0.009  -0.000   0.001   0.415  -0.001   0.000
  0.022  -0.007  -0.065   0.068   0.013   0.002   0.005  -0.023   0.067  -0.028  -0.035  -0.010  -0.003  -0.001   0.362  -0.000
  0.004  -0.002  -0.000   0.000  -0.001   0.001  -0.005  -0.000   0.000  -0.000   0.000  -0.000   0.027   0.000  -0.000   0.003
  0.000   0.001   0.000   0.001   0.003   0.000   0.000  -0.000  -0.006   0.005   0.000   0.000   0.000   0.029   0.000   0.000
  0.001   0.000  -0.004   0.002   0.003   0.000   0.001  -0.005   0.005   0.001  -0.002  -0.001  -0.000   0.000   0.027  -0.000


------------------------ aborting loop because EDIFF is reached ----------------------------------------


    CHARGE:  cpu time    0.5675: real time    0.5689
    FORLOC:  cpu time    0.0125: real time    0.0125
    FORNL :  cpu time    7.6437: real time    7.6620
    STRESS:  cpu time   44.4920: real time   44.5983
    FORCOR:  cpu time    0.0464: real time    0.0465
    FORHAR:  cpu time    0.0166: real time    0.0167
    MIXING:  cpu time    0.0013: real time    0.0013
    OFIELD:  cpu time    0.0000: real time    0.0000

  FORCE on cell =-STRESS in cart. coord.  units (eV):
  Direction    XX          YY          ZZ          XY          YZ          ZX
  --------------------------------------------------------------------------------------
  Alpha Z    89.20542    89.20542    89.20542
  Ewald   49154.99676 49242.61547-54132.55265    -1.29329    -1.84830   -21.43413
  Hartree 49887.00877 49942.16997-49556.29630    -0.84628    -0.27800   -13.45739
  E(xc)    -611.42552  -609.04010  -617.69811    -0.01810     0.08612     0.93960
  Local  ************************101126.80444     1.69803     2.03446    44.78566
  n-local  1216.71567  1213.28124  1248.60656     0.13912    -0.48708     3.00607
  augment  -212.19170  -213.29913  -214.59392    -0.39826    -0.36428    -0.78396
  Kinetic  2020.17897  2001.73542  2054.77053     0.71932     0.84204   -12.94696
  Fock        0.00000     0.00000     0.00000     0.00000     0.00000     0.00000
  -------------------------------------------------------------------------------------
  Total       0.30437     0.26799    -1.75403     0.00054    -0.01503     0.10889
  in kB       0.20319     0.17891    -1.17098     0.00036    -0.01004     0.07269
  external pressure =       -0.26 kB  Pullay stress =        0.00 kB


 VOLUME and BASIS-vectors are now :
 -----------------------------------------------------------------------------
  energy-cutoff  :      280.00
  volume of cell :     2399.92
      direct lattice vectors                 reciprocal lattice vectors
     8.339615807  4.802381152  0.000000000     0.059915936  0.104182509  0.000000000
    -8.334308224  4.793106645  0.000000000    -0.060031871  0.104248856  0.000000000
     0.000000000  0.000000000 30.000000000     0.000000000  0.000000000  0.033333333

  length of vectors
     9.623515809  9.614289619 30.000000000     0.120182838  0.120298169  0.033333333


 FORCES acting on ions
    electron-ion (+dipol)            ewald-force                    non-local-force                 convergence-correction
 -----------------------------------------------------------------------------------------------
   -.265E+02 -.199E+01 0.126E+02   0.281E+02 0.240E+01 -.124E+02   -.157E+01 -.375E+00 -.165E+00   -.566E-01 -.371E-01 -.318E-01
   -.219E+02 -.156E+00 0.242E+02   0.233E+02 -.123E+00 -.240E+02   -.139E+01 0.285E+00 -.121E+00   -.426E-01 -.521E-02 -.701E-01
   0.224E+02 0.324E+00 -.249E+02   -.239E+02 -.269E+00 0.247E+02   0.146E+01 -.300E-02 0.161E+00   0.679E-01 -.492E-01 0.833E-01
   -.561E+00 0.231E+02 0.781E+00   0.628E+00 -.230E+02 -.835E+00   -.534E-02 -.131E+00 0.482E-01   -.724E-01 0.627E-01 0.813E-02
   -.469E+01 -.196E+02 0.147E+01   0.476E+01 0.197E+02 -.145E+01   0.436E-01 0.161E-01 -.351E-01   -.118E+00 -.743E-01 0.142E-01
   -.740E+01 -.434E+01 0.208E+01   0.724E+01 0.421E+01 -.215E+01   0.235E+00 0.990E-01 0.561E-01   -.734E-01 0.419E-01 0.638E-02
   0.359E+02 0.550E+01 -.138E+02   -.369E+02 -.585E+01 0.135E+02   0.992E+00 0.299E+00 0.255E+00   0.728E-01 0.328E-01 0.193E-01
   0.365E+02 -.627E+01 -.166E+02   -.374E+02 0.656E+01 0.164E+02   0.834E+00 -.295E+00 0.191E+00   0.109E+00 0.113E-01 0.156E-01
   -.346E+02 0.341E+01 0.123E+02   0.357E+02 -.357E+01 -.122E+02   -.111E+01 0.112E+00 -.156E+00   -.883E-02 0.532E-01 -.950E-02
   -.232E+02 0.905E+01 0.605E+03   0.239E+02 -.952E+01 -.608E+03   -.673E+00 0.374E+00 0.378E+01   -.480E-01 0.958E-01 -.105E+00
   -.495E+01 0.344E+01 -.490E+03   0.424E+01 -.365E+01 0.495E+03   0.584E+00 0.904E-01 -.495E+01   0.119E+00 0.101E+00 0.984E-01
   0.166E+02 0.703E+01 0.629E+03   -.174E+02 -.750E+01 -.633E+03   0.819E+00 0.426E+00 0.342E+01   0.159E-02 0.444E-01 0.188E-01
   -.197E+02 0.388E+01 -.625E+03   0.209E+02 -.445E+01 0.628E+03   -.107E+01 0.525E+00 -.335E+01   -.563E-01 0.409E-01 0.142E-01
   0.201E+02 -.162E+00 0.507E+03   -.205E+02 0.991E-01 -.512E+03   0.264E+00 0.404E-01 0.503E+01   0.170E+00 0.198E-01 -.570E-01
   0.251E+02 -.517E+00 -.628E+03   -.259E+02 0.598E+00 0.631E+03   0.781E+00 -.109E+00 -.373E+01   0.492E-01 0.246E-01 -.451E-01
   0.777E+01 -.480E+01 0.488E+03   -.728E+01 0.504E+01 -.493E+03   -.516E+00 -.202E+00 0.505E+01   0.385E-01 -.306E-01 -.237E-01
   0.222E+02 -.965E+01 -.608E+03   -.229E+02 0.999E+01 0.612E+03   0.603E+00 -.300E+00 -.392E+01   0.679E-01 -.331E-01 -.558E-01
   -.266E+02 -.349E+01 0.604E+03   0.277E+02 0.366E+01 -.608E+03   -.106E+01 -.132E+00 0.336E+01   -.703E-01 -.424E-01 -.312E-01
   -.150E+02 -.199E+01 -.495E+03   0.150E+02 0.222E+01 0.500E+03   0.902E-02 -.166E+00 -.480E+01   0.261E-01 -.611E-01 0.719E-01
   0.142E+02 -.705E+01 0.627E+03   -.152E+02 0.759E+01 -.630E+03   0.980E+00 -.561E+00 0.339E+01   0.268E-01 0.264E-01 0.905E-01
   -.204E+02 -.449E+01 -.604E+03   0.220E+02 0.508E+01 0.606E+03   -.144E+01 -.596E+00 -.293E+01   -.171E+00 0.141E-01 0.585E-02
   0.684E+01 -.134E+00 0.567E+03   -.887E+01 0.123E+00 -.570E+03   0.200E+01 0.896E-01 0.306E+01   0.106E-01 -.764E-01 -.133E-01
   -.821E+01 0.160E+01 -.564E+03   0.106E+02 -.159E+01 0.567E+03   -.220E+01 0.528E-01 -.295E+01   -.187E+00 -.628E-01 0.119E+00
   0.980E+01 0.542E+01 0.483E+03   -.995E+01 -.554E+01 -.488E+03   0.804E-01 0.975E-01 0.478E+01   0.748E-01 0.152E-01 -.665E-01
   0.226E+02 0.103E+02 -.604E+03   -.234E+02 -.107E+02 0.607E+03   0.767E+00 0.390E+00 -.377E+01   0.373E-02 0.129E-01 0.910E-02
   -.217E+02 -.643E+01 0.592E+03   0.228E+02 0.664E+01 -.595E+03   -.932E+00 -.143E+00 0.344E+01   -.141E+00 -.643E-01 -.929E-01
   -.381E+01 -.199E+01 -.484E+03   0.281E+01 0.190E+01 0.488E+03   0.859E+00 0.140E+00 -.473E+01   0.133E+00 -.435E-01 0.136E+00
 -----------------------------------------------------------------------------------------------
   0.740E+00 -.394E-01 -.532E+00   0.462E-13 0.955E-14 -.114E-12   -.662E+00 0.227E-01 0.419E+00   -.729E-01 0.170E-01 0.109E+00
 
 
 POSITION                                       TOTAL-FORCE (eV/Angst)
 -----------------------------------------------------------------------------------
     -0.26610      6.39331     -0.05111        -0.007613      0.003331     -0.005223
     -0.33471     -0.00870     -0.08558        -0.014912      0.000146     -0.034531
      3.10633      4.79308      0.08826         0.028562      0.002601      0.027350
      5.56550      6.59437     -0.00198        -0.010332     -0.016855      0.002196
      5.52819      3.01754     -0.00305        -0.003457      0.010637     -0.001319
     -2.81938      4.77707     -0.00740         0.005141      0.008529     -0.004615
     -5.26496      3.22208      0.04776         0.001141     -0.016576      0.002157
      3.08385      1.56231      0.05557         0.003087      0.011183     -0.003446
     -0.29580      3.22649     -0.04415         0.003145      0.004190     -0.010442
     -0.95470      1.59106     28.34208        -0.004726      0.000682     -0.008056
      0.90791      1.56021      1.28758        -0.008160     -0.010011     -0.012105
     -3.67967      3.21982     28.30386        -0.001784      0.000059      0.004699
     -1.87803      3.23135      1.68325         0.002554      0.002431      0.006051
     -6.51692      4.79445     28.65358        -0.002262     -0.002843      0.011314
     -4.60434      4.79291      1.72195         0.005688     -0.003327      0.002334
      1.87548      3.22791     28.71917         0.004852      0.009457      0.021738
      3.73389      3.19902      1.67074         0.003785      0.004430     -0.000650
     -0.92452      4.83791     28.35055        -0.001185     -0.002136     -0.001692
      0.95088      4.82344      1.31092         0.002566      0.001072     -0.008827
     -3.68048      6.36625     28.31005        -0.003864      0.001509      0.013129
     -1.81509      6.37487      1.61469         0.004737     -0.000176     -0.007432
      4.66418      4.80130     28.49267        -0.023697      0.002260      0.020253
      6.44954      4.79875      1.49793         0.013515      0.000246     -0.007551
      1.86701      6.36558     28.73450         0.004925     -0.011806      0.015253
      3.73423      6.38995      1.65679         0.002831     -0.007725      0.007510
     -0.92929      7.96732     28.38358         0.001307      0.002783     -0.006299
      0.90031      8.01147      1.26778        -0.005844      0.005908     -0.021797
 -----------------------------------------------------------------------------------
    total drift:                                0.005566      0.000327     -0.003708


--------------------------------------------------------------------------------------------------------



  FREE ENERGIE OF THE ION-ELECTRON SYSTEM (eV)
  ---------------------------------------------------
  free  energy   TOTEN  =      -192.46561312 eV

  energy  without entropy=     -192.34047056  energy(sigma->0) =     -192.40304184
 
 d Force = 0.1010270E-02[ 0.753E-03, 0.127E-02]  d Energy = 0.6243964E-03 0.386E-03
 d Force = 0.6009668E+00[ 0.621E+00, 0.581E+00]  d Ewald  =-0.4232572E+01 0.483E+01


--------------------------------------------------------------------------------------------------------


    POTLOK:  cpu time    0.0452: real time    0.0453


--------------------------------------------------------------------------------------------------------


 Quasi-Newton relaxation of ions (Broydens 2nd method)
  g(Force)  = 0.399E-03   g(Stress)= 0.294E-03

 retain information from N=  3 steps
 eigenvalues of (default step * inverse Hessian matrix)
  average eigenvalue of G=   3.0857
 eigenvalue spectrum of G is  4.4376  4.4376  0.3818


--------------------------------------------------------------------------------------------------------


  
 reached required accuracy - stopping structural energy minimisation
     LOOP+:  cpu time  197.7256: real time  198.2170
    4ORBIT:  cpu time    0.0000: real time    0.0000

 total amount of memory used by VASP on root node   650782. kBytes
========================================================================

   base      :      30000. kBytes
   nonl-proj :     559647. kBytes
   fftplans  :       2414. kBytes
   grid      :      12150. kBytes
   one-center:        419. kBytes
   wavefun   :      46152. kBytes
 
  
  
 General timing and accounting informations for this job:
 ========================================================
  
                  Total CPU time used (sec):     8291.078
                            User time (sec):     8253.384
                          System time (sec):       37.694
                         Elapsed time (sec):     8312.669
  
                   Maximum memory used (kb):      735616.
                   Average memory used (kb):           0.
  
                          Minor page faults:      1366791
                          Major page faults:            4
                 Voluntary context switches:         4935
