 vasp.5.4.1 05Feb16 (build Jul 05 2020 17:13:04) complex                        
  
 executed on           IFC91_ompi date 2024.08.23  03:22:47
 running on   40 total cores
 distrk:  each k-point on   40 cores,    1 groups
 distr:  one band on NCORES_PER_BAND=   1 cores,   40 groups


--------------------------------------------------------------------------------------------------------


 INCAR:
 POTCAR:   PAW_PBE V 08Apr2002                    
 POTCAR:   PAW_PBE Mo 08Apr2002                   
 POTCAR:   PAW_PBE W 08Apr2002                    
 POTCAR:    PAW_PBE S 17Jan2003                   

 ----------------------------------------------------------------------------- 
|                                                                             |
|           W    W    AA    RRRRR   N    N  II  N    N   GGGG   !!!           |
|           W    W   A  A   R    R  NN   N  II  NN   N  G    G  !!!           |
|           W    W  A    A  R    R  N N  N  II  N N  N  G       !!!           |
|           W WW W  AAAAAA  RRRRR   N  N N  II  N  N N  G  GGG   !            |
|           WW  WW  A    A  R   R   N   NN  II  N   NN  G    G                |
|           W    W  A    A  R    R  N    N  II  N    N   GGGG   !!!           |
|                                                                             |
|      For optimal performance we recommend to set                            |
|        NCORE= 4 - approx SQRT( number of cores)                             |
|      NCORE specifies how many cores store one orbital (NPAR=cpu/NCORE).     |
|      This setting can  greatly improve the performance of VASP for DFT.     |
|      The default, NPAR=number of cores might be grossly inefficient         |
|      on modern multi-core architectures or massively parallel machines.     |
|      Do your own testing !!!!                                               |
|      Unfortunately you need to use the default for GW and RPA calculations. |
|      (for HF NCORE is supported but not extensively tested yet)             |
|                                                                             |
 ----------------------------------------------------------------------------- 

 POTCAR:   PAW_PBE V 08Apr2002                    
   VRHFIN =V: p6 d4 s1                                                          
   LEXCH  = PE                                                                  
   EATOM  =   170.8679 eV,   12.5584 Ry                                         
                                                                                
   TITEL  = PAW_PBE V 08Apr2002                                                 
   LULTRA =        F    use ultrasoft PP ?                                      
   IUNSCR =        1    unscreen: 0-lin 1-nonlin 2-no                           
   RPACOR =    2.000    partial core radius                                     
   POMASS =   50.941; ZVAL   =    5.000    mass and valenz                      
   RCORE  =    2.700    outmost cutoff radius                                   
   RWIGS  =    2.500; RWIGS  =    1.323    wigner-seitz radius (au A)           
   ENMAX  =  192.543; ENMIN  =  144.408 eV                                      
   RCLOC  =    1.779    cutoff for local pot                                    
   LCOR   =        T    correct aug charges                                     
   LPAW   =        T    paw PP                                                  
   EAUG   =  358.662                                                            
   DEXC   =    -.034                                                            
   RMAX   =    3.323    core radius for proj-oper                               
   RAUG   =    1.300    factor for augmentation sphere                          
   RDEP   =    2.762    radius for radial grids                                 
   QCUT   =   -3.762; QGAM   =    7.524    optimization parameters              
                                                                                
   Description                                                                  
     l     E      TYP  RCUT    TYP  RCUT                                        
     2   .000     23  2.700                                                     
     2   .000     23  2.700                                                     
     0   .000     23  2.700                                                     
     0  2.000     23  2.700                                                     
     1   .000     23  2.700                                                     
     1  2.000     23  2.700                                                     
     3   .000      7   .000                                                     
  local pseudopotential read in
  partial core-charges read in
  atomic valenz-charges read in
  non local Contribution for L=           2  read in
    real space projection operators read in
  non local Contribution for L=           2  read in
    real space projection operators read in
  non local Contribution for L=           0  read in
    real space projection operators read in
  non local Contribution for L=           0  read in
    real space projection operators read in
  non local Contribution for L=           1  read in
    real space projection operators read in
  non local Contribution for L=           1  read in
    real space projection operators read in
    PAW grid and wavefunctions read in
 
   number of l-projection  operators is LMAX  =           6
   number of lm-projection operators is LMMAX =          18
 
 POTCAR:   PAW_PBE Mo 08Apr2002                   
   VRHFIN =Mo: 4p5s4d                                                           
   LEXCH  = PE                                                                  
   EATOM  =   217.5180 eV,   15.9871 Ry                                         
                                                                                
   TITEL  = PAW_PBE Mo 08Apr2002                                                
   LULTRA =        F    use ultrasoft PP ?                                      
   IUNSCR =        1    unscreen: 0-lin 1-nonlin 2-no                           
   RPACOR =    2.200    partial core radius                                     
   POMASS =   95.940; ZVAL   =    6.000    mass and valenz                      
   RCORE  =    2.750    outmost cutoff radius                                   
   RWIGS  =    2.750; RWIGS  =    1.455    wigner-seitz radius (au A)           
   ENMAX  =  224.584; ENMIN  =  168.438 eV                                      
   RCLOC  =    2.111    cutoff for local pot                                    
   LCOR   =        T    correct aug charges                                     
   LPAW   =        T    paw PP                                                  
   EAUG   =  345.278                                                            
   DEXC   =    -.088                                                            
   RMAX   =    3.077    core radius for proj-oper                               
   RAUG   =    1.300    factor for augmentation sphere                          
   RDEP   =    2.815    radius for radial grids                                 
   QCUT   =   -4.063; QGAM   =    8.126    optimization parameters              
                                                                                
   Description                                                                  
     l     E      TYP  RCUT    TYP  RCUT                                        
     2   .000     23  2.500                                                     
     2   .000     23  2.500                                                     
     0   .000     23  2.600                                                     
     0  1.000     23  2.600                                                     
     1   .400     23  2.750                                                     
     1  2.000     23  2.750                                                     
     3   .000      7   .000                                                     
  local pseudopotential read in
  partial core-charges read in
  atomic valenz-charges read in
  non local Contribution for L=           2  read in
    real space projection operators read in
  non local Contribution for L=           2  read in
    real space projection operators read in
  non local Contribution for L=           0  read in
    real space projection operators read in
  non local Contribution for L=           0  read in
    real space projection operators read in
  non local Contribution for L=           1  read in
    real space projection operators read in
  non local Contribution for L=           1  read in
    real space projection operators read in
    PAW grid and wavefunctions read in
 
   number of l-projection  operators is LMAX  =           6
   number of lm-projection operators is LMMAX =          18
 
 POTCAR:   PAW_PBE W 08Apr2002                    
   VRHFIN =W : 6s5d                                                             
   LEXCH  = PE                                                                  
   EATOM  =   204.6100 eV,   15.0384 Ry                                         
                                                                                
   TITEL  = PAW_PBE W 08Apr2002                                                 
   LULTRA =        F    use ultrasoft PP ?                                      
   IUNSCR =        1    unscreen: 0-lin 1-nonlin 2-no                           
   RPACOR =    2.330    partial core radius                                     
   POMASS =  183.850; ZVAL   =    6.000    mass and valenz                      
   RCORE  =    2.750    outmost cutoff radius                                   
   RWIGS  =    2.750; RWIGS  =    1.455    wigner-seitz radius (au A)           
   ENMAX  =  223.057; ENMIN  =  167.293 eV                                      
   RCLOC  =    2.147    cutoff for local pot                                    
   LCOR   =        T    correct aug charges                                     
   LPAW   =        T    paw PP                                                  
   EAUG   =  373.438                                                            
   DEXC   =    -.060                                                            
   RMAX   =    3.087    core radius for proj-oper                               
   RAUG   =    1.300    factor for augmentation sphere                          
   RDEP   =    2.886    radius for radial grids                                 
   QCUT   =   -4.049; QGAM   =    8.098    optimization parameters              
                                                                                
   Description                                                                  
     l     E      TYP  RCUT    TYP  RCUT                                        
     2   .000     23  2.500                                                     
     2   .000     23  2.500                                                     
     0   .000     23  2.500                                                     
     0   .000     23  2.500                                                     
     1   .200     23  2.750                                                     
     1  2.000     23  2.750                                                     
     3   .000      7   .000                                                     
  local pseudopotential read in
  partial core-charges read in
  atomic valenz-charges read in
  non local Contribution for L=           2  read in
    real space projection operators read in
  non local Contribution for L=           2  read in
    real space projection operators read in
  non local Contribution for L=           0  read in
    real space projection operators read in
  non local Contribution for L=           0  read in
    real space projection operators read in
  non local Contribution for L=           1  read in
    real space projection operators read in
  non local Contribution for L=           1  read in
    real space projection operators read in
    PAW grid and wavefunctions read in
 
   number of l-projection  operators is LMAX  =           6
   number of lm-projection operators is LMMAX =          18
 
 POTCAR:    PAW_PBE S 17Jan2003                   
   VRHFIN =S : s2p4                                                             
   LEXCH  = PE                                                                  
   EATOM  =   276.8230 eV,   20.3459 Ry                                         
                                                                                
   TITEL  = PAW_PBE S 17Jan2003                                                 
   LULTRA =        F    use ultrasoft PP ?                                      
   IUNSCR =        1    unscreen: 0-lin 1-nonlin 2-no                           
   RPACOR =    1.500    partial core radius                                     
   POMASS =   32.066; ZVAL   =    6.000    mass and valenz                      
   RCORE  =    1.900    outmost cutoff radius                                   
   RWIGS  =    2.200; RWIGS  =    1.164    wigner-seitz radius (au A)           
   ENMAX  =  280.000; ENMIN  =  194.016 eV                                      
   ICORE  =        2    local potential                                         
   LCOR   =        T    correct aug charges                                     
   LPAW   =        T    paw PP                                                  
   EAUG   =  335.092                                                            
   DEXC   =     .000                                                            
   RMAX   =    2.867    core radius for proj-oper                               
   RAUG   =    1.300    factor for augmentation sphere                          
   RDEP   =    1.954    radius for radial grids                                 
   QCUT   =   -4.360; QGAM   =    8.721    optimization parameters              
                                                                                
   Description                                                                  
     l     E      TYP  RCUT    TYP  RCUT                                        
     0   .000     23  1.900                                                     
     0   .000     23  1.900                                                     
     1   .000     23  1.900                                                     
     1   .000     23  1.900                                                     
     2   .000     23  1.900                                                     
  local pseudopotential read in
  partial core-charges read in
  atomic valenz-charges read in
  non local Contribution for L=           0  read in
    real space projection operators read in
  non local Contribution for L=           0  read in
    real space projection operators read in
  non local Contribution for L=           1  read in
    real space projection operators read in
  non local Contribution for L=           1  read in
    real space projection operators read in
    PAW grid and wavefunctions read in
 
   number of l-projection  operators is LMAX  =           4
   number of lm-projection operators is LMMAX =           8
 

 ----------------------------------------------------------------------------- 
|                                                                             |
|  ADVICE TO THIS USER RUNNING 'VASP/VAMP'   (HEAR YOUR MASTER'S VOICE ...):  |
|                                                                             |
|      You have a (more or less) 'large supercell' and for larger cells       |
|      it might be more efficient to use real space projection operators      |
|      So try LREAL= Auto  in the INCAR   file.                               |
|      Mind: If you want to do a very accurate calculations keep the          |
|      reciprocal projection scheme          (i.e. LREAL=.FALSE.)             |
|                                                                             |
 ----------------------------------------------------------------------------- 

 PAW_PBE V 08Apr2002                    :
 energy of atom  1       EATOM= -170.8679
 kinetic energy error for atom=    0.0047 (will be added to EATOM!!)
 PAW_PBE Mo 08Apr2002                   :
 energy of atom  2       EATOM= -217.5180
 kinetic energy error for atom=    0.0215 (will be added to EATOM!!)
 PAW_PBE W 08Apr2002                    :
 energy of atom  3       EATOM= -204.6100
 kinetic energy error for atom=    0.0205 (will be added to EATOM!!)
  PAW_PBE S 17Jan2003                   :
 energy of atom  4       EATOM= -276.8230
 kinetic energy error for atom=    0.0122 (will be added to EATOM!!)
 
 
 POSCAR: crystal structure from VMoWS2 with Hexag
  positions in cartesian coordinates
  No initial velocities read in
 exchange correlation table for  LEXCH =        8
   RHO(1)=    0.500       N(1)  =     2000
   RHO(2)=  100.500       N(2)  =     4000
 


--------------------------------------------------------------------------------------------------------


 ion  position               nearest neighbor table
   1  0.333  0.667  0.000-  15 2.34  18 2.34  20 2.36  21 2.36  13 2.36  12 2.36
   2  0.000  0.000  0.000-  23 2.34  14 2.34  11 2.36  10 2.36  27 2.36  26 2.36
   3  0.333  0.333  0.000-  13 2.34  16 2.34  19 2.36  18 2.36  11 2.36  10 2.36
   4  0.000  0.667  0.000-  27 2.34  12 2.34  14 2.36  15 2.36  24 2.36  25 2.36   9 3.34   7 3.34
                             6 3.36   5 3.36
   5  0.667  0.333  0.000-  19 2.34  22 2.34  25 2.36  24 2.36  17 2.36  16 2.36   7 3.34   9 3.34
                             8 3.34   4 3.36   6 3.36
   6  0.333  0.000  0.000-  11 2.34  20 2.34  17 2.36  16 2.36  15 2.36  14 2.36   8 3.34   4 3.36
                             5 3.36
   7  1.000  0.333  0.000-  25 2.34  10 2.34  13 2.36  12 2.36  22 2.36  23 2.36   5 3.34   4 3.34
                             8 3.36
   8  0.667  0.000  0.000-  17 2.34  26 2.34  23 2.36  22 2.36  21 2.36  20 2.36   9 3.34   5 3.34
                             6 3.34   7 3.36
   9  0.667  0.667  0.000-  21 2.34  24 2.34  27 2.36  26 2.36  19 2.36  18 2.36   4 3.34   8 3.34
                             5 3.34
  10  0.111  0.222  0.955-   7 2.34   2 2.36   3 2.36
  11  0.222  0.111  0.045-   6 2.34   2 2.36   3 2.36
  12  0.111  0.556  0.955-   4 2.34   7 2.36   1 2.36
  13  0.222  0.444  0.045-   3 2.34   7 2.36   1 2.36
  14  0.111  0.889  0.955-   2 2.34   4 2.36   6 2.36
  15  0.222  0.777  0.045-   1 2.34   4 2.36   6 2.36
  16  0.444  0.222  0.955-   3 2.34   6 2.36   5 2.36
  17  0.556  0.111  0.045-   8 2.34   6 2.36   5 2.36
  18  0.444  0.556  0.955-   1 2.34   3 2.36   9 2.36
  19  0.556  0.444  0.045-   5 2.34   3 2.36   9 2.36
  20  0.444  0.889  0.955-   6 2.34   1 2.36   8 2.36
  21  0.556  0.777  0.045-   9 2.34   1 2.36   8 2.36
  22  0.777  0.222  0.955-   5 2.34   8 2.36   7 2.36
  23  0.889  0.111  0.045-   2 2.34   8 2.36   7 2.36
  24  0.777  0.556  0.955-   9 2.34   5 2.36   4 2.36
  25  0.889  0.444  0.045-   7 2.34   5 2.36   4 2.36
  26  0.777  0.889  0.955-   8 2.34   9 2.36   2 2.36
  27  0.889  0.777  0.045-   4 2.34   9 2.36   2 2.36
 

IMPORTANT INFORMATION: All symmetrisations will be switched off!
NOSYMM: (Re-)initialisation of all symmetry stuff for point group C_1.

 
 
 KPOINTS: K-POINTS 	#supercell of CrS2 in hexagona

Automatic generation of k-mesh.
Space group operators:
 irot       det(A)        alpha          n_x          n_y          n_z        tau_x        tau_y        tau_z
    1     1.000000     0.000000     1.000000     0.000000     0.000000     0.000000     0.000000     0.000000
 
 Subroutine IBZKPT returns following result:
 ===========================================
 
 Found     34 irreducible k-points:
 
 Following reciprocal coordinates:
            Coordinates               Weight
  0.000000  0.000000  0.000000      1.000000
  0.125000  0.000000  0.000000      2.000000
  0.250000  0.000000  0.000000      2.000000
  0.375000  0.000000  0.000000      2.000000
  0.500000  0.000000  0.000000      1.000000
  0.000000  0.125000  0.000000      2.000000
  0.125000  0.125000  0.000000      2.000000
  0.250000  0.125000  0.000000      2.000000
  0.375000  0.125000  0.000000      2.000000
  0.500000  0.125000  0.000000      2.000000
 -0.375000  0.125000  0.000000      2.000000
 -0.250000  0.125000  0.000000      2.000000
 -0.125000  0.125000  0.000000      2.000000
  0.000000  0.250000  0.000000      2.000000
  0.125000  0.250000  0.000000      2.000000
  0.250000  0.250000  0.000000      2.000000
  0.375000  0.250000  0.000000      2.000000
  0.500000  0.250000  0.000000      2.000000
 -0.375000  0.250000  0.000000      2.000000
 -0.250000  0.250000  0.000000      2.000000
 -0.125000  0.250000  0.000000      2.000000
 -0.000000  0.375000  0.000000      2.000000
  0.125000  0.375000  0.000000      2.000000
  0.250000  0.375000  0.000000      2.000000
  0.375000  0.375000  0.000000      2.000000
  0.500000  0.375000  0.000000      2.000000
 -0.375000  0.375000  0.000000      2.000000
 -0.250000  0.375000  0.000000      2.000000
 -0.125000  0.375000  0.000000      2.000000
  0.000000  0.500000  0.000000      1.000000
  0.125000  0.500000  0.000000      2.000000
  0.250000  0.500000  0.000000      2.000000
  0.375000  0.500000  0.000000      2.000000
  0.500000  0.500000  0.000000      1.000000
 
 Following cartesian coordinates:
            Coordinates               Weight
  0.000000  0.000000  0.000000      1.000000
  0.007209  0.012401  0.000000      2.000000
  0.014418  0.024802  0.000000      2.000000
  0.021626  0.037202  0.000000      2.000000
  0.028835  0.049603  0.000000      1.000000
 -0.007209  0.012401  0.000000      2.000000
  0.000000  0.024802  0.000000      2.000000
  0.007209  0.037202  0.000000      2.000000
  0.014418  0.049603  0.000000      2.000000
  0.021626  0.062004  0.000000      2.000000
 -0.028835 -0.024802  0.000000      2.000000
 -0.021626 -0.012401  0.000000      2.000000
 -0.014418  0.000000  0.000000      2.000000
 -0.014418  0.024802  0.000000      2.000000
 -0.007209  0.037202  0.000000      2.000000
  0.000000  0.049603  0.000000      2.000000
  0.007209  0.062004  0.000000      2.000000
  0.014418  0.074405  0.000000      2.000000
 -0.036044 -0.012401  0.000000      2.000000
 -0.028835  0.000000  0.000000      2.000000
 -0.021626  0.012401  0.000000      2.000000
 -0.021626  0.037202  0.000000      2.000000
 -0.014418  0.049603  0.000000      2.000000
 -0.007209  0.062004  0.000000      2.000000
  0.000000  0.074405  0.000000      2.000000
  0.007209  0.086806  0.000000      2.000000
 -0.043253  0.000000  0.000000      2.000000
 -0.036044  0.012401  0.000000      2.000000
 -0.028835  0.024802  0.000000      2.000000
 -0.028835  0.049603  0.000000      1.000000
 -0.021626  0.062004  0.000000      2.000000
 -0.014418  0.074405  0.000000      2.000000
 -0.007209  0.086806  0.000000      2.000000
  0.000000  0.099206  0.000000      1.000000
 


--------------------------------------------------------------------------------------------------------




 Dimension of arrays:
   k-points           NKPTS =     34   k-points in BZ     NKDIM =     34   number of bands    NBANDS=    120
   number of dos      NEDOS =    301   number of ions     NIONS =     27
   non local maximal  LDIM  =      6   non local SUM 2l+1 LMDIM =     18
   total plane-waves  NPLWV = 222264
   max r-space proj   IRMAX =      1   max aug-charges    IRDMAX=   5642
   dimension x,y,z NGX =    42 NGY =   42 NGZ =  126
   dimension x,y,z NGXF=    84 NGYF=   84 NGZF=  252
   support grid    NGXF=    84 NGYF=   84 NGZF=  252
   ions per type =               3   3   3  18
 NGX,Y,Z   is equivalent  to a cutoff of   6.96,  6.96,  6.98 a.u.
 NGXF,Y,Z  is equivalent  to a cutoff of  13.92, 13.92, 13.96 a.u.


 I would recommend the setting:
   dimension x,y,z NGX =    41 NGY =   41 NGZ =  123
 SYSTEM =  unknown system                          
 POSCAR =  crystal structure from VMoWS2 with Hexag

 Startparameter for this run:
   NWRITE =      2    write-flag & timer
   PREC   = normal    normal or accurate (medium, high low for compatibility)
   ISTART =      0    job   : 0-new  1-cont  2-samecut
   ICHARG =      2    charge: 1-file 2-atom 10-const
   ISPIN  =      1    spin polarized calculation?
   LNONCOLLINEAR =      F non collinear calculations
   LSORBIT =      F    spin-orbit coupling
   INIWAV =      1    electr: 0-lowe 1-rand  2-diag
   LASPH  =      F    aspherical Exc in radial PAW
   METAGGA=      F    non-selfconsistent MetaGGA calc.

 Electronic Relaxation 1
   ENCUT  =  280.0 eV  20.58 Ry    4.54 a.u.  13.68 13.68 40.93*2*pi/ulx,y,z
   ENINI  =  280.0     initial cutoff
   ENAUG  =  373.4 eV  augmentation charge cutoff
   NELM   =     60;   NELMIN=  2; NELMDL= -5     # of ELM steps 
   EDIFF  = 0.1E-03   stopping-criterion for ELM
   LREAL  =      F    real-space projection
   NLSPLINE    = F    spline interpolate recip. space projectors
   LCOMPAT=      F    compatible to vasp.4.4
   GGA_COMPAT  = T    GGA compatible to vasp.4.4-vasp.4.6
   LMAXPAW     = -100 max onsite density
   LMAXMIX     =    2 max onsite mixed and CHGCAR
   VOSKOWN=      0    Vosko Wilk Nusair interpolation
   ROPT   =    0.00000   0.00000   0.00000   0.00000
 Ionic relaxation
   EDIFFG = 0.1E-02   stopping-criterion for IOM
   NSW    =    100    number of steps for IOM
   NBLOCK =      1;   KBLOCK =    100    inner block; outer block 
   IBRION =      1    ionic relax: 0-MD 1-quasi-New 2-CG
   NFREE  =      0    steps in history (QN), initial steepest desc. (CG)
   ISIF   =      3    stress and relaxation
   IWAVPR =     11    prediction:  0-non 1-charg 2-wave 3-comb
   ISYM   =      0    0-nonsym 1-usesym 2-fastsym
   LCORR  =      T    Harris-Foulkes like correction to forces

   POTIM  = 0.5000    time-step for ionic-motion
   TEIN   =    0.0    initial temperature
   TEBEG  =    0.0;   TEEND  =   0.0 temperature during run
   SMASS  =  -3.00    Nose mass-parameter (am)
   estimated Nose-frequenzy (Omega)   =  0.10E-29 period in steps =****** mass=  -0.230E-26a.u.
   SCALEE = 1.0000    scale energy and forces
   NPACO  =    256;   APACO  = 16.0  distance and # of slots for P.C.
   PSTRESS=    0.0 pullay stress

  Mass of Ions in am
   POMASS =  50.94 95.94183.85 32.07
  Ionic Valenz
   ZVAL   =   5.00  6.00  6.00  6.00
  Atomic Wigner-Seitz radii
   RWIGS  =  -1.00 -1.00 -1.00 -1.00
  virtual crystal weights 
   VCA    =   1.00  1.00  1.00  1.00
   NELECT =     159.0000    total number of electrons
   NUPDOWN=      -1.0000    fix difference up-down

 DOS related values:
   EMIN   =  10.00;   EMAX   =-10.00  energy-range for DOS
   EFERMI =   0.00
   ISMEAR =     0;   SIGMA  =   0.20  broadening in eV -4-tet -1-fermi 0-gaus

 Electronic relaxation 2 (details)
   IALGO  =     38    algorithm
   LDIAG  =      T    sub-space diagonalisation (order eigenvalues)
   LSUBROT=      F    optimize rotation matrix (better conditioning)
   TURBO    =      0    0=normal 1=particle mesh
   IRESTART =      0    0=no restart 2=restart with 2 vectors
   NREBOOT  =      0    no. of reboots
   NMIN     =      0    reboot dimension
   EREF     =   0.00    reference energy to select bands
   IMIX   =      4    mixing-type and parameters
     AMIX     =   0.40;   BMIX     =  1.00
     AMIX_MAG =   1.60;   BMIX_MAG =  1.00
     AMIN     =   0.10
     WC   =   100.;   INIMIX=   1;  MIXPRE=   1;  MAXMIX= -45

 Intra band minimization:
   WEIMIN = 0.0010     energy-eigenvalue tresh-hold
   EBREAK =  0.21E-06  absolut break condition
   DEPER  =   0.30     relativ break condition  

   TIME   =   0.40     timestep for ELM

  volume/ion in A,a.u.               =      97.10       655.29
  Fermi-wavevector in a.u.,A,eV,Ry     =   0.643191  1.215456  5.628665  0.413695
  Thomas-Fermi vector in A             =   1.710110
 
 Write flags
   LWAVE  =      F    write WAVECAR
   LCHARG =      F    write CHGCAR
   LVTOT  =      F    write LOCPOT, total local potential
   LVHAR  =      F    write LOCPOT, Hartree potential only
   LELF   =      F    write electronic localiz. function (ELF)
   LORBIT =      0    0 simple, 1 ext, 2 COOP (PROOUT)


 Dipole corrections
   LMONO  =      F    monopole corrections only (constant potential shift)
   LDIPOL =      F    correct potential (dipole corrections)
   IDIPOL =      0    1-x, 2-y, 3-z, 4-all directions 
   EPSILON=  1.0000000 bulk dielectric constant

 Exchange correlation treatment:
   GGA     =    --    GGA type
   LEXCH   =     8    internal setting for exchange type
   VOSKOWN=      0    Vosko Wilk Nusair interpolation
   LHFCALC =     F    Hartree Fock is set to
   LHFONE  =     F    Hartree Fock one center treatment
   AEXX    =    0.0000 exact exchange contribution

 Linear response parameters
   LEPSILON=     F    determine dielectric tensor
   LRPA    =     F    only Hartree local field effects (RPA)
   LNABLA  =     F    use nabla operator in PAW spheres
   LVEL    =     F    velocity operator in full k-point grid
   LINTERFAST=   F  fast interpolation
   KINTER  =     0    interpolate to denser k-point grid
   CSHIFT  =0.1000    complex shift for real part using Kramers Kronig
   OMEGAMAX=  -1.0    maximum frequency
   DEG_THRESHOLD= 0.2000000E-02 threshold for treating states as degnerate
   RTIME   =    0.100 relaxation time in fs

 Orbital magnetization related:
   ORBITALMAG=     F  switch on orbital magnetization
   LCHIMAG   =     F  perturbation theory with respect to B field
   DQ        =  0.001000  dq finite difference perturbation B field



--------------------------------------------------------------------------------------------------------


 quasi-Newton-method for relaxation of ions
 charge density and potential will be updated during run
 non-spin polarized calculation
 Variant of blocked Davidson
 Davidson routine will perform the subspace rotation
 perform sub-space diagonalisation
    after iterative eigenvector-optimisation
 modified Broyden-mixing scheme, WC =      100.0
 initial mixing is a Kerker type mixing with AMIX =  0.4000 and BMIX =      1.0000
 Hartree-type preconditioning will be used
 using additional bands           40
 reciprocal scheme for non local part
 use partial core corrections
 calculate Harris-corrections to forces 
   (improved forces if not selfconsistent)
 use gradient corrections 
 use of overlap-Matrix (Vanderbilt PP)
 Gauss-broadening in eV      SIGMA  =   0.20


--------------------------------------------------------------------------------------------------------


  energy-cutoff  :      280.00
  volume of cell :     2621.81
      direct lattice vectors                 reciprocal lattice vectors
     8.669999960  5.039999894  0.000000000     0.057670129  0.099206348  0.000000000
    -8.669999821  5.040000133  0.000000000    -0.057670126  0.099206350  0.000000000
     0.000000000  0.000000000 30.000000000     0.000000000  0.000000000  0.033333333

  length of vectors
    10.028484344 10.028484344 30.000000000     0.114750788  0.114750788  0.033333333


 
 k-points in units of 2pi/SCALE and weight: K-POINTS 	#supercell of CrS2 in hexagona
   0.00000000  0.00000000  0.00000000       0.016
   0.00720877  0.01240079  0.00000000       0.031
   0.01441753  0.02480159  0.00000000       0.031
   0.02162630  0.03720238  0.00000000       0.031
   0.02883506  0.04960317  0.00000000       0.016
  -0.00720877  0.01240079  0.00000000       0.031
   0.00000000  0.02480159  0.00000000       0.031
   0.00720877  0.03720238  0.00000000       0.031
   0.01441753  0.04960317  0.00000000       0.031
   0.02162630  0.06200397  0.00000000       0.031
  -0.02883506 -0.02480159  0.00000000       0.031
  -0.02162630 -0.01240079  0.00000000       0.031
  -0.01441753  0.00000000  0.00000000       0.031
  -0.01441753  0.02480159  0.00000000       0.031
  -0.00720877  0.03720238  0.00000000       0.031
   0.00000000  0.04960317  0.00000000       0.031
   0.00720877  0.06200397  0.00000000       0.031
   0.01441753  0.07440476  0.00000000       0.031
  -0.03604383 -0.01240079  0.00000000       0.031
  -0.02883506  0.00000000  0.00000000       0.031
  -0.02162630  0.01240079  0.00000000       0.031
  -0.02162630  0.03720238  0.00000000       0.031
  -0.01441753  0.04960317  0.00000000       0.031
  -0.00720877  0.06200397  0.00000000       0.031
   0.00000000  0.07440476  0.00000000       0.031
   0.00720877  0.08680556  0.00000000       0.031
  -0.04325260  0.00000000  0.00000000       0.031
  -0.03604383  0.01240079  0.00000000       0.031
  -0.02883506  0.02480159  0.00000000       0.031
  -0.02883506  0.04960317  0.00000000       0.016
  -0.02162630  0.06200397  0.00000000       0.031
  -0.01441753  0.07440476  0.00000000       0.031
  -0.00720876  0.08680556  0.00000000       0.031
   0.00000000  0.09920635  0.00000000       0.016
 
 k-points in reciprocal lattice and weights: K-POINTS 	#supercell of CrS2 in hexagona
   0.00000000  0.00000000  0.00000000       0.016
   0.12500000  0.00000000  0.00000000       0.031
   0.25000000  0.00000000  0.00000000       0.031
   0.37500000  0.00000000  0.00000000       0.031
   0.50000000  0.00000000  0.00000000       0.016
   0.00000000  0.12500000  0.00000000       0.031
   0.12500000  0.12500000  0.00000000       0.031
   0.25000000  0.12500000  0.00000000       0.031
   0.37500000  0.12500000  0.00000000       0.031
   0.50000000  0.12500000  0.00000000       0.031
  -0.37500000  0.12500000  0.00000000       0.031
  -0.25000000  0.12500000  0.00000000       0.031
  -0.12500000  0.12500000  0.00000000       0.031
   0.00000000  0.25000000  0.00000000       0.031
   0.12500000  0.25000000  0.00000000       0.031
   0.25000000  0.25000000  0.00000000       0.031
   0.37500000  0.25000000  0.00000000       0.031
   0.50000000  0.25000000  0.00000000       0.031
  -0.37500000  0.25000000  0.00000000       0.031
  -0.25000000  0.25000000  0.00000000       0.031
  -0.12500000  0.25000000  0.00000000       0.031
  -0.00000000  0.37500000  0.00000000       0.031
   0.12500000  0.37500000  0.00000000       0.031
   0.25000000  0.37500000  0.00000000       0.031
   0.37500000  0.37500000  0.00000000       0.031
   0.50000000  0.37500000  0.00000000       0.031
  -0.37500000  0.37500000  0.00000000       0.031
  -0.25000000  0.37500000  0.00000000       0.031
  -0.12500000  0.37500000  0.00000000       0.031
   0.00000000  0.50000000  0.00000000       0.016
   0.12500000  0.50000000  0.00000000       0.031
   0.25000000  0.50000000  0.00000000       0.031
   0.37500000  0.50000000  0.00000000       0.031
   0.50000000  0.50000000  0.00000000       0.016
 
 position of ions in fractional coordinates (direct lattice) 
   0.33333334  0.66666669  0.00000000
   0.00000000  0.00000000  0.00000000
   0.33333334  0.33333334  0.00000000
   0.00000000  0.66666669  0.00000000
   0.66666669  0.33333334  0.00000000
   0.33333334  0.00000000  0.00000000
   1.00000000  0.33333334  0.00000000
   0.66666669  0.00000000  0.00000000
   0.66666669  0.66666669  0.00000000
   0.11068511  0.22244981  0.95539999
   0.22244981  0.11068511  0.04460000
   0.11068511  0.55578315  0.95539999
   0.22244981  0.44401845  0.04460000
   0.11068511  0.88911647  0.95539999
   0.22244981  0.77735180  0.04460000
   0.44401845  0.22244981  0.95539999
   0.55578315  0.11068511  0.04460000
   0.44401845  0.55578315  0.95539999
   0.55578315  0.44401845  0.04460000
   0.44401845  0.88911647  0.95539999
   0.55578315  0.77735180  0.04460000
   0.77735180  0.22244981  0.95539999
   0.88911647  0.11068511  0.04460000
   0.77735180  0.55578315  0.95539999
   0.88911647  0.44401845  0.04460000
   0.77735180  0.88911647  0.95539999
   0.88911647  0.77735180  0.04460000
 
 position of ions in cartesian coordinates  (Angst):
  -2.88999998  5.04000020  0.00000000
   0.00000000  0.00000000  0.00000000
   0.00000005  3.36000011  0.00000000
  -5.78000005  3.36000019  0.00000000
   2.89000012  5.04000012  0.00000000
   2.89000007  1.68000002  0.00000000
   5.77999993  6.71999999  0.00000000
   5.78000015  3.36000003  0.00000000
   0.00000009  6.72000022  0.00000000
  -0.96899991  1.67900001 28.66199970
   0.96899995  1.67899998  1.33799996
  -3.85899993  3.35900011 28.66199970
  -1.92100007  3.35900008  1.33799996
  -6.74899970  5.03900005 28.66199970
  -4.81100010  5.03900017  1.33799996
   1.92100017  3.35900003 28.66199970
   3.85900003  3.35900000  1.33799996
  -0.96899986  5.03900012 28.66199970
   0.96900000  5.03900009  1.33799996
  -3.85899963  6.71900006 28.66199970
  -1.92100003  6.71900019  1.33799996
   4.81100024  5.03900004 28.66199970
   6.74899984  5.03899987  1.33799996
   1.92100021  6.71900014 28.66199970
   3.85899981  6.71899996  1.33799996
  -0.96899956  8.39900008 28.66199970
   0.96899979  8.39900005  1.33799996
 


--------------------------------------------------------------------------------------------------------


 k-point  1 :   0.0000 0.0000 0.0000  plane waves:   27959
 k-point  2 :   0.1250 0.0000 0.0000  plane waves:   27889
 k-point  3 :   0.2500 0.0000 0.0000  plane waves:   27875
 k-point  4 :   0.3750 0.0000 0.0000  plane waves:   27893
 k-point  5 :   0.5000 0.0000 0.0000  plane waves:   27932
 k-point  6 :   0.0000 0.1250 0.0000  plane waves:   27889
 k-point  7 :   0.1250 0.1250 0.0000  plane waves:   27906
 k-point  8 :   0.2500 0.1250 0.0000  plane waves:   27898
 k-point  9 :   0.3750 0.1250 0.0000  plane waves:   27888
 k-point 10 :   0.5000 0.1250 0.0000  plane waves:   27873
 k-point 11 :  -0.3750 0.1250 0.0000  plane waves:   27874
 k-point 12 :  -0.2500 0.1250 0.0000  plane waves:   27895
 k-point 13 :  -0.1250 0.1250 0.0000  plane waves:   27879
 k-point 14 :   0.0000 0.2500 0.0000  plane waves:   27875
 k-point 15 :   0.1250 0.2500 0.0000  plane waves:   27898
 k-point 16 :   0.2500 0.2500 0.0000  plane waves:   27920
 k-point 17 :   0.3750 0.2500 0.0000  plane waves:   27901
 k-point 18 :   0.5000 0.2500 0.0000  plane waves:   27875
 k-point 19 :  -0.3750 0.2500 0.0000  plane waves:   27894
 k-point 20 :  -0.2500 0.2500 0.0000  plane waves:   27870
 k-point 21 :  -0.1250 0.2500 0.0000  plane waves:   27895
 k-point 22 :  -0.0000 0.3750 0.0000  plane waves:   27893
 k-point 23 :   0.1250 0.3750 0.0000  plane waves:   27888
 k-point 24 :   0.2500 0.3750 0.0000  plane waves:   27901
 k-point 25 :   0.3750 0.3750 0.0000  plane waves:   27860
 k-point 26 :   0.5000 0.3750 0.0000  plane waves:   27895
 k-point 27 :  -0.3750 0.3750 0.0000  plane waves:   27858
 k-point 28 :  -0.2500 0.3750 0.0000  plane waves:   27894
 k-point 29 :  -0.1250 0.3750 0.0000  plane waves:   27874
 k-point 30 :   0.0000 0.5000 0.0000  plane waves:   27932
 k-point 31 :   0.1250 0.5000 0.0000  plane waves:   27873
 k-point 32 :   0.2500 0.5000 0.0000  plane waves:   27875
 k-point 33 :   0.3750 0.5000 0.0000  plane waves:   27895
 k-point 34 :   0.5000 0.5000 0.0000  plane waves:   27910

 maximum and minimum number of plane-waves per node :     27959    27858

 maximum number of plane-waves:     27959
 maximum index in each direction: 
   IXMAX=   14   IYMAX=   13   IZMAX=   40
   IXMIN=  -14   IYMIN=  -14   IZMIN=  -40

 WARNING: aliasing errors must be expected set NGX to  58 to avoid them
 WARNING: aliasing errors must be expected set NGY to  56 to avoid them
 WARNING: aliasing errors must be expected set NGZ to 162 to avoid them
 aliasing errors are usually negligible using standard VASP settings
 and one can safely disregard these warnings

 serial   3D FFT for wavefunctions

 total amount of memory used by VASP on root node   650782. kBytes
========================================================================

   base      :      30000. kBytes
   nonl-proj :     559647. kBytes
   fftplans  :       2414. kBytes
   grid      :      12150. kBytes
   one-center:        419. kBytes
   wavefun   :      46152. kBytes
 
     INWAV:  cpu time    0.0000: real time    0.0000
 Broyden mixing: mesh for mixing (old mesh)
   NGX = 27   NGY = 27   NGZ = 81
  (NGX  = 84   NGY  = 84   NGZ  =252)
  gives a total of  59049 points

 initial charge density was supplied:
 charge density of overlapping atoms calculated
 number of electron     159.0000000 magnetization 
 keeping initial charge density in first step


--------------------------------------------------------------------------------------------------------


 Maximum index for augmentation-charges          146 (set IRDMAX)


--------------------------------------------------------------------------------------------------------


 First call to EWALD:  gamma=   0.129
 Maximum number of real-space cells 4x 4x 2
 Maximum number of reciprocal cells 2x 2x 5

 FEWALD executed in parallel
    FEWALD:  cpu time    0.0015: real time    0.0016


----------------------------------------- Iteration    1(   1)  ---------------------------------------


    POTLOK:  cpu time    0.0367: real time    0.0368
    SETDIJ:  cpu time    0.0032: real time    0.0033
     EDDAV:  cpu time   21.6290: real time   21.6846
       DOS:  cpu time    0.0018: real time    0.0019
    --------------------------------------------
      LOOP:  cpu time   21.6753: real time   21.7341

 eigenvalue-minimisations  :  8160
 total energy-change (2. order) : 0.1125989E+04  (-0.3597940E+04)
 number of electron     159.0000000 magnetization 
 augmentation part      159.0000000 magnetization 

 Free energy of the ion-electron system (eV)
  ---------------------------------------------------
  alpha Z        PSCENC =        81.65567618
  Ewald energy   TEWEN  =     41890.23011080
  -Hartree energ DENC   =    -47722.85863103
  -exchange      EXHF   =         0.00000000
  -V(xc)+E(xc)   XCENC  =      -242.92963144
  PAW double counting   =      3467.42045192    -2871.19716117
  entropy T*S    EENTRO =        -0.52950814
  eigenvalues    EBANDS =      -237.24446929
  atomic energy  EATOM  =      6761.44252427
  Solvation  Ediel_sol  =         0.00000000
  ---------------------------------------------------
  free energy    TOTEN  =      1125.98936210 eV

  energy without entropy =     1126.51887024  energy(sigma->0) =     1126.25411617


--------------------------------------------------------------------------------------------------------




----------------------------------------- Iteration    1(   2)  ---------------------------------------


     EDDAV:  cpu time   28.1905: real time   28.2584
       DOS:  cpu time    0.0010: real time    0.0010
    --------------------------------------------
      LOOP:  cpu time   28.1923: real time   28.2674

 eigenvalue-minimisations  : 11280
 total energy-change (2. order) :-0.1127993E+04  (-0.1086088E+04)
 number of electron     159.0000000 magnetization 
 augmentation part      159.0000000 magnetization 

 Free energy of the ion-electron system (eV)
  ---------------------------------------------------
  alpha Z        PSCENC =        81.65567618
  Ewald energy   TEWEN  =     41890.23011080
  -Hartree energ DENC   =    -47722.85863103
  -exchange      EXHF   =         0.00000000
  -V(xc)+E(xc)   XCENC  =      -242.92963144
  PAW double counting   =      3467.42045192    -2871.19716117
  entropy T*S    EENTRO =        -0.20265330
  eigenvalues    EBANDS =     -1365.56423902
  atomic energy  EATOM  =      6761.44252427
  Solvation  Ediel_sol  =         0.00000000
  ---------------------------------------------------
  free energy    TOTEN  =        -2.00355279 eV

  energy without entropy =       -1.80089949  energy(sigma->0) =       -1.90222614


--------------------------------------------------------------------------------------------------------




----------------------------------------- Iteration    1(   3)  ---------------------------------------


     EDDAV:  cpu time   27.5411: real time   27.6085
       DOS:  cpu time    0.0010: real time    0.0010
    --------------------------------------------
      LOOP:  cpu time   27.5433: real time   27.6159

 eigenvalue-minimisations  : 10960
 total energy-change (2. order) :-0.1979466E+03  (-0.1902382E+03)
 number of electron     159.0000000 magnetization 
 augmentation part      159.0000000 magnetization 

 Free energy of the ion-electron system (eV)
  ---------------------------------------------------
  alpha Z        PSCENC =        81.65567618
  Ewald energy   TEWEN  =     41890.23011080
  -Hartree energ DENC   =    -47722.85863103
  -exchange      EXHF   =         0.00000000
  -V(xc)+E(xc)   XCENC  =      -242.92963144
  PAW double counting   =      3467.42045192    -2871.19716117
  entropy T*S    EENTRO =        -0.26776162
  eigenvalues    EBANDS =     -1563.44572365
  atomic energy  EATOM  =      6761.44252427
  Solvation  Ediel_sol  =         0.00000000
  ---------------------------------------------------
  free energy    TOTEN  =      -199.95014575 eV

  energy without entropy =     -199.68238412  energy(sigma->0) =     -199.81626493


--------------------------------------------------------------------------------------------------------




----------------------------------------- Iteration    1(   4)  ---------------------------------------


     EDDAV:  cpu time   29.7733: real time   29.8449
       DOS:  cpu time    0.0010: real time    0.0010
    --------------------------------------------
      LOOP:  cpu time   29.7755: real time   29.8521

 eigenvalue-minimisations  : 12080
 total energy-change (2. order) :-0.9002421E+01  (-0.8723499E+01)
 number of electron     159.0000000 magnetization 
 augmentation part      159.0000000 magnetization 

 Free energy of the ion-electron system (eV)
  ---------------------------------------------------
  alpha Z        PSCENC =        81.65567618
  Ewald energy   TEWEN  =     41890.23011080
  -Hartree energ DENC   =    -47722.85863103
  -exchange      EXHF   =         0.00000000
  -V(xc)+E(xc)   XCENC  =      -242.92963144
  PAW double counting   =      3467.42045192    -2871.19716117
  entropy T*S    EENTRO =        -0.29785680
  eigenvalues    EBANDS =     -1572.41804916
  atomic energy  EATOM  =      6761.44252427
  Solvation  Ediel_sol  =         0.00000000
  ---------------------------------------------------
  free energy    TOTEN  =      -208.95256643 eV

  energy without entropy =     -208.65470963  energy(sigma->0) =     -208.80363803


--------------------------------------------------------------------------------------------------------




----------------------------------------- Iteration    1(   5)  ---------------------------------------


     EDDAV:  cpu time   28.5726: real time   28.6428
       DOS:  cpu time    0.0011: real time    0.0011
    CHARGE:  cpu time    0.4595: real time    0.4606
    MIXING:  cpu time    0.0020: real time    0.0020
    --------------------------------------------
      LOOP:  cpu time   29.0364: real time   29.1127

 eigenvalue-minimisations  : 11520
 total energy-change (2. order) :-0.3258698E+00  (-0.3249510E+00)
 number of electron     159.0000111 magnetization 
 augmentation part       -9.7950694 magnetization 

 Broyden mixing:
  rms(total) = 0.27469E+01    rms(broyden)= 0.27465E+01
  rms(prec ) = 0.29322E+01
  weight for this iteration     100.00

 Free energy of the ion-electron system (eV)
  ---------------------------------------------------
  alpha Z        PSCENC =        81.65567618
  Ewald energy   TEWEN  =     41890.23011080
  -Hartree energ DENC   =    -47722.85863103
  -exchange      EXHF   =         0.00000000
  -V(xc)+E(xc)   XCENC  =      -242.92963144
  PAW double counting   =      3467.42045192    -2871.19716117
  entropy T*S    EENTRO =        -0.29459366
  eigenvalues    EBANDS =     -1572.74718207
  atomic energy  EATOM  =      6761.44252427
  Solvation  Ediel_sol  =         0.00000000
  ---------------------------------------------------
  free energy    TOTEN  =      -209.27843619 eV

  energy without entropy =     -208.98384254  energy(sigma->0) =     -209.13113936


--------------------------------------------------------------------------------------------------------




----------------------------------------- Iteration    1(   6)  ---------------------------------------


    POTLOK:  cpu time    0.0338: real time    0.0338
    SETDIJ:  cpu time    0.0025: real time    0.0025
     EDDAV:  cpu time   30.8282: real time   30.9026
       DOS:  cpu time    0.0011: real time    0.0011
    CHARGE:  cpu time    0.4545: real time    0.4556
    MIXING:  cpu time    0.0018: real time    0.0024
    --------------------------------------------
      LOOP:  cpu time   31.3229: real time   31.4061

 eigenvalue-minimisations  : 12680
 total energy-change (2. order) :-0.2789931E+02  (-0.1078000E+02)
 number of electron     159.0000106 magnetization 
 augmentation part        7.0898943 magnetization 

 Broyden mixing:
  rms(total) = 0.59397E+01    rms(broyden)= 0.59390E+01
  rms(prec ) = 0.65214E+01
  weight for this iteration     100.00

 eigenvalues of (default mixing * dielectric matrix)
  average eigenvalue GAMMA=   0.2933
  0.2933

 Free energy of the ion-electron system (eV)
  ---------------------------------------------------
  alpha Z        PSCENC =        81.65567618
  Ewald energy   TEWEN  =     41890.23011080
  -Hartree energ DENC   =    -47701.19762376
  -exchange      EXHF   =         0.00000000
  -V(xc)+E(xc)   XCENC  =      -233.63033206
  PAW double counting   =      3676.44788843    -3082.53759918
  entropy T*S    EENTRO =        -0.27132880
  eigenvalues    EBANDS =     -1629.31705753
  atomic energy  EATOM  =      6761.44252427
  Solvation  Ediel_sol  =         0.00000000
  ---------------------------------------------------
  free energy    TOTEN  =      -237.17774164 eV

  energy without entropy =     -236.90641284  energy(sigma->0) =     -237.04207724


--------------------------------------------------------------------------------------------------------




----------------------------------------- Iteration    1(   7)  ---------------------------------------


    POTLOK:  cpu time    0.0322: real time    0.0322
    SETDIJ:  cpu time    0.0023: real time    0.0023
     EDDAV:  cpu time   32.3827: real time   32.4609
       DOS:  cpu time    0.0009: real time    0.0009
    CHARGE:  cpu time    0.4643: real time    0.4654
    MIXING:  cpu time    0.0012: real time    0.0012
    --------------------------------------------
      LOOP:  cpu time   32.8845: real time   32.9711

 eigenvalue-minimisations  : 13400
 total energy-change (2. order) : 0.4053637E+02  (-0.1777483E+02)
 number of electron     159.0000087 magnetization 
 augmentation part       -6.2232150 magnetization 

 Broyden mixing:
  rms(total) = 0.20370E+01    rms(broyden)= 0.20350E+01
  rms(prec ) = 0.22616E+01
  weight for this iteration     100.00

 eigenvalues of (default mixing * dielectric matrix)
  average eigenvalue GAMMA=   0.5398
  0.8683  0.2112

 Free energy of the ion-electron system (eV)
  ---------------------------------------------------
  alpha Z        PSCENC =        81.65567618
  Ewald energy   TEWEN  =     41890.23011080
  -Hartree energ DENC   =    -47738.73639592
  -exchange      EXHF   =         0.00000000
  -V(xc)+E(xc)   XCENC  =      -235.01337697
  PAW double counting   =      3764.26396276    -3178.30789100
  entropy T*S    EENTRO =        -0.33704824
  eigenvalues    EBANDS =     -1541.83893423
  atomic energy  EATOM  =      6761.44252427
  Solvation  Ediel_sol  =         0.00000000
  ---------------------------------------------------
  free energy    TOTEN  =      -196.64137234 eV

  energy without entropy =     -196.30432410  energy(sigma->0) =     -196.47284822


--------------------------------------------------------------------------------------------------------




----------------------------------------- Iteration    1(   8)  ---------------------------------------


    POTLOK:  cpu time    0.0305: real time    0.0308
    SETDIJ:  cpu time    0.0024: real time    0.0024
     EDDAV:  cpu time   28.9224: real time   28.9921
       DOS:  cpu time    0.0011: real time    0.0011
    CHARGE:  cpu time    0.4669: real time    0.4680
    MIXING:  cpu time    0.0013: real time    0.0017
    --------------------------------------------
      LOOP:  cpu time   29.4258: real time   29.5047

 eigenvalue-minimisations  : 11720
 total energy-change (2. order) : 0.6524472E+01  (-0.2054959E+01)
 number of electron     159.0000095 magnetization 
 augmentation part       -6.4029949 magnetization 

 Broyden mixing:
  rms(total) = 0.13758E+01    rms(broyden)= 0.13753E+01
  rms(prec ) = 0.14869E+01
  weight for this iteration     100.00

 eigenvalues of (default mixing * dielectric matrix)
  average eigenvalue GAMMA=   0.5258
  1.0474  0.2650  0.2650

 Free energy of the ion-electron system (eV)
  ---------------------------------------------------
  alpha Z        PSCENC =        81.65567618
  Ewald energy   TEWEN  =     41890.23011080
  -Hartree energ DENC   =    -47761.60976017
  -exchange      EXHF   =         0.00000000
  -V(xc)+E(xc)   XCENC  =      -235.05142674
  PAW double counting   =      3902.80695683    -3318.40168160
  entropy T*S    EENTRO =        -0.26824012
  eigenvalues    EBANDS =     -1510.92106013
  atomic energy  EATOM  =      6761.44252427
  Solvation  Ediel_sol  =         0.00000000
  ---------------------------------------------------
  free energy    TOTEN  =      -190.11690068 eV

  energy without entropy =     -189.84866056  energy(sigma->0) =     -189.98278062


--------------------------------------------------------------------------------------------------------




----------------------------------------- Iteration    1(   9)  ---------------------------------------


    POTLOK:  cpu time    0.0303: real time    0.0303
    SETDIJ:  cpu time    0.0023: real time    0.0023
     EDDAV:  cpu time   29.7465: real time   29.8177
       DOS:  cpu time    0.0010: real time    0.0010
    CHARGE:  cpu time    0.4828: real time    0.4839
    MIXING:  cpu time    0.0012: real time    0.0012
    --------------------------------------------
      LOOP:  cpu time   30.2649: real time   30.3448

 eigenvalue-minimisations  : 12080
 total energy-change (2. order) : 0.1804026E+01  (-0.3512110E+00)
 number of electron     159.0000094 magnetization 
 augmentation part       -5.7280876 magnetization 

 Broyden mixing:
  rms(total) = 0.93935E+00    rms(broyden)= 0.93891E+00
  rms(prec ) = 0.10109E+01
  weight for this iteration     100.00

 eigenvalues of (default mixing * dielectric matrix)
  average eigenvalue GAMMA=   0.6943
  1.7043  0.5730  0.2199  0.2801

 Free energy of the ion-electron system (eV)
  ---------------------------------------------------
  alpha Z        PSCENC =        81.65567618
  Ewald energy   TEWEN  =     41890.23011080
  -Hartree energ DENC   =    -47765.64505173
  -exchange      EXHF   =         0.00000000
  -V(xc)+E(xc)   XCENC  =      -234.37221693
  PAW double counting   =      3960.88463823    -3377.19455739
  entropy T*S    EENTRO =        -0.32725796
  eigenvalues    EBANDS =     -1504.98674058
  atomic energy  EATOM  =      6761.44252427
  Solvation  Ediel_sol  =         0.00000000
  ---------------------------------------------------
  free energy    TOTEN  =      -188.31287511 eV

  energy without entropy =     -187.98561715  energy(sigma->0) =     -188.14924613


--------------------------------------------------------------------------------------------------------




----------------------------------------- Iteration    1(  10)  ---------------------------------------


    POTLOK:  cpu time    0.0322: real time    0.0323
    SETDIJ:  cpu time    0.0024: real time    0.0025
     EDDAV:  cpu time   32.5847: real time   32.6632
       DOS:  cpu time    0.0010: real time    0.0010
    CHARGE:  cpu time    0.4886: real time    0.4898
    MIXING:  cpu time    0.0013: real time    0.0013
    --------------------------------------------
      LOOP:  cpu time   33.1112: real time   33.1984

 eigenvalue-minimisations  : 13480
 total energy-change (2. order) : 0.1178829E+01  (-0.1783152E+00)
 number of electron     159.0000092 magnetization 
 augmentation part       -4.4092691 magnetization 

 Broyden mixing:
  rms(total) = 0.34809E+00    rms(broyden)= 0.34777E+00
  rms(prec ) = 0.38094E+00
  weight for this iteration     100.00

 eigenvalues of (default mixing * dielectric matrix)
  average eigenvalue GAMMA=   0.6927
  1.8682  0.6121  0.5010  0.2243  0.2578

 Free energy of the ion-electron system (eV)
  ---------------------------------------------------
  alpha Z        PSCENC =        81.65567618
  Ewald energy   TEWEN  =     41890.23011080
  -Hartree energ DENC   =    -47777.84848585
  -exchange      EXHF   =         0.00000000
  -V(xc)+E(xc)   XCENC  =      -232.75479282
  PAW double counting   =      4088.71993371    -3506.66906203
  entropy T*S    EENTRO =        -0.34130405
  eigenvalues    EBANDS =     -1491.56864595
  atomic energy  EATOM  =      6761.44252427
  Solvation  Ediel_sol  =         0.00000000
  ---------------------------------------------------
  free energy    TOTEN  =      -187.13404574 eV

  energy without entropy =     -186.79274169  energy(sigma->0) =     -186.96339372


--------------------------------------------------------------------------------------------------------




----------------------------------------- Iteration    1(  11)  ---------------------------------------


    POTLOK:  cpu time    0.0306: real time    0.0309
    SETDIJ:  cpu time    0.0023: real time    0.0023
     EDDAV:  cpu time   30.7062: real time   30.7800
       DOS:  cpu time    0.0011: real time    0.0011
    CHARGE:  cpu time    0.4951: real time    0.4963
    MIXING:  cpu time    0.0012: real time    0.0012
    --------------------------------------------
      LOOP:  cpu time   31.2379: real time   31.3204

 eigenvalue-minimisations  : 12560
 total energy-change (2. order) : 0.1245234E+00  (-0.6766428E-01)
 number of electron     159.0000092 magnetization 
 augmentation part       -4.2814977 magnetization 

 Broyden mixing:
  rms(total) = 0.23454E+00    rms(broyden)= 0.23416E+00
  rms(prec ) = 0.25725E+00
  weight for this iteration     100.00

 eigenvalues of (default mixing * dielectric matrix)
  average eigenvalue GAMMA=   0.8677
  1.9170  1.9170  0.6147  0.2876  0.2219  0.2480

 Free energy of the ion-electron system (eV)
  ---------------------------------------------------
  alpha Z        PSCENC =        81.65567618
  Ewald energy   TEWEN  =     41890.23011080
  -Hartree energ DENC   =    -47783.80247070
  -exchange      EXHF   =         0.00000000
  -V(xc)+E(xc)   XCENC  =      -232.40173689
  PAW double counting   =      4126.07572390    -3544.33398092
  entropy T*S    EENTRO =        -0.34862446
  eigenvalues    EBANDS =     -1485.52674450
  atomic energy  EATOM  =      6761.44252427
  Solvation  Ediel_sol  =         0.00000000
  ---------------------------------------------------
  free energy    TOTEN  =      -187.00952232 eV

  energy without entropy =     -186.66089787  energy(sigma->0) =     -186.83521009


--------------------------------------------------------------------------------------------------------




----------------------------------------- Iteration    1(  12)  ---------------------------------------


    POTLOK:  cpu time    0.0303: real time    0.0304
    SETDIJ:  cpu time    0.0023: real time    0.0023
     EDDAV:  cpu time   31.4889: real time   31.5644
       DOS:  cpu time    0.0010: real time    0.0010
    CHARGE:  cpu time    0.4932: real time    0.4944
    MIXING:  cpu time    0.0014: real time    0.0014
    --------------------------------------------
      LOOP:  cpu time   32.0181: real time   32.1019

 eigenvalue-minimisations  : 12960
 total energy-change (2. order) :-0.7520299E-02  (-0.4483466E-01)
 number of electron     159.0000089 magnetization 
 augmentation part       -4.4694160 magnetization 

 Broyden mixing:
  rms(total) = 0.32956E+00    rms(broyden)= 0.32946E+00
  rms(prec ) = 0.36522E+00
  weight for this iteration     100.00

 eigenvalues of (default mixing * dielectric matrix)
  average eigenvalue GAMMA=   0.7966
  1.9941  1.9941  0.6168  0.2763  0.2763  0.2132  0.2058

 Free energy of the ion-electron system (eV)
  ---------------------------------------------------
  alpha Z        PSCENC =        81.65567618
  Ewald energy   TEWEN  =     41890.23011080
  -Hartree energ DENC   =    -47796.75604481
  -exchange      EXHF   =         0.00000000
  -V(xc)+E(xc)   XCENC  =      -232.07308786
  PAW double counting   =      4179.90722982    -3598.13551464
  entropy T*S    EENTRO =        -0.33402748
  eigenvalues    EBANDS =     -1472.95390892
  atomic energy  EATOM  =      6761.44252427
  Solvation  Ediel_sol  =         0.00000000
  ---------------------------------------------------
  free energy    TOTEN  =      -187.01704262 eV

  energy without entropy =     -186.68301515  energy(sigma->0) =     -186.85002888


--------------------------------------------------------------------------------------------------------




----------------------------------------- Iteration    1(  13)  ---------------------------------------


    POTLOK:  cpu time    0.0309: real time    0.0310
    SETDIJ:  cpu time    0.0025: real time    0.0025
     EDDAV:  cpu time   32.0634: real time   32.1408
       DOS:  cpu time    0.0002: real time    0.0010
    CHARGE:  cpu time    0.4971: real time    0.4983
    MIXING:  cpu time    0.0014: real time    0.0014
    --------------------------------------------
      LOOP:  cpu time   32.5973: real time   32.6838

 eigenvalue-minimisations  : 13240
 total energy-change (2. order) : 0.8737147E-01  (-0.2554553E-01)
 number of electron     159.0000089 magnetization 
 augmentation part       -4.4078321 magnetization 

 Broyden mixing:
  rms(total) = 0.19103E+00    rms(broyden)= 0.19088E+00
  rms(prec ) = 0.21172E+00
  weight for this iteration     100.00

 eigenvalues of (default mixing * dielectric matrix)
  average eigenvalue GAMMA=   0.7796
  2.2853  1.7045  0.7499  0.5896  0.2993  0.2246  0.2409  0.1432

 Free energy of the ion-electron system (eV)
  ---------------------------------------------------
  alpha Z        PSCENC =        81.65567618
  Ewald energy   TEWEN  =     41890.23011080
  -Hartree energ DENC   =    -47799.23840854
  -exchange      EXHF   =         0.00000000
  -V(xc)+E(xc)   XCENC  =      -231.98866680
  PAW double counting   =      4187.67124204    -3605.88936722
  entropy T*S    EENTRO =        -0.33640224
  eigenvalues    EBANDS =     -1470.47637964
  atomic energy  EATOM  =      6761.44252427
  Solvation  Ediel_sol  =         0.00000000
  ---------------------------------------------------
  free energy    TOTEN  =      -186.92967115 eV

  energy without entropy =     -186.59326891  energy(sigma->0) =     -186.76147003


--------------------------------------------------------------------------------------------------------




----------------------------------------- Iteration    1(  14)  ---------------------------------------


    POTLOK:  cpu time    0.0288: real time    0.0300
    SETDIJ:  cpu time    0.0023: real time    0.0023
     EDDAV:  cpu time   31.5484: real time   31.6240
       DOS:  cpu time    0.0001: real time    0.0010
    CHARGE:  cpu time    0.4935: real time    0.4947
    MIXING:  cpu time    0.0015: real time    0.0015
    --------------------------------------------
      LOOP:  cpu time   32.0778: real time   32.1625

 eigenvalue-minimisations  : 13000
 total energy-change (2. order) : 0.2943431E-01  (-0.1054672E-01)
 number of electron     159.0000089 magnetization 
 augmentation part       -4.1696893 magnetization 

 Broyden mixing:
  rms(total) = 0.90363E-01    rms(broyden)= 0.90220E-01
  rms(prec ) = 0.10195E+00
  weight for this iteration     100.00

 eigenvalues of (default mixing * dielectric matrix)
  average eigenvalue GAMMA=   0.7430
  2.2881  1.6425  0.9875  0.5984  0.3004  0.2744  0.2291  0.2291  0.1374

 Free energy of the ion-electron system (eV)
  ---------------------------------------------------
  alpha Z        PSCENC =        81.65567618
  Ewald energy   TEWEN  =     41890.23011080
  -Hartree energ DENC   =    -47802.59882019
  -exchange      EXHF   =         0.00000000
  -V(xc)+E(xc)   XCENC  =      -231.87267979
  PAW double counting   =      4192.46889322    -3610.66081626
  entropy T*S    EENTRO =        -0.34101499
  eigenvalues    EBANDS =     -1467.22411009
  atomic energy  EATOM  =      6761.44252427
  Solvation  Ediel_sol  =         0.00000000
  ---------------------------------------------------
  free energy    TOTEN  =      -186.90023684 eV

  energy without entropy =     -186.55922186  energy(sigma->0) =     -186.72972935


--------------------------------------------------------------------------------------------------------




----------------------------------------- Iteration    1(  15)  ---------------------------------------


    POTLOK:  cpu time    0.0318: real time    0.0318
    SETDIJ:  cpu time    0.0025: real time    0.0025
     EDDAV:  cpu time   29.9353: real time   30.0106
       DOS:  cpu time    0.0010: real time    0.0010
    CHARGE:  cpu time    0.4947: real time    0.4959
    MIXING:  cpu time    0.0016: real time    0.0016
    --------------------------------------------
      LOOP:  cpu time   30.4679: real time   30.5514

 eigenvalue-minimisations  : 12160
 total energy-change (2. order) : 0.6227303E-02  (-0.3771658E-02)
 number of electron     159.0000090 magnetization 
 augmentation part       -4.1168461 magnetization 

 Broyden mixing:
  rms(total) = 0.88110E-01    rms(broyden)= 0.88040E-01
  rms(prec ) = 0.97707E-01
  weight for this iteration     100.00

 eigenvalues of (default mixing * dielectric matrix)
  average eigenvalue GAMMA=   0.7012
  2.2882  1.6386  1.0927  0.5962  0.3506  0.3032  0.2279  0.2337  0.1485  0.1328

 Free energy of the ion-electron system (eV)
  ---------------------------------------------------
  alpha Z        PSCENC =        81.65567618
  Ewald energy   TEWEN  =     41890.23011080
  -Hartree energ DENC   =    -47804.89797389
  -exchange      EXHF   =         0.00000000
  -V(xc)+E(xc)   XCENC  =      -231.83663698
  PAW double counting   =      4192.80058265    -3610.96306516
  entropy T*S    EENTRO =        -0.34323831
  eigenvalues    EBANDS =     -1464.98198912
  atomic energy  EATOM  =      6761.44252427
  Solvation  Ediel_sol  =         0.00000000
  ---------------------------------------------------
  free energy    TOTEN  =      -186.89400954 eV

  energy without entropy =     -186.55077123  energy(sigma->0) =     -186.72239039


--------------------------------------------------------------------------------------------------------




----------------------------------------- Iteration    1(  16)  ---------------------------------------


    POTLOK:  cpu time    0.0300: real time    0.0304
    SETDIJ:  cpu time    0.0023: real time    0.0024
     EDDAV:  cpu time   31.8856: real time   31.9625
       DOS:  cpu time    0.0010: real time    0.0010
    CHARGE:  cpu time    0.4928: real time    0.4940
    MIXING:  cpu time    0.0016: real time    0.0016
    --------------------------------------------
      LOOP:  cpu time   32.4146: real time   32.5002

 eigenvalue-minimisations  : 13160
 total energy-change (2. order) : 0.4239221E-02  (-0.1413578E-02)
 number of electron     159.0000090 magnetization 
 augmentation part       -4.1301952 magnetization 

 Broyden mixing:
  rms(total) = 0.49987E-01    rms(broyden)= 0.49956E-01
  rms(prec ) = 0.56369E-01
  weight for this iteration     100.00

 eigenvalues of (default mixing * dielectric matrix)
  average eigenvalue GAMMA=   0.7659
  2.3703  1.9275  1.5090  0.6999  0.6195  0.3084  0.2678  0.2246  0.2401  0.1392
  0.1184

 Free energy of the ion-electron system (eV)
  ---------------------------------------------------
  alpha Z        PSCENC =        81.65567618
  Ewald energy   TEWEN  =     41890.23011080
  -Hartree energ DENC   =    -47806.21417107
  -exchange      EXHF   =         0.00000000
  -V(xc)+E(xc)   XCENC  =      -231.81956269
  PAW double counting   =      4193.10293869    -3611.25117183
  entropy T*S    EENTRO =        -0.34326064
  eigenvalues    EBANDS =     -1463.69285403
  atomic energy  EATOM  =      6761.44252427
  Solvation  Ediel_sol  =         0.00000000
  ---------------------------------------------------
  free energy    TOTEN  =      -186.88977032 eV

  energy without entropy =     -186.54650968  energy(sigma->0) =     -186.71814000


--------------------------------------------------------------------------------------------------------




----------------------------------------- Iteration    1(  17)  ---------------------------------------


    POTLOK:  cpu time    0.0291: real time    0.0304
    SETDIJ:  cpu time    0.0023: real time    0.0023
     EDDAV:  cpu time   30.9789: real time   31.0530
       DOS:  cpu time    0.0011: real time    0.0011
    CHARGE:  cpu time    0.4959: real time    0.4971
    MIXING:  cpu time    0.0018: real time    0.0018
    --------------------------------------------
      LOOP:  cpu time   31.5112: real time   31.5940

 eigenvalue-minimisations  : 12760
 total energy-change (2. order) : 0.2708254E-02  (-0.7343005E-03)
 number of electron     159.0000090 magnetization 
 augmentation part       -4.1933504 magnetization 

 Broyden mixing:
  rms(total) = 0.17631E-01    rms(broyden)= 0.17568E-01
  rms(prec ) = 0.21579E-01
  weight for this iteration     100.00

 eigenvalues of (default mixing * dielectric matrix)
  average eigenvalue GAMMA=   0.7794
  2.3450  2.3450  1.4384  0.8592  0.6033  0.4730  0.3089  0.2239  0.2559  0.2438
  0.1391  0.1177

 Free energy of the ion-electron system (eV)
  ---------------------------------------------------
  alpha Z        PSCENC =        81.65567618
  Ewald energy   TEWEN  =     41890.23011080
  -Hartree energ DENC   =    -47811.80345534
  -exchange      EXHF   =         0.00000000
  -V(xc)+E(xc)   XCENC  =      -231.74703585
  PAW double counting   =      4194.69337847    -3612.78228488
  entropy T*S    EENTRO =        -0.34132337
  eigenvalues    EBANDS =     -1458.23465236
  atomic energy  EATOM  =      6761.44252427
  Solvation  Ediel_sol  =         0.00000000
  ---------------------------------------------------
  free energy    TOTEN  =      -186.88706207 eV

  energy without entropy =     -186.54573870  energy(sigma->0) =     -186.71640038


--------------------------------------------------------------------------------------------------------




----------------------------------------- Iteration    1(  18)  ---------------------------------------


    POTLOK:  cpu time    0.0306: real time    0.0309
    SETDIJ:  cpu time    0.0025: real time    0.0025
     EDDAV:  cpu time   29.0366: real time   29.1067
       DOS:  cpu time    0.0011: real time    0.0011
    CHARGE:  cpu time    0.4952: real time    0.4964
    MIXING:  cpu time    0.0020: real time    0.0020
    --------------------------------------------
      LOOP:  cpu time   29.5691: real time   29.6478

 eigenvalue-minimisations  : 11800
 total energy-change (2. order) : 0.5410536E-03  (-0.2021661E-03)
 number of electron     159.0000090 magnetization 
 augmentation part       -4.2080137 magnetization 

 Broyden mixing:
  rms(total) = 0.17703E-01    rms(broyden)= 0.17693E-01
  rms(prec ) = 0.20554E-01
  weight for this iteration     100.00

 eigenvalues of (default mixing * dielectric matrix)
  average eigenvalue GAMMA=   0.7860
  2.3664  2.3664  1.2616  1.2616  0.6754  0.6172  0.3822  0.3066  0.2242  0.2576
  0.2421  0.1391  0.1177

 Free energy of the ion-electron system (eV)
  ---------------------------------------------------
  alpha Z        PSCENC =        81.65567618
  Ewald energy   TEWEN  =     41890.23011080
  -Hartree energ DENC   =    -47815.27965371
  -exchange      EXHF   =         0.00000000
  -V(xc)+E(xc)   XCENC  =      -231.71301497
  PAW double counting   =      4194.95786020    -3613.01329815
  entropy T*S    EENTRO =        -0.34105134
  eigenvalues    EBANDS =     -1454.82567429
  atomic energy  EATOM  =      6761.44252427
  Solvation  Ediel_sol  =         0.00000000
  ---------------------------------------------------
  free energy    TOTEN  =      -186.88652101 eV

  energy without entropy =     -186.54546967  energy(sigma->0) =     -186.71599534


--------------------------------------------------------------------------------------------------------




----------------------------------------- Iteration    1(  19)  ---------------------------------------


    POTLOK:  cpu time    0.0304: real time    0.0307
    SETDIJ:  cpu time    0.0024: real time    0.0024
     EDDAV:  cpu time   27.5145: real time   27.5804
       DOS:  cpu time    0.0010: real time    0.0010
    CHARGE:  cpu time    0.4965: real time    0.4977
    MIXING:  cpu time    0.0018: real time    0.0018
    --------------------------------------------
      LOOP:  cpu time   28.0478: real time   28.1225

 eigenvalue-minimisations  : 11040
 total energy-change (2. order) : 0.2409313E-03  (-0.7928414E-04)
 number of electron     159.0000090 magnetization 
 augmentation part       -4.1831297 magnetization 

 Broyden mixing:
  rms(total) = 0.45597E-02    rms(broyden)= 0.45429E-02
  rms(prec ) = 0.75312E-02
  weight for this iteration     100.00

 eigenvalues of (default mixing * dielectric matrix)
  average eigenvalue GAMMA=   0.8839
  2.6899  2.6899  1.5959  1.4837  0.9971  0.6282  0.6282  0.3737  0.3073  0.2242
  0.2577  0.2422  0.1391  0.1177

 Free energy of the ion-electron system (eV)
  ---------------------------------------------------
  alpha Z        PSCENC =        81.65567618
  Ewald energy   TEWEN  =     41890.23011080
  -Hartree energ DENC   =    -47817.69596799
  -exchange      EXHF   =         0.00000000
  -V(xc)+E(xc)   XCENC  =      -231.69272676
  PAW double counting   =      4194.41085161    -3612.45308709
  entropy T*S    EENTRO =        -0.34157460
  eigenvalues    EBANDS =     -1452.44208650
  atomic energy  EATOM  =      6761.44252427
  Solvation  Ediel_sol  =         0.00000000
  ---------------------------------------------------
  free energy    TOTEN  =      -186.88628008 eV

  energy without entropy =     -186.54470548  energy(sigma->0) =     -186.71549278


--------------------------------------------------------------------------------------------------------




----------------------------------------- Iteration    1(  20)  ---------------------------------------


    POTLOK:  cpu time    0.0308: real time    0.0308
    SETDIJ:  cpu time    0.0024: real time    0.0025
     EDDAV:  cpu time   23.7200: real time   23.7771
       DOS:  cpu time    0.0010: real time    0.0010
    CHARGE:  cpu time    0.4940: real time    0.4952
    MIXING:  cpu time    0.0020: real time    0.0020
    --------------------------------------------
      LOOP:  cpu time   24.2511: real time   24.3170

 eigenvalue-minimisations  :  9240
 total energy-change (2. order) :-0.8976205E-03  (-0.8531608E-04)
 number of electron     159.0000090 magnetization 
 augmentation part       -4.1873380 magnetization 

 Broyden mixing:
  rms(total) = 0.42363E-02    rms(broyden)= 0.42353E-02
  rms(prec ) = 0.56698E-02
  weight for this iteration     100.00

 eigenvalues of (default mixing * dielectric matrix)
  average eigenvalue GAMMA=   0.9205
  3.1230  2.5670  1.8786  1.5117  0.8993  0.8993  0.6333  0.6333  0.3737  0.3073
  0.2242  0.2577  0.2422  0.1391  0.1177

 Free energy of the ion-electron system (eV)
  ---------------------------------------------------
  alpha Z        PSCENC =        81.65567618
  Ewald energy   TEWEN  =     41890.23011080
  -Hartree energ DENC   =    -47824.33805917
  -exchange      EXHF   =         0.00000000
  -V(xc)+E(xc)   XCENC  =      -231.63627285
  PAW double counting   =      4193.08650782    -3611.10721220
  entropy T*S    EENTRO =        -0.34125482
  eigenvalues    EBANDS =     -1445.87919774
  atomic energy  EATOM  =      6761.44252427
  Solvation  Ediel_sol  =         0.00000000
  ---------------------------------------------------
  free energy    TOTEN  =      -186.88717770 eV

  energy without entropy =     -186.54592288  energy(sigma->0) =     -186.71655029


--------------------------------------------------------------------------------------------------------




----------------------------------------- Iteration    1(  21)  ---------------------------------------


    POTLOK:  cpu time    0.0304: real time    0.0307
    SETDIJ:  cpu time    0.0025: real time    0.0025
     EDDAV:  cpu time   21.8785: real time   21.9313
       DOS:  cpu time    0.0011: real time    0.0011
    CHARGE:  cpu time    0.4960: real time    0.4971
    MIXING:  cpu time    0.0019: real time    0.0020
    --------------------------------------------
      LOOP:  cpu time   22.4116: real time   22.4726

 eigenvalue-minimisations  :  8280
 total energy-change (2. order) :-0.8682348E-03  (-0.2209864E-04)
 number of electron     159.0000090 magnetization 
 augmentation part       -4.1803976 magnetization 

 Broyden mixing:
  rms(total) = 0.35835E-02    rms(broyden)= 0.35794E-02
  rms(prec ) = 0.45872E-02
  weight for this iteration     100.00

 eigenvalues of (default mixing * dielectric matrix)
  average eigenvalue GAMMA=   0.9534
  3.6116  2.4181  2.1720  1.5965  1.0528  1.0528  0.6359  0.6359  0.4164  0.3739
  0.3073  0.2242  0.2422  0.2577  0.1391  0.1177

 Free energy of the ion-electron system (eV)
  ---------------------------------------------------
  alpha Z        PSCENC =        81.65567618
  Ewald energy   TEWEN  =     41890.23011080
  -Hartree energ DENC   =    -47827.10768264
  -exchange      EXHF   =         0.00000000
  -V(xc)+E(xc)   XCENC  =      -231.61756853
  PAW double counting   =      4192.72990785    -3610.75053181
  entropy T*S    EENTRO =        -0.34138845
  eigenvalues    EBANDS =     -1443.12909361
  atomic energy  EATOM  =      6761.44252427
  Solvation  Ediel_sol  =         0.00000000
  ---------------------------------------------------
  free energy    TOTEN  =      -186.88804594 eV

  energy without entropy =     -186.54665748  energy(sigma->0) =     -186.71735171


--------------------------------------------------------------------------------------------------------




----------------------------------------- Iteration    1(  22)  ---------------------------------------


    POTLOK:  cpu time    0.0305: real time    0.0308
    SETDIJ:  cpu time    0.0023: real time    0.0023
     EDDAV:  cpu time   18.9345: real time   18.9798
       DOS:  cpu time    0.0012: real time    0.0012
    CHARGE:  cpu time    0.4941: real time    0.4953
    MIXING:  cpu time    0.0020: real time    0.0020
    --------------------------------------------
      LOOP:  cpu time   19.4658: real time   19.5202

 eigenvalue-minimisations  :  6840
 total energy-change (2. order) :-0.8077898E-03  (-0.1015074E-04)
 number of electron     159.0000090 magnetization 
 augmentation part       -4.1795086 magnetization 

 Broyden mixing:
  rms(total) = 0.33788E-02    rms(broyden)= 0.33774E-02
  rms(prec ) = 0.39897E-02
  weight for this iteration     100.00

 eigenvalues of (default mixing * dielectric matrix)
  average eigenvalue GAMMA=   1.0843
  4.8916  2.5291  2.5291  1.7185  1.4881  0.9900  0.9900  0.6268  0.6268  0.2242
  0.2422  0.2577  0.3073  0.3722  0.3823  0.1391  0.1177

 Free energy of the ion-electron system (eV)
  ---------------------------------------------------
  alpha Z        PSCENC =        81.65567618
  Ewald energy   TEWEN  =     41890.23011080
  -Hartree energ DENC   =    -47829.21785278
[...]
    104      -0.6205      0.00000
    105      -0.4421      0.00000
    106      -0.2945      0.00000
    107      -0.1635      0.00000
    108      -0.0142      0.00000
    109       0.0491      0.00000
    110       0.1222      0.00000
    111       0.4511      0.00000
    112       0.7141      0.00000
    113       0.8069      0.00000
    114       0.9042      0.00000
    115       1.0628      0.00000
    116       1.2109      0.00000
    117       1.2813      0.00000
    118       2.1324      0.00000
    119       2.3182      0.00000
    120       2.3809      0.00000

 k-point    34 :       0.5000    0.5000    0.0000
  band No.  band energies     occupation 
      1     -17.5055      2.00000
      2     -17.3589      2.00000
      3     -16.7595      2.00000
      4     -16.6790      2.00000
      5     -16.6728      2.00000
      6     -16.4365      2.00000
      7     -16.3312      2.00000
      8     -16.2412      2.00000
      9     -16.0439      2.00000
     10     -15.9957      2.00000
     11     -15.9370      2.00000
     12     -15.8466      2.00000
     13     -15.7232      2.00000
     14     -15.7085      2.00000
     15     -15.6552      2.00000
     16     -15.5571      2.00000
     17     -15.2895      2.00000
     18     -15.2548      2.00000
     19      -9.8368      2.00000
     20      -9.4163      2.00000
     21      -9.1695      2.00000
     22      -9.1061      2.00000
     23      -8.9551      2.00000
     24      -8.8275      2.00000
     25      -8.5374      2.00000
     26      -8.4616      2.00000
     27      -8.4194      2.00000
     28      -8.3041      2.00000
     29      -8.2773      2.00000
     30      -8.1961      2.00000
     31      -8.1477      2.00000
     32      -8.1069      2.00000
     33      -7.9667      2.00000
     34      -7.8815      2.00000
     35      -7.7768      2.00000
     36      -7.7357      2.00000
     37      -7.5221      2.00000
     38      -7.3548      2.00000
     39      -7.3117      2.00000
     40      -7.2371      2.00000
     41      -7.1271      2.00000
     42      -7.0829      2.00000
     43      -7.0533      2.00000
     44      -7.0437      2.00000
     45      -6.8177      2.00000
     46      -6.7470      2.00000
     47      -6.6170      2.00000
     48      -6.5829      2.00000
     49      -6.5616      2.00000
     50      -6.5326      2.00000
     51      -6.4516      2.00000
     52      -6.3418      2.00000
     53      -6.2595      2.00000
     54      -6.2227      2.00000
     55      -6.1675      2.00000
     56      -6.0735      2.00000
     57      -6.0439      2.00000
     58      -5.8798      2.00000
     59      -5.8413      2.00000
     60      -5.7982      2.00000
     61      -5.7059      2.00000
     62      -5.6108      2.00000
     63      -5.5335      2.00000
     64      -5.4028      2.00000
     65      -5.2768      2.00000
     66      -5.1957      2.00000
     67      -4.9553      2.00000
     68      -4.8682      2.00000
     69      -4.7933      2.00000
     70      -4.6580      2.00000
     71      -4.5176      2.00000
     72      -4.4472      2.00000
     73      -4.3571      2.00000
     74      -4.2303      2.00000
     75      -4.1578      2.00000
     76      -4.0479      2.00000
     77      -4.0248      2.00000
     78      -3.7261      1.99965
     79      -3.5504      1.98035
     80      -3.0941      0.37177
     81      -2.9889      0.10159
     82      -2.7696      0.00143
     83      -2.6607      0.00008
     84      -2.5475      0.00000
     85      -2.4499      0.00000
     86      -2.3620      0.00000
     87      -2.0525      0.00000
     88      -2.0204      0.00000
     89      -1.9765      0.00000
     90      -1.8224      0.00000
     91      -1.7020      0.00000
     92      -1.6237      0.00000
     93      -1.5128      0.00000
     94      -1.4378      0.00000
     95      -1.3320      0.00000
     96      -1.2124      0.00000
     97      -1.0692      0.00000
     98      -1.0605      0.00000
     99      -0.9742      0.00000
    100      -0.9092      0.00000
    101      -0.8568      0.00000
    102      -0.6861      0.00000
    103      -0.6480      0.00000
    104      -0.6246      0.00000
    105      -0.4051      0.00000
    106      -0.2797      0.00000
    107      -0.1649      0.00000
    108       0.0137      0.00000
    109       0.0290      0.00000
    110       0.0973      0.00000
    111       0.4334      0.00000
    112       0.7597      0.00000
    113       0.8286      0.00000
    114       0.9112      0.00000
    115       1.0620      0.00000
    116       1.1963      0.00000
    117       1.2654      0.00000
    118       2.1905      0.00000
    119       2.2570      0.00000
    120       2.4095      0.00000


--------------------------------------------------------------------------------------------------------


 soft charge-density along one line, spin component           1
         0         1         2         3         4         5         6         7         8         9
 total charge-density along one line
 
 pseudopotential strength for first ion, spin component:           1
 -7.224  -0.019   0.015  -0.010  -0.000   0.675   0.005  -0.004
 -0.019  -7.156  -0.007  -0.011   0.010   0.005   0.654   0.002
  0.015  -0.007  -7.092  -0.005  -0.028  -0.004   0.002   0.637
 -0.010  -0.011  -0.005  -7.115  -0.003   0.003   0.003   0.002
 -0.000   0.010  -0.028  -0.003  -7.226   0.000  -0.003   0.008
  0.675   0.005  -0.004   0.003   0.000   0.333  -0.001   0.001
  0.005   0.654   0.002   0.003  -0.003  -0.001   0.339  -0.001
 -0.004   0.002   0.637   0.002   0.008   0.001  -0.001   0.343
  0.003   0.003   0.002   0.642   0.002  -0.001  -0.001  -0.001
  0.000  -0.003   0.008   0.002   0.676  -0.000   0.001  -0.002
  0.004   0.003  -0.020   0.004  -0.008  -0.001  -0.001   0.005
  0.001   0.001  -0.007   0.001  -0.003  -0.000  -0.000   0.002
 -0.006   0.000  -0.000  -0.000  -0.000  -0.001  -0.001   0.000
 -0.000   0.000   0.004  -0.011   0.004   0.000  -0.000  -0.001
  0.001  -0.000   0.001   0.008  -0.006  -0.000   0.000   0.001
 -0.004  -0.002  -0.000  -0.000  -0.000   0.000   0.000   0.000
 -0.000   0.000   0.001  -0.008   0.004   0.000  -0.000  -0.000
  0.000  -0.000  -0.000   0.005  -0.004  -0.000   0.000   0.000
 total augmentation occupancy for first ion, spin component:           1
  0.850   0.127   0.031  -0.008  -0.007   0.442   0.196   0.004   0.004  -0.003  -0.000  -0.001   0.011  -0.002   0.006   0.003
  0.127   1.086  -0.021   0.006   0.001   0.194   0.646   0.002  -0.001  -0.001   0.003  -0.000  -0.059  -0.003  -0.007  -0.002
  0.031  -0.021   0.842  -0.044  -0.050   0.002   0.003   0.338  -0.037   0.004   0.165   0.004  -0.005   0.007  -0.083   0.000
 -0.008   0.006  -0.044   1.066  -0.159   0.004  -0.001  -0.037   0.633  -0.226  -0.026  -0.006   0.002  -0.091   0.102   0.000
 -0.007   0.001  -0.050  -0.159   0.785  -0.002  -0.002   0.002  -0.228   0.417   0.053  -0.002   0.005   0.078   0.014   0.000
  0.442   0.194   0.002   0.004  -0.002   0.356   0.197   0.003   0.002  -0.002  -0.002  -0.000  -0.034   0.001  -0.002   0.000
  0.196   0.646   0.003  -0.001  -0.002   0.197   0.564   0.001   0.000  -0.002   0.008   0.000  -0.061  -0.001   0.001  -0.005
  0.004   0.002   0.338  -0.037   0.002   0.003   0.001   0.269  -0.026   0.008   0.043   0.009   0.001   0.004  -0.022   0.000
  0.004  -0.001  -0.037   0.633  -0.228   0.002   0.000  -0.026   0.576  -0.226  -0.053  -0.008   0.001  -0.104   0.098   0.000
 -0.003  -0.001   0.004  -0.226   0.417  -0.002  -0.002   0.008  -0.226   0.376  -0.015  -0.001   0.000   0.085  -0.030   0.000
 -0.000   0.003   0.165  -0.026   0.053  -0.002   0.008   0.043  -0.053  -0.015   1.384   0.136  -0.002   0.025  -0.052  -0.000
 -0.001  -0.000   0.004  -0.006  -0.002  -0.000   0.000   0.009  -0.008  -0.001   0.136   0.026  -0.000   0.002  -0.010  -0.000
  0.011  -0.059  -0.005   0.002   0.005  -0.034  -0.061   0.001   0.001   0.000  -0.002  -0.000   0.340   0.002  -0.001   0.027
 -0.002  -0.003   0.007  -0.091   0.078   0.001  -0.001   0.004  -0.104   0.085   0.025   0.002   0.002   0.418  -0.016   0.000
  0.006  -0.007  -0.083   0.102   0.014  -0.002   0.001  -0.022   0.098  -0.030  -0.052  -0.010  -0.001  -0.016   0.358  -0.000
  0.003  -0.002   0.000   0.000   0.000   0.000  -0.005   0.000   0.000   0.000  -0.000  -0.000   0.027   0.000  -0.000   0.003
 -0.000  -0.000  -0.000   0.001   0.003   0.000  -0.000  -0.000  -0.006   0.006   0.001   0.000   0.000   0.028  -0.000   0.000
 -0.000   0.000  -0.003   0.003   0.004  -0.000   0.000  -0.004   0.008   0.000  -0.002  -0.001  -0.000  -0.000   0.026  -0.000


------------------------ aborting loop because EDIFF is reached ----------------------------------------


    CHARGE:  cpu time    0.4563: real time    0.4574
    FORLOC:  cpu time    0.0063: real time    0.0063
    FORNL :  cpu time    5.2259: real time    5.2384
    STRESS:  cpu time   32.4521: real time   32.5298
    FORCOR:  cpu time    0.0336: real time    0.0336
    FORHAR:  cpu time    0.0124: real time    0.0124
    MIXING:  cpu time    0.0009: real time    0.0009
    OFIELD:  cpu time    0.0000: real time    0.0000

  FORCE on cell =-STRESS in cart. coord.  units (eV):
  Direction    XX          YY          ZZ          XY          YZ          ZX
  --------------------------------------------------------------------------------------
  Alpha Z    89.19364    89.19364    89.19364
  Ewald   49149.11719 49236.82195-54126.74717    -1.29375    -1.81359   -21.13152
  Hartree 49880.38280 49935.60921-49549.71294    -0.83960    -0.26443   -13.32655
  E(xc)    -611.40615  -609.03465  -617.68598    -0.01980     0.08418     0.93640
  Local  ************************101114.24631     1.67973     1.98311    44.36635
  n-local  1216.61392  1213.24567  1248.52432     0.14331    -0.49118     3.01595
  augment  -212.36486  -213.45636  -214.75523    -0.39438    -0.35686    -0.78599
  Kinetic  2020.46714  2002.01432  2054.98105     0.72568     0.84391   -12.98652
  Fock        0.00000     0.00000     0.00000     0.00000     0.00000     0.00000
  -------------------------------------------------------------------------------------
  Total       0.28635     0.18646    -1.95601     0.00119    -0.01487     0.08812
  in kB       0.19114     0.12446    -1.30565     0.00080    -0.00993     0.05882
  external pressure =       -0.33 kB  Pullay stress =        0.00 kB


 VOLUME and BASIS-vectors are now :
 -----------------------------------------------------------------------------
  energy-cutoff  :      280.00
  volume of cell :     2400.23
      direct lattice vectors                 reciprocal lattice vectors
     8.340855826  4.802213408  0.000000000     0.059907582  0.104185186  0.000000000
    -8.335623540  4.793071550  0.000000000    -0.060021844  0.104250583  0.000000000
     0.000000000  0.000000000 30.000000000     0.000000000  0.000000000  0.033333333

  length of vectors
     9.624506716  9.615412351 30.000000000     0.120180994  0.120294663  0.033333333


 FORCES acting on ions
    electron-ion (+dipol)            ewald-force                    non-local-force                 convergence-correction
 -----------------------------------------------------------------------------------------------
   -.225E+02 -.278E+00 0.236E+02   0.239E+02 0.265E+00 -.234E+02   -.146E+01 0.928E-02 -.200E+00   -.167E-01 0.227E-02 -.710E-02
   0.219E+02 0.197E+00 -.229E+02   -.233E+02 0.110E+00 0.228E+02   0.140E+01 -.282E+00 0.151E+00   0.758E-03 -.257E-01 -.591E-02
   0.266E+02 0.200E+01 -.119E+02   -.281E+02 -.240E+01 0.117E+02   0.156E+01 0.376E+00 0.181E+00   -.285E-01 0.210E-01 -.667E-02
   0.663E+00 -.231E+02 -.845E+00   -.733E+00 0.229E+02 0.896E+00   -.544E-02 0.119E+00 -.506E-01   0.777E-01 0.193E-01 -.785E-02
   0.745E+01 0.408E+01 -.215E+01   -.727E+01 -.401E+01 0.221E+01   -.232E+00 -.902E-01 -.637E-01   0.527E-01 0.235E-01 -.293E-02
   0.482E+01 0.198E+02 -.160E+01   -.488E+01 -.198E+02 0.158E+01   -.499E-01 -.148E-01 0.284E-01   0.109E+00 -.405E-01 -.111E-01
   -.359E+02 -.545E+01 0.133E+02   0.369E+02 0.573E+01 -.131E+02   -.990E+00 -.308E+00 -.259E+00   -.325E-01 0.403E-01 -.354E-02
   -.366E+02 0.618E+01 0.162E+02   0.374E+02 -.644E+01 -.160E+02   -.825E+00 0.304E+00 -.198E+00   -.710E-02 -.437E-01 -.615E-02
   0.345E+02 -.348E+01 -.120E+02   -.356E+02 0.358E+01 0.119E+02   0.111E+01 -.111E+00 0.151E+00   -.240E-01 0.795E-02 -.455E-02
   0.374E+01 0.201E+01 0.484E+03   -.282E+01 -.187E+01 -.488E+03   -.845E+00 -.143E+00 0.475E+01   -.728E-01 -.212E-02 -.558E-01
   0.218E+02 0.654E+01 -.591E+03   -.228E+02 -.667E+01 0.594E+03   0.948E+00 0.144E+00 -.340E+01   0.340E-01 -.112E-01 0.793E-01
   -.226E+02 -.103E+02 0.603E+03   0.234E+02 0.106E+02 -.607E+03   -.789E+00 -.400E+00 0.375E+01   0.143E-01 0.647E-01 0.595E-01
   -.990E+01 -.543E+01 -.483E+03   0.101E+02 0.546E+01 0.488E+03   -.828E-01 -.894E-01 -.480E+01   -.114E+00 0.664E-01 -.239E-01
   0.835E+01 -.150E+01 0.564E+03   -.106E+02 0.157E+01 -.567E+03   0.220E+01 -.513E-01 0.298E+01   0.762E-01 -.207E-01 -.338E-01
   -.681E+01 0.207E+00 -.567E+03   0.873E+01 -.108E+00 0.570E+03   -.200E+01 -.873E-01 -.308E+01   0.951E-01 -.126E-01 -.740E-01
   0.205E+02 0.442E+01 0.604E+03   -.220E+02 -.503E+01 -.607E+03   0.142E+01 0.599E+00 0.294E+01   0.552E-01 0.443E-02 -.619E-01
   -.142E+02 0.693E+01 -.627E+03   0.151E+02 -.749E+01 0.630E+03   -.956E+00 0.564E+00 -.338E+01   0.408E-01 -.975E-02 -.290E-02
   0.151E+02 0.201E+01 0.495E+03   -.150E+02 -.222E+01 -.500E+03   -.148E-01 0.166E+00 0.480E+01   -.126E+00 0.358E-01 -.356E-02
   0.266E+02 0.346E+01 -.604E+03   -.277E+02 -.364E+01 0.607E+03   0.107E+01 0.141E+00 -.334E+01   0.121E-01 0.419E-01 0.547E-01
   -.223E+02 0.969E+01 0.607E+03   0.229E+02 -.994E+01 -.611E+03   -.619E+00 0.320E+00 0.390E+01   0.357E-01 -.621E-01 0.538E-01
   -.783E+01 0.483E+01 -.488E+03   0.740E+01 -.497E+01 0.493E+03   0.508E+00 0.192E+00 -.506E+01   -.741E-01 -.536E-01 -.463E-01
   -.252E+02 0.454E+00 0.627E+03   0.259E+02 -.565E+00 -.631E+03   -.774E+00 0.114E+00 0.374E+01   0.538E-02 -.119E-02 0.180E-02
   -.203E+02 0.149E+00 -.507E+03   0.206E+02 -.104E+00 0.512E+03   -.260E+00 -.325E-01 -.503E+01   -.561E-01 -.111E-01 0.132E-01
   0.197E+02 -.387E+01 0.625E+03   -.208E+02 0.439E+01 -.628E+03   0.105E+01 -.539E+00 0.337E+01   0.252E-01 0.160E-01 -.142E-01
   -.165E+02 -.699E+01 -.629E+03   0.173E+02 0.740E+01 0.633E+03   -.804E+00 -.434E+00 -.343E+01   0.189E-01 0.220E-01 -.146E-01
   0.490E+01 -.350E+01 0.490E+03   -.427E+01 0.363E+01 -.495E+03   -.577E+00 -.877E-01 0.498E+01   -.491E-01 -.348E-01 -.262E-01
   0.232E+02 -.911E+01 -.604E+03   -.239E+02 0.953E+01 0.608E+03   0.682E+00 -.392E+00 -.376E+01   0.276E-01 -.324E-01 0.348E-01
 -----------------------------------------------------------------------------------------------
   -.750E+00 0.369E-02 0.425E+00   -.746E-13 -.373E-13 0.227E-12   0.663E+00 -.128E-01 -.327E+00   0.791E-01 0.423E-02 -.116E+00
 
 
 POSITION                                       TOTAL-FORCE (eV/Angst)
 -----------------------------------------------------------------------------------
     -3.10038      4.80042     -0.08404        -0.017038     -0.001477     -0.029388
      0.33340      0.00702      0.08176         0.011863     -0.000237      0.029551
      0.27184      3.20094      0.04926         0.006008     -0.000462      0.002656
     -5.56006      3.00132      0.00229         0.002077      0.001478     -0.006422
      2.82469      4.81632      0.00774        -0.003424     -0.004517     -0.003442
      2.81237      1.78288      0.00351        -0.000673     -0.000699     -0.005241
      5.27037      6.37221     -0.04649        -0.000902      0.007861     -0.007740
      5.25551      3.23781     -0.05446        -0.000054     -0.001291     -0.006009
      0.30162      6.36881      0.04345         0.000255     -0.005662      0.004990
     -0.89665      1.58329     28.73107         0.003622     -0.002324      0.015567
      0.93338      1.62593      1.61366         0.003352      0.001803      0.007780
     -3.72782      3.20566     28.34494        -0.005676     -0.002176     -0.005663
     -1.86101      3.22745      1.26698        -0.002438      0.005153     -0.009702
     -6.44434      4.79565     28.50004        -0.007035      0.000325      0.009243
     -4.65970      4.79316      1.50957         0.006802     -0.001244     -0.008216
      1.82243      3.21867     28.38488        -0.003558      0.000351      0.006333
      3.68459      3.22759      1.69018         0.005628     -0.000333     -0.003985
     -0.94543      4.77126     28.68915         0.001780     -0.001093      0.004215
      0.92891      4.75619      1.64802         0.002109      0.000594      0.002468
     -3.72806      6.39275     28.33140        -0.006124      0.005785     -0.001364
     -1.86937      6.36698      1.28179        -0.003140     -0.003369     -0.012473
      4.61011      4.80095     28.27879        -0.002330      0.001757      0.004790
      6.52261      4.79919      1.34611        -0.000630      0.002257     -0.005021
      1.88500      6.36372     28.31640        -0.003612     -0.002285      0.004832
      3.68415      6.37455      1.69664         0.003938     -0.001089     -0.004436
     -0.90429      8.03304     28.71083         0.004939      0.004832      0.012128
      0.95974      8.00476      1.65654         0.004262     -0.003937      0.004546
 -----------------------------------------------------------------------------------
    total drift:                               -0.007646     -0.004927     -0.017777


--------------------------------------------------------------------------------------------------------



  FREE ENERGIE OF THE ION-ELECTRON SYSTEM (eV)
  ---------------------------------------------------
  free  energy   TOTEN  =      -192.46509422 eV

  energy  without entropy=     -192.33952636  energy(sigma->0) =     -192.40231029
 
 d Force = 0.7752061E-04[ 0.523E-04, 0.103E-03]  d Energy = 0.1455436E-03-0.680E-04
 d Force =-0.6713591E+00[-0.671E+00,-0.671E+00]  d Ewald  = 0.8406828E+01-0.908E+01


--------------------------------------------------------------------------------------------------------


    POTLOK:  cpu time    0.0341: real time    0.0342


--------------------------------------------------------------------------------------------------------


 Quasi-Newton relaxation of ions (Broydens 2nd method)
  g(Force)  = 0.198E-03   g(Stress)= 0.209E-03

 retain information from N=  1 steps
 eigenvalues of (default step * inverse Hessian matrix)
  average eigenvalue of G=   0.8099
 eigenvalue spectrum of G is  0.8099


--------------------------------------------------------------------------------------------------------


  
 reached required accuracy - stopping structural energy minimisation
     LOOP+:  cpu time   81.5007: real time   81.7047
    4ORBIT:  cpu time    0.0000: real time    0.0000

 total amount of memory used by VASP on root node   650782. kBytes
========================================================================

   base      :      30000. kBytes
   nonl-proj :     559647. kBytes
   fftplans  :       2414. kBytes
   grid      :      12150. kBytes
   one-center:        419. kBytes
   wavefun   :      46152. kBytes
 
  
  
 General timing and accounting informations for this job:
 ========================================================
  
                  Total CPU time used (sec):     6098.191
                            User time (sec):     6073.957
                          System time (sec):       24.234
                         Elapsed time (sec):     6115.007
  
                   Maximum memory used (kb):      743592.
                   Average memory used (kb):           0.
  
                          Minor page faults:       960093
                          Major page faults:            3
                 Voluntary context switches:         4723
