   27   27  100    1
  0.9710400E+02  0.1002848E-08  0.1002848E-08  0.3000000E-08  0.5000000E-15
  1.000000000000000E-004
  CAR 
 unknown system                          
    159     34    120
 
  0.0000000E+00  0.0000000E+00  0.0000000E+00  0.1562500E-01
    1      -17.831525   1.000000
    2      -16.635447   1.000000
    3      -16.600618   1.000000
    4      -16.535258   1.000000
    5      -16.476889   1.000000
    6      -16.467594   1.000000
    7      -16.361876   1.000000
    8      -16.314299   1.000000
    9      -16.119728   1.000000
   10      -16.089870   1.000000
   11      -16.029320   1.000000
   12      -15.990711   1.000000
   13      -15.878454   1.000000
   14      -15.846929   1.000000
   15      -15.616537   1.000000
   16      -15.506807   1.000000
   17      -15.491608   1.000000
   18      -15.371561   1.000000
   19       -9.383362   1.000000
   20       -8.949287   1.000000
   21       -8.837689   1.000000
   22       -8.767848   1.000000
   23       -8.706060   1.000000
   24       -8.659678   1.000000
   25       -8.632517   1.000000
   26       -8.495191   1.000000
   27       -8.472590   1.000000
   28       -8.415900   1.000000
   29       -8.378472   1.000000
   30       -8.287616   1.000000
   31       -8.242567   1.000000
   32       -8.188271   1.000000
   33       -8.088687   1.000000
   34       -8.061679   1.000000
   35       -7.890955   1.000000
   36       -7.881448   1.000000
   37       -7.716579   1.000000
   38       -7.562336   1.000000
   39       -7.540982   1.000000
   40       -7.454820   1.000000
   41       -7.361615   1.000000
   42       -7.212937   1.000000
   43       -7.195677   1.000000
   44       -6.875024   1.000000
   45       -6.813196   1.000000
   46       -6.779490   1.000000
   47       -6.711289   1.000000
   48       -6.666732   1.000000
   49       -6.593420   1.000000
   50       -6.532042   1.000000
   51       -6.481822   1.000000
   52       -6.410342   1.000000
   53       -6.328444   1.000000
   54       -6.274235   1.000000
   55       -6.240091   1.000000
   56       -6.093510   1.000000
   57       -6.015744   1.000000
   58       -5.892503   1.000000
   59       -5.657300   1.000000
   60       -5.566574   1.000000
   61       -5.473386   1.000000
   62       -5.438971   1.000000
   63       -5.352488   1.000000
   64       -5.144186   1.000000
   65       -5.004744   1.000000
   66       -4.933884   1.000000
   67       -4.772903   1.000000
   68       -4.742757   1.000000
   69       -4.682105   1.000000
   70       -4.628145   1.000000
   71       -4.526747   1.000000
   72       -4.496632   1.000000
   73       -4.442136   1.000000
   74       -4.308189   1.000000
   75       -4.213113   1.000000
   76       -4.056555   1.000000
   77       -3.539554   0.999582
   78       -3.526162   0.999414
   79       -3.430762   0.994932
   80       -3.148292   0.716938
   81       -3.060541   0.481366
   82       -2.763432   0.015873
   83       -2.601231   0.000493
   84       -2.505912   0.000036
   85       -2.464139   0.000010
   86       -2.441137   0.000005
   87       -2.313182   0.000000
   88       -2.269481   0.000000
   89       -2.201472   0.000000
   90       -2.071442   0.000000
   91       -1.869916   0.000000
   92       -1.677041   0.000000
   93       -1.593001   0.000000
   94       -1.556247   0.000000
   95       -1.439137   0.000000
   96       -1.274009   0.000000
   97       -1.209150   0.000000
   98       -1.009567   0.000000
   99       -0.807442   0.000000
  100       -0.469726   0.000000
  101       -0.394962   0.000000
  102       -0.353276   0.000000
  103       -0.326109   0.000000
  104       -0.249986   0.000000
  105       -0.041231   0.000000
  106        0.226804   0.000000
  107        0.276091   0.000000
  108        0.290794   0.000000
  109        0.339822   0.000000
  110        0.386095   0.000000
  111        0.419039   0.000000
  112        0.634392   0.000000
  113        0.702953   0.000000
  114        0.803791   0.000000
  115        0.872604   0.000000
  116        0.924074   0.000000
  117        1.004872   0.000000
  118        1.670628   0.000000
  119        1.832384   0.000000
  120        2.182623   0.000000
 
  0.1250000E+00  0.2775558E-16  0.0000000E+00  0.3125000E-01
    1      -17.807569   1.000000
    2      -16.702064   1.000000
    3      -16.637665   1.000000
    4      -16.596688   1.000000
    5      -16.541706   1.000000
    6      -16.386176   1.000000
    7      -16.337252   1.000000
    8      -16.267804   1.000000
    9      -16.141308   1.000000
   10      -16.097460   1.000000
   11      -15.982503   1.000000
   12      -15.951021   1.000000
   13      -15.882746   1.000000
   14      -15.783011   1.000000
   15      -15.643880   1.000000
   16      -15.519549   1.000000
   17      -15.488808   1.000000
   18      -15.384203   1.000000
   19       -9.396885   1.000000
   20       -9.034627   1.000000
   21       -8.972536   1.000000
   22       -8.873444   1.000000
   23       -8.776238   1.000000
   24       -8.697356   1.000000
   25       -8.628782   1.000000
   26       -8.539360   1.000000
   27       -8.504835   1.000000
   28       -8.422343   1.000000
   29       -8.355142   1.000000
   30       -8.221900   1.000000
   31       -8.165707   1.000000
   32       -8.094741   1.000000
   33       -8.011256   1.000000
   34       -7.892867   1.000000
   35       -7.824796   1.000000
   36       -7.728659   1.000000
   37       -7.660231   1.000000
   38       -7.596761   1.000000
   39       -7.543597   1.000000
   40       -7.524000   1.000000
   41       -7.284828   1.000000
   42       -7.193024   1.000000
   43       -7.168174   1.000000
   44       -6.961488   1.000000
   45       -6.872384   1.000000
   46       -6.785523   1.000000
   47       -6.743369   1.000000
   48       -6.687717   1.000000
   49       -6.577725   1.000000
   50       -6.537669   1.000000
   51       -6.485464   1.000000
   52       -6.363014   1.000000
   53       -6.339488   1.000000
   54       -6.296489   1.000000
   55       -6.247327   1.000000
   56       -6.130406   1.000000
   57       -6.004123   1.000000
   58       -5.815657   1.000000
   59       -5.703377   1.000000
   60       -5.551635   1.000000
   61       -5.433808   1.000000
   62       -5.401580   1.000000
   63       -5.267214   1.000000
   64       -5.156833   1.000000
   65       -5.076138   1.000000
   66       -5.041271   1.000000
   67       -4.958610   1.000000
   68       -4.880470   1.000000
   69       -4.771275   1.000000
   70       -4.714482   1.000000
   71       -4.625451   1.000000
   72       -4.307123   1.000000
   73       -4.260561   1.000000
   74       -4.177953   1.000000
   75       -4.068988   1.000000
   76       -3.910488   1.000000
   77       -3.757213   0.999999
   78       -3.637303   0.999972
   79       -3.491599   0.998656
   80       -3.034463   0.408611
   81       -2.932993   0.171406
   82       -2.796567   0.027855
   83       -2.619627   0.000777
   84       -2.578193   0.000273
   85       -2.471214   0.000013
   86       -2.419436   0.000002
   87       -2.343125   0.000000
   88       -2.259832   0.000000
   89       -2.210646   0.000000
   90       -2.093151   0.000000
   91       -1.855686   0.000000
   92       -1.692899   0.000000
   93       -1.564706   0.000000
   94       -1.490711   0.000000
   95       -1.411615   0.000000
   96       -1.247581   0.000000
   97       -1.191046   0.000000
   98       -0.999855   0.000000
   99       -0.794141   0.000000
  100       -0.535630   0.000000
  101       -0.484380   0.000000
  102       -0.447700   0.000000
  103       -0.403724   0.000000
  104       -0.224025   0.000000
  105       -0.054185   0.000000
  106        0.106706   0.000000
  107        0.135618   0.000000
  108        0.217442   0.000000
  109        0.268130   0.000000
  110        0.390560   0.000000
  111        0.418906   0.000000
  112        0.664230   0.000000
  113        0.813555   0.000000
  114        0.859607   0.000000
  115        0.940527   0.000000
  116        1.000339   0.000000
  117        1.049405   0.000000
  118        1.713123   0.000000
  119        1.871457   0.000000
  120        2.217773   0.000000
 
  0.2500000E+00  0.5551115E-16  0.0000000E+00  0.3125000E-01
    1      -17.738599   1.000000
    2      -16.915166   1.000000
    3      -16.685075   1.000000
    4      -16.629962   1.000000
    5      -16.568642   1.000000
    6      -16.332015   1.000000
    7      -16.307520   1.000000
    8      -16.237660   1.000000
    9      -16.149221   1.000000
   10      -16.058071   1.000000
   11      -15.959873   1.000000
   12      -15.859718   1.000000
   13      -15.846466   1.000000
   14      -15.710135   1.000000
   15      -15.659172   1.000000
   16      -15.543014   1.000000
   17      -15.500423   1.000000
   18      -15.417359   1.000000
   19       -9.532989   1.000000
   20       -9.168415   1.000000
   21       -9.116516   1.000000
   22       -8.988577   1.000000
   23       -8.897116   1.000000
   24       -8.854984   1.000000
   25       -8.575444   1.000000
   26       -8.505507   1.000000
   27       -8.463811   1.000000
   28       -8.389118   1.000000
   29       -8.285397   1.000000
   30       -8.228889   1.000000
   31       -8.112628   1.000000
   32       -8.013560   1.000000
   33       -7.876419   1.000000
   34       -7.788345   1.000000
   35       -7.725739   1.000000
   36       -7.679904   1.000000
   37       -7.646321   1.000000
   38       -7.517676   1.000000
   39       -7.399433   1.000000
   40       -7.334403   1.000000
   41       -7.230356   1.000000
   42       -7.126230   1.000000
   43       -7.055218   1.000000
   44       -6.977048   1.000000
   45       -6.944491   1.000000
   46       -6.840688   1.000000
   47       -6.796978   1.000000
   48       -6.728016   1.000000
   49       -6.613939   1.000000
   50       -6.597144   1.000000
   51       -6.479127   1.000000
   52       -6.391847   1.000000
   53       -6.314819   1.000000
   54       -6.251878   1.000000
   55       -6.152262   1.000000
   56       -6.116619   1.000000
   57       -5.978360   1.000000
   58       -5.789285   1.000000
   59       -5.694148   1.000000
   60       -5.567368   1.000000
   61       -5.517645   1.000000
   62       -5.468168   1.000000
   63       -5.428108   1.000000
   64       -5.294910   1.000000
   65       -5.225255   1.000000
   66       -5.177719   1.000000
   67       -5.051188   1.000000
   68       -4.858643   1.000000
   69       -4.750378   1.000000
   70       -4.714559   1.000000
   71       -4.649591   1.000000
   72       -4.257774   1.000000
   73       -4.149593   1.000000
   74       -4.042721   1.000000
   75       -3.971349   1.000000
   76       -3.924492   1.000000
   77       -3.775825   1.000000
   78       -3.664211   0.999988
   79       -3.454168   0.996896
   80       -2.951701   0.207154
   81       -2.856149   0.067850
   82       -2.822546   0.041851
   83       -2.717521   0.006713
   84       -2.591837   0.000388
   85       -2.490896   0.000023
   86       -2.394821   0.000001
   87       -2.362654   0.000000
   88       -2.302928   0.000000
   89       -2.242144   0.000000
   90       -2.103254   0.000000
   91       -1.828160   0.000000
   92       -1.684940   0.000000
   93       -1.535088   0.000000
   94       -1.399679   0.000000
   95       -1.330513   0.000000
   96       -1.204161   0.000000
   97       -1.123398   0.000000
   98       -0.979163   0.000000
   99       -0.783939   0.000000
  100       -0.705856   0.000000
  101       -0.651109   0.000000
  102       -0.573444   0.000000
  103       -0.486146   0.000000
  104       -0.313560   0.000000
  105       -0.187927   0.000000
  106       -0.100760   0.000000
  107       -0.054462   0.000000
  108        0.081997   0.000000
  109        0.184014   0.000000
  110        0.326826   0.000000
  111        0.424604   0.000000
  112        0.707759   0.000000
  113        0.904980   0.000000
  114        0.977050   0.000000
  115        1.044299   0.000000
  116        1.162293   0.000000
  117        1.227223   0.000000
  118        1.833109   0.000000
  119        1.984804   0.000000
  120        2.322171   0.000000
 
  0.3750000E+00  0.0000000E+00  0.0000000E+00  0.3125000E-01
    1      -17.638892   1.000000
    2      -17.118890   1.000000
    3      -16.722484   1.000000
    4      -16.669910   1.000000
    5      -16.544621   1.000000
    6      -16.375712   1.000000
    7      -16.278227   1.000000
    8      -16.206470   1.000000
    9      -16.100933   1.000000
   10      -16.023773   1.000000
   11      -15.923112   1.000000
   12      -15.839180   1.000000
   13      -15.781865   1.000000
   14      -15.744374   1.000000
   15      -15.608335   1.000000
   16      -15.540254   1.000000
   17      -15.516538   1.000000
   18      -15.450239   1.000000
   19       -9.728032   1.000000
   20       -9.267646   1.000000
   21       -9.148046   1.000000
   22       -9.026785   1.000000
   23       -8.984189   1.000000
   24       -8.953841   1.000000
   25       -8.511151   1.000000
   26       -8.441298   1.000000
   27       -8.410498   1.000000
   28       -8.361853   1.000000
   29       -8.267800   1.000000
   30       -8.220221   1.000000
   31       -8.140952   1.000000
   32       -7.953195   1.000000
   33       -7.891572   1.000000
   34       -7.804854   1.000000
   35       -7.783443   1.000000
   36       -7.630588   1.000000
   37       -7.577871   1.000000
   38       -7.429980   1.000000
   39       -7.286105   1.000000
   40       -7.231508   1.000000
   41       -7.178017   1.000000
   42       -7.106543   1.000000
   43       -7.008942   1.000000
   44       -6.912552   1.000000
   45       -6.848984   1.000000
   46       -6.813804   1.000000
   47       -6.733714   1.000000
   48       -6.646420   1.000000
   49       -6.609370   1.000000
   50       -6.552541   1.000000
   51       -6.418081   1.000000
   52       -6.319635   1.000000
   53       -6.279506   1.000000
   54       -6.209759   1.000000
   55       -6.101489   1.000000
   56       -5.979626   1.000000
   57       -5.946789   1.000000
   58       -5.912304   1.000000
   59       -5.841297   1.000000
   60       -5.742095   1.000000
   61       -5.727323   1.000000
   62       -5.679327   1.000000
   63       -5.668585   1.000000
   64       -5.519235   1.000000
   65       -5.198064   1.000000
   66       -5.064073   1.000000
   67       -4.965629   1.000000
   68       -4.823966   1.000000
   69       -4.737656   1.000000
   70       -4.696009   1.000000
   71       -4.658416   1.000000
   72       -4.595165   1.000000
   73       -4.200908   1.000000
   74       -4.046089   1.000000
   75       -3.870117   1.000000
   76       -3.770851   1.000000
   77       -3.624358   0.999959
   78       -3.476755   0.998112
   79       -3.367096   0.983037
   80       -3.005395   0.331177
   81       -2.961990   0.228564
   82       -2.864456   0.075893
   83       -2.663207   0.002143
   84       -2.569468   0.000216
   85       -2.520348   0.000055
   86       -2.435408   0.000004
   87       -2.374493   0.000000
   88       -2.291578   0.000000
   89       -2.247542   0.000000
   90       -2.088779   0.000000
   91       -1.814219   0.000000
   92       -1.661447   0.000000
   93       -1.514157   0.000000
   94       -1.381660   0.000000
   95       -1.254001   0.000000
   96       -1.178124   0.000000
   97       -1.038595   0.000000
   98       -0.981910   0.000000
   99       -0.851364   0.000000
  100       -0.804236   0.000000
  101       -0.725427   0.000000
  102       -0.638599   0.000000
  103       -0.562503   0.000000
  104       -0.433083   0.000000
  105       -0.368240   0.000000
  106       -0.275873   0.000000
  107       -0.229894   0.000000
  108        0.015259   0.000000
  109        0.104113   0.000000
  110        0.283565   0.000000
  111        0.423983   0.000000
  112        0.734180   0.000000
  113        0.954094   0.000000
  114        1.072961   0.000000
  115        1.133788   0.000000
  116        1.301247   0.000000
  117        1.377660   0.000000
  118        2.016655   0.000000
  119        2.162678   0.000000
  120        2.490928   0.000000
 
  0.5000000E+00  0.1110223E-15  0.0000000E+00  0.1562500E-01
    1      -17.573181   1.000000
    2      -17.221144   1.000000
    3      -16.735716   1.000000
    4      -16.684890   1.000000
    5      -16.526766   1.000000
    6      -16.401461   1.000000
    7      -16.275278   1.000000
    8      -16.200908   1.000000
    9      -16.040301   1.000000
   10      -16.020009   1.000000
   11      -15.925968   1.000000
   12      -15.850340   1.000000
   13      -15.750011   1.000000
   14      -15.726771   1.000000
   15      -15.628003   1.000000
   16      -15.551380   1.000000
   17      -15.509903   1.000000
   18      -15.447305   1.000000
   19       -9.805934   1.000000
   20       -9.306687   1.000000
   21       -9.167020   1.000000
   22       -9.045051   1.000000
   23       -9.016294   1.000000
   24       -8.941322   1.000000
   25       -8.486512   1.000000
   26       -8.438147   1.000000
   27       -8.394562   1.000000
   28       -8.359246   1.000000
   29       -8.265616   1.000000
   30       -8.205780   1.000000
   31       -8.116115   1.000000
   32       -7.929334   1.000000
   33       -7.877218   1.000000
   34       -7.841960   1.000000
   35       -7.821761   1.000000
   36       -7.666524   1.000000
   37       -7.566322   1.000000
   38       -7.419691   1.000000
   39       -7.305115   1.000000
   40       -7.254292   1.000000
   41       -7.111163   1.000000
   42       -7.046849   1.000000
   43       -6.952176   1.000000
   44       -6.855093   1.000000
   45       -6.809731   1.000000
   46       -6.774686   1.000000
   47       -6.694763   1.000000
   48       -6.597042   1.000000
   49       -6.540358   1.000000
   50       -6.423052   1.000000
   51       -6.410952   1.000000
   52       -6.354309   1.000000
   53       -6.274502   1.000000
   54       -6.169951   1.000000
   55       -6.149630   1.000000
   56       -6.048825   1.000000
   57       -5.994972   1.000000
   58       -5.856722   1.000000
   59       -5.823529   1.000000
   60       -5.802596   1.000000
   61       -5.749872   1.000000
   62       -5.715294   1.000000
   63       -5.689207   1.000000
   64       -5.578710   1.000000
   65       -5.474708   1.000000
   66       -5.047071   1.000000
   67       -5.004298   1.000000
   68       -4.862778   1.000000
   69       -4.713162   1.000000
   70       -4.679406   1.000000
   71       -4.662420   1.000000
   72       -4.524918   1.000000
   73       -4.343004   1.000000
   74       -4.015455   1.000000
   75       -3.784034   1.000000
   76       -3.723374   0.999998
   77       -3.562088   0.999767
   78       -3.415503   0.993116
   79       -3.253456   0.906146
   80       -3.139104   0.694554
   81       -2.989407   0.291258
   82       -2.855420   0.067177
   83       -2.666002   0.002280
   84       -2.585661   0.000331
   85       -2.515715   0.000048
   86       -2.431698   0.000004
   87       -2.394740   0.000001
   88       -2.275210   0.000000
   89       -2.236900   0.000000
   90       -2.078989   0.000000
   91       -1.811066   0.000000
   92       -1.649124   0.000000
   93       -1.508614   0.000000
   94       -1.383605   0.000000
   95       -1.240368   0.000000
   96       -1.175027   0.000000
   97       -1.020674   0.000000
   98       -0.974656   0.000000
   99       -0.899208   0.000000
  100       -0.804681   0.000000
  101       -0.732031   0.000000
  102       -0.662694   0.000000
  103       -0.582870   0.000000
  104       -0.477644   0.000000
  105       -0.456004   0.000000
  106       -0.348834   0.000000
  107       -0.308443   0.000000
  108       -0.006164   0.000000
  109        0.078081   0.000000
  110        0.270556   0.000000
  111        0.420983   0.000000
  112        0.741830   0.000000
  113        0.973660   0.000000
  114        1.106709   0.000000
  115        1.170074   0.000000
  116        1.354422   0.000000
  117        1.426351   0.000000
  118        2.241177   0.000000
  119        2.263382   0.000000
  120        2.375819   0.000000
 
  0.0000000E+00  0.1250000E+00  0.0000000E+00  0.3125000E-01
    1      -17.805516   1.000000
    2      -16.768004   1.000000
    3      -16.623933   1.000000
    4      -16.566702   1.000000
    5      -16.508192   1.000000
    6      -16.370231   1.000000
    7      -16.308372   1.000000
    8      -16.288438   1.000000
    9      -16.180360   1.000000
   10      -16.084342   1.000000
   11      -16.031850   1.000000
   12      -15.918728   1.000000
   13      -15.859288   1.000000
   14      -15.804908   1.000000
   15      -15.630129   1.000000
   16      -15.543128   1.000000
   17      -15.481586   1.000000
   18      -15.378067   1.000000
   19       -9.370143   1.000000
   20       -9.177742   1.000000
   21       -8.922734   1.000000
   22       -8.853987   1.000000
   23       -8.775823   1.000000
   24       -8.635501   1.000000
   25       -8.589011   1.000000
   26       -8.538516   1.000000
   27       -8.484242   1.000000
   28       -8.419136   1.000000
   29       -8.303957   1.000000
   30       -8.242684   1.000000
   31       -8.193044   1.000000
   32       -8.132923   1.000000
   33       -7.997920   1.000000
   34       -7.954841   1.000000
   35       -7.837961   1.000000
   36       -7.749332   1.000000
   37       -7.723574   1.000000
   38       -7.567891   1.000000
   39       -7.506792   1.000000
   40       -7.426645   1.000000
   41       -7.359796   1.000000
   42       -7.209518   1.000000
   43       -7.152263   1.000000
   44       -6.969810   1.000000
   45       -6.864980   1.000000
   46       -6.819597   1.000000
   47       -6.735329   1.000000
   48       -6.634126   1.000000
   49       -6.598299   1.000000
   50       -6.528477   1.000000
   51       -6.438105   1.000000
   52       -6.374986   1.000000
   53       -6.353137   1.000000
   54       -6.309774   1.000000
   55       -6.225650   1.000000
   56       -6.127392   1.000000
   57       -6.042726   1.000000
   58       -5.845158   1.000000
   59       -5.666470   1.000000
   60       -5.577212   1.000000
   61       -5.467749   1.000000
   62       -5.325094   1.000000
   63       -5.282149   1.000000
   64       -5.160648   1.000000
   65       -5.137550   1.000000
   66       -5.049774   1.000000
   67       -4.996157   1.000000
   68       -4.906083   1.000000
   69       -4.675756   1.000000
   70       -4.650021   1.000000
   71       -4.562382   1.000000
   72       -4.365465   1.000000
   73       -4.327139   1.000000
   74       -4.108347   1.000000
   75       -4.055742   1.000000
   76       -3.977019   1.000000
   77       -3.704145   0.999997
   78       -3.658709   0.999986
   79       -3.517957   0.999283
   80       -3.025796   0.384987
   81       -2.948424   0.200592
   82       -2.781734   0.021786
   83       -2.667211   0.002342
   84       -2.523714   0.000061
   85       -2.468753   0.000012
   86       -2.429068   0.000003
   87       -2.309189   0.000000
   88       -2.256741   0.000000
   89       -2.209960   0.000000
   90       -2.082560   0.000000
   91       -1.880326   0.000000
   92       -1.665126   0.000000
   93       -1.575445   0.000000
   94       -1.533944   0.000000
   95       -1.419106   0.000000
   96       -1.261407   0.000000
   97       -1.196965   0.000000
   98       -0.959234   0.000000
   99       -0.789766   0.000000
  100       -0.545387   0.000000
  101       -0.489716   0.000000
  102       -0.424209   0.000000
  103       -0.365441   0.000000
  104       -0.281310   0.000000
  105       -0.115026   0.000000
  106        0.093046   0.000000
  107        0.187342   0.000000
  108        0.265532   0.000000
  109        0.313475   0.000000
  110        0.413164   0.000000
  111        0.498022   0.000000
  112        0.530998   0.000000
  113        0.754518   0.000000
  114        0.799483   0.000000
  115        0.913107   0.000000
  116        1.046347   0.000000
  117        1.115439   0.000000
  118        1.713140   0.000000
  119        1.872554   0.000000
  120        2.217718   0.000000
 
  0.1250000E+00  0.1250000E+00  0.0000000E+00  0.3125000E-01
    1      -17.758814   1.000000
    2      -16.847616   1.000000
    3      -16.778713   1.000000
    4      -16.590260   1.000000
    5      -16.421094   1.000000
    6      -16.391658   1.000000
    7      -16.293094   1.000000
    8      -16.251686   1.000000
    9      -16.174479   1.000000
   10      -16.083650   1.000000
   11      -15.982847   1.000000
   12      -15.917519   1.000000
   13      -15.783845   1.000000
   14      -15.730277   1.000000
   15      -15.678508   1.000000
   16      -15.561751   1.000000
   17      -15.487319   1.000000
   18      -15.395822   1.000000
   19       -9.423367   1.000000
   20       -9.316337   1.000000
   21       -9.050515   1.000000
   22       -9.007618   1.000000
   23       -8.797734   1.000000
   24       -8.654229   1.000000
   25       -8.579889   1.000000
   26       -8.535626   1.000000
   27       -8.488464   1.000000
   28       -8.387516   1.000000
   29       -8.279218   1.000000
   30       -8.246517   1.000000
   31       -8.146701   1.000000
   32       -8.067237   1.000000
   33       -7.983534   1.000000
   34       -7.814223   1.000000
   35       -7.779967   1.000000
   36       -7.702845   1.000000
   37       -7.573379   1.000000
   38       -7.481174   1.000000
   39       -7.411914   1.000000
   40       -7.363390   1.000000
   41       -7.270352   1.000000
   42       -7.183557   1.000000
   43       -7.110862   1.000000
   44       -7.068605   1.000000
   45       -6.906325   1.000000
   46       -6.828434   1.000000
   47       -6.759623   1.000000
   48       -6.716537   1.000000
   49       -6.614255   1.000000
   50       -6.550943   1.000000
   51       -6.460351   1.000000
   52       -6.396244   1.000000
   53       -6.328495   1.000000
   54       -6.268358   1.000000
   55       -6.196977   1.000000
   56       -6.123329   1.000000
   57       -6.022073   1.000000
   58       -5.807711   1.000000
   59       -5.720404   1.000000
   60       -5.488022   1.000000
   61       -5.438177   1.000000
   62       -5.398412   1.000000
   63       -5.391381   1.000000
   64       -5.337328   1.000000
   65       -5.186762   1.000000
   66       -5.043620   1.000000
   67       -5.014199   1.000000
   68       -4.960252   1.000000
   69       -4.872055   1.000000
   70       -4.789675   1.000000
   71       -4.401634   1.000000
   72       -4.275161   1.000000
   73       -4.197120   1.000000
   74       -4.046888   1.000000
   75       -3.938392   1.000000
   76       -3.911715   1.000000
   77       -3.808854   1.000000
   78       -3.750455   0.999999
   79       -3.511924   0.999170
   80       -2.947973   0.199699
   81       -2.856903   0.068552
   82       -2.803023   0.030906
   83       -2.669405   0.002458
   84       -2.597825   0.000452
   85       -2.503650   0.000034
   86       -2.420517   0.000002
   87       -2.328087   0.000000
   88       -2.282528   0.000000
   89       -2.217466   0.000000
   90       -2.076610   0.000000
   91       -1.857440   0.000000
   92       -1.666434   0.000000
   93       -1.534574   0.000000
   94       -1.466934   0.000000
   95       -1.378045   0.000000
   96       -1.228568   0.000000
   97       -1.174608   0.000000
   98       -0.947664   0.000000
   99       -0.768345   0.000000
  100       -0.638774   0.000000
  101       -0.621061   0.000000
  102       -0.531203   0.000000
  103       -0.504338   0.000000
  104       -0.316795   0.000000
  105       -0.120519   0.000000
  106       -0.047877   0.000000
  107        0.010433   0.000000
  108        0.154448   0.000000
  109        0.168663   0.000000
  110        0.414841   0.000000
  111        0.484133   0.000000
  112        0.625625   0.000000
  113        0.803350   0.000000
  114        0.930519   0.000000
  115        1.030071   0.000000
  116        1.133222   0.000000
  117        1.188099   0.000000
  118        1.793589   0.000000
  119        1.949052   0.000000
  120        2.287105   0.000000
 
  0.2500000E+00  0.1250000E+00  0.0000000E+00  0.3125000E-01
    1      -17.671789   1.000000
    2      -17.005478   1.000000
    3      -16.903219   1.000000
    4      -16.562368   1.000000
    5      -16.451173   1.000000
    6      -16.346230   1.000000
    7      -16.306066   1.000000
    8      -16.205546   1.000000
    9      -16.160173   1.000000
   10      -16.039311   1.000000
   11      -15.927910   1.000000
   12      -15.904960   1.000000
   13      -15.778910   1.000000
   14      -15.703278   1.000000
   15      -15.621693   1.000000
   16      -15.580679   1.000000
   17      -15.513124   1.000000
   18      -15.412860   1.000000
   19       -9.611625   1.000000
   20       -9.431693   1.000000
   21       -9.177756   1.000000
   22       -9.045436   1.000000
   23       -8.854781   1.000000
   24       -8.707021   1.000000
   25       -8.525642   1.000000
   26       -8.451839   1.000000
   27       -8.433578   1.000000
   28       -8.343670   1.000000
   29       -8.282601   1.000000
   30       -8.220271   1.000000
   31       -8.153139   1.000000
   32       -8.067947   1.000000
   33       -7.980152   1.000000
   34       -7.883326   1.000000
   35       -7.797057   1.000000
   36       -7.583948   1.000000
   37       -7.423831   1.000000
   38       -7.400502   1.000000
   39       -7.313436   1.000000
   40       -7.271430   1.000000
   41       -7.208608   1.000000
   42       -7.125113   1.000000
   43       -7.040396   1.000000
   44       -6.946895   1.000000
   45       -6.876866   1.000000
   46       -6.827262   1.000000
   47       -6.772726   1.000000