       N       E                     dE             d eps       ncg     rms          rms(c)
DAV:   1     0.112413846601E+04    0.11241E+04   -0.35861E+04  8160   0.577E+02
DAV:   2     0.971704431526E+00   -0.11232E+04   -0.10792E+04 10960   0.173E+02
DAV:   3    -0.199569685631E+03   -0.20054E+03   -0.19209E+03 10960   0.823E+01
DAV:   4    -0.208972537789E+03   -0.94029E+01   -0.90836E+01 12000   0.261E+01
DAV:   5    -0.209312398215E+03   -0.33986E+00   -0.33887E+00 11480   0.376E+00    0.275E+01
DAV:   6    -0.237213511243E+03   -0.27901E+02   -0.10634E+02 12640   0.605E+01    0.595E+01
DAV:   7    -0.196465982225E+03    0.40748E+02   -0.17615E+02 13440   0.152E+02    0.200E+01
DAV:   8    -0.189426755070E+03    0.70392E+01   -0.17640E+01 11880   0.127E+01    0.125E+01
DAV:   9    -0.188229508621E+03    0.11972E+01   -0.35843E+00 12480   0.614E+00    0.929E+00
DAV:  10    -0.187079334242E+03    0.11502E+01   -0.20098E+00 13280   0.733E+00    0.319E+00
DAV:  11    -0.187029576589E+03    0.49758E-01   -0.72184E-01 13520   0.321E+00    0.343E+00
DAV:  12    -0.187172446834E+03   -0.14287E+00   -0.11459E+00 12640   0.555E+00    0.486E+00
DAV:  13    -0.186927076166E+03    0.24537E+00   -0.49454E-01 13120   0.359E+00    0.215E+00
DAV:  14    -0.186879609025E+03    0.47467E-01   -0.11143E-01 13480   0.163E+00    0.766E-01
DAV:  15    -0.186881463542E+03   -0.18545E-02   -0.41279E-02 12200   0.117E+00    0.117E+00
DAV:  16    -0.186872619432E+03    0.88441E-02   -0.20471E-02 13120   0.807E-01    0.566E-01
DAV:  17    -0.186869281801E+03    0.33376E-02   -0.98662E-03 12720   0.520E-01    0.221E-01
DAV:  18    -0.186869087961E+03    0.19384E-03   -0.20571E-03 11840   0.150E-01    0.154E-01
DAV:  19    -0.186868737855E+03    0.35011E-03   -0.90110E-04 11000   0.104E-01    0.509E-02
DAV:  20    -0.186869503928E+03   -0.76607E-03   -0.74113E-04  9320   0.626E-02    0.539E-02
DAV:  21    -0.186870107901E+03   -0.60397E-03   -0.20908E-04  8280   0.454E-02    0.324E-02
DAV:  22    -0.186871222640E+03   -0.11147E-02   -0.18046E-04  7520   0.420E-02    0.331E-02
DAV:  23    -0.186872447548E+03   -0.12249E-02   -0.13078E-04  7520   0.408E-02    0.118E-02
DAV:  24    -0.186873033266E+03   -0.58572E-03   -0.25097E-05  6800   0.133E-02    0.759E-03
DAV:  25    -0.186873411852E+03   -0.37859E-03   -0.15663E-05  5560   0.118E-02    0.486E-03
DAV:  26    -0.186873630608E+03   -0.21876E-03   -0.83044E-06  6880   0.712E-03    0.208E-03
DAV:  27    -0.186873733977E+03   -0.10337E-03   -0.38164E-06  6960   0.409E-03    0.127E-03
DAV:  28    -0.186873784011E+03   -0.50035E-04   -0.20877E-06  7200   0.300E-03
   1 F= -.18687378E+03 E0= -.18670211E+03  d E =-.186874E+03
       N       E                     dE             d eps       ncg     rms          rms(c)
DAV:   1    -0.187499219150E+03   -0.62549E+00   -0.27028E+02  8160   0.349E+01    0.465E+00
DAV:   2    -0.189500375407E+03   -0.20012E+01   -0.20289E+01 12240   0.156E+01    0.984E+00
DAV:   3    -0.189340574221E+03    0.15980E+00   -0.49348E+00 12440   0.126E+01    0.629E+00
DAV:   4    -0.188767381815E+03    0.57319E+00   -0.56110E-01 11880   0.439E+00    0.201E+00
DAV:   5    -0.188899804116E+03   -0.13242E+00   -0.48350E-01 12160   0.390E+00    0.550E+00
DAV:   6    -0.188742613570E+03    0.15719E+00   -0.78770E-01 12680   0.436E+00    0.229E+00
DAV:   7    -0.188712085675E+03    0.30528E-01   -0.21120E-01 11680   0.214E+00    0.202E+00
DAV:   8    -0.188695598225E+03    0.16487E-01   -0.11982E-01 12920   0.208E+00    0.174E+00
DAV:   9    -0.188670403664E+03    0.25195E-01   -0.48148E-02 11960   0.113E+00    0.506E-01
DAV:  10    -0.188668727666E+03    0.16760E-02   -0.58584E-03 11160   0.273E-01    0.259E-01
DAV:  11    -0.188668175687E+03    0.55198E-03   -0.28821E-03 13160   0.222E-01    0.139E-01
DAV:  12    -0.188668113313E+03    0.62374E-04   -0.10823E-03 11800   0.103E-01    0.104E-01
DAV:  13    -0.188668093994E+03    0.19319E-04   -0.27232E-04  7560   0.677E-02
   2 F= -.18866809E+03 E0= -.18852823E+03  d E =-.179431E+01
       N       E                     dE             d eps       ncg     rms          rms(c)
DAV:   1    -0.190590504420E+03   -0.19224E+01   -0.31015E+01  9200   0.142E+01    0.446E+00
DAV:   2    -0.190573118798E+03    0.17386E-01   -0.28211E+00 11120   0.969E+00    0.741E+00
DAV:   3    -0.190062427555E+03    0.51069E+00   -0.13093E+00 12280   0.867E+00    0.416E+00
DAV:   4    -0.189856198742E+03    0.20623E+00   -0.68901E-01 12760   0.413E+00    0.248E+00
DAV:   5    -0.189792304694E+03    0.63894E-01   -0.31332E-01 11080   0.237E+00    0.202E+00
DAV:   6    -0.189759770931E+03    0.32534E-01   -0.10679E-01 12720   0.195E+00    0.840E-01
DAV:   7    -0.189752326178E+03    0.74448E-02   -0.14938E-02 12520   0.585E-01    0.195E-01
DAV:   8    -0.189752342051E+03   -0.15873E-04   -0.26840E-03 10240   0.157E-01    0.138E-01
DAV:   9    -0.189752560540E+03   -0.21849E-03   -0.10294E-03 10480   0.104E-01    0.128E-01
DAV:  10    -0.189752431185E+03    0.12936E-03   -0.51648E-04  9040   0.825E-02    0.300E-02
DAV:  11    -0.189752447223E+03   -0.16038E-04   -0.98658E-05  7000   0.423E-02
   3 F= -.18975245E+03 E0= -.18963512E+03  d E =-.108435E+01
       N       E                     dE             d eps       ncg     rms          rms(c)
DAV:   1    -0.191296727462E+03   -0.15443E+01   -0.71120E+01  8160   0.193E+01    0.461E+00
DAV:   2    -0.191186415451E+03    0.11031E+00   -0.54085E+00 13400   0.838E+00    0.519E+00
DAV:   3    -0.191236445985E+03   -0.50031E-01   -0.15765E+00 11800   0.922E+00    0.686E+00
DAV:   4    -0.190907476917E+03    0.32897E+00   -0.15626E+00 12600   0.786E+00    0.408E+00
DAV:   5    -0.190896441885E+03    0.11035E-01   -0.86423E-01 11200   0.587E+00    0.360E+00
DAV:   6    -0.190713061359E+03    0.18338E+00   -0.20634E-01 11160   0.298E+00    0.604E-01
DAV:   7    -0.190712031189E+03    0.10302E-02   -0.37526E-02 11360   0.738E-01    0.506E-01
DAV:   8    -0.190710595336E+03    0.14359E-02   -0.11840E-02 11440   0.690E-01    0.517E-01
DAV:   9    -0.190708205578E+03    0.23898E-02   -0.40827E-03 11160   0.473E-01    0.146E-01
DAV:  10    -0.190708442054E+03   -0.23648E-03   -0.11004E-03 10480   0.128E-01    0.919E-02
DAV:  11    -0.190708360206E+03    0.81847E-04   -0.52921E-04  9480   0.812E-02
   4 F= -.19070836E+03 E0= -.19060997E+03  d E =-.955913E+00
       N       E                     dE             d eps       ncg     rms          rms(c)
DAV:   1    -0.192131981842E+03   -0.14235E+01   -0.14772E+02  8160   0.273E+01    0.583E+00
DAV:   2    -0.191961013818E+03    0.17097E+00   -0.96965E+00 12200   0.951E+00    0.554E+00
DAV:   3    -0.192410470309E+03   -0.44946E+00   -0.33128E+00 12240   0.126E+01    0.944E+00
DAV:   4    -0.191539477657E+03    0.87099E+00   -0.21972E+00 12280   0.106E+01    0.302E+00
DAV:   5    -0.191509829765E+03    0.29648E-01   -0.54572E-01 11840   0.486E+00    0.414E+00
DAV:   6    -0.191372962796E+03    0.13687E+00   -0.58745E-01 12200   0.513E+00    0.159E+00
DAV:   7    -0.191348303189E+03    0.24660E-01   -0.69662E-02 11920   0.145E+00    0.677E-01
DAV:   8    -0.191346921055E+03    0.13821E-02   -0.24089E-02 12080   0.109E+00    0.747E-01
DAV:   9    -0.191341463746E+03    0.54573E-02   -0.97546E-03 11440   0.744E-01    0.231E-01
DAV:  10    -0.191341586827E+03   -0.12308E-03   -0.27459E-03 11520   0.225E-01    0.119E-01
DAV:  11    -0.191341445978E+03    0.14085E-03   -0.87061E-04 10720   0.108E-01    0.656E-02
DAV:  12    -0.191341412396E+03    0.33582E-04   -0.13959E-04  7200   0.475E-02
   5 F= -.19134141E+03 E0= -.19124827E+03  d E =-.633052E+00
       N       E                     dE             d eps       ncg     rms          rms(c)
DAV:   1    -0.191388277313E+03   -0.46831E-01   -0.35433E+00  8160   0.400E+00    0.595E-01
DAV:   2    -0.191446771751E+03   -0.58494E-01   -0.22627E-01 12400   0.279E+00    0.229E+00
DAV:   3    -0.191397136116E+03    0.49636E-01   -0.10648E-01 12080   0.224E+00    0.479E-01
DAV:   4    -0.191397451006E+03   -0.31489E-03   -0.13231E-02 11480   0.786E-01    0.537E-01
DAV:   5    -0.191394516147E+03    0.29349E-02   -0.58852E-03 11520   0.548E-01    0.178E-01
DAV:   6    -0.191394633280E+03   -0.11713E-03   -0.20743E-03 11480   0.285E-01    0.227E-01
DAV:   7    -0.191394490843E+03    0.14244E-03   -0.21896E-03 10960   0.351E-01    0.182E-01
DAV:   8    -0.191394094655E+03    0.39619E-03   -0.67214E-04  9080   0.170E-01    0.273E-02
DAV:   9    -0.191394110135E+03   -0.15479E-04   -0.89416E-05  6400   0.360E-02
   6 F= -.19139411E+03 E0= -.19129861E+03  d E =-.526977E-01
       N       E                     dE             d eps       ncg     rms          rms(c)
DAV:   1    -0.191463905958E+03   -0.69811E-01   -0.10291E+01  8160   0.678E+00    0.901E-01
DAV:   2    -0.191564915683E+03   -0.10101E+00   -0.41623E-01 12520   0.314E+00    0.322E+00
DAV:   3    -0.191479224257E+03    0.85691E-01   -0.26976E-01 11960   0.324E+00    0.893E-01
DAV:   4    -0.191478658136E+03    0.56612E-03   -0.35975E-02 11440   0.126E+00    0.904E-01
DAV:   5    -0.191470245843E+03    0.84123E-02   -0.17849E-02 11680   0.980E-01    0.330E-01
DAV:   6    -0.191470080994E+03    0.16485E-03   -0.62223E-03 11440   0.501E-01    0.369E-01
DAV:   7    -0.191469462339E+03    0.61865E-03   -0.54819E-03 11200   0.560E-01    0.268E-01
DAV:   8    -0.191468638996E+03    0.82334E-03   -0.15860E-03 10320   0.269E-01    0.506E-02
DAV:   9    -0.191468616145E+03    0.22851E-04   -0.17361E-04  6720   0.566E-02
   7 F= -.19146862E+03 E0= -.19137122E+03  d E =-.745060E-01
       N       E                     dE             d eps       ncg     rms          rms(c)
DAV:   1    -0.191478954969E+03   -0.10316E-01   -0.22233E-01  8160   0.109E+00    0.252E-01
DAV:   2    -0.191479569789E+03   -0.61482E-03   -0.14926E-02 11480   0.553E-01    0.426E-01
DAV:   3    -0.191478197726E+03    0.13721E-02   -0.67576E-03 11480   0.602E-01    0.255E-01
DAV:   4    -0.191477934535E+03    0.26319E-03   -0.31724E-03 11200   0.364E-01    0.259E-01
DAV:   5    -0.191477460893E+03    0.47364E-03   -0.22624E-03  9720   0.338E-01    0.164E-01
DAV:   6    -0.191477204938E+03    0.25596E-03   -0.85371E-04  9480   0.180E-01    0.816E-02
DAV:   7    -0.191477167028E+03    0.37909E-04   -0.26629E-04  6720   0.116E-01
   8 F= -.19147717E+03 E0= -.19137948E+03  d E =-.855088E-02
       N       E                     dE             d eps       ncg     rms          rms(c)
DAV:   1    -0.191519169547E+03   -0.41965E-01   -0.34721E+00  8160   0.396E+00    0.511E-01
DAV:   2    -0.191555669071E+03   -0.36500E-01   -0.14513E-01 13160   0.205E+00    0.188E+00
DAV:   3    -0.191524359848E+03    0.31309E-01   -0.78721E-02 12040   0.184E+00    0.453E-01
DAV:   4    -0.191524836651E+03   -0.47680E-03   -0.10957E-02 11480   0.700E-01    0.516E-01
DAV:   5    -0.191522213900E+03    0.26228E-02   -0.58306E-03 11560   0.544E-01    0.187E-01
DAV:   6    -0.191522224507E+03   -0.10607E-04   -0.20028E-03 10520   0.297E-01    0.213E-01
DAV:   7    -0.191522039888E+03    0.18462E-03   -0.17968E-03 10200   0.323E-01    0.151E-01
DAV:   8    -0.191521744675E+03    0.29521E-03   -0.51001E-04  8400   0.154E-01    0.270E-02
DAV:   9    -0.191521742101E+03    0.25735E-05   -0.70437E-05  6800   0.355E-02
   9 F= -.19152174E+03 E0= -.19142413E+03  d E =-.445751E-01
       N       E                     dE             d eps       ncg     rms          rms(c)
DAV:   1    -0.191531558504E+03   -0.98138E-02   -0.16676E-01  8160   0.877E-01    0.123E-01
DAV:   2    -0.191533446421E+03   -0.18879E-02   -0.82072E-03 12640   0.500E-01    0.410E-01
DAV:   3    -0.191531782218E+03    0.16642E-02   -0.35225E-03 11560   0.416E-01    0.991E-02
DAV:   4    -0.191531854934E+03   -0.72717E-04   -0.60518E-04  8320   0.170E-01
  10 F= -.19153185E+03 E0= -.19143434E+03  d E =-.101128E-01
       N       E                     dE             d eps       ncg     rms          rms(c)
DAV:   1    -0.191552173207E+03   -0.20391E-01   -0.72967E-01  8160   0.185E+00    0.274E-01
DAV:   2    -0.191561868515E+03   -0.96953E-02   -0.38181E-02 12200   0.106E+00    0.101E+00
DAV:   3    -0.191552999727E+03    0.88688E-02   -0.21404E-02 10840   0.932E-01    0.223E-01
DAV:   4    -0.191553098095E+03   -0.98368E-04   -0.27633E-03 11240   0.349E-01    0.253E-01
DAV:   5    -0.191552464917E+03    0.63318E-03   -0.16389E-03 10480   0.299E-01    0.115E-01
DAV:   6    -0.191552405302E+03    0.59615E-04   -0.68419E-04  9520   0.165E-01
  11 F= -.19155241E+03 E0= -.19145535E+03  d E =-.205504E-01
       N       E                     dE             d eps       ncg     rms          rms(c)
DAV:   1    -0.191586359627E+03   -0.33895E-01   -0.33181E+00  8160   0.388E+00    0.585E-01
DAV:   2    -0.191659021497E+03   -0.72662E-01   -0.21634E-01 11960   0.267E+00    0.299E+00
DAV:   3    -0.191591312642E+03    0.67709E-01   -0.16736E-01 11640   0.240E+00    0.375E-01
DAV:   4    -0.191591848186E+03   -0.53554E-03   -0.86864E-03 11520   0.650E-01    0.485E-01
DAV:   5    -0.191589486967E+03    0.23612E-02   -0.57049E-03 11720   0.604E-01    0.203E-01
DAV:   6    -0.191589307048E+03    0.17992E-03   -0.19266E-03 10400   0.273E-01    0.158E-01
DAV:   7    -0.191589371144E+03   -0.64096E-04   -0.14738E-03 10600   0.302E-01    0.173E-01
DAV:   8    -0.191588966380E+03    0.40476E-03   -0.52937E-04  8520   0.171E-01    0.229E-02
DAV:   9    -0.191588973936E+03   -0.75559E-05   -0.67054E-05  5640   0.309E-02
  12 F= -.19158897E+03 E0= -.19149401E+03  d E =-.365686E-01
       N       E                     dE             d eps       ncg     rms          rms(c)
DAV:   1    -0.191594192325E+03   -0.52259E-02   -0.97232E-01  8160   0.209E+00    0.394E-01
DAV:   2    -0.191629202597E+03   -0.35010E-01   -0.99770E-02 12240   0.211E+00    0.184E+00
DAV:   3    -0.191595004690E+03    0.34198E-01   -0.51449E-02 11600   0.167E+00    0.184E-01
DAV:   4    -0.191595107198E+03   -0.10251E-03   -0.27878E-03 11400   0.334E-01    0.235E-01
DAV:   5    -0.191594619891E+03    0.48731E-03   -0.13696E-03 10560   0.277E-01    0.124E-01
DAV:   6    -0.191594472104E+03    0.14779E-03   -0.47771E-04  8680   0.125E-01    0.782E-02
DAV:   7    -0.191594581903E+03   -0.10980E-03   -0.58666E-04  9720   0.185E-01    0.129E-01
DAV:   8    -0.191594389697E+03    0.19221E-03   -0.30543E-04  7080   0.135E-01    0.204E-02
DAV:   9    -0.191594397202E+03   -0.75047E-05   -0.36667E-05  5680   0.242E-02
  13 F= -.19159440E+03 E0= -.19149929E+03  d E =-.542327E-02
       N       E                     dE             d eps       ncg     rms          rms(c)
DAV:   1    -0.191636146463E+03   -0.41757E-01   -0.31522E+00  8160   0.379E+00    0.409E-01
DAV:   2    -0.191649076526E+03   -0.12930E-01   -0.10038E-01 13080   0.126E+00    0.931E-01
DAV:   3    -0.191642400194E+03    0.66763E-02   -0.29400E-02 12040   0.113E+00    0.465E-01
DAV:   4    -0.191641610272E+03    0.78992E-03   -0.71779E-03 11200   0.574E-01    0.396E-01
DAV:   5    -0.191640027446E+03    0.15828E-02   -0.37487E-03 11240   0.472E-01    0.180E-01
DAV:   6    -0.191640035606E+03   -0.81598E-05   -0.18522E-03 10600   0.263E-01    0.171E-01
DAV:   7    -0.191640007866E+03    0.27740E-04   -0.14902E-03 10240   0.298E-01    0.169E-01
DAV:   8    -0.191639644774E+03    0.36309E-03   -0.51879E-04  8200   0.177E-01    0.219E-02
DAV:   9    -0.191639650141E+03   -0.53668E-05   -0.51888E-05  6360   0.289E-02
  14 F= -.19163965E+03 E0= -.19154754E+03  d E =-.452529E-01
       N       E                     dE             d eps       ncg     rms          rms(c)
DAV:   1    -0.191579648554E+03    0.59996E-01   -0.47670E+00  8160   0.466E+00    0.482E-01
DAV:   2    -0.191592286408E+03   -0.12638E-01   -0.13928E-01 12480   0.122E+00    0.729E-01
DAV:   3    -0.191590318901E+03    0.19675E-02   -0.27142E-02 12080   0.116E+00    0.701E-01
DAV:   4    -0.191587187577E+03    0.31313E-02   -0.13999E-02 12240   0.734E-01    0.429E-01
DAV:   5    -0.191585627288E+03    0.15603E-02   -0.54858E-03 11040   0.531E-01    0.249E-01
DAV:   6    -0.191585425374E+03    0.20191E-03   -0.30139E-03 10880   0.343E-01    0.192E-01
DAV:   7    -0.191585461864E+03   -0.36490E-04   -0.20310E-03 11240   0.335E-01    0.217E-01
DAV:   8    -0.191584905248E+03    0.55662E-03   -0.81071E-04  9160   0.225E-01    0.278E-02
DAV:   9    -0.191584914745E+03   -0.94972E-05   -0.63925E-05  6520   0.330E-02
  15 F= -.19158491E+03 E0= -.19148941E+03  d E =0.547354E-01
       N       E                     dE             d eps       ncg     rms          rms(c)
DAV:   1    -0.191586759897E+03   -0.18546E-02   -0.12209E+00  8160   0.240E+00    0.353E-01
DAV:   2    -0.191604001997E+03   -0.17242E-01   -0.60822E-02 12560   0.139E+00    0.137E+00
DAV:   3    -0.191587694715E+03    0.16307E-01   -0.35260E-02 12120   0.124E+00    0.265E-01
DAV:   4    -0.191588479444E+03   -0.78473E-03   -0.52101E-03 11200   0.478E-01    0.391E-01
DAV:   5    -0.191587002629E+03    0.14768E-02   -0.36260E-03 10440   0.442E-01    0.151E-01
DAV:   6    -0.191586803060E+03    0.19957E-03   -0.96870E-04 10120   0.177E-01    0.825E-02
DAV:   7    -0.191586817444E+03   -0.14385E-04   -0.48146E-04 10120   0.164E-01
  16 F= -.19158682E+03 E0= -.19149209E+03  d E =-.190270E-02
       N       E                     dE             d eps       ncg     rms          rms(c)
DAV:   1    -0.191581598193E+03    0.52049E-02   -0.16461E+00  8160   0.278E+00    0.368E-01
DAV:   2    -0.191590388889E+03   -0.87907E-02   -0.56426E-02 12280   0.117E+00    0.886E-01
DAV:   3    -0.191583607098E+03    0.67818E-02   -0.20597E-02 12440   0.105E+00    0.406E-01
DAV:   4    -0.191583225043E+03    0.38205E-03   -0.56378E-03 10720   0.514E-01    0.364E-01
DAV:   5    -0.191582104164E+03    0.11209E-02   -0.37329E-03 10560   0.470E-01    0.208E-01
DAV:   6    -0.191581867970E+03    0.23619E-03   -0.17588E-03 10680   0.282E-01    0.154E-01
DAV:   7    -0.191581810340E+03    0.57630E-04   -0.11585E-03 10400   0.257E-01    0.141E-01
DAV:   8    -0.191581570470E+03    0.23987E-03   -0.39258E-04  8560   0.141E-01    0.223E-02
DAV:   9    -0.191581571177E+03   -0.70675E-06   -0.38836E-05  5920   0.256E-02
  17 F= -.19158157E+03 E0= -.19148825E+03  d E =0.524627E-02
       N       E                     dE             d eps       ncg     rms          rms(c)
DAV:   1    -0.191614021243E+03   -0.32451E-01   -0.36573E+00  8160   0.411E+00    0.477E-01
DAV:   2    -0.191629384957E+03   -0.15364E-01   -0.12177E-01 13240   0.143E+00    0.103E+00
DAV:   3    -0.191621013270E+03    0.83717E-02   -0.35084E-02 12080   0.129E+00    0.548E-01
DAV:   4    -0.191620083503E+03    0.92977E-03   -0.11224E-02 12320   0.708E-01    0.502E-01
DAV:   5    -0.191617660128E+03    0.24234E-02   -0.62711E-03 11600   0.584E-01    0.226E-01
DAV:   6    -0.191617427190E+03    0.23294E-03   -0.26474E-03 10320   0.306E-01    0.181E-01
DAV:   7    -0.191617528741E+03   -0.10155E-03   -0.19554E-03 10800   0.345E-01    0.211E-01
DAV:   8    -0.191616983208E+03    0.54553E-03   -0.78101E-04  9200   0.222E-01    0.288E-02
DAV:   9    -0.191616982495E+03    0.71296E-06   -0.62274E-05  6280   0.331E-02
  18 F= -.19161698E+03 E0= -.19152422E+03  d E =-.354113E-01
       N       E                     dE             d eps       ncg     rms          rms(c)
DAV:   1    -0.191651936030E+03   -0.34953E-01   -0.30895E+00  8160   0.376E+00    0.427E-01
DAV:   2    -0.191667950765E+03   -0.16015E-01   -0.10684E-01 12960   0.138E+00    0.115E+00
DAV:   3    -0.191657824348E+03    0.10126E-01   -0.35545E-02 12040   0.123E+00    0.449E-01
DAV:   4    -0.191657319491E+03    0.50486E-03   -0.74006E-03 11280   0.588E-01    0.413E-01
DAV:   5    -0.191655529575E+03    0.17899E-02   -0.40728E-03 10760   0.494E-01    0.180E-01
DAV:   6    -0.191655574256E+03   -0.44682E-04   -0.19574E-03 11440   0.277E-01    0.181E-01
DAV:   7    -0.191655448724E+03    0.12553E-03   -0.14271E-03 10360   0.301E-01    0.154E-01
DAV:   8    -0.191655134680E+03    0.31404E-03   -0.45445E-04  8840   0.167E-01    0.233E-02
DAV:   9    -0.191655133125E+03    0.15551E-05   -0.50235E-05  6400   0.292E-02
  19 F= -.19165513E+03 E0= -.19156479E+03  d E =-.381506E-01
       N       E                     dE             d eps       ncg     rms          rms(c)
DAV:   1    -0.191658597488E+03   -0.34628E-02   -0.30556E-02  8160   0.379E-01    0.533E-02
DAV:   2    -0.191658900500E+03   -0.30301E-03   -0.15380E-03 12440   0.194E-01    0.169E-01
DAV:   3    -0.191658638171E+03    0.26233E-03   -0.57152E-04  8240   0.166E-01    0.443E-02
DAV:   4    -0.191658645941E+03   -0.77706E-05   -0.86857E-05  5520   0.681E-02
  20 F= -.19165865E+03 E0= -.19156865E+03  d E =-.351282E-02
       N       E                     dE             d eps       ncg     rms          rms(c)
DAV:   1    -0.191663420015E+03   -0.47818E-02   -0.50688E-01  8160   0.158E+00    0.308E-01
DAV:   2    -0.191671685727E+03   -0.82657E-02   -0.33747E-02 11960   0.119E+00    0.910E-01
DAV:   3    -0.191662265558E+03    0.94202E-02   -0.15018E-02 12120   0.972E-01    0.181E-01
DAV:   4    -0.191662782059E+03   -0.51650E-03   -0.29796E-03 10920   0.393E-01    0.304E-01
DAV:   5    -0.191662117686E+03    0.66437E-03   -0.27964E-03 10200   0.406E-01    0.209E-01
DAV:   6    -0.191661793538E+03    0.32415E-03   -0.14014E-03  9520   0.246E-01    0.129E-01
DAV:   7    -0.191661665714E+03    0.12782E-03   -0.53326E-04  8400   0.171E-01    0.636E-02
DAV:   8    -0.191661621938E+03    0.43776E-04   -0.91831E-05  6800   0.653E-02
  21 F= -.19166162E+03 E0= -.19157164E+03  d E =-.297600E-02
       N       E                     dE             d eps       ncg     rms          rms(c)
DAV:   1    -0.191667939243E+03   -0.62735E-02   -0.30172E-01  8160   0.119E+00    0.176E-01
DAV:   2    -0.191671866192E+03   -0.39269E-02   -0.15002E-02 12240   0.715E-01    0.615E-01
DAV:   3    -0.191668144173E+03    0.37220E-02   -0.69654E-03 11680   0.611E-01    0.122E-01
DAV:   4    -0.191668438675E+03   -0.29450E-03   -0.12514E-03  9920   0.245E-01    0.209E-01
DAV:   5    -0.191668004709E+03    0.43397E-03   -0.90189E-04  8760   0.222E-01    0.649E-02
DAV:   6    -0.191668009518E+03   -0.48091E-05   -0.21367E-04  6200   0.100E-01
  22 F= -.19166801E+03 E0= -.19157871E+03  d E =-.638758E-02
       N       E                     dE             d eps       ncg     rms          rms(c)
DAV:   1    -0.191696910055E+03   -0.28905E-01   -0.22287E+00  8160   0.327E+00    0.433E-01
DAV:   2    -0.191709000949E+03   -0.12091E-01   -0.84127E-02 12640   0.139E+00    0.976E-01
DAV:   3    -0.191699916131E+03    0.90848E-02   -0.24212E-02 12000   0.124E+00    0.407E-01
DAV:   4    -0.191699571204E+03    0.34493E-03   -0.69960E-03 11360   0.566E-01    0.402E-01
DAV:   5    -0.191698261425E+03    0.13098E-02   -0.47088E-03 10560   0.508E-01    0.258E-01
DAV:   6    -0.191697870163E+03    0.39126E-03   -0.27565E-03 11360   0.340E-01    0.184E-01
DAV:   7    -0.191697852329E+03    0.17834E-04   -0.17319E-03 10040   0.318E-01    0.180E-01
DAV:   8    -0.191697434481E+03    0.41785E-03   -0.60229E-04  9400   0.180E-01    0.241E-02
DAV:   9    -0.191697431744E+03    0.27374E-05   -0.51863E-05  6160   0.279E-02
  23 F= -.19169743E+03 E0= -.19160984E+03  d E =-.294222E-01
       N       E                     dE             d eps       ncg     rms          rms(c)
DAV:   1    -0.191725436019E+03   -0.28002E-01   -0.16736E+00  8160   0.275E+00    0.281E-01
DAV:   2    -0.191731071223E+03   -0.56352E-02   -0.51568E-02 11840   0.825E-01    0.554E-01
DAV:   3    -0.191729012520E+03    0.20587E-02   -0.11109E-02 12480   0.754E-01    0.332E-01
DAV:   4    -0.191728169342E+03    0.84318E-03   -0.25402E-03 11080   0.340E-01    0.207E-01
DAV:   5    -0.191727915572E+03    0.25377E-03   -0.15473E-03 10160   0.310E-01    0.156E-01
DAV:   6    -0.191727784403E+03    0.13117E-03   -0.89174E-04 10360   0.182E-01    0.754E-02
DAV:   7    -0.191727667595E+03    0.11681E-03   -0.23446E-04  6240   0.715E-02    0.235E-02
DAV:   8    -0.191727670726E+03   -0.31318E-05   -0.63124E-05  7240   0.516E-02
  24 F= -.19172767E+03 E0= -.19164276E+03  d E =-.302390E-01
       N       E                     dE             d eps       ncg     rms          rms(c)
DAV:   1    -0.191752350408E+03   -0.24683E-01   -0.92295E-01  8160   0.208E+00    0.253E-01
DAV:   2    -0.191756655315E+03   -0.43049E-02   -0.32303E-02 11880   0.776E-01    0.568E-01
DAV:   3    -0.191753632564E+03    0.30228E-02   -0.86710E-03 12360   0.689E-01    0.231E-01
DAV:   4    -0.191753504283E+03    0.12828E-03   -0.21630E-03 11040   0.319E-01    0.211E-01
DAV:   5    -0.191753177214E+03    0.32707E-03   -0.14633E-03 10080   0.307E-01    0.151E-01
DAV:   6    -0.191753025341E+03    0.15187E-03   -0.71193E-04  9880   0.190E-01    0.878E-02
DAV:   7    -0.191753034579E+03   -0.92377E-05   -0.41826E-04  8720   0.168E-01
  25 F= -.19175303E+03 E0= -.19167032E+03  d E =-.253639E-01
       N       E                     dE             d eps       ncg     rms          rms(c)
DAV:   1    -0.191753959942E+03   -0.93460E-03   -0.49475E-01  8160   0.153E+00    0.230E-01
DAV:   2    -0.191760956568E+03   -0.69966E-02   -0.23643E-02 12240   0.903E-01    0.859E-01
DAV:   3    -0.191754213219E+03    0.67433E-02   -0.13045E-02 12040   0.807E-01    0.150E-01
DAV:   4    -0.191754535063E+03   -0.32184E-03   -0.15126E-03 10080   0.288E-01    0.226E-01
DAV:   5    -0.191753973271E+03    0.56179E-03   -0.10563E-03 10120   0.269E-01    0.763E-02
DAV:   6    -0.191753989095E+03   -0.15823E-04   -0.31136E-04  7360   0.119E-01
  26 F= -.19175399E+03 E0= -.19167165E+03  d E =-.954516E-03
       N       E                     dE             d eps       ncg     rms          rms(c)
DAV:   1    -0.191798882462E+03   -0.44909E-01   -0.56465E+00  8160   0.515E+00    0.667E-01
DAV:   2    -0.191822824564E+03   -0.23942E-01   -0.20965E-01 12960   0.194E+00    0.147E+00
DAV:   3    -0.191807165468E+03    0.15659E-01   -0.64847E-02 11800   0.175E+00    0.663E-01
DAV:   4    -0.191805212692E+03    0.19528E-02   -0.14562E-02 12280   0.962E-01    0.613E-01
DAV:   5    -0.191801302427E+03    0.39103E-02   -0.88870E-03 11280   0.834E-01    0.299E-01
DAV:   6    -0.191800731059E+03    0.57137E-03   -0.48745E-03 11040   0.423E-01    0.225E-01
DAV:   7    -0.191800428393E+03    0.30267E-03   -0.21648E-03 12160   0.384E-01    0.177E-01
DAV:   8    -0.191800040482E+03    0.38791E-03   -0.64377E-04  8880   0.202E-01    0.406E-02
DAV:   9    -0.191800015902E+03    0.24580E-04   -0.88780E-05  6800   0.432E-02
  27 F= -.19180002E+03 E0= -.19172114E+03  d E =-.460268E-01
       N       E                     dE             d eps       ncg     rms          rms(c)
DAV:   1    -0.191828583814E+03   -0.28543E-01   -0.20616E+01  8160   0.995E+00    0.123E+00
DAV:   2    -0.191967359145E+03   -0.13878E+00   -0.68171E-01 12160   0.407E+00    0.389E+00
DAV:   3    -0.191857798109E+03    0.10956E+00   -0.35392E-01 12160   0.397E+00    0.102E+00
DAV:   4    -0.191856232000E+03    0.15661E-02   -0.37883E-02 12240   0.148E+00    0.109E+00
DAV:   5    -0.191843564568E+03    0.12667E-01   -0.29487E-02 11520   0.150E+00    0.521E-01
DAV:   6    -0.191841931666E+03    0.16329E-02   -0.10963E-02 12600   0.633E-01    0.293E-01
DAV:   7    -0.191839987668E+03    0.19440E-02   -0.36704E-03 10600   0.252E-01    0.784E-02
DAV:   8    -0.191839948919E+03    0.38750E-04   -0.50346E-04 10840   0.109E-01
  28 F= -.19183995E+03 E0= -.19176518E+03  d E =-.399330E-01
       N       E                     dE             d eps       ncg     rms          rms(c)
DAV:   1    -0.191865585562E+03   -0.25598E-01   -0.23765E+00  8160   0.330E+00    0.367E-01
DAV:   2    -0.191871484241E+03   -0.58987E-02   -0.88663E-02 11880   0.820E-01    0.293E-01
DAV:   3    -0.191873285434E+03   -0.18012E-02   -0.89658E-03 12440   0.751E-01    0.521E-01
DAV:   4    -0.191870224034E+03    0.30614E-02   -0.49419E-03 11280   0.615E-01    0.149E-01
DAV:   5    -0.191870184229E+03    0.39805E-04   -0.16108E-03 11440   0.225E-01    0.157E-01
DAV:   6    -0.191870323969E+03   -0.13974E-03   -0.14549E-03 11400   0.306E-01    0.207E-01
DAV:   7    -0.191869852374E+03    0.47160E-03   -0.64920E-04  9000   0.202E-01    0.360E-02
DAV:   8    -0.191869858462E+03   -0.60884E-05   -0.65258E-05  6160   0.655E-02
  29 F= -.19186986E+03 E0= -.19179594E+03  d E =-.299095E-01
       N       E                     dE             d eps       ncg     rms          rms(c)
DAV:   1    -0.191899926680E+03   -0.30074E-01   -0.60328E+00  8160   0.527E+00    0.537E-01
DAV:   2    -0.191911288611E+03   -0.11362E-01   -0.17414E-01 12040   0.116E+00    0.437E-01
DAV:   3    -0.191915660067E+03   -0.43715E-02   -0.18529E-02 11600   0.113E+00    0.792E-01
DAV:   4    -0.191908423182E+03    0.72369E-02   -0.10719E-02 10960   0.910E-01    0.206E-01
DAV:   5    -0.191909024173E+03   -0.60099E-03   -0.39597E-03 11440   0.406E-01    0.312E-01
DAV:   6    -0.191908336931E+03    0.68724E-03   -0.29859E-03 11320   0.462E-01    0.212E-01
DAV:   7    -0.191907781705E+03    0.55523E-03   -0.95619E-04 10200   0.230E-01    0.643E-02
DAV:   8    -0.191907755795E+03    0.25910E-04   -0.14834E-04  7560   0.992E-02
  30 F= -.19190776E+03 E0= -.19183471E+03  d E =-.378973E-01
       N       E                     dE             d eps       ncg     rms          rms(c)
DAV:   1    -0.191930995198E+03   -0.23213E-01   -0.41583E+00  8160   0.434E+00    0.468E-01
DAV:   2    -0.191943648179E+03   -0.12653E-01   -0.14396E-01 12080   0.129E+00    0.635E-01
DAV:   3    -0.191942434108E+03    0.12141E-02   -0.19862E-02 12320   0.120E+00    0.561E-01
DAV:   4    -0.191938488338E+03    0.39458E-02   -0.56560E-03 12240   0.615E-01    0.152E-01
DAV:   5    -0.191938448334E+03    0.40003E-04   -0.22507E-03 11040   0.222E-01    0.149E-01
DAV:   6    -0.191938634892E+03   -0.18656E-03   -0.16978E-03 12880   0.336E-01    0.222E-01
DAV:   7    -0.191938075387E+03    0.55951E-03   -0.66734E-04  9240   0.235E-01    0.394E-02
DAV:   8    -0.191938084522E+03   -0.91355E-05   -0.84335E-05  6080   0.697E-02
  31 F= -.19193808E+03 E0= -.19186511E+03  d E =-.303287E-01
       N       E                     dE             d eps       ncg     rms          rms(c)
DAV:   1    -0.191956611121E+03   -0.18536E-01   -0.11641E+01  8160   0.729E+00    0.775E-01
DAV:   2    -0.191988757346E+03   -0.32146E-01   -0.38908E-01 12120   0.202E+00    0.954E-01
DAV:   3    -0.191988583410E+03    0.17394E-03   -0.50455E-02 12280   0.193E+00    0.973E-01
DAV:   4    -0.191976564153E+03    0.12019E-01   -0.16176E-02 12280   0.107E+00    0.259E-01
DAV:   5    -0.191976391595E+03    0.17256E-03   -0.67872E-03 10920   0.396E-01    0.262E-01
DAV:   6    -0.191976608195E+03   -0.21660E-03   -0.48108E-03 12880   0.569E-01    0.345E-01
DAV:   7    -0.191975193726E+03    0.14145E-02   -0.17212E-03 12040   0.380E-01    0.671E-02
DAV:   8    -0.191975200733E+03   -0.70068E-05   -0.25274E-04  7960   0.118E-01
  32 F= -.19197520E+03 E0= -.19190143E+03  d E =-.371162E-01
       N       E                     dE             d eps       ncg     rms          rms(c)
DAV:   1    -0.191984639452E+03   -0.94457E-02   -0.17756E+00  8160   0.280E+00    0.310E-01
DAV:   2    -0.191991731454E+03   -0.70920E-02   -0.68847E-02 11080   0.990E-01    0.499E-01
DAV:   3    -0.191989909258E+03    0.18222E-02   -0.96294E-03 12520   0.841E-01    0.327E-01
DAV:   4    -0.191988656356E+03    0.12529E-02   -0.22453E-03 12000   0.385E-01    0.122E-01
DAV:   5    -0.191988661986E+03   -0.56297E-05   -0.92839E-04 11240   0.220E-01
  33 F= -.19198866E+03 E0= -.19191542E+03  d E =-.134613E-01
       N       E                     dE             d eps       ncg     rms          rms(c)
DAV:   1    -0.191997226586E+03   -0.85702E-02   -0.25158E+00  8160   0.336E+00    0.369E-01
DAV:   2    -0.192006584439E+03   -0.93579E-02   -0.83588E-02 11640   0.111E+00    0.639E-01
DAV:   3    -0.192002834372E+03    0.37501E-02   -0.12846E-02 12320   0.993E-01    0.342E-01
DAV:   4    -0.192001573948E+03    0.12604E-02   -0.25944E-03 11760   0.412E-01    0.174E-01
DAV:   5    -0.192001579549E+03   -0.56010E-05   -0.14505E-03 12000   0.338E-01    0.181E-01
DAV:   6    -0.192001354492E+03    0.22506E-03   -0.10847E-03 10640   0.254E-01    0.875E-02
DAV:   7    -0.192001206015E+03    0.14848E-03   -0.32928E-04  9080   0.104E-01    0.337E-02
DAV:   8    -0.192001209168E+03   -0.31534E-05   -0.64132E-05  8080   0.656E-02
  34 F= -.19200121E+03 E0= -.19192812E+03  d E =-.125472E-01
       N       E                     dE             d eps       ncg     rms          rms(c)
DAV:   1    -0.192004912588E+03   -0.37066E-02   -0.27721E-01  8160   0.111E+00    0.124E-01
DAV:   2    -0.192005719838E+03   -0.80725E-03   -0.94472E-03 13400   0.361E-01    0.162E-01
DAV:   3    -0.192005472544E+03    0.24729E-03   -0.13026E-03 11360   0.284E-01    0.120E-01
DAV:   4    -0.192005331927E+03    0.14062E-03   -0.40664E-04  9520   0.170E-01    0.698E-02
DAV:   5    -0.192005283448E+03    0.48479E-04   -0.16799E-04  6320   0.104E-01
  35 F= -.19200528E+03 E0= -.19193186E+03  d E =-.407428E-02
       N       E                     dE             d eps       ncg     rms          rms(c)
DAV:   1    -0.192011908395E+03   -0.65765E-02   -0.12837E+00  8160   0.238E+00    0.240E-01
DAV:   2    -0.192015476411E+03   -0.35680E-02   -0.37171E-02 12240   0.721E-01    0.356E-01
DAV:   3    -0.192014637274E+03    0.83914E-03   -0.52613E-03 12320   0.619E-01    0.262E-01
DAV:   4    -0.192013902678E+03    0.73460E-03   -0.15148E-03 11800   0.316E-01    0.113E-01
DAV:   5    -0.192013802821E+03    0.99856E-04   -0.68273E-04 10600   0.179E-01
  36 F= -.19201380E+03 E0= -.19194026E+03  d E =-.851937E-02
       N       E                     dE             d eps       ncg     rms          rms(c)
DAV:   1    -0.192020402287E+03   -0.64996E-02   -0.16277E+00  8160   0.268E+00    0.285E-01
DAV:   2    -0.192025506957E+03   -0.51047E-02   -0.45786E-02 12960   0.824E-01    0.486E-01
DAV:   3    -0.192023380920E+03    0.21260E-02   -0.73326E-03 12280   0.776E-01    0.278E-01
DAV:   4    -0.192022653119E+03    0.72780E-03   -0.17409E-03 12320   0.333E-01    0.147E-01
DAV:   5    -0.192022537211E+03    0.11591E-03   -0.97532E-04 10840   0.262E-01    0.132E-01
DAV:   6    -0.192022482844E+03    0.54367E-04   -0.65225E-04 11320   0.205E-01
  37 F= -.19202248E+03 E0= -.19194912E+03  d E =-.868002E-02
       N       E                     dE             d eps       ncg     rms          rms(c)
DAV:   1    -0.192024848507E+03   -0.23113E-02   -0.16642E-01  8160   0.867E-01    0.113E-01
DAV:   2    -0.192025355336E+03   -0.50683E-03   -0.57246E-03 11240   0.326E-01    0.184E-01
DAV:   3    -0.192025079582E+03    0.27575E-03   -0.11868E-03 10400   0.291E-01    0.117E-01
DAV:   4    -0.192024954889E+03    0.12469E-03   -0.36229E-04  8560   0.155E-01    0.616E-02
DAV:   5    -0.192024919368E+03    0.35521E-04   -0.12216E-04  6320   0.940E-02
  38 F= -.19202492E+03 E0= -.19195169E+03  d E =-.243652E-02
       N       E                     dE             d eps       ncg     rms          rms(c)
DAV:   1    -0.192030753394E+03   -0.57985E-02   -0.23467E+00  8160   0.320E+00    0.329E-01
DAV:   2    -0.192036714975E+03   -0.59616E-02   -0.63212E-02 11840   0.907E-01    0.467E-01
DAV:   3    -0.192035247840E+03    0.14671E-02   -0.97678E-03 12360   0.836E-01    0.387E-01
DAV:   4    -0.192033754460E+03    0.14934E-02   -0.31552E-03 12240   0.479E-01    0.155E-01
DAV:   5    -0.192033392545E+03    0.36192E-03   -0.95434E-04 10360   0.175E-01    0.860E-02
DAV:   6    -0.192033679369E+03   -0.28682E-03   -0.79449E-04 11440   0.246E-01    0.165E-01
DAV:   7    -0.192033353685E+03    0.32568E-03   -0.45784E-04  9400   0.196E-01    0.388E-02
DAV:   8    -0.192033349942E+03    0.37427E-05   -0.62664E-05  6120   0.697E-02
  39 F= -.19203335E+03 E0= -.19196025E+03  d E =-.843057E-02
       N       E                     dE             d eps       ncg     rms          rms(c)
DAV:   1    -0.192032442070E+03    0.91161E-03   -0.89791E-02  8160   0.662E-01    0.107E-01
DAV:   2    -0.192032507343E+03   -0.65273E-04   -0.34256E-03 12040   0.220E-01    0.125E-01
DAV:   3    -0.192032433445E+03    0.73897E-04   -0.76945E-04 10440   0.232E-01
  40 F= -.19203243E+03 E0= -.19195924E+03  d E =0.916497E-03
       N       E                     dE             d eps       ncg     rms          rms(c)
DAV:   1    -0.192034065398E+03   -0.15581E-02   -0.16566E-01  8160   0.874E-01    0.107E-01
DAV:   2    -0.192034962523E+03   -0.89712E-03   -0.57519E-03 12920   0.392E-01    0.249E-01
DAV:   3    -0.192034266539E+03    0.69598E-03   -0.12701E-03 11360   0.333E-01    0.774E-02
DAV:   4    -0.192034223975E+03    0.42564E-04   -0.19883E-04  8200   0.108E-01
  41 F= -.19203422E+03 E0= -.19196070E+03  d E =-.179053E-02
       N       E                     dE             d eps       ncg     rms          rms(c)
DAV:   1    -0.192035476637E+03   -0.12101E-02   -0.69886E-02  8160   0.563E-01    0.902E-02
DAV:   2    -0.192036444745E+03   -0.96811E-03   -0.30918E-03 12600   0.362E-01    0.272E-01
DAV:   3    -0.192035505627E+03    0.93912E-03   -0.11279E-03 10120   0.313E-01    0.505E-02
DAV:   4    -0.192035517491E+03   -0.11864E-04   -0.10630E-04  5880   0.887E-02
  42 F= -.19203552E+03 E0= -.19196191E+03  d E =-.129352E-02
       N       E                     dE             d eps       ncg     rms          rms(c)
DAV:   1    -0.192038743821E+03   -0.32382E-02   -0.98638E-01  8160   0.209E+00    0.241E-01
DAV:   2    -0.192042340408E+03   -0.35966E-02   -0.30035E-02 12440   0.728E-01    0.432E-01
DAV:   3    -0.192040416608E+03    0.19238E-02   -0.55232E-03 12360   0.652E-01    0.235E-01
DAV:   4    -0.192039917962E+03    0.49865E-03   -0.15310E-03 10520   0.307E-01    0.122E-01
DAV:   5    -0.192039753605E+03    0.16436E-03   -0.58253E-04 10480   0.174E-01    0.928E-02
DAV:   6    -0.192039773495E+03   -0.19890E-04   -0.43431E-04  9560   0.190E-01
  43 F= -.19203977E+03 E0= -.19196613E+03  d E =-.425600E-02
       N       E                     dE             d eps       ncg     rms          rms(c)
DAV:   1    -0.192040709507E+03   -0.95590E-03   -0.79836E-02  8160   0.604E-01    0.767E-02
DAV:   2    -0.192040970878E+03   -0.26137E-03   -0.27462E-03 12520   0.193E-01    0.122E-01
DAV:   3    -0.192040847336E+03    0.12354E-03   -0.53025E-04  9320   0.203E-01    0.857E-02
DAV:   4    -0.192040777697E+03    0.69639E-04   -0.15243E-04  7240   0.106E-01
  44 F= -.19204078E+03 E0= -.19196707E+03  d E =-.100420E-02
       N       E                     dE             d eps       ncg     rms          rms(c)
DAV:   1    -0.192041919873E+03   -0.10725E-02   -0.15474E-01  8160   0.826E-01    0.931E-02
DAV:   2    -0.192042435880E+03   -0.51601E-03   -0.46015E-03 13080   0.283E-01    0.160E-01
DAV:   3    -0.192042175381E+03    0.26050E-03   -0.87669E-04 10280   0.253E-01    0.947E-02
DAV:   4    -0.192042098565E+03    0.76816E-04   -0.22519E-04  8120   0.125E-01
  45 F= -.19204210E+03 E0= -.19196836E+03  d E =-.132087E-02
       N       E                     dE             d eps       ncg     rms          rms(c)
DAV:   1    -0.192042879374E+03   -0.70399E-03   -0.78272E-02  8160   0.593E-01    0.820E-02
DAV:   2    -0.192043429302E+03   -0.54993E-03   -0.30054E-03 12520   0.276E-01    0.185E-01
DAV:   3    -0.192042997796E+03    0.43151E-03   -0.73733E-04 10200   0.244E-01    0.578E-02
DAV:   4    -0.192042994129E+03    0.36674E-05   -0.10817E-04  6160   0.870E-02
  46 F= -.19204299E+03 E0= -.19196926E+03  d E =-.895564E-03
