<?xml version="1.0" encoding="ISO-8859-1"?>
<modeling>
 <generator>
  <i name="program" type="string">vasp </i>
  <i name="version" type="string">5.4.1  </i>
  <i name="subversion" type="string">05Feb16 (build Jul 05 2020 17:13:04) complex                          parallel </i>
  <i name="platform" type="string">IFC91_ompi </i>
  <i name="date" type="string">2024 07 09 </i>
  <i name="time" type="string">15:30:47 </i>
 </generator>
 <incar>
  <i type="int" name="ISTART">     0</i>
  <i type="string" name="PREC">normal</i>
  <i type="string" name="ALGO"> Normal</i>
  <i type="int" name="ISPIN">     1</i>
  <i type="int" name="ICHARG">     2</i>
  <i type="int" name="IBRION">     1</i>
  <i type="int" name="NSW">   100</i>
  <i type="int" name="ISIF">     3</i>
  <i type="int" name="ISYM">     0</i>
  <i name="SYMPREC">      0.00000001</i>
  <i name="POTIM">      0.50000000</i>
  <i type="logical" name="LREAL"> F  </i>
  <i type="logical" name="LPLANE"> F  </i>
  <i type="int" name="ISMEAR">     0</i>
  <i type="logical" name="LWAVE"> F  </i>
  <i type="logical" name="LCHARG"> F  </i>
  <v type="int" name="KPOINT_BSE">    -1     0     0     0</v>
 </incar>
 <kpoints>
  <generation param="Gamma">
   <v type="int" name="divisions">       8        8        1 </v>
   <v name="usershift">      0.00000000       0.00000000       0.00000000 </v>
   <v name="genvec1">      0.12500000       0.00000000       0.00000000 </v>
   <v name="genvec2">     -0.00000000       0.12500000       0.00000000 </v>
   <v name="genvec3">      0.00000000       0.00000000       1.00000000 </v>
   <v name="shift">      0.00000000       0.00000000       0.00000000 </v>
  </generation>
  <varray name="kpointlist" >
   <v>       0.00000000       0.00000000       0.00000000 </v>
   <v>       0.12500000       0.00000000       0.00000000 </v>
   <v>       0.25000000       0.00000000       0.00000000 </v>
   <v>       0.37500000       0.00000000       0.00000000 </v>
   <v>       0.50000000       0.00000000       0.00000000 </v>
   <v>       0.00000000       0.12500000       0.00000000 </v>
   <v>       0.12500000       0.12500000       0.00000000 </v>
   <v>       0.25000000       0.12500000       0.00000000 </v>
   <v>       0.37500000       0.12500000       0.00000000 </v>
   <v>       0.50000000       0.12500000       0.00000000 </v>
   <v>      -0.37500000       0.12500000       0.00000000 </v>
   <v>      -0.25000000       0.12500000       0.00000000 </v>
   <v>      -0.12500000       0.12500000       0.00000000 </v>
   <v>       0.00000000       0.25000000       0.00000000 </v>
   <v>       0.12500000       0.25000000       0.00000000 </v>
   <v>       0.25000000       0.25000000       0.00000000 </v>
   <v>       0.37500000       0.25000000       0.00000000 </v>
   <v>       0.50000000       0.25000000       0.00000000 </v>
   <v>      -0.37500000       0.25000000       0.00000000 </v>
   <v>      -0.25000000       0.25000000       0.00000000 </v>
   <v>      -0.12500000       0.25000000       0.00000000 </v>
   <v>      -0.00000000       0.37500000       0.00000000 </v>
   <v>       0.12500000       0.37500000       0.00000000 </v>
   <v>       0.25000000       0.37500000       0.00000000 </v>
   <v>       0.37500000       0.37500000       0.00000000 </v>
   <v>       0.50000000       0.37500000       0.00000000 </v>
   <v>      -0.37500000       0.37500000       0.00000000 </v>
   <v>      -0.25000000       0.37500000       0.00000000 </v>
   <v>      -0.12500000       0.37500000       0.00000000 </v>
   <v>       0.00000000       0.50000000       0.00000000 </v>
   <v>       0.12500000       0.50000000       0.00000000 </v>
   <v>       0.25000000       0.50000000       0.00000000 </v>
   <v>       0.37500000       0.50000000       0.00000000 </v>
   <v>       0.50000000       0.50000000       0.00000000 </v>
  </varray>
  <varray name="weights" >
   <v>       0.01562500 </v>
   <v>       0.03125000 </v>
   <v>       0.03125000 </v>
   <v>       0.03125000 </v>
   <v>       0.01562500 </v>
   <v>       0.03125000 </v>
   <v>       0.03125000 </v>
   <v>       0.03125000 </v>
   <v>       0.03125000 </v>
   <v>       0.03125000 </v>
   <v>       0.03125000 </v>
   <v>       0.03125000 </v>
   <v>       0.03125000 </v>
   <v>       0.03125000 </v>
   <v>       0.03125000 </v>
   <v>       0.03125000 </v>
   <v>       0.03125000 </v>
   <v>       0.03125000 </v>
   <v>       0.03125000 </v>
   <v>       0.03125000 </v>
   <v>       0.03125000 </v>
   <v>       0.03125000 </v>
   <v>       0.03125000 </v>
   <v>       0.03125000 </v>
   <v>       0.03125000 </v>
   <v>       0.03125000 </v>
   <v>       0.03125000 </v>
   <v>       0.03125000 </v>
   <v>       0.03125000 </v>
   <v>       0.01562500 </v>
   <v>       0.03125000 </v>
   <v>       0.03125000 </v>
   <v>       0.03125000 </v>
   <v>       0.01562500 </v>
  </varray>
 </kpoints>
 <parameters>
  <separator name="general" >
   <i type="string" name="SYSTEM">unknown system</i>
   <i type="logical" name="LCOMPAT"> F  </i>
  </separator>
  <separator name="electronic" >
   <i type="string" name="PREC">normal</i>
   <i name="ENMAX">    280.00000000</i>
   <i name="ENAUG">    373.43800000</i>
   <i name="EDIFF">      0.00010000</i>
   <i type="int" name="IALGO">    38</i>
   <i type="int" name="IWAVPR">    11</i>
   <i type="int" name="NBANDS">   120</i>
   <i name="NELECT">    159.00000000</i>
   <i type="int" name="TURBO">     0</i>
   <i type="int" name="IRESTART">     0</i>
   <i type="int" name="NREBOOT">     0</i>
   <i type="int" name="NMIN">     0</i>
   <i name="EREF">      0.00000000</i>
   <separator name="electronic smearing" >
    <i type="int" name="ISMEAR">     0</i>
    <i name="SIGMA">      0.20000000</i>
    <i name="KSPACING">      0.50000000</i>
    <i type="logical" name="KGAMMA"> T  </i>
   </separator>
   <separator name="electronic projectors" >
    <i type="logical" name="LREAL"> F  </i>
    <v name="ROPT">      0.00000000      0.00000000      0.00000000      0.00000000</v>
    <i type="int" name="LMAXPAW">  -100</i>
    <i type="int" name="LMAXMIX">     2</i>
    <i type="logical" name="NLSPLINE"> F  </i>
   </separator>
   <separator name="electronic startup" >
    <i type="int" name="ISTART">     0</i>
    <i type="int" name="ICHARG">     2</i>
    <i type="int" name="INIWAV">     1</i>
   </separator>
   <separator name="electronic spin" >
    <i type="int" name="ISPIN">     1</i>
    <i type="logical" name="LNONCOLLINEAR"> F  </i>
    <v name="MAGMOM">      1.00000000      1.00000000      1.00000000      1.00000000      1.00000000      1.00000000      1.00000000      1.00000000      1.00000000      1.00000000      1.00000000      1.00000000      1.00000000      1.00000000      1.00000000      1.00000000      1.00000000      1.00000000      1.00000000      1.00000000
      1.00000000      1.00000000      1.00000000      1.00000000      1.00000000      1.00000000      1.00000000</v>
    <i name="NUPDOWN">     -1.00000000</i>
    <i type="logical" name="LSORBIT"> F  </i>
    <v name="SAXIS">      0.00000000      0.00000000      1.00000000</v>
    <i type="logical" name="LSPIRAL"> F  </i>
    <v name="QSPIRAL">      0.00000000      0.00000000      0.00000000</v>
    <i type="logical" name="LZEROZ"> F  </i>
   </separator>
   <separator name="electronic exchange-correlation" >
    <i type="logical" name="LASPH"> F  </i>
    <i type="logical" name="LMETAGGA"> F  </i>
   </separator>
   <separator name="electronic convergence" >
    <i type="int" name="NELM">    60</i>
    <i type="int" name="NELMDL">    -5</i>
    <i type="int" name="NELMIN">     2</i>
    <i name="ENINI">    280.00000000</i>
    <separator name="electronic convergence detail" >
     <i type="logical" name="LDIAG"> T  </i>
     <i type="logical" name="LSUBROT"> F  </i>
     <i name="WEIMIN">      0.00100000</i>
     <i name="EBREAK">      0.00000021</i>
     <i name="DEPER">      0.30000000</i>
     <i type="int" name="NRMM">     4</i>
     <i name="TIME">      0.40000000</i>
    </separator>
   </separator>
   <separator name="electronic mixer" >
    <i name="AMIX">      0.40000000</i>
    <i name="BMIX">      1.00000000</i>
    <i name="AMIN">      0.10000000</i>
    <i name="AMIX_MAG">      1.60000000</i>
    <i name="BMIX_MAG">      1.00000000</i>
    <separator name="electronic mixer details" >
     <i type="int" name="IMIX">     4</i>
     <i type="logical" name="MIXFIRST"> F  </i>
     <i type="int" name="MAXMIX">   -45</i>
     <i name="WC">    100.00000000</i>
     <i type="int" name="INIMIX">     1</i>
     <i type="int" name="MIXPRE">     1</i>
     <i type="int" name="MREMOVE">     5</i>
    </separator>
   </separator>
   <separator name="electronic dipolcorrection" >
    <i type="logical" name="LDIPOL"> F  </i>
    <i type="logical" name="LMONO"> F  </i>
    <i type="int" name="IDIPOL">     0</i>
    <i name="EPSILON">      1.00000000</i>
    <v name="DIPOL">   -100.00000000   -100.00000000   -100.00000000</v>
    <i name="EFIELD">      0.00000000</i>
   </separator>
  </separator>
  <separator name="grids" >
   <i type="int" name="NGX">    42</i>
   <i type="int" name="NGY">    42</i>
   <i type="int" name="NGZ">   126</i>
   <i type="int" name="NGXF">    84</i>
   <i type="int" name="NGYF">    84</i>
   <i type="int" name="NGZF">   252</i>
   <i type="logical" name="ADDGRID"> F  </i>
  </separator>
  <separator name="ionic" >
   <i type="int" name="NSW">   100</i>
   <i type="int" name="IBRION">     1</i>
   <i type="int" name="ISIF">     3</i>
   <i name="PSTRESS">      0.00000000</i>
   <i name="EDIFFG">      0.00100000</i>
   <i type="int" name="NFREE">     0</i>
   <i name="POTIM">      0.50000000</i>
   <i name="SMASS">     -3.00000000</i>
   <i name="SCALEE">      1.00000000</i>
  </separator>
  <separator name="ionic md" >
   <i name="TEBEG">      0.00010000</i>
   <i name="TEEND">      0.00010000</i>
   <i type="int" name="NBLOCK">     1</i>
   <i type="int" name="KBLOCK">   100</i>
   <i type="int" name="NPACO">   256</i>
   <i name="APACO">     16.00000000</i>
  </separator>
  <separator name="symmetry" >
   <i type="int" name="ISYM">     0</i>
   <i name="SYMPREC">      0.00000001</i>
  </separator>
  <separator name="dos" >
   <i type="logical" name="LORBIT"> F  </i>
   <v name="RWIGS">     -1.00000000     -1.00000000     -1.00000000     -1.00000000</v>
   <i type="int" name="NEDOS">   301</i>
   <i name="EMIN">     10.00000000</i>
   <i name="EMAX">    -10.00000000</i>
   <i name="EFERMI">      0.00000000</i>
  </separator>
  <separator name="writing" >
   <i type="int" name="NWRITE">     2</i>
   <i type="logical" name="LWAVE"> F  </i>
   <i type="logical" name="LCHARG"> F  </i>
   <i type="logical" name="LPARD"> F  </i>
   <i type="logical" name="LVTOT"> F  </i>
   <i type="logical" name="LVHAR"> F  </i>
   <i type="logical" name="LELF"> F  </i>
   <i type="logical" name="LOPTICS"> F  </i>
   <v name="STM">      0.00000000      0.00000000      0.00000000      0.00000000      0.00000000      0.00000000      0.00000000</v>
  </separator>
  <separator name="performance" >
   <i type="int" name="NPAR">    40</i>
   <i type="int" name="NSIM">     4</i>
   <i type="int" name="NBLK">    -1</i>
   <i type="logical" name="LPLANE"> F  </i>
   <i type="logical" name="LSCALAPACK"> T  </i>
   <i type="logical" name="LSCAAWARE"> F  </i>
   <i type="logical" name="LSCALU"> F  </i>
   <i type="logical" name="LASYNC"> F  </i>
   <i type="logical" name="LORBITALREAL"> F  </i>
  </separator>
  <separator name="miscellaneous" >
   <i type="int" name="IDIOT">     3</i>
   <i type="logical" name="LMUSIC"> F  </i>
   <v name="POMASS">     50.94100000     95.94000000    183.85000000     32.06600000</v>
   <v name="DARWINR">      0.00000000      0.00000000      0.00000000      0.00000000</v>
   <v name="DARWINV">      1.00000000      1.00000000      1.00000000      1.00000000</v>
   <i type="logical" name="LCORR"> T  </i>
  </separator>
  <i type="logical" name="GGA_COMPAT"> T  </i>
  <i type="logical" name="LBERRY"> F  </i>
  <i type="int" name="ICORELEVEL">     0</i>
  <i type="logical" name="LDAU"> F  </i>
  <i type="int" name="I_CONSTRAINED_M">     0</i>
  <separator name="electronic exchange-correlation" >
   <i type="string" name="GGA">--</i>
   <i type="int" name="VOSKOWN">     0</i>
   <i type="logical" name="LHFCALC"> F  </i>
   <i type="string" name="PRECFOCK"></i>
   <i type="logical" name="LSYMGRAD"> F  </i>
   <i type="logical" name="LHFONE"> F  </i>
   <i type="logical" name="LRHFCALC"> F  </i>
   <i type="logical" name="LTHOMAS"> F  </i>
   <i type="logical" name="LMODELHF"> F  </i>
   <i name="ENCUT4O">     -1.00000000</i>
   <i type="int" name="EXXOEP">     0</i>
   <i type="int" name="FOURORBIT">     0</i>
   <i name="AEXX">      0.00000000</i>
   <i name="HFALPHA">      0.00000000</i>
   <i name="MCALPHA">      0.00000000</i>
   <i name="ALDAX">      1.00000000</i>
   <i name="AGGAX">      1.00000000</i>
   <i name="ALDAC">      1.00000000</i>
   <i name="AGGAC">      1.00000000</i>
   <i type="int" name="NKREDX">     1</i>
   <i type="int" name="NKREDY">     1</i>
   <i type="int" name="NKREDZ">     1</i>
   <i type="logical" name="SHIFTRED"> F  </i>
   <i type="logical" name="ODDONLY"> F  </i>
   <i type="logical" name="EVENONLY"> F  </i>
   <i type="int" name="LMAXFOCK">     0</i>
   <i type="int" name="NMAXFOCKAE">     0</i>
   <i type="logical" name="LFOCKAEDFT"> F  </i>
   <i name="HFSCREEN">      0.00000000</i>
   <i name="HFSCREENC">      0.00000000</i>
   <i type="int" name="NBANDSGWLOW">     0</i>
  </separator>
  <separator name="vdW DFT" >
   <i type="logical" name="LUSE_VDW"> F  </i>
   <i name="Zab_VDW">     -0.84910000</i>
   <i name="PARAM1">      0.12340000</i>
   <i name="PARAM2">      1.00000000</i>
   <i name="PARAM3">      0.00000000</i>
  </separator>
  <separator name="model GW" >
   <i type="int" name="MODEL_GW">     0</i>
   <i name="MODEL_EPS0">     58.26239943</i>
   <i name="MODEL_ALPHA">      1.00000000</i>
  </separator>
  <separator name="linear response parameters" >
   <i type="logical" name="LEPSILON"> F  </i>
   <i type="logical" name="LRPA"> F  </i>
   <i type="logical" name="LNABLA"> F  </i>
   <i type="logical" name="LVEL"> F  </i>
   <i type="int" name="KINTER">     0</i>
   <i name="CSHIFT">      0.10000000</i>
   <i name="OMEGAMAX">     -1.00000000</i>
   <i name="DEG_THRESHOLD">      0.00200000</i>
  </separator>
  <separator name="orbital magnetization" >
   <i type="logical" name="NUCIND"> F  </i>
   <v name="MAGPOS">      0.00000000      0.00000000      0.00000000</v>
   <i type="logical" name="LNICSALL"> T  </i>
   <i type="logical" name="ORBITALMAG"> F  </i>
   <i type="logical" name="LMAGBLOCH"> F  </i>
   <i type="logical" name="LCHIMAG"> F  </i>
   <i type="logical" name="LGAUGE"> T  </i>
   <i type="int" name="MAGATOM">     0</i>
   <v name="MAGDIPOL">      0.00000000      0.00000000      0.00000000</v>
   <v name="AVECCONST">      0.00000000      0.00000000      0.00000000</v>
  </separator>
  <separator name="response functions" >
   <i type="logical" name="LADDER"> F  </i>
   <i type="logical" name="LFXC"> F  </i>
   <i type="logical" name="LHARTREE"> T  </i>
   <i type="int" name="IBSE">     0</i>
   <v type="int" name="KPOINT">    -1     0     0     0</v>
   <i type="logical" name="LTCTE"> F  </i>
   <i type="logical" name="LTETE"> F  </i>
   <i type="logical" name="LTRIPLET"> F  </i>
   <i type="logical" name="LFXCEPS"> F  </i>
   <i type="logical" name="LFXHEG"> F  </i>
   <i type="int" name="NATURALO">     0</i>
   <i type="logical" name="L2ORDER"> F  </i>
   <i type="logical" name="LUSEW"> F  </i>
   <i name="ENCUTGW">     -2.00000000</i>
   <i name="ENCUTGWSOFT">     -2.00000000</i>
   <i name="ENCUTLF">     -1.00000000</i>
   <i type="int" name="LMAXMP2">    -1</i>
   <i name="SCISSOR">      0.00000000</i>
   <i type="int" name="NOMEGA">     0</i>
   <i type="int" name="NOMEGAR">     0</i>
   <i type="int" name="NBANDSGW">    -1</i>
   <i type="int" name="NBANDSO">    -1</i>
   <i type="int" name="NBANDSV">    -1</i>
   <i type="int" name="NELM">     1</i>
   <i type="int" name="NELMHF">     1</i>
   <i type="int" name="DIM">     3</i>
   <i type="int" name="ANTIRES">     0</i>
   <i name="OMEGAMAX">    -30.00000000</i>
   <i name="OMEGAMIN">    -30.00000000</i>
   <i name="OMEGATL">   -200.00000000</i>
   <i type="int" name="OMEGAGRID">     0</i>
   <i name="CSHIFT">     -0.10000000</i>
   <i type="logical" name="SELFENERGY"> F  </i>
   <i type="logical" name="LSPECTRAL"> F  </i>
   <i type="logical" name="LSPECTRALGW"> F  </i>
   <i type="logical" name="LSINGLES"> F  </i>
   <i type="logical" name="LFERMIGW"> F  </i>
   <i type="logical" name="ODDONLYGW"> F  </i>
   <i type="logical" name="EVENONLYGW"> F  </i>
   <i type="int" name="NKREDLFX">     1</i>
   <i type="int" name="NKREDLFY">     1</i>
   <i type="int" name="NKREDLFZ">     1</i>
   <i type="int" name="MAXMEM">  1800</i>
   <i type="int" name="TELESCOPE">     0</i>
   <i type="int" name="TAUPAR">     1</i>
   <i type="int" name="OMEGAPAR">    -1</i>
   <i name="LAMBDA">      1.00000000</i>
  </separator>
  <separator name="External order field" >
   <i name="OFIELD_KAPPA">      0.00000000</i>
   <v name="OFIELD_K">      0.00000000      0.00000000      0.00000000</v>
   <i name="OFIELD_Q6_NEAR">      0.00000000</i>
   <i name="OFIELD_Q6_FAR">      0.00000000</i>
   <i name="OFIELD_A">      0.00000000</i>
  </separator>
 </parameters>
 <atominfo>
  <atoms>      27 </atoms>
  <types>       4 </types>
  <array name="atoms" >
   <dimension dim="1">ion</dimension>
   <field type="string">element</field>
   <field type="int">atomtype</field>
   <set>
    <rc><c>V </c><c>   1</c></rc>
    <rc><c>V </c><c>   1</c></rc>
    <rc><c>V </c><c>   1</c></rc>
    <rc><c>Mo</c><c>   2</c></rc>
    <rc><c>Mo</c><c>   2</c></rc>
    <rc><c>Mo</c><c>   2</c></rc>
    <rc><c>W </c><c>   3</c></rc>
    <rc><c>W </c><c>   3</c></rc>
    <rc><c>W </c><c>   3</c></rc>
    <rc><c>S </c><c>   4</c></rc>
    <rc><c>S </c><c>   4</c></rc>
    <rc><c>S </c><c>   4</c></rc>
    <rc><c>S </c><c>   4</c></rc>
    <rc><c>S </c><c>   4</c></rc>
    <rc><c>S </c><c>   4</c></rc>
    <rc><c>S </c><c>   4</c></rc>
    <rc><c>S </c><c>   4</c></rc>
    <rc><c>S </c><c>   4</c></rc>
    <rc><c>S </c><c>   4</c></rc>
    <rc><c>S </c><c>   4</c></rc>
    <rc><c>S </c><c>   4</c></rc>
    <rc><c>S </c><c>   4</c></rc>
    <rc><c>S </c><c>   4</c></rc>
    <rc><c>S </c><c>   4</c></rc>
    <rc><c>S </c><c>   4</c></rc>
    <rc><c>S </c><c>   4</c></rc>
    <rc><c>S </c><c>   4</c></rc>
   </set>
  </array>
  <array name="atomtypes" >
   <dimension dim="1">type</dimension>
   <field type="int">atomspertype</field>
   <field type="string">element</field>
   <field>mass</field>
   <field>valence</field>
   <field type="string">pseudopotential</field>
   <set>
    <rc><c>   3</c><c>V </c><c>     50.94100000</c><c>      5.00000000</c><c> PAW_PBE V 08Apr2002                    </c></rc>
    <rc><c>   3</c><c>Mo</c><c>     95.94000000</c><c>      6.00000000</c><c> PAW_PBE Mo 08Apr2002                   </c></rc>
    <rc><c>   3</c><c>W </c><c>    183.85000000</c><c>      6.00000000</c><c> PAW_PBE W 08Apr2002                    </c></rc>
    <rc><c>  18</c><c>S </c><c>     32.06600000</c><c>      6.00000000</c><c>  PAW_PBE S 17Jan2003                   </c></rc>
   </set>
  </array>
 </atominfo>
 <structure name="initialpos" >
  <crystal>
   <varray name="basis" >
    <v>       8.66999996       5.03999989       0.00000000 </v>
    <v>      -8.66999982       5.04000013       0.00000000 </v>
    <v>       0.00000000       0.00000000      30.00000000 </v>
   </varray>
   <i name="volume">   2621.80797419 </i>
   <varray name="rec_basis" >
    <v>       0.05767013       0.09920635       0.00000000 </v>
    <v>      -0.05767013       0.09920635       0.00000000 </v>
    <v>       0.00000000       0.00000000       0.03333333 </v>
   </varray>
  </crystal>
  <varray name="positions" >
   <v>       0.00000000       0.00000000       0.00000000 </v>
   <v>       1.00000000       0.33333334       0.00000000 </v>
   <v>       0.33333334       0.66666669       0.00000000 </v>
   <v>       0.33333334       0.33333334       0.00000000 </v>
   <v>       0.66666669       0.00000000       0.00000000 </v>
   <v>       0.00000000       0.66666669       0.00000000 </v>
   <v>       0.33333334       0.00000000       0.00000000 </v>
   <v>       0.66666669       0.33333334       0.00000000 </v>
   <v>       0.66666669       0.66666669       0.00000000 </v>
   <v>       0.11068511       0.22244981       0.95539999 </v>
   <v>       0.22244981       0.11068511       0.04460000 </v>
   <v>       0.11068511       0.55578315       0.95539999 </v>
   <v>       0.22244981       0.44401845       0.04460000 </v>
   <v>       0.11068511       0.88911647       0.95539999 </v>
   <v>       0.22244981       0.77735180       0.04460000 </v>
   <v>       0.44401845       0.22244981       0.95539999 </v>
   <v>       0.55578315       0.11068511       0.04460000 </v>
   <v>       0.44401845       0.55578315       0.95539999 </v>
   <v>       0.55578315       0.44401845       0.04460000 </v>
   <v>       0.44401845       0.88911647       0.95539999 </v>
   <v>       0.55578315       0.77735180       0.04460000 </v>
   <v>       0.77735180       0.22244981       0.95539999 </v>
   <v>       0.88911647       0.11068511       0.04460000 </v>
   <v>       0.77735180       0.55578315       0.95539999 </v>
   <v>       0.88911647       0.44401845       0.04460000 </v>
   <v>       0.77735180       0.88911647       0.95539999 </v>
   <v>       0.88911647       0.77735180       0.04460000 </v>
  </varray>
 </structure>
 <calculation>
  <scstep>
   <time name="dav">   22.60   22.66</time>
   <time name="total">   22.65   22.71</time>
   <energy>
    <i name="alphaZ">     81.65567618 </i>
    <i name="ewald">  41890.23010355 </i>
    <i name="hartreedc"> -47722.87971470 </i>
    <i name="XCdc">   -242.92665276 </i>
    <i name="pawpsdc">   3467.42045192 </i>
    <i name="pawaedc">  -2871.19716117 </i>
    <i name="eentropy">     -0.53080368 </i>
    <i name="bandstr">   -237.06629608 </i>
    <i name="atom">   6761.44252427 </i>
    <i name="e_fr_energy">   1126.14812753 </i>
    <i name="e_wo_entrp">   1126.67893121 </i>
    <i name="e_0_energy">   1126.41352937 </i>
   </energy>
  </scstep>
  <scstep>
   <time name="dav">   29.40   29.47</time>
   <time name="total">   29.40   29.48</time>
   <energy>
    <i name="e_fr_energy">     -2.07112031 </i>
    <i name="e_wo_entrp">     -1.87614779 </i>
    <i name="e_0_energy">     -1.97363405 </i>
   </energy>
  </scstep>
  <scstep>
   <time name="dav">   28.83   28.90</time>
   <time name="total">   28.83   28.91</time>
   <energy>
    <i name="e_fr_energy">   -200.00648480 </i>
    <i name="e_wo_entrp">   -199.72286862 </i>
    <i name="e_0_energy">   -199.86467671 </i>
   </energy>
  </scstep>
  <scstep>
   <time name="dav">   31.23   31.30</time>
   <time name="total">   31.23   31.31</time>
   <energy>
    <i name="e_fr_energy">   -209.05862883 </i>
    <i name="e_wo_entrp">   -208.73398463 </i>
    <i name="e_0_energy">   -208.89630673 </i>
   </energy>
  </scstep>
  <scstep>
   <time name="dav">   30.10   30.18</time>
   <time name="total">   30.56   30.64</time>
   <energy>
    <i name="e_fr_energy">   -209.39387954 </i>
    <i name="e_wo_entrp">   -209.07155066 </i>
    <i name="e_0_energy">   -209.23271510 </i>
   </energy>
  </scstep>
  <scstep>
   <time name="dav">   32.16   32.23</time>
   <time name="total">   32.65   32.74</time>
   <energy>
    <i name="e_fr_energy">   -237.09707542 </i>
    <i name="e_wo_entrp">   -236.79732062 </i>
    <i name="e_0_energy">   -236.94719802 </i>
   </energy>
  </scstep>
  <scstep>
   <time name="dav">   34.18   34.27</time>
   <time name="total">   34.69   34.78</time>
   <energy>
    <i name="e_fr_energy">   -196.37171009 </i>
    <i name="e_wo_entrp">   -196.08604650 </i>
    <i name="e_0_energy">   -196.22887830 </i>
   </energy>
  </scstep>
  <scstep>
   <time name="dav">   30.70   30.78</time>
   <time name="total">   31.22   31.30</time>
   <energy>
    <i name="e_fr_energy">   -189.11998797 </i>
    <i name="e_wo_entrp">   -188.81297811 </i>
    <i name="e_0_energy">   -188.96648304 </i>
   </energy>
  </scstep>
  <scstep>
   <time name="dav">   34.28   34.36</time>
   <time name="total">   34.80   34.89</time>
   <energy>
    <i name="e_fr_energy">   -187.44389451 </i>
    <i name="e_wo_entrp">   -187.13124754 </i>
    <i name="e_0_energy">   -187.28757103 </i>
   </energy>
  </scstep>
  <scstep>
   <time name="dav">   33.76   33.84</time>
   <time name="total">   34.30   34.39</time>
   <energy>
    <i name="e_fr_energy">   -186.96955534 </i>
    <i name="e_wo_entrp">   -186.61403795 </i>
    <i name="e_0_energy">   -186.79179665 </i>
   </energy>
  </scstep>
  <scstep>
   <time name="dav">   32.63   32.71</time>
   <time name="total">   33.16   33.25</time>
   <energy>
    <i name="e_fr_energy">   -186.97523624 </i>
    <i name="e_wo_entrp">   -186.63633462 </i>
    <i name="e_0_energy">   -186.80578543 </i>
   </energy>
  </scstep>
  <scstep>
   <time name="dav">   33.39   33.47</time>
   <time name="total">   33.93   34.02</time>
   <energy>
    <i name="e_fr_energy">   -186.91720532 </i>
    <i name="e_wo_entrp">   -186.57803288 </i>
    <i name="e_0_energy">   -186.74761910 </i>
   </energy>
  </scstep>
  <scstep>
   <time name="dav">   33.17   33.25</time>
   <time name="total">   33.70   33.79</time>
   <energy>
    <i name="e_fr_energy">   -186.86216330 </i>
    <i name="e_wo_entrp">   -186.51942167 </i>
    <i name="e_0_energy">   -186.69079248 </i>
   </energy>
  </scstep>
  <scstep>
   <time name="dav">   32.67   32.74</time>
   <time name="total">   33.20   33.29</time>
   <energy>
    <i name="e_fr_energy">   -186.84692797 </i>
    <i name="e_wo_entrp">   -186.49766515 </i>
    <i name="e_0_energy">   -186.67229656 </i>
   </energy>
  </scstep>
  <scstep>
   <time name="dav">   31.45   31.52</time>
   <time name="total">   31.98   32.06</time>
   <energy>
    <i name="e_fr_energy">   -186.83778828 </i>
    <i name="e_wo_entrp">   -186.48916596 </i>
    <i name="e_0_energy">   -186.66347712 </i>
   </energy>
  </scstep>
  <scstep>
   <time name="dav">   33.60   33.68</time>
   <time name="total">   34.14   34.23</time>
   <energy>
    <i name="e_fr_energy">   -186.83727319 </i>
    <i name="e_wo_entrp">   -186.48967587 </i>
    <i name="e_0_energy">   -186.66347453 </i>
   </energy>
  </scstep>
  <scstep>
   <time name="dav">   31.84   31.92</time>
   <time name="total">   32.38   32.46</time>
   <energy>
    <i name="e_fr_energy">   -186.83474196 </i>
    <i name="e_wo_entrp">   -186.48931848 </i>
    <i name="e_0_energy">   -186.66203022 </i>
   </energy>
  </scstep>
  <scstep>
   <time name="dav">   32.62   32.70</time>
   <time name="total">   33.16   33.24</time>
   <energy>
    <i name="e_fr_energy">   -186.83368640 </i>
    <i name="e_wo_entrp">   -186.48701861 </i>
    <i name="e_0_energy">   -186.66035250 </i>
   </energy>
  </scstep>
  <scstep>
   <time name="dav">   27.71   27.77</time>
   <time name="total">   28.24   28.32</time>
   <energy>
    <i name="e_fr_energy">   -186.83424511 </i>
    <i name="e_wo_entrp">   -186.48781697 </i>
    <i name="e_0_energy">   -186.66103104 </i>
   </energy>
  </scstep>
  <scstep>
   <time name="dav">   25.38   25.44</time>
   <time name="total">   25.91   25.98</time>
   <energy>
    <i name="e_fr_energy">   -186.83464359 </i>
    <i name="e_wo_entrp">   -186.48839821 </i>
    <i name="e_0_energy">   -186.66152090 </i>
   </energy>
  </scstep>
  <scstep>
   <time name="dav">   21.81   21.87</time>
   <time name="total">   22.35   22.41</time>
   <energy>
    <i name="e_fr_energy">   -186.83551656 </i>
    <i name="e_wo_entrp">   -186.48910581 </i>
    <i name="e_0_energy">   -186.66231118 </i>
   </energy>
  </scstep>
  <scstep>
   <time name="dav">   19.05   19.09</time>
   <time name="total">   19.59   19.64</time>
   <energy>
    <i name="e_fr_energy">   -186.83622581 </i>
    <i name="e_wo_entrp">   -186.48974367 </i>
    <i name="e_0_energy">   -186.66298474 </i>
   </energy>
  </scstep>
  <scstep>
   <time name="dav">   21.24   21.30</time>
   <time name="total">   21.78   21.84</time>
   <energy>
    <i name="e_fr_energy">   -186.83745662 </i>
    <i name="e_wo_entrp">   -186.49109042 </i>
    <i name="e_0_energy">   -186.66427352 </i>
   </energy>
  </scstep>
  <scstep>
   <time name="dav">   19.72   19.76</time>
   <time name="total">   20.25   20.31</time>
   <energy>
    <i name="e_fr_energy">   -186.83800917 </i>
    <i name="e_wo_entrp">   -186.49162779 </i>
    <i name="e_0_energy">   -186.66481848 </i>
   </energy>
  </scstep>
  <scstep>
   <time name="dav">   17.14   17.18</time>
   <time name="total">   17.68   18.04</time>
   <energy>
    <i name="e_fr_energy">   -186.83843140 </i>
    <i name="e_wo_entrp">   -186.49200000 </i>
    <i name="e_0_energy">   -186.66521570 </i>
   </energy>
  </scstep>
  <scstep>
   <time name="dav">   19.80   19.85</time>
   <time name="total">   20.34   20.39</time>
   <energy>
    <i name="e_fr_energy">   -186.83864849 </i>
    <i name="e_wo_entrp">   -186.49223489 </i>
    <i name="e_0_energy">   -186.66544169 </i>
   </energy>
  </scstep>
  <scstep>
   <time name="dav">   20.13   20.18</time>
   <time name="total">   20.66   20.72</time>
   <energy>
    <i name="e_fr_energy">   -186.83875265 </i>
    <i name="e_wo_entrp">   -186.49234925 </i>
    <i name="e_0_energy">   -186.66555095 </i>
   </energy>
  </scstep>
  <scstep>
   <time name="dav">   21.26   21.32</time>
   <time name="total">   21.30   21.36</time>
   <energy>
    <i name="alphaZ">     81.65567618 </i>
    <i name="ewald">  41890.23010355 </i>
    <i name="hartreedc"> -47832.77672670 </i>
    <i name="XCdc">   -231.61215922 </i>
    <i name="pawpsdc">   4191.98155077 </i>
    <i name="pawaedc">  -3609.97856500 </i>
    <i name="eentropy">     -0.34640337 </i>
    <i name="bandstr">  -1437.43479194 </i>
    <i name="atom">   6761.44252427 </i>
    <i name="e_fr_energy">   -186.83879146 </i>
    <i name="e_wo_entrp">   -186.49238809 </i>
    <i name="e_0_energy">   -186.66558978 </i>
   </energy>
  </scstep>
  <structure>
   <crystal>
    <varray name="basis" >
     <v>       8.66999996       5.03999989       0.00000000 </v>
     <v>      -8.66999982       5.04000013       0.00000000 </v>
     <v>       0.00000000       0.00000000      30.00000000 </v>
    </varray>
    <i name="volume">   2621.80797419 </i>
    <varray name="rec_basis" >
     <v>       0.05767013       0.09920635       0.00000000 </v>
     <v>      -0.05767013       0.09920635       0.00000000 </v>
     <v>       0.00000000       0.00000000       0.03333333 </v>
    </varray>
   </crystal>
   <varray name="positions" >
    <v>       0.00000000       0.00000000       0.00000000 </v>
    <v>       1.00000000       0.33333334       0.00000000 </v>
    <v>       0.33333334       0.66666669       0.00000000 </v>
    <v>       0.33333334       0.33333334       0.00000000 </v>
    <v>       0.66666669       0.00000000       0.00000000 </v>
    <v>       0.00000000       0.66666669       0.00000000 </v>
    <v>       0.33333334       0.00000000       0.00000000 </v>
    <v>       0.66666669       0.33333334       0.00000000 </v>
    <v>       0.66666669       0.66666669       0.00000000 </v>
    <v>       0.11068511       0.22244981       0.95539999 </v>
    <v>       0.22244981       0.11068511       0.04460000 </v>
    <v>       0.11068511       0.55578315       0.95539999 </v>
    <v>       0.22244981       0.44401845       0.04460000 </v>
    <v>       0.11068511       0.88911647       0.95539999 </v>
    <v>       0.22244981       0.77735180       0.04460000 </v>
    <v>       0.44401845       0.22244981       0.95539999 </v>
    <v>       0.55578315       0.11068511       0.04460000 </v>
    <v>       0.44401845       0.55578315       0.95539999 </v>
    <v>       0.55578315       0.44401845       0.04460000 </v>
    <v>       0.44401845       0.88911647       0.95539999 </v>
    <v>       0.55578315       0.77735180       0.04460000 </v>
    <v>       0.77735180       0.22244981       0.95539999 </v>
    <v>       0.88911647       0.11068511       0.04460000 </v>
    <v>       0.77735180       0.55578315       0.95539999 </v>
    <v>       0.88911647       0.44401845       0.04460000 </v>
    <v>       0.77735180       0.88911647       0.95539999 </v>
    <v>       0.88911647       0.77735180       0.04460000 </v>
   </varray>
  </structure>
  <varray name="forces" >
   <v>      -0.09474753       0.03801957       0.10708982 </v>
   <v>       0.09452876       0.05809459      -0.00419925 </v>
   <v>       0.00244532      -0.10244809      -0.10466012 </v>
   <v>      -0.04468888      -0.01639742       0.00918625 </v>
   <v>       0.00738382       0.03205827       0.03801954 </v>
   <v>       0.03681892      -0.01542582      -0.04722681 </v>
   <v>       0.00468040      -0.06294219      -0.13095068 </v>
   <v>       0.06792697       0.01286317      -0.00363666 </v>
   <v>      -0.07132040       0.03927927       0.13667510 </v>
   <v>      -0.32307233      -0.66261422      -1.41930053 </v>
   <v>      -0.39685987      -0.72013153       2.16646924 </v>
   <v>       0.89841943       0.02041705      -1.47153125 </v>
   <v>      -0.89139573      -0.00523498       1.46072168 </v>
   <v>      -0.64279691       0.16626787      -2.09832424 </v>
   <v>       0.65973458       0.14382922       2.10268581 </v>
   <v>       0.28890458      -0.00492512      -2.90945560 </v>
   <v>      -0.27246490       0.02934030       2.89229337 </v>
   <v>      -0.69529478       0.13729191      -2.12685364 </v>
   <v>      -0.05409928       0.15673607       2.91469355 </v>
   <v>       0.36157462      -0.72148861      -2.18068911 </v>
   <v>      -0.34741190      -0.69187304       2.14568247 </v>
   <v>       0.35709579       0.69466452      -2.16259734 </v>
   <v>       0.34614619       0.66116984       1.43484265 </v>
   <v>       0.07903006      -0.14411283      -2.89608072 </v>
   <v>       0.65271736      -0.15481256       2.11679572 </v>
   <v>       0.60601935       0.55521889      -2.14544786 </v>
   <v>      -0.62927366       0.55715588       2.17579860 </v>
  </varray>
  <varray name="stress" >
   <v>       7.31123790      -0.00346467      -1.52008821 </v>
   <v>      -0.00346479       4.41605472      -0.05274426 </v>
   <v>      -1.52008818      -0.05274448      30.32410330 </v>
  </varray>
  <energy>
   <i name="e_fr_energy">   -186.83879146 </i>
   <i name="e_wo_entrp">   -186.66558978 </i>
   <i name="e_0_energy">     -0.34640337 </i>
  </energy>
  <time name="totalsc">  837.44  839.96</time>
 </calculation>
 <calculation>
  <scstep>
   <time name="dav">   22.54   22.59</time>
   <time name="total">   23.08   23.14</time>
   <energy>
    <i name="alphaZ">     78.92754008 </i>
    <i name="ewald">  39382.43878080 </i>
    <i name="hartreedc"> -45339.83290700 </i>
    <i name="XCdc">   -239.06696025 </i>
    <i name="pawpsdc">   4191.98070934 </i>
    <i name="pawaedc">  -3609.97781009 </i>
    <i name="eentropy">     -0.29775665 </i>
    <i name="bandstr">  -1413.04875902 </i>
    <i name="atom">   6761.44252427 </i>
    <i name="e_fr_energy">   -187.43463851 </i>
    <i name="e_wo_entrp">   -187.13688186 </i>
    <i name="e_0_energy">   -187.28576019 </i>
   </energy>
  </scstep>
  <scstep>
   <time name="dav">   31.53   31.61</time>
   <time name="total">   32.07   32.15</time>
   <energy>
    <i name="e_fr_energy">   -189.15742003 </i>
    <i name="e_wo_entrp">   -188.84445297 </i>
    <i name="e_0_energy">   -189.00093650 </i>
   </energy>
  </scstep>
  <scstep>
   <time name="dav">   31.81   31.88</time>
   <time name="total">   32.35   32.43</time>
   <energy>
    <i name="e_fr_energy">   -189.35462199 </i>
    <i name="e_wo_entrp">   -189.06524848 </i>
    <i name="e_0_energy">   -189.20993523 </i>
   </energy>
  </scstep>
  <scstep>
   <time name="dav">   32.15   32.23</time>
   <time name="total">   32.70   32.78</time>
   <energy>
    <i name="e_fr_energy">   -188.72291755 </i>
    <i name="e_wo_entrp">   -188.42904864 </i>
    <i name="e_0_energy">   -188.57598310 </i>
   </energy>
  </scstep>
  <scstep>
   <time name="dav">   28.51   28.58</time>
   <time name="total">   29.05   29.13</time>
   <energy>
    <i name="e_fr_energy">   -188.70432465 </i>
    <i name="e_wo_entrp">   -188.40486930 </i>
    <i name="e_0_energy">   -188.55459697 </i>
   </energy>
  </scstep>
  <scstep>
   <time name="dav">   32.31   32.39</time>
   <time name="total">   32.86   32.94</time>
   <energy>
    <i name="e_fr_energy">   -188.75653997 </i>
    <i name="e_wo_entrp">   -188.45565920 </i>
    <i name="e_0_energy">   -188.60609959 </i>
   </energy>
  </scstep>
  <scstep>
   <time name="dav">   32.47   32.55</time>
   <time name="total">   33.02   33.11</time>
   <energy>
    <i name="e_fr_energy">   -188.62035227 </i>
    <i name="e_wo_entrp">   -188.32579544 </i>
    <i name="e_0_energy">   -188.47307385 </i>
   </energy>
  </scstep>
  <scstep>
   <time name="dav">   32.05   32.13</time>
   <time name="total">   32.59   32.68</time>
   <energy>
    <i name="e_fr_energy">   -188.61474961 </i>
    <i name="e_wo_entrp">   -188.31963555 </i>
    <i name="e_0_energy">   -188.46719258 </i>
   </energy>
  </scstep>
  <scstep>
   <time name="dav">   32.52   32.59</time>
   <time name="total">   33.06   33.14</time>
   <energy>
    <i name="e_fr_energy">   -188.60370869 </i>
    <i name="e_wo_entrp">   -188.30843605 </i>
    <i name="e_0_energy">   -188.45607237 </i>
   </energy>
  </scstep>
  <scstep>
   <time name="dav">   30.29   30.37</time>
   <time name="total">   30.84   30.92</time>
   <energy>
    <i name="e_fr_energy">   -188.60286043 </i>
    <i name="e_wo_entrp">   -188.30752200 </i>
    <i name="e_0_energy">   -188.45519121 </i>
   </energy>
  </scstep>
  <scstep>
   <time name="dav">   31.44   31.52</time>
   <time name="total">   31.98   32.07</time>
   <energy>
    <i name="e_fr_energy">   -188.60219958 </i>
    <i name="e_wo_entrp">   -188.30745221 </i>
    <i name="e_0_energy">   -188.45482589 </i>
   </energy>
  </scstep>
  <scstep>
   <time name="dav">   28.93   29.00</time>
   <time name="total">   29.48   29.56</time>
   <energy>
    <i name="e_fr_energy">   -188.60232871 </i>
    <i name="e_wo_entrp">   -188.30759120 </i>
    <i name="e_0_energy">   -188.45495995 </i>
   </energy>
  </scstep>
  <scstep>
   <time name="dav">   22.63   22.69</time>
   <time name="total">   22.67   22.73</time>
   <energy>
    <i name="alphaZ">     78.92754008 </i>
    <i name="ewald">  39382.43878080 </i>
    <i name="hartreedc"> -45350.64305272 </i>
    <i name="XCdc">   -237.98548257 </i>
    <i name="pawpsdc">   3950.06629484 </i>
    <i name="pawaedc">  -3364.55960280 </i>
    <i name="eentropy">     -0.29477591 </i>
    <i name="bandstr">  -1407.99453533 </i>
    <i name="atom">   6761.44252427 </i>
    <i name="e_fr_energy">   -188.60230935 </i>
    <i name="e_wo_entrp">   -188.30753343 </i>
    <i name="e_0_energy">   -188.45492139 </i>
   </energy>
  </scstep>
  <structure>
   <crystal>
    <varray name="basis" >
     <v>       8.85528829       5.10498834       0.00000000 </v>
     <v>      -8.85539027       5.10516424       0.00000000 </v>
     <v>       0.00000000       0.00000000      30.00000000 </v>
    </varray>
    <i name="volume">   2712.43095513 </i>
    <varray name="rec_basis" >
     <v>       0.05646408       0.09794229       0.00000000 </v>
     <v>      -0.05646214       0.09794117       0.00000000 </v>
     <v>       0.00000000       0.00000000       0.03333333 </v>
    </varray>
   </crystal>
   <varray name="positions" >
    <v>      -0.00008164       0.00044556       0.00017221 </v>
    <v>       1.00054103       0.33334839      -0.00000675 </v>
    <v>       0.33284983       0.66616957      -0.00016830 </v>
    <v>       0.33313053       0.33337920       0.00001477 </v>
    <v>       0.66684066       0.00013289       0.00006114 </v>
    <v>       0.00002861       0.66649042      -0.00007594 </v>
    <v>       0.33304513      -0.00031426      -0.00021058 </v>
    <v>       0.66691723       0.33320592      -0.00000585 </v>
    <v>       0.66665625       0.66705310       0.00021979 </v>
    <v>       0.10661501       0.22017739       0.95311763 </v>
    <v>       0.21789915       0.10834270       0.04808387 </v>
    <v>       0.11328237       0.55338132       0.95303364 </v>
    <v>       0.21994475       0.44647340       0.04694897 </v>
    <v>       0.10969250       0.89170058       0.95202570 </v>
    <v>       0.22497366       0.77620467       0.04798130 </v>
    <v>       0.44479866       0.22162246       0.95072133 </v>
    <v>       0.55516553       0.11158357       0.04925106 </v>
    <v>       0.44274111       0.55837465       0.95197982 </v>
    <v>       0.55638277       0.44491910       0.04928708 </v>
    <v>       0.44157138       0.88465748       0.95189325 </v>
    <v>       0.55150531       0.77500706       0.04805045 </v>
    <v>       0.78166994       0.22478096       0.95192234 </v>
    <v>       0.89324384       0.11288642       0.04690735 </v>
    <v>       0.77688195       0.55487356       0.95074284 </v>
    <v>       0.89019150       0.44146156       0.04800399 </v>
    <v>       0.78169510       0.89008769       0.95194992 </v>
    <v>       0.89003226       0.78176907       0.04809888 </v>
   </varray>
  </structure>
  <varray name="forces" >
   <v>      -0.02463148      -0.00546480       0.03501255 </v>
   <v>       0.02216750       0.01559417      -0.00131357 </v>
   <v>      -0.01386846      -0.01784679      -0.03249234 </v>
   <v>       0.23839640       0.13679664       0.00164264 </v>
   <v>      -0.13293460      -0.04710466       0.00554319 </v>
   <v>      -0.10275337      -0.09376203      -0.00740656 </v>
   <v>       0.01820736       0.11086858      -0.03670587 </v>
   <v>      -0.08502056      -0.05743635      -0.00126403 </v>
   <v>       0.09505501      -0.03502102       0.03619634 </v>
   <v>      -0.01653925      -0.04224457       0.06734644 </v>
   <v>       0.10520182      -0.07353057      -0.02493549 </v>
   <v>       0.05039680      -0.00040399       0.04283033 </v>
   <v>      -0.04476988      -0.00982654      -0.08159756 </v>
   <v>       0.00128497       0.11393696       0.00875717 </v>
   <v>      -0.01063046       0.10301085      -0.05431115 </v>
   <v>       0.13049616      -0.00657390      -0.05210371 </v>
   <v>      -0.12953500      -0.00934346       0.00668187 </v>
   <v>       0.00140674       0.11006681       0.00066961 </v>
   <v>       0.08131140       0.12346153       0.04503625 </v>
   <v>      -0.10749608      -0.07408727      -0.01495107 </v>
   <v>       0.10148657      -0.07076381      -0.02324400 </v>
   <v>      -0.08880063       0.06639912       0.02967449 </v>
   <v>       0.01101621       0.05382162      -0.02798277 </v>
   <v>      -0.09108996      -0.11529194       0.00445884 </v>
   <v>       0.00276398      -0.09796351      -0.01212009 </v>
   <v>       0.08494512      -0.03940055       0.06592678 </v>
   <v>      -0.09606631      -0.03789053       0.02065171 </v>
  </varray>
  <varray name="stress" >
   <v>     -19.86619365      -0.00745411       0.04674043 </v>
   <v>      -0.00745420     -19.44359702      -0.02655379 </v>
   <v>       0.04674036      -0.02655395      -1.71876567 </v>
  </varray>
  <energy>
   <i name="e_fr_energy">   -188.60230935 </i>
   <i name="e_wo_entrp">   -188.45492139 </i>
   <i name="e_0_energy">     -0.29477591 </i>
  </energy>
  <time name="totalsc">  439.20  440.36</time>
 </calculation>
 <calculation>
  <scstep>
   <time name="dav">   25.13   25.19</time>
   <time name="total">   25.66   25.73</time>
   <energy>
    <i name="alphaZ">     82.35606059 </i>
    <i name="ewald">  41307.64755966 </i>
    <i name="hartreedc"> -47306.52127459 </i>
    <i name="XCdc">   -233.85910305 </i>
    <i name="pawpsdc">   3949.70031166 </i>
    <i name="pawaedc">  -3364.19021402 </i>
    <i name="eentropy">     -0.24440116 </i>
    <i name="bandstr">  -1386.83620391 </i>
    <i name="atom">   6761.44252427 </i>
    <i name="e_fr_energy">   -190.50474054 </i>
    <i name="e_wo_entrp">   -190.26033938 </i>
    <i name="e_0_energy">   -190.38253996 </i>
   </energy>
  </scstep>
  <scstep>
   <time name="dav">   28.84   28.91</time>
   <time name="total">   29.36   29.44</time>
   <energy>
    <i name="e_fr_energy">   -190.56941748 </i>
    <i name="e_wo_entrp">   -190.31659887 </i>
    <i name="e_0_energy">   -190.44300817 </i>
   </energy>
  </scstep>
  <scstep>
   <time name="dav">   31.62   31.70</time>
   <time name="total">   32.15   32.23</time>
   <energy>
    <i name="e_fr_energy">   -189.97064021 </i>
    <i name="e_wo_entrp">   -189.71795836 </i>
    <i name="e_0_energy">   -189.84429928 </i>
   </energy>
  </scstep>
  <scstep>
   <time name="dav">   32.45   32.53</time>
   <time name="total">   32.99   33.07</time>
   <energy>
    <i name="e_fr_energy">   -189.76921662 </i>
    <i name="e_wo_entrp">   -189.51751037 </i>
    <i name="e_0_energy">   -189.64336350 </i>
   </energy>
  </scstep>
  <scstep>
   <time name="dav">   31.37   31.45</time>
   <time name="total">   31.90   31.99</time>
   <energy>
    <i name="e_fr_energy">   -189.70794969 </i>
    <i name="e_wo_entrp">   -189.45981355 </i>
    <i name="e_0_energy">   -189.58388162 </i>
   </energy>
  </scstep>
  <scstep>
   <time name="dav">   31.30   31.37</time>
   <time name="total">   31.83   31.91</time>
   <energy>
    <i name="e_fr_energy">   -189.67197452 </i>
    <i name="e_wo_entrp">   -189.42254282 </i>
    <i name="e_0_energy">   -189.54725867 </i>
   </energy>
  </scstep>
  <scstep>
   <time name="dav">   31.00   31.08</time>
   <time name="total">   31.54   31.62</time>
   <energy>
    <i name="e_fr_energy">   -189.66572550 </i>
    <i name="e_wo_entrp">   -189.41559540 </i>
    <i name="e_0_energy">   -189.54066045 </i>
   </energy>
  </scstep>
  <scstep>
   <time name="dav">   28.57   28.64</time>
   <time name="total">   29.10   29.18</time>
   <energy>
    <i name="e_fr_energy">   -189.66583816 </i>
    <i name="e_wo_entrp">   -189.41598424 </i>
    <i name="e_0_energy">   -189.54091120 </i>
   </energy>
  </scstep>
  <scstep>
   <time name="dav">   27.87   27.94</time>
   <time name="total">   28.41   28.49</time>
   <energy>
    <i name="e_fr_energy">   -189.66620000 </i>
    <i name="e_wo_entrp">   -189.41653655 </i>
    <i name="e_0_energy">   -189.54136827 </i>
   </energy>
  </scstep>
  <scstep>
   <time name="dav">   27.55   27.61</time>
   <time name="total">   28.08   28.15</time>
   <energy>
    <i name="e_fr_energy">   -189.66637390 </i>
    <i name="e_wo_entrp">   -189.41665788 </i>
    <i name="e_0_energy">   -189.54151589 </i>
   </energy>
  </scstep>
  <scstep>
   <time name="dav">   25.18   25.24</time>
   <time name="total">   25.72   25.79</time>
   <energy>
    <i name="e_fr_energy">   -189.66589686 </i>
    <i name="e_wo_entrp">   -189.41606049 </i>
    <i name="e_0_energy">   -189.54097868 </i>
   </energy>
  </scstep>
  <scstep>
   <time name="dav">   18.44   18.48</time>
   <time name="total">   18.48   18.53</time>
   <energy>
    <i name="alphaZ">     82.35606059 </i>
    <i name="ewald">  41307.64755966 </i>
    <i name="hartreedc"> -47279.84692592 </i>
    <i name="XCdc">   -235.25687191 </i>
    <i name="pawpsdc">   4038.27008996 </i>
    <i name="pawaedc">  -3453.95821072 </i>
    <i name="eentropy">     -0.24979851 </i>
    <i name="bandstr">  -1410.07034304 </i>
    <i name="atom">   6761.44252427 </i>
    <i name="e_fr_energy">   -189.66591560 </i>
    <i name="e_wo_entrp">   -189.41611709 </i>
    <i name="e_0_energy">   -189.54101635 </i>
   </energy>
  </scstep>
  <structure>
   <crystal>
    <varray name="basis" >
     <v>       8.66696093       4.99868125       0.00000000 </v>
     <v>      -8.66714220       4.99899479       0.00000000 </v>
     <v>       0.00000000       0.00000000      30.00000000 </v>
    </varray>
    <i name="volume">   2599.51121271 </i>
    <varray name="rec_basis" >
     <v>       0.05769155       0.10002429       0.00000000 </v>
     <v>      -0.05768794       0.10002220       0.00000000 </v>
     <v>       0.00000000       0.00000000       0.03333333 </v>
    </varray>
   </crystal>
   <varray name="positions" >
    <v>      -0.00011452       0.00046017       0.00019213 </v>
    <v>       1.00058847       0.33335309      -0.00000750 </v>
    <v>       0.33280663       0.66615310      -0.00018679 </v>
    <v>       0.33358900       0.33337813       0.00001571 </v>
    <v>       0.66663379       0.00018226       0.00006429 </v>
    <v>      -0.00022718       0.66643270      -0.00008016 </v>
    <v>       0.33324803      -0.00014646      -0.00023147 </v>
    <v>       0.66673927       0.33319184      -0.00000657 </v>
    <v>       0.66668932       0.66690294       0.00024038 </v>
    <v>       0.10652845       0.22012271       0.95315595 </v>
    <v>       0.21787761       0.10811839       0.04806969 </v>
    <v>       0.11333027       0.55333208       0.95305801 </v>
    <v>       0.21988517       0.44650012       0.04690254 </v>
    <v>       0.10988422       0.89188982       0.95203068 </v>
    <v>       0.22513563       0.77638713       0.04795040 </v>
    <v>       0.44491344       0.22148570       0.95069168 </v>
    <v>       0.55502507       0.11169280       0.04925486 </v>
    <v>       0.44292648       0.55855730       0.95198020 </v>
    <v>       0.55666755       0.44504714       0.04931271 </v>
    <v>       0.44134392       0.88463722       0.95188474 </v>
    <v>       0.55148482       0.77479095       0.04803722 </v>
    <v>       0.78169536       0.22497755       0.95193923 </v>
    <v>       0.89334444       0.11296578       0.04689143 </v>
    <v>       0.77660141       0.55476860       0.95074537 </v>
    <v>       0.89003039       0.44129512       0.04799710 </v>
    <v>       0.78171110       0.88993995       0.95198743 </v>
    <v>       0.88987633       0.78179831       0.04811063 </v>
   </varray>
  </structure>
  <varray name="forces" >
   <v>       0.02043364      -0.03850364       0.00750454 </v>
   <v>      -0.02298454      -0.00991729      -0.00018397 </v>
   <v>      -0.01933375       0.03208624      -0.00588058 </v>
   <v>       0.32664399       0.18794114      -0.00081313 </v>
   <v>      -0.17778550      -0.07621536      -0.00559777 </v>
   <v>      -0.15028119      -0.12098029       0.00635290 </v>
   <v>       0.02335320       0.17844925      -0.00036478 </v>
   <v>      -0.14861021      -0.09175661      -0.00022007 </v>
   <v>       0.16103429      -0.06733212      -0.00118256 </v>
   <v>      -0.04949670      -0.09937369      -0.37302035 </v>
   <v>      -0.00472131      -0.13142197       0.47487169 </v>
   <v>       0.12803331      -0.00652354      -0.41002153 </v>
   <v>      -0.11406716      -0.00740379       0.35918876 </v>
   <v>      -0.12023888       0.04218198      -0.49001915 </v>
   <v>       0.09880467       0.03298582       0.43042151 </v>
   <v>       0.06121683       0.00022258      -0.62392865 </v>
   <v>      -0.06413392      -0.01316720       0.56503280 </v>
   <v>      -0.10310010       0.04889753      -0.49396730 </v>
   <v>       0.04885293       0.06275709       0.61630934 </v>
   <v>       0.01455482      -0.13903992      -0.52802202 </v>
   <v>      -0.02225178      -0.13957992       0.47428620 </v>
   <v>       0.02960733       0.13558623      -0.46857988 </v>
   <v>       0.04125623       0.12314764       0.42474483 </v>
   <v>      -0.06149709      -0.05545508      -0.55261797 </v>
   <v>       0.11966464      -0.03075527       0.48318630 </v>
   <v>       0.08011527       0.08751260      -0.41912241 </v>
   <v>      -0.09506901       0.09565759       0.53164326 </v>
  </varray>
  <varray name="stress" >
   <v>     -10.16614214       0.00701724       0.02951153 </v>
   <v>       0.00701734      -9.85531605      -0.02288320 </v>
   <v>       0.02951162      -0.02288327       6.54887737 </v>
  </varray>
  <energy>
   <i name="e_fr_energy">   -189.66591560 </i>
   <i name="e_wo_entrp">   -189.54101635 </i>
   <i name="e_0_energy">     -0.24979851 </i>
  </energy>
  <time name="totalsc">  388.43  389.46</time>
 </calculation>
 <calculation>
  <scstep>
   <time name="dav">   22.54   22.59</time>
   <time name="total">   23.06   23.12</time>
   <energy>
    <i name="alphaZ">     85.86300274 </i>
    <i name="ewald">  42851.44808028 </i>
    <i name="hartreedc"> -48868.61684690 </i>
    <i name="XCdc">   -232.94864205 </i>
    <i name="pawpsdc">   4038.32586333 </i>
    <i name="pawaedc">  -3454.01063921 </i>
    <i name="eentropy">     -0.19683029 </i>
    <i name="bandstr">  -1372.48239543 </i>
    <i name="atom">   6761.44252427 </i>
    <i name="e_fr_energy">   -191.17588327 </i>
    <i name="e_wo_entrp">   -190.97905297 </i>
    <i name="e_0_energy">   -191.07746812 </i>
   </energy>
  </scstep>
  <scstep>
   <time name="dav">   34.10   34.18</time>
   <time name="total">   34.61   34.70</time>
   <energy>
    <i name="e_fr_energy">   -191.12936324 </i>
    <i name="e_wo_entrp">   -190.91811107 </i>
    <i name="e_0_energy">   -191.02373716 </i>
   </energy>
  </scstep>
  <scstep>
   <time name="dav">   31.27   31.34</time>
   <time name="total">   31.78   31.86</time>
   <energy>
    <i name="e_fr_energy">   -191.02496754 </i>
    <i name="e_wo_entrp">   -190.81316390 </i>
    <i name="e_0_energy">   -190.91906572 </i>
   </energy>
  </scstep>
  <scstep>
   <time name="dav">   33.59   33.67</time>
   <time name="total">   34.11   34.19</time>
   <energy>
    <i name="e_fr_energy">   -190.66085703 </i>
    <i name="e_wo_entrp">   -190.45553168 </i>
    <i name="e_0_energy">   -190.55819435 </i>
   </energy>
  </scstep>
  <scstep>
   <time name="dav">   31.29   31.37</time>
   <time name="total">   31.81   31.89</time>
   <energy>
    <i name="e_fr_energy">   -190.60598233 </i>
    <i name="e_wo_entrp">   -190.40135419 </i>
    <i name="e_0_energy">   -190.50366826 </i>
   </energy>
  </scstep>
  <scstep>
   <time name="dav">   31.69   31.76</time>
   <time name="total">   32.20   32.29</time>
   <energy>
    <i name="e_fr_energy">   -190.56561159 </i>
    <i name="e_wo_entrp">   -190.35922543 </i>
    <i name="e_0_energy">   -190.46241851 </i>
   </energy>
  </scstep>
  <scstep>
   <time name="dav">   31.30   31.38</time>
   <time name="total">   31.82   31.90</time>
   <energy>
    <i name="e_fr_energy">   -190.56111863 </i>
    <i name="e_wo_entrp">   -190.35488892 </i>
    <i name="e_0_energy">   -190.45800378 </i>
   </energy>
  </scstep>
  <scstep>
   <time name="dav">   27.85   27.91</time>
   <time name="total">   28.36   28.44</time>
   <energy>
    <i name="e_fr_energy">   -190.55740350 </i>
    <i name="e_wo_entrp">   -190.35178183 </i>
    <i name="e_0_energy">   -190.45459267 </i>
   </energy>
  </scstep>
  <scstep>
   <time name="dav">   29.74   29.81</time>
   <time name="total">   30.26   30.45</time>
   <energy>
    <i name="e_fr_energy">   -190.55817695 </i>
    <i name="e_wo_entrp">   -190.35269154 </i>
    <i name="e_0_energy">   -190.45543424 </i>
   </energy>
  </scstep>
  <scstep>
   <time name="dav">   29.03   29.10</time>
   <time name="total">   29.55   29.63</time>
   <energy>
    <i name="e_fr_energy">   -190.55766488 </i>
    <i name="e_wo_entrp">   -190.35225650 </i>
    <i name="e_0_energy">   -190.45496069 </i>
   </energy>
  </scstep>
  <scstep>
   <time name="dav">   23.61   23.67</time>
   <time name="total">   24.13   24.20</time>
   <energy>
    <i name="e_fr_energy">   -190.55753190 </i>
    <i name="e_wo_entrp">   -190.35208518 </i>
    <i name="e_0_energy">   -190.45480854 </i>
   </energy>
  </scstep>
  <scstep>
   <time name="dav">   21.17   21.22</time>
   <time name="total">   21.21   21.27</time>
   <energy>
    <i name="alphaZ">     85.86300274 </i>
    <i name="ewald">  42851.44808028 </i>
    <i name="hartreedc"> -48839.83933130 </i>
    <i name="XCdc">   -234.31215881 </i>
    <i name="pawpsdc">   4061.96869692 </i>
    <i name="pawaedc">  -3477.81427589 </i>
    <i name="eentropy">     -0.20543917 </i>
    <i name="bandstr">  -1399.10862539 </i>
    <i name="atom">   6761.44252427 </i>
    <i name="e_fr_energy">   -190.55752636 </i>
    <i name="e_wo_entrp">   -190.35208719 </i>
    <i name="e_0_energy">   -190.45480677 </i>
   </energy>
  </scstep>
  <structure>
   <crystal>
    <varray name="basis" >
     <v>       8.48432576       4.89829741       0.00000000 </v>
     <v>      -8.48400826       4.89774651       0.00000000 </v>
     <v>       0.00000000       0.00000000      30.00000000 </v>
    </varray>
    <i name="volume">   2493.33817956 </i>
    <varray name="rec_basis" >
     <v>       0.05892999       0.10208011       0.00000000 </v>
     <v>      -0.05893662       0.10208394       0.00000000 </v>
     <v>       0.00000000       0.00000000       0.03333333 </v>
    </varray>
   </crystal>
   <varray name="positions" >
    <v>      -0.00029996      -0.00000345       0.00018425 </v>
    <v>       1.00031383       0.33337537      -0.00000692 </v>
    <v>       0.33305525       0.66655757      -0.00017631 </v>
    <v>       0.33620795       0.33337576       0.00001193 </v>
    <v>       0.66537350       0.00033951       0.00004318 </v>
    <v>      -0.00166805       0.66621784      -0.00005525 </v>
    <v>       0.33462988       0.00105131      -0.00020124 </v>
    <v>       0.66544697       0.33315984      -0.00000613 </v>
    <v>       0.66686420       0.66572065       0.00020606 </v>
    <v>       0.10553446       0.21958250       0.95200658 </v>
    <v>       0.21673153       0.10732398       0.04948105 </v>
    <v>       0.11384988       0.55269992       0.95182122 </v>
    <v>       0.21933148       0.44697294       0.04802357 </v>
    <v>       0.10935832       0.89258597       0.95058876 </v>
    <v>       0.22568330       0.77590295       0.04925669 </v>
    <v>       0.44505358       0.22138242       0.94890965 </v>
    <v>       0.55479492       0.11173841       0.05090321 </v>
    <v>       0.44255592       0.55923548       0.95053362 </v>
    <v>       0.55703967       0.44515907       0.05107846 </v>
    <v>       0.44053711       0.88337251       0.95035179 </v>
    <v>       0.55017669       0.77400141       0.04944543 </v>
    <v>       0.78299829       0.22572400       0.95054224 </v>
    <v>       0.89448449       0.11371959       0.04815866 </v>
    <v>       0.77622303       0.55475029       0.94912387 </v>
    <v>       0.89060789       0.44066809       0.04942188 </v>
    <v>       0.78286176       0.89052413       0.95070432 </v>
    <v>       0.89046856       0.78307639       0.04964932 </v>
   </varray>
  </structure>
  <varray name="forces" >
   <v>       0.06993431      -0.07935410      -0.05204575 </v>
   <v>      -0.05698863      -0.03402482       0.00013662 </v>
   <v>      -0.02662197       0.09633652       0.05237536 </v>
   <v>       0.38986274       0.22224063      -0.00051345 </v>
   <v>      -0.21722848      -0.09884439      -0.01626254 </v>
   <v>      -0.19177764      -0.13967047       0.01672515 </v>
   <v>       0.02699889       0.26925780       0.03490280 </v>
   <v>      -0.23608012      -0.14719658      -0.00043726 </v>
   <v>       0.23773586      -0.10685030      -0.03443379 </v>
   <v>       0.01759146       0.01460262      -0.23949486 </v>
   <v>      -0.01091965      -0.02532068       0.32100553 </v>
   <v>       0.02488379      -0.01621825      -0.32227202 </v>
   <v>       0.01460881      -0.00041596       0.23653261 </v>
   <v>      -0.04081253       0.01360847      -0.29618569 </v>
   <v>       0.01068177      -0.01502285       0.22886109 </v>
   <v>       0.03502195       0.00042281      -0.50201463 </v>
   <v>      -0.01738260      -0.00006752       0.40541846 </v>
   <v>      -0.01698117       0.00489966      -0.32976191 </v>
   <v>       0.01754237       0.03110888       0.50087204 </v>
   <v>       0.00604794      -0.06420628      -0.40796355 </v>
   <v>      -0.01627138      -0.05054223       0.29341316 </v>
   <v>       0.01853499       0.05274223      -0.30554355 </v>
   <v>      -0.01482651       0.02967347       0.32362641 </v>
   <v>      -0.00848748      -0.01524745      -0.40360889 </v>
   <v>       0.04282516      -0.01109563       0.31240272 </v>
   <v>      -0.00288595       0.03015976      -0.22413390 </v>
   <v>      -0.05500593       0.03902465       0.40839984 </v>
  </varray>
  <varray name="stress" >
   <v>      -5.88044393       0.00425970      -0.05889572 </v>
   <v>       0.00425977      -5.89052370      -0.02185247 </v>
   <v>      -0.05889554      -0.02185226       4.52386882 </v>
  </varray>
  <energy>
   <i name="e_fr_energy">   -190.55752636 </i>
   <i name="e_wo_entrp">   -190.45480677 </i>
   <i name="e_0_energy">     -0.20543917 </i>
  </energy>
  <time name="totalsc">  396.14  397.30</time>
 </calculation>
 <calculation>
  <scstep>
   <time name="dav">   22.52   22.58</time>
   <time name="total">   23.03   23.09</time>
   <energy>
    <i name="alphaZ">     90.47026305 </i>
    <i name="ewald">  44794.00117415 </i>
    <i name="hartreedc"> -50840.85531252 </i>
    <i name="XCdc">   -231.68265659 </i>
    <i name="pawpsdc">   4061.85324648 </i>
    <i name="pawaedc">  -3477.69435445 </i>
    <i name="eentropy">     -0.15983199 </i>
    <i name="bandstr">  -1349.35747817 </i>
    <i name="atom">   6761.44252427 </i>
    <i name="e_fr_energy">   -191.98242575 </i>
    <i name="e_wo_entrp">   -191.82259377 </i>
    <i name="e_0_energy">   -191.90250976 </i>
   </energy>
  </scstep>
  <scstep>
   <time name="dav">   33.07   33.15</time>
   <time name="total">   33.57   33.65</time>
   <energy>
    <i name="e_fr_energy">   -191.66918859 </i>
    <i name="e_wo_entrp">   -191.48842458 </i>
    <i name="e_0_energy">   -191.57880659 </i>
   </energy>
  </scstep>
  <scstep>
   <time name="dav">   31.14   31.21</time>
   <time name="total">   31.64   31.73</time>
   <energy>
    <i name="e_fr_energy">   -191.98679969 </i>
    <i name="e_wo_entrp">   -191.81024149 </i>
    <i name="e_0_energy">   -191.89852059 </i>
   </energy>
  </scstep>
  <scstep>
   <time name="dav">   31.34   31.41</time>
   <time name="total">   31.84   31.93</time>
   <energy>
    <i name="e_fr_energy">   -191.34494418 </i>
    <i name="e_wo_entrp">   -191.17175841 </i>
    <i name="e_0_energy">   -191.25835130 </i>
   </energy>
  </scstep>
  <scstep>
   <time name="dav">   31.19   31.27</time>
   <time name="total">   31.70   31.78</time>
   <energy>
    <i name="e_fr_energy">   -191.29651645 </i>
    <i name="e_wo_entrp">   -191.12735009 </i>
    <i name="e_0_energy">   -191.21193327 </i>
   </energy>
  </scstep>
  <scstep>
   <time name="dav">   30.97   31.04</time>
   <time name="total">   31.47   31.56</time>
   <energy>
    <i name="e_fr_energy">   -191.12381797 </i>
    <i name="e_wo_entrp">   -190.95275520 </i>
    <i name="e_0_energy">   -191.03828659 </i>
   </energy>
  </scstep>
  <scstep>
   <time name="dav">   31.27   31.35</time>
   <time name="total">   31.78   31.86</time>
   <energy>
    <i name="e_fr_energy">   -191.12223062 </i>
    <i name="e_wo_entrp">   -190.95103088 </i>
    <i name="e_0_energy">   -191.03663075 </i>
   </energy>
  </scstep>
  <scstep>
   <time name="dav">   28.30   28.37</time>
   <time name="total">   28.81   28.88</time>
   <energy>
    <i name="e_fr_energy">   -191.11895744 </i>
    <i name="e_wo_entrp">   -190.94856178 </i>
    <i name="e_0_energy">   -191.03375961 </i>
   </energy>
  </scstep>
  <scstep>
   <time name="dav">   29.51   29.58</time>
   <time name="total">   30.02   30.10</time>
   <energy>
    <i name="e_fr_energy">   -191.11978111 </i>
    <i name="e_wo_entrp">   -190.94961394 </i>
    <i name="e_0_energy">   -191.03469753 </i>
   </energy>
  </scstep>
  <scstep>
   <time name="dav">   31.34   31.42</time>
   <time name="total">   31.84   31.93</time>
   <energy>
    <i name="e_fr_energy">   -191.11938911 </i>
    <i name="e_wo_entrp">   -190.94928890 </i>
    <i name="e_0_energy">   -191.03433901 </i>
   </energy>
  </scstep>
  <scstep>
   <time name="dav">   26.24   26.30</time>
   <time name="total">   26.75   26.82</time>
   <energy>
    <i name="e_fr_energy">   -191.11915045 </i>
    <i name="e_wo_entrp">   -190.94906295 </i>
    <i name="e_0_energy">   -191.03410670 </i>
   </energy>
  </scstep>
  <scstep>
   <time name="dav">   20.87   20.92</time>
   <time name="total">   20.90   20.96</time>
   <energy>
    <i name="alphaZ">     90.47026305 </i>
    <i name="ewald">  44794.00117415 </i>
    <i name="hartreedc"> -50804.45039533 </i>
    <i name="XCdc">   -233.36411458 </i>
    <i name="pawpsdc">   4081.21885707 </i>
    <i name="pawaedc">  -3497.08872455 </i>
    <i name="eentropy">     -0.17014604 </i>
    <i name="bandstr">  -1383.17854089 </i>
    <i name="atom">   6761.44252427 </i>
    <i name="e_fr_energy">   -191.11910284 </i>
    <i name="e_wo_entrp">   -190.94895680 </i>
    <i name="e_0_energy">   -191.03402982 </i>
   </energy>
  </scstep>
  <structure>
   <crystal>
    <varray name="basis" >
     <v>       8.26590590       4.77238757       0.00000000 </v>
     <v>      -8.26499302       4.77080486       0.00000000 </v>
     <v>       0.00000000       0.00000000      30.00000000 </v>
    </varray>
    <i name="volume">   2366.36321954 </i>
    <varray name="rec_basis" >
     <v>       0.06048275       0.10478095       0.00000000 </v>
     <v>      -0.06050281       0.10479253       0.00000000 </v>
     <v>       0.00000000       0.00000000       0.03333333 </v>
    </varray>
   </crystal>
   <varray name="positions" >
    <v>      -0.00079228      -0.00157289      -0.00002472 </v>
    <v>       0.99938909       0.33337061      -0.00000537 </v>
    <v>       0.33411437       0.66800938       0.00003383 </v>
    <v>       0.34204390       0.33334463       0.00000711 </v>
    <v>       0.66245359       0.00066506      -0.00002922 </v>
    <v>      -0.00492194       0.66584331       0.00002192 </v>
    <v>       0.33827907       0.00429617      -0.00004003 </v>
    <v>       0.66183655       0.33303785      -0.00000674 </v>
    <v>       0.66725715       0.66257073       0.00004458 </v>
    <v>       0.10534841       0.21939100       0.95049171 </v>
    <v>       0.21578465       0.10690755       0.05140415 </v>
    <v>       0.11406513       0.55207186       0.94997860 </v>
    <v>       0.21917634       0.44710765       0.04952055 </v>
    <v>       0.10877286       0.89318126       0.94874633 </v>
    <v>       0.22572418       0.77522719       0.05081190 </v>
    <v>       0.44524024       0.22124687       0.94618532 </v>
    <v>       0.55469941       0.11176302       0.05323733 </v>
    <v>       0.44211632       0.55958314       0.94857397 </v>
    <v>       0.55740761       0.44532089       0.05379386 </v>
    <v>       0.43966350       0.88196734       0.94807617 </v>
    <v>       0.54883256       0.77333871       0.05126785 </v>
    <v>       0.78437283       0.22639235       0.94867920 </v>
    <v>       0.89523511       0.11446716       0.05001427 </v>
    <v>       0.77607685       0.55473217       0.94680450 </v>
    <v>       0.89123099       0.44010247       0.05131448 </v>
    <v>       0.78378258       0.89133552       0.94917195 </v>
    <v>       0.89102538       0.78451345       0.05192639 </v>
   </varray>
  </structure>
  <varray name="forces" >
   <v>       0.08698361      -0.10612220      -0.02323525 </v>
   <v>      -0.05416118      -0.03080311       0.00060954 </v>
   <v>      -0.04113325       0.12184039       0.02127530 </v>
   <v>       0.26941476       0.15449259       0.00101555 </v>
   <v>      -0.21047071      -0.07201821      -0.00413229 </v>
   <v>      -0.16701795      -0.14768102       0.00323119 </v>
   <v>       0.02780028       0.30277849      -0.01332965 </v>
   <v>      -0.21902235      -0.12812836       0.00204737 </v>
   <v>       0.27477101      -0.12617437       0.01258633 </v>
   <v>       0.09482283       0.13122863       0.06974896 </v>
   <v>       0.03159340       0.09737017       0.01183776 </v>
   <v>      -0.08879253      -0.00119069       0.00733525 </v>
   <v>       0.16146247       0.02014424      -0.06665738 </v>
   <v>       0.07558034       0.02281383       0.04309726 </v>
   <v>      -0.11477613      -0.01788135      -0.07417707 </v>
   <v>       0.04038621       0.00696917      -0.25127605 </v>
   <v>      -0.00331121       0.05380467       0.17621263 </v>
   <v>       0.09641144      -0.01620085      -0.00924309 </v>
   <v>       0.02272976       0.02918782       0.24683253 </v>
   <v>      -0.06083948       0.00841790      -0.10019543 </v>
   <v>       0.05399914       0.05381478      -0.03698564 </v>
   <v>      -0.08566438      -0.05264893      -0.00400569 </v>
   <v>      -0.04529556      -0.07651548      -0.00914285 </v>
   <v>       0.04946142      -0.03043220      -0.17337147 </v>
   <v>      -0.08952438      -0.04965232       0.00011881 </v>
   <v>      -0.07654180      -0.08996570       0.06696402 </v>
   <v>      -0.02886577      -0.05744787       0.10283938 </v>
  </varray>
  <varray name="stress" >
   <v>      -0.37061776       0.11374725      -0.06301841 </v>
   <v>       0.11374728      -0.47603105       0.08490732 </v>
   <v>      -0.06301833       0.08490727      -0.46764436 </v>
  </varray>
  <energy>
   <i name="e_fr_energy">   -191.11910284 </i>
   <i name="e_wo_entrp">   -191.03402982 </i>
   <i name="e_0_energy">     -0.17014604 </i>
  </energy>
  <time name="totalsc">  396.79  397.83</time>
 </calculation>
 <calculation>
  <scstep>
   <time name="dav">   22.54   22.60</time>
   <time name="total">   23.05   23.11</time>
   <energy>
    <i name="alphaZ">     90.78810386 </i>
    <i name="ewald">  44920.69677539 </i>
    <i name="hartreedc"> -50935.33604091 </i>
    <i name="XCdc">   -233.21167123 </i>
    <i name="pawpsdc">   4081.07324674 </i>
    <i name="pawaedc">  -3496.93763274 </i>
    <i name="eentropy">     -0.17325472 </i>
    <i name="bandstr">  -1379.50814247 </i>
    <i name="atom">   6761.44252427 </i>
    <i name="e_fr_energy">   -191.16609181 </i>
    <i name="e_wo_entrp">   -190.99283709 </i>
    <i name="e_0_energy">   -191.07946445 </i>
   </energy>
  </scstep>
  <scstep>
   <time name="dav">   34.11   34.20</time>
   <time name="total">   34.62   34.71</time>
   <energy>
    <i name="e_fr_energy">   -191.19765705 </i>
    <i name="e_wo_entrp">   -191.02474867 </i>
    <i name="e_0_energy">   -191.11120286 </i>
   </energy>
  </scstep>
  <scstep>
   <time name="dav">   31.90   31.98</time>
   <time name="total">   32.41   32.50</time>
   <energy>
    <i name="e_fr_energy">   -191.17264973 </i>
    <i name="e_wo_entrp">   -190.99838667 </i>
    <i name="e_0_energy">   -191.08551820 </i>
   </energy>
  </scstep>
  <scstep>
   <time name="dav">   27.99   28.05</time>
   <time name="total">   28.49   28.57</time>
   <energy>
    <i name="e_fr_energy">   -191.16949687 </i>
    <i name="e_wo_entrp">   -190.99518798 </i>
    <i name="e_0_energy">   -191.08234243 </i>
   </energy>
  </scstep>
  <scstep>
   <time name="dav">   29.87   29.94</time>
   <time name="total">   30.38   30.46</time>
   <energy>
    <i name="e_fr_energy">   -191.16867707 </i>
    <i name="e_wo_entrp">   -190.99547274 </i>
    <i name="e_0_energy">   -191.08207491 </i>
   </energy>
  </scstep>
  <scstep>
   <time name="dav">   30.07   30.14</time>
   <time name="total">   30.57   30.65</time>
   <energy>
    <i name="e_fr_energy">   -191.16727471 </i>
    <i name="e_wo_entrp">   -190.99344209 </i>
    <i name="e_0_energy">   -191.08035840 </i>
   </energy>
  </scstep>
  <scstep>
   <time name="dav">   27.54   27.61</time>
   <time name="total">   28.05   28.12</time>
   <energy>
    <i name="e_fr_energy">   -191.16700482 </i>
    <i name="e_wo_entrp">   -190.99299628 </i>
    <i name="e_0_energy">   -191.08000055 </i>
   </energy>
  </scstep>
  <scstep>
   <time name="dav">   20.17   20.22</time>
   <time name="total">   20.20   20.26</time>
   <energy>
    <i name="alphaZ">     90.78810386 </i>
    <i name="ewald">  44920.69677539 </i>
    <i name="hartreedc"> -50933.60076567 </i>
    <i name="XCdc">   -233.31389278 </i>
    <i name="pawpsdc">   4081.11849230 </i>
    <i name="pawaedc">  -3496.96798828 </i>
    <i name="eentropy">     -0.17388197 </i>
    <i name="bandstr">  -1381.15632309 </i>
    <i name="atom">   6761.44252427 </i>
    <i name="e_fr_energy">   -191.16695597 </i>
    <i name="e_wo_entrp">   -190.99307399 </i>
    <i name="e_0_energy">   -191.08001498 </i>
   </energy>
  </scstep>
  <structure>
   <crystal>
    <varray name="basis" >
     <v>       8.25417435       4.76597549       0.00000000 </v>
     <v>      -8.25020085       4.75909157       0.00000000 </v>
     <v>       0.00000000       0.00000000      30.00000000 </v>
    </varray>
    <i name="volume">   2358.07879923 </i>
    <varray name="rec_basis" >
     <v>       0.06054622       0.10496088       0.00000000 </v>
     <v>      -0.06063379       0.10501143       0.00000000 </v>
     <v>       0.00000000       0.00000000       0.03333333 </v>
    </varray>
   </crystal>
   <varray name="positions" >
    <v>      -0.00110918      -0.00246735      -0.00007164 </v>
    <v>       0.99902192       0.33337316      -0.00000426 </v>
    <v>       0.33467822       0.66884168       0.00007745 </v>
    <v>       0.34391668       0.33333797       0.00000861 </v>
    <v>       0.66131117       0.00094146      -0.00003897 </v>
    <v>      -0.00634713       0.66555534       0.00003038 </v>
    <v>       0.34011752       0.00594826      -0.00005655 </v>
    <v>       0.66034396       0.33302487      -0.00000324 </v>
    <v>       0.66744503       0.66093170       0.00005977 </v>
    <v>       0.10632560       0.21978784       0.95054404 </v>
    <v>       0.21635688       0.10731213       0.05150702 </v>
    <v>       0.11379763       0.55231183       0.94991322 </v>
    <v>       0.21977153       0.44672697       0.04947270 </v>
    <v>       0.10909692       0.89309403       0.94873940 </v>
    <v>       0.22527885       0.77545259       0.05075539 </v>
    <v>       0.44540731       0.22115713       0.94564479 </v>
    <v>       0.55497446       0.11205982       0.05363625 </v>
    <v>       0.44230304       0.55921465       0.94847420 </v>
    <v>       0.55764373       0.44541031       0.05432642 </v>
    <v>       0.43948681       0.88213741       0.94781036 </v>
    <v>       0.54922573       0.77343284       0.05128428 </v>
    <v>       0.78388884       0.22640240       0.94859174 </v>
    <v>       0.89472367       0.11423046       0.05007720 </v>
    <v>       0.77606402       0.55441835       0.94641111 </v>
    <v>       0.89072135       0.44009048       0.05139641 </v>
    <v>       0.78311049       0.89112899       0.94921707 </v>
    <v>       0.89065937       0.78435915       0.05219675 </v>
   </varray>
  </structure>
  <varray name="forces" >
   <v>       0.06337096      -0.10244450      -0.02577899 </v>
   <v>      -0.02975921      -0.01603667      -0.00050193 </v>
   <v>      -0.04924665       0.10070884       0.02575925 </v>
   <v>       0.24922552       0.14406808      -0.00145796 </v>
   <v>      -0.24816405      -0.04898714      -0.00320028 </v>
   <v>      -0.16804729      -0.19330165       0.00442295 </v>
   <v>       0.04552007       0.31314086       0.01112895 </v>
   <v>      -0.17730014      -0.10338337      -0.00005744 </v>
   <v>       0.29302854      -0.11417735      -0.01097427 </v>
   <v>       0.07164185       0.08946646       0.10720230 </v>
   <v>       0.03479214       0.06498145      -0.01534281 </v>
   <v>      -0.06140818       0.00702986       0.04640310 </v>
   <v>       0.11412290       0.01894163      -0.10320524 </v>
   <v>       0.05689897       0.02898174       0.06630120 </v>
   <v>      -0.09697330       0.00020932      -0.10887897 </v>
   <v>       0.02948331       0.01217926      -0.20363965 </v>
   <v>      -0.01923892       0.04597109       0.14091936 </v>
   <v>       0.07261816       0.00064849       0.01475149 </v>
   <v>       0.02269482       0.01888163       0.20308410 </v>
   <v>      -0.04755536       0.00101276      -0.08493226 </v>
   <v>       0.05145728       0.03559638      -0.06328309 </v>
   <v>      -0.07295349      -0.03469245       0.01219395 </v>
   <v>      -0.02363650      -0.05655872      -0.04884514 </v>
   <v>       0.03302149      -0.04002688      -0.13977721 </v>
   <v>      -0.06722163      -0.04701482      -0.01205997 </v>
   <v>      -0.04954749      -0.08330242       0.10376242 </v>
   <v>      -0.02682378      -0.04189187       0.08600611 </v>
  </varray>
  <varray name="stress" >
   <v>       0.11334300       0.05237745      -0.04762824 </v>
   <v>       0.05237760       0.05961300       0.06566323 </v>
   <v>      -0.04762809       0.06566321      -1.03849384 </v>
  </varray>
  <energy>
   <i name="e_fr_energy">   -191.16695597 </i>
   <i name="e_wo_entrp">   -191.08001498 </i>
   <i name="e_0_energy">     -0.17388197 </i>
  </energy>
  <time name="totalsc">  271.10  271.80</time>
 </calculation>
 <calculation>
  <scstep>
   <time name="dav">   22.51   22.57</time>
   <time name="total">   23.02   23.08</time>
   <energy>
    <i name="alphaZ">     90.74991277 </i>
    <i name="ewald">  44893.53223380 </i>
    <i name="hartreedc"> -50906.31686278 </i>
    <i name="XCdc">   -233.37723255 </i>
    <i name="pawpsdc">   4081.23883306 </i>
    <i name="pawaedc">  -3497.08943914 </i>
    <i name="eentropy">     -0.18048211 </i>
    <i name="bandstr">  -1381.20246667 </i>
    <i name="atom">   6761.44252427 </i>
    <i name="e_fr_energy">   -191.20297935 </i>
    <i name="e_wo_entrp">   -191.02249724 </i>
    <i name="e_0_energy">   -191.11273829 </i>
   </energy>
  </scstep>
  <scstep>
   <time name="dav">   34.47   34.55</time>
   <time name="total">   34.98   35.07</time>
   <energy>
    <i name="e_fr_energy">   -191.24408386 </i>
    <i name="e_wo_entrp">   -191.06486602 </i>
    <i name="e_0_energy">   -191.15447494 </i>
   </energy>
  </scstep>
  <scstep>
   <time name="dav">   32.11   32.19</time>
   <time name="total">   32.62   32.71</time>
   <energy>
    <i name="e_fr_energy">   -191.20684821 </i>
    <i name="e_wo_entrp">   -191.02642493 </i>
    <i name="e_0_energy">   -191.11663657 </i>
   </energy>
  </scstep>
  <scstep>
   <time name="dav">   29.89   29.96</time>
   <time name="total">   30.40   30.48</time>
   <energy>
    <i name="e_fr_energy">   -191.20657845 </i>
    <i name="e_wo_entrp">   -191.02583519 </i>
    <i name="e_0_energy">   -191.11620682 </i>
   </energy>
  </scstep>
  <scstep>
   <time name="dav">   30.56   30.63</time>
   <time name="total">   31.07   31.15</time>
   <energy>
    <i name="e_fr_energy">   -191.20628266 </i>
    <i name="e_wo_entrp">   -191.02617705 </i>
    <i name="e_0_energy">   -191.11622986 </i>
   </energy>
  </scstep>
  <scstep>
   <time name="dav">   27.22   27.28</time>
   <time name="total">   27.72   27.80</time>
   <energy>
    <i name="e_fr_energy">   -191.20564819 </i>
    <i name="e_wo_entrp">   -191.02523424 </i>
    <i name="e_0_energy">   -191.11544121 </i>
   </energy>
  </scstep>
  <scstep>
   <time name="dav">   26.75   26.81</time>
   <time name="total">   26.78   26.86</time>
   <energy>
    <i name="alphaZ">     90.74991277 </i>
    <i name="ewald">  44893.53223380 </i>
    <i name="hartreedc"> -50907.15577966 </i>
    <i name="XCdc">   -233.35620717 </i>
[...]
      <set comment="kpoint 31">
       <r>  -17.5188    1.0000 </r>
       <r>  -17.2920    1.0000 </r>
       <r>  -16.8778    1.0000 </r>
       <r>  -16.6636    1.0000 </r>
       <r>  -16.4760    1.0000 </r>
       <r>  -16.4216    1.0000 </r>
       <r>  -16.2980    1.0000 </r>
       <r>  -16.1562    1.0000 </r>
       <r>  -16.1213    1.0000 </r>
       <r>  -15.9965    1.0000 </r>
       <r>  -15.8541    1.0000 </r>
       <r>  -15.8383    1.0000 </r>
       <r>  -15.7639    1.0000 </r>
       <r>  -15.6515    1.0000 </r>
       <r>  -15.6240    1.0000 </r>
       <r>  -15.5248    1.0000 </r>
       <r>  -15.4912    1.0000 </r>
       <r>  -15.4131    1.0000 </r>
       <r>   -9.7881    1.0000 </r>
       <r>   -9.4687    1.0000 </r>
       <r>   -9.3950    1.0000 </r>
       <r>   -9.0803    1.0000 </r>
       <r>   -8.7961    1.0000 </r>
       <r>   -8.7140    1.0000 </r>
       <r>   -8.6110    1.0000 </r>
       <r>   -8.5478    1.0000 </r>
       <r>   -8.3805    1.0000 </r>
       <r>   -8.2983    1.0000 </r>
       <r>   -8.2252    1.0000 </r>
       <r>   -8.1752    1.0000 </r>
       <r>   -8.0796    1.0000 </r>
       <r>   -8.0563    1.0000 </r>
       <r>   -7.9275    1.0000 </r>
       <r>   -7.8610    1.0000 </r>
       <r>   -7.8083    1.0000 </r>
       <r>   -7.7740    1.0000 </r>
       <r>   -7.5063    1.0000 </r>
       <r>   -7.4343    1.0000 </r>
       <r>   -7.3456    1.0000 </r>
       <r>   -7.2736    1.0000 </r>
       <r>   -7.0763    1.0000 </r>
       <r>   -7.0037    1.0000 </r>
       <r>   -6.9552    1.0000 </r>
       <r>   -6.8207    1.0000 </r>
       <r>   -6.7785    1.0000 </r>
       <r>   -6.7420    1.0000 </r>
       <r>   -6.6954    1.0000 </r>
       <r>   -6.6420    1.0000 </r>
       <r>   -6.5671    1.0000 </r>
       <r>   -6.4844    1.0000 </r>
       <r>   -6.4281    1.0000 </r>
       <r>   -6.3303    1.0000 </r>
       <r>   -6.3133    1.0000 </r>
       <r>   -6.1955    1.0000 </r>
       <r>   -6.1106    1.0000 </r>
       <r>   -5.9926    1.0000 </r>
       <r>   -5.9753    1.0000 </r>
       <r>   -5.9239    1.0000 </r>
       <r>   -5.8457    1.0000 </r>
       <r>   -5.7713    1.0000 </r>
       <r>   -5.6199    1.0000 </r>
       <r>   -5.6071    1.0000 </r>
       <r>   -5.5217    1.0000 </r>
       <r>   -5.4413    1.0000 </r>
       <r>   -5.3736    1.0000 </r>
       <r>   -5.1605    1.0000 </r>
       <r>   -5.0900    1.0000 </r>
       <r>   -4.8783    1.0000 </r>
       <r>   -4.7722    1.0000 </r>
       <r>   -4.7246    1.0000 </r>
       <r>   -4.6064    1.0000 </r>
       <r>   -4.4874    1.0000 </r>
       <r>   -4.4110    1.0000 </r>
       <r>   -4.3788    1.0000 </r>
       <r>   -4.2296    1.0000 </r>
       <r>   -3.9872    1.0000 </r>
       <r>   -3.8065    1.0000 </r>
       <r>   -3.4267    0.9735 </r>
       <r>   -3.2087    0.6532 </r>
       <r>   -3.1191    0.4053 </r>
       <r>   -2.9980    0.1364 </r>
       <r>   -2.8780    0.0259 </r>
       <r>   -2.8137    0.0082 </r>
       <r>   -2.7326    0.0015 </r>
       <r>   -2.6829    0.0004 </r>
       <r>   -2.6669    0.0003 </r>
       <r>   -2.4254    0.0000 </r>
       <r>   -2.3974    0.0000 </r>
       <r>   -2.2271    0.0000 </r>
       <r>   -2.1134    0.0000 </r>
       <r>   -1.9361    0.0000 </r>
       <r>   -1.7245    0.0000 </r>
       <r>   -1.3141    0.0000 </r>
       <r>   -1.2358    0.0000 </r>
       <r>   -1.1251    0.0000 </r>
       <r>   -0.9860    0.0000 </r>
       <r>   -0.9199    0.0000 </r>
       <r>   -0.8824    0.0000 </r>
       <r>   -0.8452    0.0000 </r>
       <r>   -0.7707    0.0000 </r>
       <r>   -0.7099    0.0000 </r>
       <r>   -0.6794    0.0000 </r>
       <r>   -0.5970    0.0000 </r>
       <r>   -0.5419    0.0000 </r>
       <r>   -0.4401    0.0000 </r>
       <r>   -0.3735    0.0000 </r>
       <r>   -0.1785    0.0000 </r>
       <r>   -0.1396    0.0000 </r>
       <r>   -0.0193    0.0000 </r>
       <r>    0.2665    0.0000 </r>
       <r>    0.2991    0.0000 </r>
       <r>    0.5843    0.0000 </r>
       <r>    0.6221    0.0000 </r>
       <r>    0.9213    0.0000 </r>
       <r>    1.1849    0.0000 </r>
       <r>    1.2580    0.0000 </r>
       <r>    1.4043    0.0000 </r>
       <r>    2.1344    0.0000 </r>
       <r>    2.3123    0.0000 </r>
       <r>    2.4004    0.0000 </r>
      </set>
      <set comment="kpoint 32">
       <r>  -17.5504    1.0000 </r>
       <r>  -17.2038    1.0000 </r>
       <r>  -16.9856    1.0000 </r>
       <r>  -16.6664    1.0000 </r>
       <r>  -16.4353    1.0000 </r>
       <r>  -16.3478    1.0000 </r>
       <r>  -16.2565    1.0000 </r>
       <r>  -16.2139    1.0000 </r>
       <r>  -16.0918    1.0000 </r>
       <r>  -16.0210    1.0000 </r>
       <r>  -15.9009    1.0000 </r>
       <r>  -15.8664    1.0000 </r>
       <r>  -15.7709    1.0000 </r>
       <r>  -15.6482    1.0000 </r>
       <r>  -15.6019    1.0000 </r>
       <r>  -15.5394    1.0000 </r>
       <r>  -15.4872    1.0000 </r>
       <r>  -15.3992    1.0000 </r>
       <r>   -9.7342    1.0000 </r>
       <r>   -9.5469    1.0000 </r>
       <r>   -9.4285    1.0000 </r>
       <r>   -9.1148    1.0000 </r>
       <r>   -8.6832    1.0000 </r>
       <r>   -8.6246    1.0000 </r>
       <r>   -8.5131    1.0000 </r>
       <r>   -8.4292    1.0000 </r>
       <r>   -8.3903    1.0000 </r>
       <r>   -8.3477    1.0000 </r>
       <r>   -8.2865    1.0000 </r>
       <r>   -8.2172    1.0000 </r>
       <r>   -8.1247    1.0000 </r>
       <r>   -8.0955    1.0000 </r>
       <r>   -8.0318    1.0000 </r>
       <r>   -7.9160    1.0000 </r>
       <r>   -7.8209    1.0000 </r>
       <r>   -7.7542    1.0000 </r>
       <r>   -7.5130    1.0000 </r>
       <r>   -7.3512    1.0000 </r>
       <r>   -7.3103    1.0000 </r>
       <r>   -7.2173    1.0000 </r>
       <r>   -7.1280    1.0000 </r>
       <r>   -7.0292    1.0000 </r>
       <r>   -6.9678    1.0000 </r>
       <r>   -6.8545    1.0000 </r>
       <r>   -6.8346    1.0000 </r>
       <r>   -6.7257    1.0000 </r>
       <r>   -6.6574    1.0000 </r>
       <r>   -6.6072    1.0000 </r>
       <r>   -6.5235    1.0000 </r>
       <r>   -6.4832    1.0000 </r>
       <r>   -6.4483    1.0000 </r>
       <r>   -6.3629    1.0000 </r>
       <r>   -6.3151    1.0000 </r>
       <r>   -6.2428    1.0000 </r>
       <r>   -6.1694    1.0000 </r>
       <r>   -6.0080    1.0000 </r>
       <r>   -5.9485    1.0000 </r>
       <r>   -5.9214    1.0000 </r>
       <r>   -5.8418    1.0000 </r>
       <r>   -5.6932    1.0000 </r>
       <r>   -5.6708    1.0000 </r>
       <r>   -5.5588    1.0000 </r>
       <r>   -5.4723    1.0000 </r>
       <r>   -5.4142    1.0000 </r>
       <r>   -5.3315    1.0000 </r>
       <r>   -5.1917    1.0000 </r>
       <r>   -5.0994    1.0000 </r>
       <r>   -4.9742    1.0000 </r>
       <r>   -4.9067    1.0000 </r>
       <r>   -4.7166    1.0000 </r>
       <r>   -4.5316    1.0000 </r>
       <r>   -4.4814    1.0000 </r>
       <r>   -4.4212    1.0000 </r>
       <r>   -4.3020    1.0000 </r>
       <r>   -4.2384    1.0000 </r>
       <r>   -3.9263    1.0000 </r>
       <r>   -3.7276    1.0000 </r>
       <r>   -3.5366    0.9967 </r>
       <r>   -3.2535    0.7613 </r>
       <r>   -3.0912    0.3311 </r>
       <r>   -2.9613    0.0876 </r>
       <r>   -2.8843    0.0287 </r>
       <r>   -2.7950    0.0057 </r>
       <r>   -2.7337    0.0015 </r>
       <r>   -2.6828    0.0004 </r>
       <r>   -2.6426    0.0002 </r>
       <r>   -2.4585    0.0000 </r>
       <r>   -2.3934    0.0000 </r>
       <r>   -2.2612    0.0000 </r>
       <r>   -2.0916    0.0000 </r>
       <r>   -1.8929    0.0000 </r>
       <r>   -1.7509    0.0000 </r>
       <r>   -1.3146    0.0000 </r>
       <r>   -1.2337    0.0000 </r>
       <r>   -1.1322    0.0000 </r>
       <r>   -0.9999    0.0000 </r>
       <r>   -0.9664    0.0000 </r>
       <r>   -0.9064    0.0000 </r>
       <r>   -0.8323    0.0000 </r>
       <r>   -0.7831    0.0000 </r>
       <r>   -0.7006    0.0000 </r>
       <r>   -0.6529    0.0000 </r>
       <r>   -0.6117    0.0000 </r>
       <r>   -0.5322    0.0000 </r>
       <r>   -0.4171    0.0000 </r>
       <r>   -0.2990    0.0000 </r>
       <r>   -0.2483    0.0000 </r>
       <r>   -0.1123    0.0000 </r>
       <r>   -0.0494    0.0000 </r>
       <r>    0.1648    0.0000 </r>
       <r>    0.2924    0.0000 </r>
       <r>    0.5880    0.0000 </r>
       <r>    0.6603    0.0000 </r>
       <r>    0.9681    0.0000 </r>
       <r>    1.1660    0.0000 </r>
       <r>    1.2666    0.0000 </r>
       <r>    1.3932    0.0000 </r>
       <r>    2.0977    0.0000 </r>
       <r>    2.2775    0.0000 </r>
       <r>    2.5392    0.0000 </r>
      </set>
      <set comment="kpoint 33">
       <r>  -17.5564    1.0000 </r>
       <r>  -17.2401    1.0000 </r>
       <r>  -16.8891    1.0000 </r>
       <r>  -16.6686    1.0000 </r>
       <r>  -16.4898    1.0000 </r>
       <r>  -16.4051    1.0000 </r>
       <r>  -16.2887    1.0000 </r>
       <r>  -16.1573    1.0000 </r>
       <r>  -16.0389    1.0000 </r>
       <r>  -15.9832    1.0000 </r>
       <r>  -15.9200    1.0000 </r>
       <r>  -15.8693    1.0000 </r>
       <r>  -15.7838    1.0000 </r>
       <r>  -15.6540    1.0000 </r>
       <r>  -15.6118    1.0000 </r>
       <r>  -15.5413    1.0000 </r>
       <r>  -15.4772    1.0000 </r>
       <r>  -15.4165    1.0000 </r>
       <r>   -9.7811    1.0000 </r>
       <r>   -9.4515    1.0000 </r>
       <r>   -9.3650    1.0000 </r>
       <r>   -9.1276    1.0000 </r>
       <r>   -8.8108    1.0000 </r>
       <r>   -8.6785    1.0000 </r>
       <r>   -8.5274    1.0000 </r>
       <r>   -8.4682    1.0000 </r>
       <r>   -8.4061    1.0000 </r>
       <r>   -8.3084    1.0000 </r>
       <r>   -8.2647    1.0000 </r>
       <r>   -8.1688    1.0000 </r>
       <r>   -8.1225    1.0000 </r>
       <r>   -8.0723    1.0000 </r>
       <r>   -7.9985    1.0000 </r>
       <r>   -7.8749    1.0000 </r>
       <r>   -7.8080    1.0000 </r>
       <r>   -7.7314    1.0000 </r>
       <r>   -7.6037    1.0000 </r>
       <r>   -7.3429    1.0000 </r>
       <r>   -7.2133    1.0000 </r>
       <r>   -7.1406    1.0000 </r>
       <r>   -7.1156    1.0000 </r>
       <r>   -7.0743    1.0000 </r>
       <r>   -6.9922    1.0000 </r>
       <r>   -6.9346    1.0000 </r>
       <r>   -6.8227    1.0000 </r>
       <r>   -6.7631    1.0000 </r>
       <r>   -6.6517    1.0000 </r>
       <r>   -6.6093    1.0000 </r>
       <r>   -6.5702    1.0000 </r>
       <r>   -6.4731    1.0000 </r>
       <r>   -6.3861    1.0000 </r>
       <r>   -6.3434    1.0000 </r>
       <r>   -6.3115    1.0000 </r>
       <r>   -6.2260    1.0000 </r>
       <r>   -6.1176    1.0000 </r>
       <r>   -6.0412    1.0000 </r>
       <r>   -5.9688    1.0000 </r>
       <r>   -5.9305    1.0000 </r>
       <r>   -5.8927    1.0000 </r>
       <r>   -5.8216    1.0000 </r>
       <r>   -5.6966    1.0000 </r>
       <r>   -5.6337    1.0000 </r>
       <r>   -5.5690    1.0000 </r>
       <r>   -5.4761    1.0000 </r>
       <r>   -5.2731    1.0000 </r>
       <r>   -5.1006    1.0000 </r>
       <r>   -5.0456    1.0000 </r>
       <r>   -4.8950    1.0000 </r>
       <r>   -4.8098    1.0000 </r>
       <r>   -4.7082    1.0000 </r>
       <r>   -4.5982    1.0000 </r>
       <r>   -4.5208    1.0000 </r>
       <r>   -4.3352    1.0000 </r>
       <r>   -4.2582    1.0000 </r>
       <r>   -4.1939    1.0000 </r>
       <r>   -3.8736    1.0000 </r>
       <r>   -3.7362    1.0000 </r>
       <r>   -3.6181    0.9995 </r>
       <r>   -3.3509    0.9191 </r>
       <r>   -3.0670    0.2716 </r>
       <r>   -2.9937    0.1299 </r>
       <r>   -2.8530    0.0169 </r>
       <r>   -2.7893    0.0051 </r>
       <r>   -2.7323    0.0015 </r>
       <r>   -2.6515    0.0002 </r>
       <r>   -2.6223    0.0001 </r>
       <r>   -2.4858    0.0000 </r>
       <r>   -2.3753    0.0000 </r>
       <r>   -2.2959    0.0000 </r>
       <r>   -2.0439    0.0000 </r>
       <r>   -1.8455    0.0000 </r>
       <r>   -1.7764    0.0000 </r>
       <r>   -1.3108    0.0000 </r>
       <r>   -1.2258    0.0000 </r>
       <r>   -1.1273    0.0000 </r>
       <r>   -1.0276    0.0000 </r>
       <r>   -0.9722    0.0000 </r>
       <r>   -0.9139    0.0000 </r>
       <r>   -0.8244    0.0000 </r>
       <r>   -0.7955    0.0000 </r>
       <r>   -0.7191    0.0000 </r>
       <r>   -0.6811    0.0000 </r>
       <r>   -0.6298    0.0000 </r>
       <r>   -0.5215    0.0000 </r>
       <r>   -0.4558    0.0000 </r>
       <r>   -0.3365    0.0000 </r>
       <r>   -0.2558    0.0000 </r>
       <r>   -0.1720    0.0000 </r>
       <r>   -0.0565    0.0000 </r>
       <r>    0.1999    0.0000 </r>
       <r>    0.3873    0.0000 </r>
       <r>    0.5546    0.0000 </r>
       <r>    0.6659    0.0000 </r>
       <r>    0.9995    0.0000 </r>
       <r>    1.1574    0.0000 </r>
       <r>    1.3047    0.0000 </r>
       <r>    1.4203    0.0000 </r>
       <r>    2.1201    0.0000 </r>
       <r>    2.3044    0.0000 </r>
       <r>    2.3728    0.0000 </r>
      </set>
      <set comment="kpoint 34">
       <r>  -17.5530    1.0000 </r>
       <r>  -17.2763    1.0000 </r>
       <r>  -16.7473    1.0000 </r>
       <r>  -16.6694    1.0000 </r>
       <r>  -16.6294    1.0000 </r>
       <r>  -16.4135    1.0000 </r>
       <r>  -16.2978    1.0000 </r>
       <r>  -16.1446    1.0000 </r>
       <r>  -16.0270    1.0000 </r>
       <r>  -15.9507    1.0000 </r>
       <r>  -15.9185    1.0000 </r>
       <r>  -15.8279    1.0000 </r>
       <r>  -15.7873    1.0000 </r>
       <r>  -15.6937    1.0000 </r>
       <r>  -15.6302    1.0000 </r>
       <r>  -15.5135    1.0000 </r>
       <r>  -15.4671    1.0000 </r>
       <r>  -15.4460    1.0000 </r>
       <r>   -9.8122    1.0000 </r>
       <r>   -9.3685    1.0000 </r>
       <r>   -9.2963    1.0000 </r>
       <r>   -9.0810    1.0000 </r>
       <r>   -8.9896    1.0000 </r>
       <r>   -8.7670    1.0000 </r>
       <r>   -8.5462    1.0000 </r>
       <r>   -8.4759    1.0000 </r>
       <r>   -8.4009    1.0000 </r>
       <r>   -8.2898    1.0000 </r>
       <r>   -8.2390    1.0000 </r>
       <r>   -8.1881    1.0000 </r>
       <r>   -8.1193    1.0000 </r>
       <r>   -8.0323    1.0000 </r>
       <r>   -7.9257    1.0000 </r>
       <r>   -7.9025    1.0000 </r>
       <r>   -7.7773    1.0000 </r>
       <r>   -7.7086    1.0000 </r>
       <r>   -7.5206    1.0000 </r>
       <r>   -7.3946    1.0000 </r>
       <r>   -7.2447    1.0000 </r>
       <r>   -7.1630    1.0000 </r>
       <r>   -7.1017    1.0000 </r>
       <r>   -7.0436    1.0000 </r>
       <r>   -6.9926    1.0000 </r>
       <r>   -6.9558    1.0000 </r>
       <r>   -6.8552    1.0000 </r>
       <r>   -6.7547    1.0000 </r>
       <r>   -6.6556    1.0000 </r>
       <r>   -6.6104    1.0000 </r>
       <r>   -6.5688    1.0000 </r>
       <r>   -6.4348    1.0000 </r>
       <r>   -6.3771    1.0000 </r>
       <r>   -6.3395    1.0000 </r>
       <r>   -6.2820    1.0000 </r>
       <r>   -6.1982    1.0000 </r>
       <r>   -6.1484    1.0000 </r>
       <r>   -6.0590    1.0000 </r>
       <r>   -6.0105    1.0000 </r>
       <r>   -5.9529    1.0000 </r>
       <r>   -5.9394    1.0000 </r>
       <r>   -5.8060    1.0000 </r>
       <r>   -5.7547    1.0000 </r>
       <r>   -5.6523    1.0000 </r>
       <r>   -5.5869    1.0000 </r>
       <r>   -5.5206    1.0000 </r>
       <r>   -5.3508    1.0000 </r>
       <r>   -5.0639    1.0000 </r>
       <r>   -4.8866    1.0000 </r>
       <r>   -4.8127    1.0000 </r>
       <r>   -4.7833    1.0000 </r>
       <r>   -4.6956    1.0000 </r>
       <r>   -4.6483    1.0000 </r>
       <r>   -4.5733    1.0000 </r>
       <r>   -4.3434    1.0000 </r>
       <r>   -4.1997    1.0000 </r>
       <r>   -4.1264    1.0000 </r>
       <r>   -3.8534    1.0000 </r>
       <r>   -3.7599    1.0000 </r>
       <r>   -3.6934    0.9999 </r>
       <r>   -3.3764    0.9429 </r>
       <r>   -3.0742    0.2887 </r>
       <r>   -3.0059    0.1491 </r>
       <r>   -2.8397    0.0134 </r>
       <r>   -2.8122    0.0080 </r>
       <r>   -2.7083    0.0008 </r>
       <r>   -2.6473    0.0002 </r>
       <r>   -2.5997    0.0000 </r>
       <r>   -2.4957    0.0000 </r>
       <r>   -2.3628    0.0000 </r>
       <r>   -2.3133    0.0000 </r>
       <r>   -2.0157    0.0000 </r>
       <r>   -1.8201    0.0000 </r>
       <r>   -1.7920    0.0000 </r>
       <r>   -1.3071    0.0000 </r>
       <r>   -1.2254    0.0000 </r>
       <r>   -1.1208    0.0000 </r>
       <r>   -1.0505    0.0000 </r>
       <r>   -0.9562    0.0000 </r>
       <r>   -0.8903    0.0000 </r>
       <r>   -0.8506    0.0000 </r>
       <r>   -0.7700    0.0000 </r>
       <r>   -0.7549    0.0000 </r>
       <r>   -0.6843    0.0000 </r>
       <r>   -0.6345    0.0000 </r>
       <r>   -0.5684    0.0000 </r>
       <r>   -0.4593    0.0000 </r>
       <r>   -0.3888    0.0000 </r>
       <r>   -0.3067    0.0000 </r>
       <r>   -0.1505    0.0000 </r>
       <r>   -0.0322    0.0000 </r>
       <r>    0.2492    0.0000 </r>
       <r>    0.4232    0.0000 </r>
       <r>    0.5332    0.0000 </r>
       <r>    0.6608    0.0000 </r>
       <r>    1.0051    0.0000 </r>
       <r>    1.1695    0.0000 </r>
       <r>    1.3207    0.0000 </r>
       <r>    1.4441    0.0000 </r>
       <r>    2.1756    0.0000 </r>
       <r>    2.2512    0.0000 </r>
       <r>    2.3896    0.0000 </r>
      </set>
     </set>
    </set>
   </array>
  </eigenvalues>
  <separator name="orbital magnetization" >
   <v name="MAGDIPOLOUT">      0.00000000      0.00000000      0.00000000</v>
  </separator>
 </calculation>
 <structure name="finalpos" >
  <crystal>
   <varray name="basis" >
    <v>       8.38131686       4.83783696       0.00000000 </v>
    <v>      -8.32886177       4.74706982       0.00000000 </v>
    <v>       0.00000000       0.00000000      30.00000000 </v>
   </varray>
   <i name="volume">   2402.41114559 </i>
   <varray name="rec_basis" >
    <v>       0.05927882       0.10400628       0.00000000 </v>
    <v>      -0.06041227       0.10466131       0.00000000 </v>
    <v>       0.00000000       0.00000000       0.03333333 </v>
   </varray>
  </crystal>
  <varray name="positions" >
   <v>      -0.00831602      -0.01753115      -0.00023854 </v>
   <v>       1.00069889       0.33297980      -0.00000412 </v>
   <v>       0.34033514       0.68145176       0.00032015 </v>
   <v>       0.35654101       0.33426590      -0.00002402 </v>
   <v>       0.65202359       0.01921548      -0.00022540 </v>
   <v>      -0.03354527       0.64771622       0.00015641 </v>
   <v>       0.36201245       0.02171747      -0.00020290 </v>
   <v>       0.65816734       0.33315248       0.00001614 </v>
   <v>       0.67404074       0.64512584       0.00022654 </v>
   <v>       0.10964183       0.21746395       0.95346798 </v>
   <v>       0.21859892       0.10707131       0.05005693 </v>
   <v>       0.11276779       0.55477347       0.95138954 </v>
   <v>       0.22513221       0.44881531       0.04677083 </v>
   <v>       0.11319771       0.88828075       0.95261042 </v>
   <v>       0.21756879       0.77784642       0.04623913 </v>
   <v>       0.44691161       0.22261019       0.94332210 </v>
   <v>       0.55649097       0.11852560       0.05714442 </v>
   <v>       0.44543403       0.56005056       0.94980777 </v>
   <v>       0.55802893       0.44431483       0.05672913 </v>
   <v>       0.44118386       0.88851856       0.94615782 </v>
   <v>       0.55812728       0.77819011       0.04712588 </v>
   <v>       0.78396722       0.23000890       0.94771725 </v>
   <v>       0.89112133       0.11159577       0.04851919 </v>
   <v>       0.77132142       0.54806244       0.94285165 </v>
   <v>       0.88747764       0.43698063       0.05226715 </v>
   <v>       0.77304424       0.88892841       0.95375729 </v>
   <v>       0.88624079       0.77808345       0.05404117 </v>
  </varray>
 </structure>
</modeling>
