unknown system                          
           1
     8.855288    5.104988    0.000000
    -8.855390    5.105164    0.000000
     0.000000    0.000000   30.000000
   V    Mo   W    S 
   3   3   3  18
Direct configuration=     1
   0.00000000  0.00000000  0.00000000
   1.00000000  0.33333334  0.00000000
   0.33333334  0.66666669  0.00000000
   0.33333334  0.33333334  0.00000000
   0.66666669  0.00000000  0.00000000
   0.00000000  0.66666669  0.00000000
   0.33333334  0.00000000  0.00000000
   0.66666669  0.33333334  0.00000000
   0.66666669  0.66666669  0.00000000
   0.11068511  0.22244981  0.95539999
   0.22244981  0.11068511  0.04460000
   0.11068511  0.55578315  0.95539999
   0.22244981  0.44401845  0.04460000
   0.11068511  0.88911647  0.95539999
   0.22244981  0.77735180  0.04460000
   0.44401845  0.22244981  0.95539999
   0.55578315  0.11068511  0.04460000
   0.44401845  0.55578315  0.95539999
   0.55578315  0.44401845  0.04460000
   0.44401845  0.88911647  0.95539999
   0.55578315  0.77735180  0.04460000
   0.77735180  0.22244981  0.95539999
   0.88911647  0.11068511  0.04460000
   0.77735180  0.55578315  0.95539999
   0.88911647  0.44401845  0.04460000
   0.77735180  0.88911647  0.95539999
   0.88911647  0.77735180  0.04460000
unknown system                          
           1
     8.666961    4.998681    0.000000
    -8.667142    4.998995    0.000000
     0.000000    0.000000   30.000000
   V    Mo   W    S 
   3   3   3  18
Direct configuration=     2
  -0.00008164  0.00044556  0.00017221
   1.00054103  0.33334839 -0.00000675
   0.33284983  0.66616957 -0.00016830
   0.33313053  0.33337920  0.00001477
   0.66684066  0.00013289  0.00006114
   0.00002861  0.66649042 -0.00007594
   0.33304513 -0.00031426 -0.00021058
   0.66691723  0.33320592 -0.00000585
   0.66665625  0.66705310  0.00021979
   0.10661501  0.22017739  0.95311763
   0.21789915  0.10834270  0.04808387
   0.11328237  0.55338132  0.95303364
   0.21994475  0.44647340  0.04694897
   0.10969250  0.89170058  0.95202570
   0.22497366  0.77620467  0.04798130
   0.44479866  0.22162246  0.95072133
   0.55516553  0.11158357  0.04925106
   0.44274111  0.55837465  0.95197982
   0.55638277  0.44491910  0.04928708
   0.44157138  0.88465748  0.95189325
   0.55150531  0.77500706  0.04805045
   0.78166994  0.22478096  0.95192234
   0.89324384  0.11288642  0.04690735
   0.77688195  0.55487356  0.95074284
   0.89019150  0.44146156  0.04800399
   0.78169510  0.89008769  0.95194992
   0.89003226  0.78176907  0.04809888
unknown system                          
           1
     8.484326    4.898297    0.000000
    -8.484008    4.897747    0.000000
     0.000000    0.000000   30.000000
   V    Mo   W    S 
   3   3   3  18
Direct configuration=     3
  -0.00011452  0.00046017  0.00019213
   1.00058847  0.33335309 -0.00000750
   0.33280663  0.66615310 -0.00018679
   0.33358900  0.33337813  0.00001571
   0.66663379  0.00018226  0.00006429
  -0.00022718  0.66643270 -0.00008016
   0.33324803 -0.00014646 -0.00023147
   0.66673927  0.33319184 -0.00000657
   0.66668932  0.66690294  0.00024038
   0.10652845  0.22012271  0.95315595
   0.21787761  0.10811839  0.04806969
   0.11333027  0.55333208  0.95305801
   0.21988517  0.44650012  0.04690254
   0.10988422  0.89188982  0.95203068
   0.22513563  0.77638713  0.04795040
   0.44491344  0.22148570  0.95069168
   0.55502507  0.11169280  0.04925486
   0.44292648  0.55855730  0.95198020
   0.55666755  0.44504714  0.04931271
   0.44134392  0.88463722  0.95188474
   0.55148482  0.77479095  0.04803722
   0.78169536  0.22497755  0.95193923
   0.89334444  0.11296578  0.04689143
   0.77660141  0.55476860  0.95074537
   0.89003039  0.44129512  0.04799710
   0.78171110  0.88993995  0.95198743
   0.88987633  0.78179831  0.04811063
unknown system                          
           1
     8.265906    4.772388    0.000000
    -8.264993    4.770805    0.000000
     0.000000    0.000000   30.000000
   V    Mo   W    S 
   3   3   3  18
Direct configuration=     4
  -0.00029996 -0.00000345  0.00018425
   1.00031383  0.33337537 -0.00000692
   0.33305525  0.66655757 -0.00017631
   0.33620795  0.33337576  0.00001193
   0.66537350  0.00033951  0.00004318
  -0.00166805  0.66621784 -0.00005525
   0.33462988  0.00105131 -0.00020124
   0.66544697  0.33315984 -0.00000613
   0.66686420  0.66572065  0.00020606
   0.10553446  0.21958250  0.95200658
   0.21673153  0.10732398  0.04948105
   0.11384988  0.55269992  0.95182122
   0.21933148  0.44697294  0.04802357
   0.10935832  0.89258597  0.95058876
   0.22568330  0.77590295  0.04925669
   0.44505358  0.22138242  0.94890965
   0.55479492  0.11173841  0.05090321
   0.44255592  0.55923548  0.95053362
   0.55703967  0.44515907  0.05107846
   0.44053711  0.88337251  0.95035179
   0.55017669  0.77400141  0.04944543
   0.78299829  0.22572400  0.95054224
   0.89448449  0.11371959  0.04815866
   0.77622303  0.55475029  0.94912387
   0.89060789  0.44066809  0.04942188
   0.78286176  0.89052413  0.95070432
   0.89046856  0.78307639  0.04964932
unknown system                          
           1
     8.254174    4.765975    0.000000
    -8.250201    4.759092    0.000000
     0.000000    0.000000   30.000000
   V    Mo   W    S 
   3   3   3  18
Direct configuration=     5
  -0.00079228 -0.00157289 -0.00002472
   0.99938909  0.33337061 -0.00000537
   0.33411437  0.66800938  0.00003383
   0.34204390  0.33334463  0.00000711
   0.66245359  0.00066506 -0.00002922
  -0.00492194  0.66584331  0.00002192
   0.33827907  0.00429617 -0.00004003
   0.66183655  0.33303785 -0.00000674
   0.66725715  0.66257073  0.00004458
   0.10534841  0.21939100  0.95049171
   0.21578465  0.10690755  0.05140415
   0.11406513  0.55207186  0.94997860
   0.21917634  0.44710765  0.04952055
   0.10877286  0.89318126  0.94874633
   0.22572418  0.77522719  0.05081190
   0.44524024  0.22124687  0.94618532
   0.55469941  0.11176302  0.05323733
   0.44211632  0.55958314  0.94857397
   0.55740761  0.44532089  0.05379386
   0.43966350  0.88196734  0.94807617
   0.54883256  0.77333871  0.05126785
   0.78437283  0.22639235  0.94867920
   0.89523511  0.11446716  0.05001427
   0.77607685  0.55473217  0.94680450
   0.89123099  0.44010247  0.05131448
   0.78378258  0.89133552  0.94917195
   0.89102538  0.78451345  0.05192639
unknown system                          
           1
     8.257209    4.767817    0.000000
    -8.251860    4.758550    0.000000
     0.000000    0.000000   30.000000
   V    Mo   W    S 
   3   3   3  18
Direct configuration=     6
  -0.00110918 -0.00246735 -0.00007164
   0.99902192  0.33337316 -0.00000426
   0.33467822  0.66884168  0.00007745
   0.34391668  0.33333797  0.00000861
   0.66131117  0.00094146 -0.00003897
  -0.00634713  0.66555534  0.00003038
   0.34011752  0.00594826 -0.00005655
   0.66034396  0.33302487 -0.00000324
   0.66744503  0.66093170  0.00005977
   0.10632560  0.21978784  0.95054404
   0.21635688  0.10731213  0.05150702
   0.11379763  0.55231183  0.94991322
   0.21977153  0.44672697  0.04947270
   0.10909692  0.89309403  0.94873940
   0.22527885  0.77545259  0.05075539
   0.44540731  0.22115713  0.94564479
   0.55497446  0.11205982  0.05363625
   0.44230304  0.55921465  0.94847420
   0.55764373  0.44541031  0.05432642
   0.43948681  0.88213741  0.94781036
   0.54922573  0.77343284  0.05128428
   0.78388884  0.22640240  0.94859174
   0.89472367  0.11423046  0.05007720
   0.77606402  0.55441835  0.94641111
   0.89072135  0.44009048  0.05139641
   0.78311049  0.89112899  0.94921707
   0.89065937  0.78435915  0.05219675
unknown system                          
           1
     8.260412    4.769764    0.000000
    -8.252152    4.755456    0.000000
     0.000000    0.000000   30.000000
   V    Mo   W    S 
   3   3   3  18
Direct configuration=     7
  -0.00145814 -0.00320536 -0.00011522
   0.99884457  0.33337921 -0.00000509
   0.33506239  0.66952717  0.00012099
   0.34544755  0.33333879  0.00000616
   0.66029092  0.00144018 -0.00004446
  -0.00788593  0.66504612  0.00003792
   0.34191709  0.00747042 -0.00003770
   0.65925067  0.33301936 -0.00000333
   0.66773536  0.65942807  0.00004118
   0.10701699  0.22004208  0.95072112
   0.21680496  0.10754921  0.05148481
   0.11364778  0.55253548  0.94998774
   0.22021958  0.44647874  0.04930230
   0.10942241  0.89307435  0.94884728
   0.22498408  0.77574836  0.05057563
   0.44556183  0.22113127  0.94529800
   0.55515893  0.11236165  0.05387710
   0.44252687  0.55899660  0.94849538
   0.55781330  0.44544114  0.05467223
   0.43934573  0.88228556  0.94766374
   0.54956852  0.77346305  0.05118144
   0.78348523  0.22644270  0.94860879
   0.89435376  0.11400476  0.04999862
   0.77595324  0.55410587  0.94617221
   0.89026896  0.44004628  0.05137962
   0.78252062  0.89084141  0.94938827
   0.89035716  0.78422198  0.05234518
unknown system                          
           1
     8.260134    4.769565    0.000000
    -8.252677    4.756648    0.000000
     0.000000    0.000000   30.000000
   V    Mo   W    S 
   3   3   3  18
Direct configuration=     8
  -0.00201065 -0.00427791 -0.00019002
   0.99881119  0.33337939 -0.00000708
   0.33557269  0.67049357  0.00019383
   0.34758833  0.33334035  0.00000516
   0.65870312  0.00248053 -0.00007000
  -0.01057789  0.66400579  0.00006598
   0.34475129  0.00983428 -0.00005097
   0.65784585  0.33301995  0.00000013
   0.66826457  0.65711164  0.00005456
   0.10783492  0.22028323  0.95102019
   0.21739572  0.10780497  0.05141333
   0.11347303  0.55283203  0.95013688
   0.22080406  0.44623651  0.04901311
   0.10990166  0.89303736  0.94908712
   0.22459761  0.77624052  0.05023604
   0.44575348  0.22109912  0.94484000
   0.55546040  0.11289943  0.05425262
   0.44287857  0.55876048  0.94855952
   0.55802567  0.44547798  0.05512539
   0.43913991  0.88249456  0.94748048
   0.55008770  0.77351151  0.05094823
   0.78301809  0.22654505  0.94864132
   0.89389492  0.11370883  0.04984647
   0.77572110  0.55356103  0.94579522
   0.88969202  0.43994044  0.05134910
   0.78165169  0.89036214  0.94971766
   0.88993540  0.78403167  0.05253562
unknown system                          
           1
     8.260431    4.769784    0.000000
    -8.253493    4.757765    0.000000
     0.000000    0.000000   30.000000
   V    Mo   W    S 
   3   3   3  18
Direct configuration=     9
  -0.00185301 -0.00395853 -0.00016760
   0.99883886  0.33337884 -0.00000663
   0.33541391  0.67020352  0.00017207
   0.34691309  0.33334044  0.00000529
   0.65917837  0.00221006 -0.00006194
  -0.00981529  0.66427758  0.00005721
   0.34391362  0.00911719 -0.00004799
   0.65831739  0.33302038 -0.00000092
   0.66812875  0.65781580  0.00005150
   0.10757129  0.22019963  0.95093084
   0.21721138  0.10771902  0.05143187
   0.11352930  0.55274103  0.95009444
   0.22062104  0.44631906  0.04909963
   0.10975671  0.89304241  0.94902177
   0.22471063  0.77609549  0.05033181
   0.44569344  0.22111186  0.94498188
   0.55537180  0.11274550  0.05414090
   0.44277557  0.55883968  0.94854295
   0.55795712  0.44546436  0.05498513
   0.43920395  0.88243177  0.94753633
   0.54993741  0.77350252  0.05101147
   0.78316896  0.22651793  0.94862995
   0.89403963  0.11379984  0.04989017
   0.77578465  0.55371748  0.94590704
   0.88987299  0.43996906  0.05136001
   0.78190768  0.89050327  0.94962467
   0.89006522  0.78408928  0.05247805
unknown system                          
           1
     8.259885    4.769017    0.000000
    -8.251887    4.755164    0.000000
     0.000000    0.000000   30.000000
   V    Mo   W    S 
   3   3   3  18
Direct configuration=    10
  -0.00182124 -0.00388499 -0.00015386
   0.99892816  0.33341309 -0.00000591
   0.33538021  0.67014366  0.00016321
   0.34690998  0.33337266  0.00000497
   0.65911025  0.00235146 -0.00006122
  -0.01001327  0.66408929  0.00005681
   0.34408581  0.00923200 -0.00005104
   0.65832357  0.33303210 -0.00000152
   0.66813041  0.65765989  0.00005459
   0.10751353  0.22016987  0.95092059
   0.21714719  0.10766029  0.05142003
   0.11355336  0.55274443  0.95010560
   0.22059870  0.44636945  0.04910444
   0.10976047  0.89300913  0.94903839
   0.22470201  0.77606997  0.05030606
   0.44571878  0.22114305  0.94500912
   0.55538906  0.11278520  0.05413997
   0.44276390  0.55890564  0.94855980
   0.55795302  0.44543486  0.05495835
   0.43919900  0.88239568  0.94755108
   0.54994949  0.77352131  0.05098745
   0.78323716  0.22657303  0.94863759
   0.89405233  0.11381067  0.04988415
   0.77576224  0.55367885  0.94590717
   0.88988757  0.43991450  0.05135368
   0.78190026  0.89051285  0.94964217
   0.89009252  0.78410650  0.05246822
unknown system                          
           1
     8.252422    4.763970    0.000000
    -8.241000    4.744190    0.000000
     0.000000    0.000000   30.000000
   V    Mo   W    S 
   3   3   3  18
Direct configuration=    11
  -0.00210474 -0.00443498 -0.00014252
   0.99837618  0.33327078 -0.00000394
   0.33557101  0.67056716  0.00014351
   0.34783434  0.33327683  0.00000660
   0.65910967  0.00200742 -0.00003847
  -0.00972154  0.66461129  0.00004051
   0.34401219  0.00948716 -0.00005524
   0.65773427  0.33297614  0.00001100
   0.66799718  0.65755610  0.00006210
   0.10776541  0.22028583  0.95101394
   0.21729954  0.10777549  0.05145981
   0.11350712  0.55281833  0.95012548
   0.22071843  0.44618270  0.04900905
   0.10984284  0.89318709  0.94894982
   0.22474275  0.77621357  0.05038174
   0.44574151  0.22103086  0.94485727
   0.55542388  0.11274951  0.05417140
   0.44283855  0.55875586  0.94853128
   0.55807939  0.44555412  0.05508579
   0.43910620  0.88240611  0.94748073
   0.54991379  0.77339284  0.05107382
   0.78298732  0.22647998  0.94863196
   0.89397657  0.11369747  0.04987148
   0.77583745  0.55370934  0.94587391
   0.88974289  0.44002871  0.05133811
   0.78185365  0.89042341  0.94956771
   0.89002861  0.78420537  0.05255308
unknown system                          
           1
     8.256729    4.766547    0.000000
    -8.243124    4.742985    0.000000
     0.000000    0.000000   30.000000
   V    Mo   W    S 
   3   3   3  18
Direct configuration=    12
  -0.00342906 -0.00653102 -0.00019622
   0.99644768  0.33286244 -0.00000699
   0.33609518  0.67223295  0.00017554
   0.35096021  0.33305247 -0.00000243
   0.65882430  0.00115697 -0.00003186
  -0.00925792  0.66597984  0.00003282
   0.34428980  0.01037458 -0.00003869
   0.65610705  0.33278704  0.00001246
   0.66792016  0.65708399  0.00003844
   0.10861803  0.22063744  0.95144967
   0.21784646  0.10813338  0.05153282
   0.11336802  0.55315520  0.95022699
   0.22115644  0.44562131  0.04855623
   0.11007871  0.89367311  0.94877655
   0.22485522  0.77675242  0.05045058
   0.44599659  0.22075556  0.94431485
   0.55560078  0.11278352  0.05427064
   0.44312394  0.55831685  0.94850481
   0.55859662  0.44588446  0.05558208
   0.43891560  0.88254941  0.94730830
   0.54981138  0.77303842  0.05121484
   0.78210377  0.22619282  0.94865735
   0.89363720  0.11326626  0.04982397
   0.77598201  0.55364893  0.94579610
   0.88920252  0.44040597  0.05126272
   0.78155394  0.89002807  0.94947695
   0.88980986  0.78437206  0.05281138
unknown system                          
           1
     8.276243    4.778198    0.000000
    -8.260700    4.751276    0.000000
     0.000000    0.000000   30.000000
   V    Mo   W    S 
   3   3   3  18
Direct configuration=    13
  -0.00461551 -0.00815217 -0.00027205
   0.99521192  0.33266040 -0.00001107
   0.33638482  0.67356853  0.00024970
   0.35321933  0.33299494 -0.00000871
   0.65822257  0.00109525 -0.00004084
  -0.00982068  0.66633019  0.00004046
   0.34530063  0.01135046 -0.00003833
   0.65515469  0.33266940  0.00000515
   0.66821403  0.65630155  0.00003812
   0.10926050  0.22086661  0.95183726
   0.21825290  0.10836624  0.05152411
   0.11329102  0.55345657  0.95031888
   0.22152271  0.44527953  0.04815347
   0.11029080  0.89388929  0.94878053
   0.22482365  0.77719840  0.05035556
   0.44627080  0.22061856  0.94388072
   0.55582335  0.11298994  0.05441931
   0.44334248  0.55806693  0.94853624
   0.55901650  0.44606677  0.05599392
   0.43882605  0.88271049  0.94717229
   0.54986431  0.77288562  0.05117408
   0.78152292  0.22606321  0.94864518
   0.89333415  0.11293460  0.04977924
   0.77599538  0.55342207  0.94566453
   0.88878908  0.44059901  0.05124747
   0.78111207  0.88964182  0.94953842
   0.88960397  0.78434026  0.05301625
unknown system                          
           1
     8.274192    4.777144    0.000000
    -8.259541    4.751767    0.000000
     0.000000    0.000000   30.000000
   V    Mo   W    S 
   3   3   3  18
Direct configuration=    14
  -0.00610221 -0.00966143 -0.00029546
   0.99425163  0.33262853 -0.00000636
   0.33636621  0.67489138  0.00030348
   0.35500819  0.33317338  0.00000085
   0.65723948  0.00223736  0.00002477
  -0.01187987  0.66534129 -0.00000836
   0.34748851  0.01269973 -0.00012852
   0.65491232  0.33260702  0.00002475
   0.66904884  0.65490473  0.00015645
   0.10979760  0.22101875  0.95230192
   0.21858441  0.10850250  0.05133212
   0.11325642  0.55375736  0.95044412
   0.22185515  0.44508302  0.04768205
   0.11055354  0.89380866  0.94902101
   0.22456869  0.77769170  0.05012421
   0.44657241  0.22052056  0.94360745
   0.55617385  0.11340137  0.05463409
   0.44355862  0.55799654  0.94870791
   0.55946134  0.44617495  0.05624103
   0.43881501  0.88287707  0.94701896
   0.55019311  0.77298190  0.05089219
   0.78127883  0.22605697  0.94851813
   0.89300871  0.11265827  0.04968249
   0.77594941  0.55300419  0.94543987
   0.88855890  0.44063318  0.05134313
   0.78031390  0.88912238  0.94973071
   0.88938145  0.78410309  0.05320689
unknown system                          
           1
     8.277198    4.778778    0.000000
    -8.260667    4.750145    0.000000
     0.000000    0.000000   30.000000
   V    Mo   W    S 
   3   3   3  18
Direct configuration=    15
  -0.00589368 -0.00909298 -0.00029995
   0.99500930  0.33279507 -0.00001299
   0.33610020  0.67443578  0.00030440
   0.35388578  0.33327539 -0.00001392
   0.65715355  0.00316656 -0.00002112
  -0.01286876  0.66425525  0.00001487
   0.34797437  0.01260257 -0.00012458
   0.65575484  0.33269334  0.00000282
   0.66945617  0.65484898  0.00012595
   0.10944909  0.22082399  0.95219297
   0.21845556  0.10832287  0.05121262
   0.11327131  0.55361143  0.95042745
   0.22172017  0.44535687  0.04782195
   0.11052757  0.89353598  0.94922731
   0.22439423  0.77754605  0.04998254
   0.44649910  0.22068973  0.94385122
   0.55610088  0.11351690  0.05466050
   0.44358954  0.55821910  0.94879625
   0.55923300  0.44598324  0.05605198
   0.43895040  0.88289566  0.94707944
   0.55040760  0.77320410  0.05072170
   0.78167289  0.22617782  0.94850213
   0.89310655  0.11283804  0.04966897
   0.77575401  0.55289593  0.94542102
   0.88881259  0.44046021  0.05139506
   0.78024974  0.88920245  0.94990358
   0.88944845  0.78395413  0.05310771
unknown system                          
           1
     8.271016    4.775031    0.000000
    -8.257935    4.752377    0.000000
     0.000000    0.000000   30.000000
   V    Mo   W    S 
   3   3   3  18
Direct configuration=    16
  -0.00700182 -0.01030886 -0.00032732
   0.99412643  0.33269820 -0.00001400
   0.33613568  0.67545058  0.00033839
   0.35533727  0.33332536 -0.00001726
   0.65664045  0.00378484 -0.00000334
  -0.01398823  0.66383253 -0.00000315
   0.34920517  0.01342185 -0.00015851
   0.65548774  0.33262973  0.00000552
   0.66997698  0.65408965  0.00016218
   0.10982576  0.22092924  0.95251940
   0.21874088  0.10842672  0.05109408
   0.11320171  0.55379481  0.95051516
   0.22194936  0.44518492  0.04749875
   0.11070816  0.89355185  0.94936194
   0.22424734  0.77789733  0.04985013
   0.44670109  0.22061439  0.94365523
   0.55628901  0.11375407  0.05478854
   0.44380978  0.55813536  0.94890891
   0.55953189  0.44607345  0.05623903
   0.43895031  0.88303581  0.94698097
   0.55060784  0.77322387  0.05056858
   0.78142590  0.22611825  0.94844671
   0.89288088  0.11264270  0.04960123
   0.77571095  0.55264891  0.94529688
   0.88864351  0.44054728  0.05143060
   0.77975882  0.88886488  0.95002192
   0.88931159  0.78384674  0.05323930
unknown system                          
           1
     8.280120    4.781064    0.000000
    -8.265734    4.756147    0.000000
     0.000000    0.000000   30.000000
   V    Mo   W    S 
   3   3   3  18
Direct configuration=    17
  -0.00497512 -0.00796327 -0.00028396
   0.99620774  0.33290766 -0.00001282
   0.33592194  0.67330833  0.00028749
   0.35257546  0.33324654  0.00000095
   0.65738015  0.00370823 -0.00003302
  -0.01323730  0.66364102  0.00004009
   0.34794631  0.01263534 -0.00011317
   0.65612484  0.33274139  0.00001559
   0.66939739  0.65484070  0.00013237
   0.10900745  0.22063891  0.95191443
   0.21822221  0.10815212  0.05120994
   0.11323749  0.55335368  0.95038898
   0.22148109  0.44558631  0.04812945
   0.11045943  0.89332864  0.94930209
   0.22429457  0.77730058  0.04992854
   0.44632540  0.22081928  0.94407239
   0.55598003  0.11351755  0.05462507
   0.44348901  0.55838874  0.94876733
   0.55890401  0.44581671  0.05583111
   0.43900517  0.88291334  0.94716158
   0.55056029  0.77339394  0.05067888
   0.78208055  0.22639617  0.94856049
   0.89330122  0.11309840  0.04966037
   0.77563358  0.55291236  0.94542973
   0.88897504  0.44020014  0.05135684
   0.78043535  0.88943702  0.94998265
   0.88948116  0.78389462  0.05296653
unknown system                          
           1
     8.280276    4.781071    0.000000
    -8.264696    4.754086    0.000000
     0.000000    0.000000   30.000000
   V    Mo   W    S 
   3   3   3  18
Direct configuration=    18
  -0.00416340 -0.00698618 -0.00030562
   0.99787747  0.33317656 -0.00001915
   0.33588798  0.67244984  0.00031290
   0.35133316  0.33341651 -0.00001116
   0.65695795  0.00479732 -0.00008711
  -0.01471862  0.66216048  0.00007409
   0.34880611  0.01301948 -0.00011892
   0.65663751  0.33283822  0.00000121
   0.66951303  0.65422249  0.00010900
   0.10875755  0.22046652  0.95166378
   0.21814333  0.10802830  0.05122623
   0.11322249  0.55323445  0.95037965
   0.22144005  0.44586864  0.04838773
   0.11054831  0.89296684  0.94947606
   0.22402392  0.77716723  0.04970934
   0.44619856  0.22103378  0.94413049
   0.55598070  0.11378120  0.05480478
   0.44351273  0.55854442  0.94876180
   0.55857818  0.44561377  0.05580171
   0.43901534  0.88294649  0.94721047
   0.55089457  0.77367315  0.05050454
   0.78242839  0.22670859  0.94855814
   0.89336793  0.11327858  0.04966481
   0.77534606  0.55265195  0.94525544
   0.88900042  0.43988668  0.05138740
   0.78019844  0.88950379  0.95017735
   0.88942630  0.78376536  0.05294495
unknown system                          
           1
     8.280168    4.780945    0.000000
    -8.263593    4.752238    0.000000
     0.000000    0.000000   30.000000
   V    Mo   W    S 
   3   3   3  18
Direct configuration=    19
  -0.00452950 -0.00741968 -0.00031928
   0.99793593  0.33318865 -0.00001892
   0.33595025  0.67279737  0.00033964
   0.35172934  0.33346231 -0.00000570
   0.65650836  0.00556408 -0.00008013
  -0.01594583  0.66141208  0.00007914
   0.34980134  0.01363021 -0.00013055
   0.65667705  0.33284273  0.00000585
   0.66991333  0.65361644  0.00013882
   0.10889048  0.22045516  0.95177551
   0.21829824  0.10804276  0.05114401
   0.11318553  0.55331733  0.95043014
   0.22157322  0.44586776  0.04828411
   0.11068440  0.89285497  0.94963213
   0.22381697  0.77731843  0.04955534
   0.44624479  0.22104975  0.94406501
   0.55607015  0.11399203  0.05492239
   0.44366518  0.55855779  0.94881881
   0.55862249  0.44560442  0.05586441
   0.43901480  0.88303404  0.94715926
   0.55114417  0.77378489  0.05034845
   0.78240486  0.22675518  0.94852216
   0.89324757  0.11320425  0.04960899
   0.77522729  0.55243799  0.94512910
   0.88893094  0.43984250  0.05142145
   0.77983445  0.88934803  0.95032257
   0.88931866  0.78365295  0.05298717
unknown system                          
           1
     8.284257    4.783997    0.000000
    -8.266212    4.752738    0.000000
     0.000000    0.000000   30.000000
   V    Mo   W    S 
   3   3   3  18
Direct configuration=    20
  -0.00475560 -0.00769945 -0.00033091
   0.99811087  0.33321234 -0.00001895
   0.33600574  0.67300847  0.00036240
   0.35196043  0.33350304 -0.00000075
   0.65611906  0.00626090 -0.00007686
  -0.01704505  0.66071313  0.00008627
   0.35066197  0.01416310 -0.00013922
   0.65673207  0.33285221  0.00000952
   0.67024554  0.65308379  0.00016303
   0.10897900  0.22043243  0.95184736
   0.21841896  0.10804580  0.05107704
   0.11315431  0.55337580  0.95047163
   0.22167771  0.44588560  0.04822033
   0.11079999  0.89274084  0.94977165
   0.22362922  0.77743044  0.04941473
   0.44626913  0.22107576  0.94402082
   0.55613838  0.11417734  0.05502517
   0.44379027  0.55857883  0.94886331
   0.55863185  0.44558341  0.05590734
   0.43901354  0.88310855  0.94712223
   0.55137141  0.77389505  0.05021072
   0.78240941  0.22681378  0.94849649
   0.89315545  0.11315560  0.04956071
   0.77511164  0.55225110  0.94501820
   0.88887550  0.43978386  0.05144766
   0.77952870  0.88923021  0.95045581
   0.88922495  0.78355254  0.05301417
unknown system                          
           1
     8.304228    4.796204    0.000000
    -8.280422    4.754969    0.000000
     0.000000    0.000000   30.000000
   V    Mo   W    S 
   3   3   3  18
Direct configuration=    21
  -0.00498979 -0.00788695 -0.00033835
   0.99813751  0.33333693 -0.00001822
   0.33607046  0.67333909  0.00038310
   0.35227644  0.33364982 -0.00000589
   0.65574592  0.00665268 -0.00008227
  -0.01773140  0.66010043  0.00008873
   0.35129222  0.01441616 -0.00015475
   0.65682042  0.33287952  0.00000455
   0.67033717  0.65262603  0.00017229
   0.10906833  0.22047628  0.95190111
   0.21852868  0.10806699  0.05104953
   0.11316803  0.55342152  0.95050009
   0.22174566  0.44592465  0.04814836
   0.11092209  0.89264623  0.94984355
   0.22351638  0.77748142  0.04932630
   0.44630599  0.22109126  0.94397250
   0.55620422  0.11432075  0.05511645
   0.44386694  0.55860986  0.94890075
   0.55867111  0.44558153  0.05596574
   0.43899951  0.88312058  0.94708737
   0.55147777  0.77393291  0.05011883
   0.78242028  0.22684801  0.94846363
   0.89308159  0.11315582  0.04954949
   0.77503238  0.55210786  0.94493266
   0.88884981  0.43975312  0.05148774
   0.77924424  0.88911558  0.95051635
   0.88915250  0.78344638  0.05307027
unknown system                          
           1
     8.312952    4.801229    0.000000
    -8.283400    4.750046    0.000000
     0.000000    0.000000   30.000000
   V    Mo   W    S 
   3   3   3  18
Direct configuration=    22
  -0.00628504 -0.00912149 -0.00041578
   0.99844588  0.33363538 -0.00003036
   0.33629920  0.67465872  0.00046653
   0.35356384  0.33390749 -0.00001669
   0.65440418  0.00938969 -0.00011432
  -0.02180719  0.65705583  0.00011591
   0.35453776  0.01626670 -0.00022203
   0.65730253  0.33302136 -0.00001794
   0.67143224  0.65052617  0.00022281
   0.10939705  0.22046744  0.95223357
   0.21901633  0.10804013  0.05078013
   0.11307030  0.55363881  0.95061565
   0.22212407  0.44607199  0.04785630
   0.11147514  0.89209427  0.95043472
   0.22259789  0.77782468  0.04881490
   0.44644342  0.22119227  0.94378221
   0.55653407  0.11518420  0.05564073
   0.44437301  0.55879801  0.94908006
   0.55873766  0.44543832  0.05622978
   0.43903931  0.88338003  0.94684639
   0.55247299  0.77440007  0.04958291
   0.78249432  0.22702690  0.94828650
   0.89267492  0.11301757  0.04940429
   0.77451257  0.55127227  0.94443377
   0.88870430  0.43946383  0.05172326
   0.77786154  0.88865448  0.95103254
   0.88879216  0.78290932  0.05323408
unknown system                          
           1
     8.319967    4.805104    0.000000
    -8.289936    4.753093    0.000000
     0.000000    0.000000   30.000000
   V    Mo   W    S 
   3   3   3  18
Direct configuration=    23
  -0.00758088 -0.01037280 -0.00047942
   0.99878171  0.33378923 -0.00003877
   0.33649254  0.67575391  0.00052567
   0.35453998  0.33409698 -0.00001570
   0.65344199  0.01195282 -0.00012425
  -0.02539113  0.65437783  0.00014971
   0.35738771  0.01779389 -0.00025736
   0.65782013  0.33304560  0.00002449
   0.67260236  0.64896762  0.00026601
   0.10961828  0.22029727  0.95253238
   0.21930306  0.10788221  0.05049525
   0.11288526  0.55383692  0.95074775
   0.22250391  0.44623827  0.04761148
   0.11195681  0.89152666  0.95107344
   0.22159945  0.77813293  0.04828875
   0.44657285  0.22132891  0.94362631
   0.55679080  0.11602330  0.05605760
   0.44486998  0.55898817  0.94928507
   0.55875946  0.44527893  0.05638707
   0.43922502  0.88388498  0.94669590
   0.55357635  0.77496819  0.04900191
   0.78259766  0.22725335  0.94811419
   0.89230981  0.11282694  0.04923661
   0.77393564  0.55045317  0.94397124
   0.88855938  0.43917647  0.05190931
   0.77659945  0.88833244  0.95155617
   0.88845687  0.78238027  0.05335909
unknown system                          
           1
     8.325576    4.808560    0.000000
    -8.292436    4.751163    0.000000
     0.000000    0.000000   30.000000
   V    Mo   W    S 
   3   3   3  18
Direct configuration=    24
  -0.00768354 -0.01049388 -0.00046943
   0.99879662  0.33372485 -0.00004461
   0.33647642  0.67570255  0.00051283
   0.35445433  0.33406945 -0.00002060
   0.65364011  0.01191037 -0.00012690
  -0.02520873  0.65453896  0.00013974
   0.35721288  0.01772406 -0.00026496
   0.65782734  0.33301775  0.00001042
   0.67263923  0.64915396  0.00025493
   0.10959103  0.22021640  0.95252039
   0.21922125  0.10781880  0.05049751
   0.11285402  0.55385121  0.95073997
   0.22253597  0.44626524  0.04763612
   0.11197369  0.89150871  0.95109861
   0.22150477  0.77811320  0.04828562
   0.44658381  0.22135904  0.94361725
   0.55680425  0.11606745  0.05609756
   0.44487316  0.55901836  0.94927863
   0.55873529  0.44526220  0.05640123
   0.43928341  0.88397113  0.94668377