unknown system                          
           1
     8.857439    5.107666    0.000000
    -8.854759    5.103055    0.000000
     0.000000    0.000000   30.000000
   V    Mo   W    S 
   3   3   3  18
Direct configuration=     1
   0.66666669  0.33333334  0.00000000
   0.66666669  0.66666669  0.00000000
   0.33333334  0.00000000  0.00000000
   1.00000000  0.33333334  0.00000000
   0.33333334  0.66666669  0.00000000
   0.00000000  0.66666669  0.00000000
   0.00000000  0.00000000  0.00000000
   0.33333334  0.33333334  0.00000000
   0.66666669  0.00000000  0.00000000
   0.11068511  0.22244981  0.95539999
   0.22244981  0.11068511  0.04460000
   0.11068511  0.55578315  0.95539999
   0.22244981  0.44401845  0.04460000
   0.11068511  0.88911647  0.95539999
   0.22244981  0.77735180  0.04460000
   0.44401845  0.22244981  0.95539999
   0.55578315  0.11068511  0.04460000
   0.44401845  0.55578315  0.95539999
   0.55578315  0.44401845  0.04460000
   0.44401845  0.88911647  0.95539999
   0.55578315  0.77735180  0.04460000
   0.77735180  0.22244981  0.95539999
   0.88911647  0.11068511  0.04460000
   0.77735180  0.55578315  0.95539999
   0.88911647  0.44401845  0.04460000
   0.77735180  0.88911647  0.95539999
   0.88911647  0.77735180  0.04460000
unknown system                          
           1
     8.669395    5.001489    0.000000
    -8.666953    4.997289    0.000000
     0.000000    0.000000   30.000000
   V    Mo   W    S 
   3   3   3  18
Direct configuration=     2
   0.66863108  0.33451581 -0.00006766
   0.66673051  0.66634549 -0.00015071
   0.33255243 -0.00191115  0.00010909
   1.00135080  0.33612957  0.00004478
   0.33046070  0.66531878  0.00023222
   0.00120330  0.66504776  0.00000666
   0.00006510 -0.00024464 -0.00016108
   0.33260334  0.33480276 -0.00010388
   0.66616152  0.00008972  0.00008989
   0.11131370  0.22157460  0.95073300
   0.22424571  0.10893881  0.04803419
   0.11091737  0.55539851  0.95066804
   0.22259827  0.44396970  0.04932575
   0.11498320  0.89149703  0.95195828
   0.22446660  0.78224181  0.04812731
   0.44604172  0.22036285  0.95313398
   0.55362983  0.11263115  0.04699109
   0.44853109  0.55670396  0.95194349
   0.55897923  0.44586438  0.04687670
   0.44297009  0.89169280  0.95203697
   0.55828762  0.77625093  0.04792417
   0.77489034  0.22358952  0.95201492
   0.88839020  0.11038941  0.04919591
   0.77316086  0.55349552  0.95311832
   0.88432656  0.44213963  0.04808969
   0.77594335  0.88496387  0.95183421
   0.88477994  0.77641588  0.04799455
unknown system                          
           1
     8.487516    4.901358    0.000000
    -8.485681    4.898205    0.000000
     0.000000    0.000000   30.000000
   V    Mo   W    S 
   3   3   3  18
Direct configuration=     3
   0.66919929  0.33480159 -0.00012152
   0.66684870  0.66645077 -0.00013072
   0.33229594 -0.00249880  0.00007877
   1.00220486  0.33716274  0.00004569
   0.32920431  0.66450620  0.00025268
   0.00182629  0.66453192  0.00000936
  -0.00003607 -0.00015909 -0.00012882
   0.33195229  0.33515519 -0.00016074
   0.66630573  0.00008276  0.00013856
   0.11138577  0.22148836  0.95071257
   0.22419068  0.10903617  0.04796385
   0.11092403  0.55542074  0.95047055
   0.22272725  0.44385836  0.04947805
   0.11497561  0.89167671  0.95198635
   0.22454615  0.78236743  0.04824341
   0.44593844  0.22047397  0.95332447
   0.55372246  0.11253395  0.04691664
   0.44850557  0.55655603  0.95195948
   0.55879106  0.44578479  0.04678344
   0.44316551  0.89183554  0.95207288
   0.55842505  0.77644220  0.04786147
   0.77474101  0.22339868  0.95203583
   0.88831454  0.11018339  0.04913446
   0.77310434  0.55341058  0.95314683
   0.88417849  0.44206696  0.04817799
   0.77597471  0.88508066  0.95184431
   0.88480246  0.77656665  0.04790407
unknown system                          
           1
     8.284305    4.788498    0.000000
    -8.278298    4.778118    0.000000
     0.000000    0.000000   30.000000
   V    Mo   W    S 
   3   3   3  18
Direct configuration=     4
   0.67125688  0.33564716 -0.00029076
   0.66750224  0.66744346  0.00000289
   0.33115049 -0.00478383 -0.00008499
   1.00594902  0.34093859  0.00003304
   0.32420315  0.66101643  0.00022600
   0.00445514  0.66281246  0.00003190
  -0.00064519  0.00047301  0.00004693
   0.32875402  0.33614466 -0.00031747
   0.66736685 -0.00010997  0.00025081
   0.11113389  0.22153338  0.94898791
   0.22482371  0.10882556  0.04915001
   0.11099407  0.55553368  0.94809291
   0.22279235  0.44384835  0.05174548
   0.11596477  0.89212737  0.95066373
   0.22513621  0.78353127  0.05016692
   0.44628176  0.22015327  0.95275596
   0.55325235  0.11308375  0.04799073
   0.44948276  0.55737075  0.95056258
   0.55948478  0.44613026  0.04773703
   0.44273433  0.89214583  0.95081064
   0.55866487  0.77585034  0.04902880
   0.77439047  0.22386369  0.95069396
   0.88851802  0.11038433  0.05049262
   0.77238391  0.55287113  0.95194775
   0.88292369  0.44145332  0.04995889
   0.77534272  0.88406184  0.95035502
   0.88391719  0.77586437  0.04896063
unknown system                          
           1
     8.288652    4.797705    0.000000
    -8.276583    4.776822    0.000000
     0.000000    0.000000   30.000000
   V    Mo   W    S 
   3   3   3  18
Direct configuration=     5
   0.67481519  0.33691526 -0.00045707
   0.66930782  0.67006994  0.00026440
   0.32909503 -0.00921243 -0.00038987
   1.01339917  0.34763874  0.00000750
   0.31485268  0.65429628  0.00008634
   0.00937602  0.65973515  0.00013666
  -0.00220246  0.00191178  0.00027906
   0.32246656  0.33808178 -0.00044385
   0.66966504 -0.00067241  0.00030534
   0.11020330  0.22186347  0.94653925
   0.22569031  0.10903510  0.05054895
   0.11098012  0.55553807  0.94460092
   0.22255662  0.44439274  0.05511174
   0.11644992  0.89175853  0.94905405
   0.22545085  0.78394138  0.05296287
   0.44628546  0.22010774  0.95220728
   0.55280687  0.11381045  0.04941638
   0.44973297  0.55843063  0.94879580
   0.55963287  0.44626379  0.04879342
   0.44200917  0.89143162  0.94938755
   0.55753543  0.77465746  0.05041729
   0.77507529  0.22478337  0.94904180
   0.88927205  0.11206181  0.05228344
   0.77271307  0.55274588  0.95024175
   0.88250100  0.44120772  0.05237459
   0.77477404  0.88280951  0.94822462
   0.88377006  0.77461110  0.05020969
unknown system                          
           1
     8.286369    4.795127    0.000000
    -8.273770    4.773336    0.000000
     0.000000    0.000000   30.000000
   V    Mo   W    S 
   3   3   3  18
Direct configuration=     6
   0.67604519  0.33730487 -0.00046123
   0.67053832  0.67136137  0.00023826
   0.32857937 -0.01092422 -0.00034931
   1.01370562  0.34723551 -0.00007408
   0.31434608  0.65409832  0.00012845
   0.00981065  0.65932046  0.00007760
  -0.00313793  0.00281239  0.00023734
   0.32081691  0.33841176 -0.00033995
   0.67080619 -0.00066206  0.00031850
   0.10964324  0.22197795  0.94628481
   0.22562401  0.10942207  0.05042118
   0.11067546  0.55522857  0.94423646
   0.22250147  0.44480352  0.05548550
   0.11568123  0.89107345  0.94919661
   0.22535317  0.78324452  0.05316593
   0.44564246  0.22049362  0.95252560
   0.55292948  0.11368419  0.04934560
   0.44883676  0.55844272  0.94886233
   0.55896228  0.44603262  0.04857138
   0.44190106  0.89033261  0.94951030
   0.55628733  0.77428592  0.05025470
   0.77603526  0.22495481  0.94909075
   0.88971342  0.11321182  0.05238991
   0.77361941  0.55327438  0.95027155
   0.88347149  0.44143853  0.05248781
   0.77500209  0.88285355  0.94801652
   0.88482445  0.77450121  0.05010740
unknown system                          
           1
     8.288470    4.796372    0.000000
    -8.275697    4.774279    0.000000
     0.000000    0.000000   30.000000
   V    Mo   W    S 
   3   3   3  18
Direct configuration=     7
   0.67755546  0.33784823 -0.00044556
   0.67185966  0.67261014  0.00027186
   0.32817901 -0.01286365 -0.00035870
   1.01435942  0.34716832 -0.00010780
   0.31293760  0.65346205  0.00006580
   0.01046573  0.65847746  0.00002373
  -0.00421659  0.00403971  0.00023835
   0.31894133  0.33876401 -0.00029998
   0.67212732 -0.00051406  0.00036290
   0.10932509  0.22198876  0.94599118
   0.22542084  0.10960444  0.05030234
   0.11055710  0.55499898  0.94399655
   0.22230146  0.44509780  0.05581302
   0.11515565  0.89068791  0.94934485
   0.22519665  0.78282404  0.05341338
   0.44519968  0.22072383  0.95291555
   0.55302972  0.11359945  0.04926506
   0.44832019  0.55846959  0.94892886
   0.55852119  0.44594689  0.04831236
   0.44199000  0.88968587  0.94958841
   0.55562520  0.77408131  0.05011925
   0.77653191  0.22497975  0.94904223
   0.88988554  0.11389489  0.05259494
   0.77418240  0.55362614  0.95026619
   0.88405184  0.44155633  0.05260760
   0.77515343  0.88288205  0.94775535
   0.88555764  0.77457425  0.04999218
unknown system                          
           1
     8.274205    4.789929    0.000000
    -8.262277    4.769288    0.000000
     0.000000    0.000000   30.000000
   V    Mo   W    S 
   3   3   3  18
Direct configuration=     8
   0.67761714  0.33786674 -0.00044556
   0.67192998  0.67265301  0.00027293
   0.32819073 -0.01295595 -0.00035866
   1.01427709  0.34704564 -0.00010916
   0.31296036  0.65353276  0.00007101
   0.01045761  0.65846243  0.00002233
  -0.00427588  0.00412622  0.00023562
   0.31890424  0.33874413 -0.00029819
   0.67219123 -0.00048363  0.00036466
   0.10932486  0.22197557  0.94599926
   0.22539824  0.10960398  0.05027505
   0.11054179  0.55497279  0.94402099
   0.22229571  0.44511127  0.05578858
   0.11513176  0.89068962  0.94937951
   0.22518622  0.78281415  0.05339346
   0.44518000  0.22072073  0.95295289
   0.55303455  0.11358507  0.04924300
   0.44830970  0.55845993  0.94895431
   0.55850564  0.44594705  0.04828221
   0.44200939  0.88968244  0.94960727
   0.55563123  0.77409373  0.05009240
   0.77651867  0.22495880  0.94905244
   0.88987593  0.11389279  0.05259666
   0.77418949  0.55363736  0.95028322
   0.88407053  0.44156007  0.05259055
   0.77516246  0.88290330  0.94776503
   0.88559579  0.77461447  0.04996806
unknown system                          
           1
     8.280499    4.794841    0.000000
    -8.265923    4.769617    0.000000
     0.000000    0.000000   30.000000
   V    Mo   W    S 
   3   3   3  18
Direct configuration=     9
   0.67684593  0.33748717 -0.00044688
   0.67145426  0.67243220  0.00026016
   0.32779526 -0.01289019 -0.00035572
   1.01459191  0.34751386 -0.00011199
   0.31313406  0.65383841  0.00008526
   0.01100652  0.65935693  0.00003771
  -0.00363168  0.00346806  0.00025450
   0.31921337  0.33862079 -0.00030000
   0.67137776 -0.00084422  0.00035205
   0.10926949  0.22202492  0.94598442
   0.22561773  0.10954696  0.05037323
   0.11059856  0.55511202  0.94389251
   0.22236027  0.44505474  0.05590276
   0.11548817  0.89072988  0.94923948
   0.22536819  0.78303652  0.05340337
   0.44506100  0.22049289  0.95279196
   0.55279378  0.11349220  0.04931028
   0.44836784  0.55848211  0.94881721
   0.55857209  0.44603258  0.04845896
   0.44175183  0.88977354  0.94958878
   0.55558119  0.77402889  0.05022459
   0.77673224  0.22503424  0.94901012
   0.88999084  0.11395538  0.05253261
   0.77419576  0.55367763  0.95020317
   0.88411310  0.44158784  0.05266969
   0.77515147  0.88279621  0.94773642
   0.88541350  0.77437290  0.05008523
unknown system                          
           1
     8.293050    4.800158    0.000000
    -8.276305    4.771200    0.000000
     0.000000    0.000000   30.000000
   V    Mo   W    S 
   3   3   3  18
Direct configuration=    10
   0.67807755  0.33787574 -0.00045721
   0.67261669  0.67351126  0.00028442
   0.32738558 -0.01479947 -0.00036436
   1.01487399  0.34714082 -0.00014358
   0.31213581  0.65369206  0.00009748
   0.01170118  0.65889023  0.00000681
  -0.00451613  0.00458649  0.00025261
   0.31766555  0.33876098 -0.00027040
   0.67243519 -0.00071372  0.00038501
   0.10899381  0.22196526  0.94569709
   0.22550855  0.10964287  0.05027362
   0.11042239  0.55484064  0.94363234
   0.22224504  0.44536110  0.05618075
   0.11517554  0.89051186  0.94936485
   0.22531355  0.78285108  0.05362572
   0.44464920  0.22051315  0.95314790
   0.55276589  0.11338106  0.04925395
   0.44804237  0.55852142  0.94885374
   0.55827407  0.44602448  0.04825881
   0.44178463  0.88934907  0.94961868
   0.55514765  0.77387434  0.05012528
   0.77702407  0.22500572  0.94892427
   0.89011816  0.11446113  0.05276195
   0.77457389  0.55394544  0.95017669
   0.88454526  0.44168364  0.05280756
   0.77524951  0.88282617  0.94750334
   0.88600546  0.77451165  0.05000257
unknown system                          
           1
     8.294024    4.800407    0.000000
    -8.276478    4.770069    0.000000
     0.000000    0.000000   30.000000
   V    Mo   W    S 
   3   3   3  18
Direct configuration=    11
   0.67954555  0.33846915 -0.00046464
   0.67375184  0.67439356  0.00029032
   0.32737657 -0.01609861 -0.00034630
   1.01475239  0.34655066 -0.00015199
   0.31141992  0.65335663  0.00005423
   0.01163788  0.65782545 -0.00004433
  -0.00558480  0.00579635  0.00023730
   0.31645242  0.33897759 -0.00026032
   0.67376103 -0.00035024  0.00042855
   0.10889376  0.22184225  0.94556065
   0.22526087  0.10974143  0.05012636
   0.11030282  0.55458554  0.94364576
   0.22213964  0.44562195  0.05620241
   0.11471149  0.89037367  0.94952471
   0.22514401  0.78260876  0.05380527
   0.44446871  0.22065760  0.95352050
   0.55292012  0.11336667  0.04914652
   0.44775307  0.55848996  0.94903590
   0.55803271  0.44596317  0.04796607
   0.44203715  0.88901735  0.94962336
   0.55496611  0.77384049  0.04995764
   0.77697324  0.22488607  0.94892988
   0.89004552  0.11464455  0.05290738
   0.77481861  0.55408073  0.95027085
   0.88478220  0.44178065  0.05276961
   0.77534968  0.88297257  0.94741661
   0.88650195  0.77482051  0.04984758
unknown system                          
           1
     8.288784    4.797299    0.000000
    -8.271873    4.768056    0.000000
     0.000000    0.000000   30.000000
   V    Mo   W    S 
   3   3   3  18
Direct configuration=    12
   0.68031649  0.33873607 -0.00046822
   0.67441899  0.67493671  0.00031423
   0.32733077 -0.01700964 -0.00035756
   1.01468502  0.34618048 -0.00016858
   0.31095422  0.65331060  0.00005160
   0.01184024  0.65741942 -0.00005762
  -0.00616995  0.00647419  0.00022922
   0.31573368  0.33902421 -0.00025056
   0.67443006 -0.00017746  0.00045133
   0.10881350  0.22179674  0.94545229
   0.22513810  0.10978372  0.05003167
   0.11021136  0.55440689  0.94359414
   0.22206616  0.44575307  0.05626596
   0.11451464  0.89030833  0.94965161
   0.22505819  0.78248467  0.05387877
   0.44433281  0.22068849  0.95373971
   0.55295596  0.11333077  0.04908915
   0.44762747  0.55849886  0.94910742
   0.55789267  0.44594506  0.04781094
   0.44212618  0.88885677  0.94965481
   0.55485453  0.77381227  0.04985854
   0.77697249  0.22482267  0.94889693
   0.89003616  0.11480105  0.05303449
   0.77495925  0.55418189  0.95028313
   0.88492490  0.44181081  0.05280791
   0.77539297  0.88304477  0.94733665
   0.88679758  0.77499304  0.04976197
unknown system                          
           1
     8.302839    4.804337    0.000000
    -8.283270    4.770509    0.000000
     0.000000    0.000000   30.000000
   V    Mo   W    S 
   3   3   3  18
Direct configuration=    13
   0.68009462  0.33870796 -0.00046738
   0.67428389  0.67486837  0.00033113
   0.32739179 -0.01658813 -0.00036844
   1.01479889  0.34625624 -0.00018030
   0.31108998  0.65322478  0.00006938
   0.01164705  0.65741633 -0.00004250
  -0.00613917  0.00624472  0.00023441
   0.31591147  0.33905586 -0.00024818
   0.67428897 -0.00035478  0.00043474
   0.10886699  0.22183474  0.94553247
   0.22513536  0.10981297  0.05004233
   0.11025195  0.55445930  0.94365121
   0.22210089  0.44572034  0.05620718
   0.11451046  0.89032030  0.94963057
   0.22504155  0.78242524  0.05381348
   0.44440338  0.22076478  0.95369312
   0.55303436  0.11336113  0.04907749
   0.44765781  0.55848160  0.94911167
   0.55793941  0.44595046  0.04782017
   0.44216002  0.88892225  0.94968010
   0.55494585  0.77385827  0.04985057
   0.77697370  0.22484797  0.94896308
   0.89004232  0.11473307  0.05295932
   0.77487134  0.55413639  0.95031131
   0.88488202  0.44178973  0.05275385
   0.77538356  0.88302207  0.94739933
   0.88664599  0.77494250  0.04973979
unknown system                          
           1
     8.312843    4.808391    0.000000
    -8.291746    4.771935    0.000000
     0.000000    0.000000   30.000000
   V    Mo   W    S 
   3   3   3  18
Direct configuration=    14
   0.68234498  0.33942734 -0.00047488
   0.67610580  0.67623120  0.00038056
   0.32738921 -0.01927644 -0.00038422
   1.01422842  0.34510460 -0.00020257
   0.30989709  0.65327992  0.00006036
   0.01226595  0.65639176 -0.00007827
  -0.00766240  0.00820278  0.00019689
   0.31408326  0.33910104 -0.00022784
   0.67615138  0.00041387  0.00051512
   0.10863280  0.22167304  0.94518082
   0.22478744  0.10985899  0.04976672
   0.10994236  0.55389217  0.94348582
   0.22184596  0.44605595  0.05638263
   0.11400694  0.89017807  0.95002534
   0.22480078  0.78215323  0.05403019
   0.44404990  0.22075032  0.95430316
   0.55304783  0.11326080  0.04895068
   0.44738516  0.55854819  0.94930225
   0.55754840  0.44588251  0.04739677
   0.44237306  0.88848143  0.94972601
   0.55462700  0.77375219  0.04957741
   0.77683246  0.22461958  0.94877547
   0.88995942  0.11514544  0.05340659
   0.77530442  0.55442500  0.95030347
   0.88521464  0.44187457  0.05292374
   0.77547713  0.88327252  0.94714383
   0.88757504  0.77551441  0.04953385
unknown system                          
           1
     8.321364    4.810449    0.000000
    -8.297590    4.769388    0.000000
     0.000000    0.000000   30.000000
   V    Mo   W    S 
   3   3   3  18
Direct configuration=    15
   0.68411928  0.33997813 -0.00047717
   0.67752087  0.67723110  0.00040917
   0.32769846 -0.02085178 -0.00039544
   1.01350538  0.34400722 -0.00020929
   0.30906952  0.65319481  0.00003615
   0.01239125  0.65537292 -0.00010965
  -0.00897101  0.00966853  0.00015190
   0.31280529  0.33908753 -0.00022278
   0.67776952  0.00119942  0.00057918
   0.10846929  0.22154306  0.94494570
   0.22443700  0.10983505  0.04954994
   0.10972195  0.55342067  0.94340657
   0.22159527  0.44626474  0.05647913
   0.11357858  0.89016666  0.95035704
   0.22458948  0.78189749  0.05418081
   0.44395883  0.22083338  0.95474605
   0.55313137  0.11325730  0.04884531
   0.44728859  0.55863173  0.94945485
   0.55732971  0.44581467  0.04705802
   0.44262432  0.88817577  0.94975288
   0.55443989  0.77368630  0.04936040
   0.77662287  0.22445618  0.94864770
   0.88986815  0.11544604  0.05376010
   0.77552501  0.55456248  0.95030480
   0.88535047  0.44186276  0.05304413
   0.77550515  0.88343192  0.94695789
   0.88826995  0.77604040  0.04938650
unknown system                          
           1
     8.339879    4.819010    0.000000
    -8.312943    4.772496    0.000000
     0.000000    0.000000   30.000000
   V    Mo   W    S 
   3   3   3  18
Direct configuration=    16
   0.68683244  0.34077278 -0.00046860
   0.67974317  0.67874548  0.00046547
   0.32839520 -0.02314680 -0.00039559
   1.01225845  0.34234441 -0.00020075
   0.30773768  0.65285896  0.00003088
   0.01255186  0.65387842 -0.00013073
  -0.01092358  0.01176468  0.00006278
   0.31091811  0.33908731 -0.00020644
   0.68031500  0.00262153  0.00068083
   0.10818573  0.22138116  0.94461045
   0.22380686  0.10975021  0.04916365
   0.10931748  0.55257287  0.94330317
   0.22112354  0.44651771  0.05654963
   0.11292981  0.89022857  0.95095326
   0.22424111  0.78144006  0.05435918
   0.44386268  0.22096532  0.95544377
   0.55326486  0.11325145  0.04868891
   0.44714780  0.55873587  0.94971781
   0.55698566  0.44570612  0.04648954
   0.44303936  0.88768195  0.94980787
   0.55418990  0.77362988  0.04894141
   0.77622557  0.22414126  0.94841035
   0.88969510  0.11591881  0.05433922
   0.77591190  0.55475391  0.95029772
   0.88555254  0.44188078  0.05325095
   0.77550710  0.88375025  0.94670422
   0.88939911  0.77698150  0.04913092
unknown system                          
           1
     8.338926    4.817510    0.000000
    -8.309808    4.767229    0.000000
     0.000000    0.000000   30.000000
   V    Mo   W    S 
   3   3   3  18
Direct configuration=    17
   0.68941674  0.34146383 -0.00045723
   0.68212029  0.68023702  0.00048282
   0.32939773 -0.02539399 -0.00035915
   1.01058165  0.34054884 -0.00018129
   0.30635967  0.65246788  0.00000303
   0.01270420  0.65256164 -0.00014767
  -0.01275867  0.01371504 -0.00006759
   0.30915940  0.33898947 -0.00022140
   0.68302502  0.00450168  0.00076081
   0.10775650  0.22122120  0.94424205
   0.22306334  0.10948584  0.04875509
   0.10879165  0.55155520  0.94318372
   0.22044741  0.44668681  0.05666416
   0.11229711  0.89047763  0.95164185
   0.22388130  0.78091090  0.05456874
   0.44382085  0.22104635  0.95615005
   0.55337628  0.11325397  0.04857949
   0.44711190  0.55891082  0.94996342
   0.55668688  0.44562327  0.04591281
   0.44349948  0.88710248  0.94982838
   0.55389567  0.77351438  0.04848044
   0.77578219  0.22375046  0.94807824
   0.88952623  0.11648302  0.05502511
   0.77637215  0.55494423  0.95023218
   0.88576139  0.44193755  0.05354975
   0.77540674  0.88409269  0.94640228
   0.89073136  0.77812625  0.04892981
unknown system                          
           1
     8.348133    4.823200    0.000000
    -8.318576    4.772157    0.000000
     0.000000    0.000000   30.000000
   V    Mo   W    S 
   3   3   3  18
Direct configuration=    18
   0.69128110  0.34195771 -0.00043757
   0.68416578  0.68135013  0.00048216
   0.33044640 -0.02677142 -0.00028140
   1.00916707  0.33922709 -0.00011332
   0.30510968  0.65172293  0.00000513
   0.01260669  0.65148195 -0.00013039
  -0.01397938  0.01504593 -0.00016166
   0.30781064  0.33896739 -0.00023196
   0.68516394  0.00626135  0.00081856
   0.10734913  0.22117226  0.94403713
   0.22236592  0.10922658  0.04835649
   0.10828236  0.55066716  0.94315161
   0.21977206  0.44668526  0.05662808
   0.11183648  0.89085121  0.95230166
   0.22357387  0.78033182  0.05468461
   0.44384814  0.22111456  0.95674827
   0.55359348  0.11326731  0.04847521
   0.44703708  0.55898669  0.95021052
   0.55650103  0.44559357  0.04538991
   0.44396450  0.88655745  0.94986410
   0.55374936  0.77349668  0.04796923
   0.77539539  0.22340874  0.94783317
   0.88939322  0.11688798  0.05548396
   0.77679799  0.55500312  0.95020283
   0.88589189  0.44207031  0.05373199
   0.77526319  0.88444371  0.94622997
   0.89182745  0.77920698  0.04875160
unknown system                          
           1
     8.349963    4.824366    0.000000
    -8.319544    4.771830    0.000000
     0.000000    0.000000   30.000000
   V    Mo   W    S 
   3   3   3  18
Direct configuration=    19
   0.69144934  0.34197168 -0.00043260
   0.68459575  0.68150647  0.00045265
   0.33071969 -0.02693946 -0.00025323
   1.00881623  0.33899076 -0.00011014
   0.30491577  0.65159454 -0.00000179
   0.01256155  0.65140991 -0.00012179
  -0.01406978  0.01522802 -0.00019391
   0.30762149  0.33892671 -0.00025147
   0.68543348  0.00663959  0.00079362
   0.10721828  0.22117924  0.94397918
   0.22227693  0.10912557  0.04831171
   0.10812858  0.55046892  0.94312602
   0.21958446  0.44663886  0.05667053
   0.11179936  0.89098661  0.95243208
   0.22352654  0.78020014  0.05472995
   0.44386751  0.22109338  0.95683664
   0.55365423  0.11330004  0.04850177
   0.44707957  0.55903357  0.95022632
   0.55650458  0.44561278  0.04531524
   0.44405139  0.88642040  0.94985486
   0.55369700  0.77344499  0.04786638
   0.77533288  0.22335940  0.94774852
   0.88939906  0.11698237  0.05560589
   0.77688715  0.55500680  0.95015570
   0.88588271  0.44210677  0.05381036
   0.77520473  0.88449367  0.94617511
   0.89207598  0.77943274  0.04877230
unknown system                          
           1
     8.357636    4.829222    0.000000
    -8.326531    4.775493    0.000000
     0.000000    0.000000   30.000000
   V    Mo   W    S 
   3   3   3  18
Direct configuration=    20
   0.69228286  0.34215757 -0.00041420
   0.68597641  0.68207774  0.00041520
   0.33149500 -0.02764962 -0.00018043
   1.00792704  0.33826918 -0.00006762
   0.30411414  0.65112080 -0.00000381
   0.01248383  0.65092268 -0.00009421
  -0.01465905  0.01595605 -0.00024432
   0.30687189  0.33887871 -0.00027444
   0.68653255  0.00777350  0.00079413
   0.10691270  0.22119997  0.94387566
   0.22194959  0.10894252  0.04808466
   0.10774398  0.54995400  0.94312617
   0.21910414  0.44652441  0.05665932
   0.11166451  0.89131191  0.95286475
   0.22338181  0.77982577  0.05478052
   0.44386882  0.22106446  0.95717260
   0.55382379  0.11332003  0.04848089
   0.44706206  0.55906022  0.95036294
   0.55644248  0.44565311  0.04501428
   0.44427221  0.88604704  0.94989567
   0.55361640  0.77339941  0.04749714
   0.77511606  0.22319479  0.94758731
   0.88933470  0.11715285  0.05583728
   0.77715507  0.55501135  0.95010491
   0.88589147  0.44222547  0.05392401
   0.77512246  0.88471583  0.94608775
   0.89272754  0.78010469  0.04871374
unknown system                          
           1
     8.357707    4.829987    0.000000
    -8.326176    4.775513    0.000000
     0.000000    0.000000   30.000000
   V    Mo   W    S 
   3   3   3  18
Direct configuration=    21
   0.69278164  0.34227909 -0.00040194
   0.68693994  0.68238196  0.00037141
   0.33201135 -0.02811165 -0.00012016
   1.00735025  0.33792412 -0.00004685
   0.30362762  0.65083732 -0.00000120
   0.01238978  0.65065256 -0.00007471
  -0.01491036  0.01636255 -0.00029076
   0.30642862  0.33885745 -0.00029357
   0.68705501  0.00847047  0.00077373
   0.10668922  0.22122235  0.94379382
   0.22179215  0.10882525  0.04795416
   0.10745416  0.54961616  0.94311127
   0.21877818  0.44643511  0.05667568
   0.11162626  0.89154553  0.95314318
   0.22329286  0.77957162  0.05483408
   0.44386196  0.22102098  0.95737600
   0.55395338  0.11336342  0.04849618
   0.44706576  0.55908779  0.95044302
   0.55641126  0.44568935  0.04483310
   0.44440334  0.88576291  0.94990456
   0.55352516  0.77331181  0.04724697
   0.77496889  0.22311573  0.94746728
   0.88929011  0.11728240  0.05601296
   0.77732904  0.55500426  0.95005125
   0.88586313  0.44230661  0.05401445
   0.77507011  0.88485868  0.94601688
   0.89316567  0.78054062  0.04870912
unknown system                          
           1
     8.364002    4.834439    0.000000
    -8.332447    4.779915    0.000000
     0.000000    0.000000   30.000000
   V    Mo   W    S 
   3   3   3  18
Direct configuration=    22
   0.69345538  0.34244077 -0.00038473
   0.68855560  0.68290370  0.00030393
   0.33284142 -0.02848966 -0.00001956
   1.00646952  0.33737701 -0.00000585
   0.30281227  0.65023472 -0.00000086
   0.01207371  0.65012444 -0.00003619
  -0.01542337  0.01694487 -0.00032699
   0.30574631  0.33877426 -0.00032470
   0.68796460  0.00949203  0.00075979
   0.10636298  0.22129089  0.94372996
   0.22156724  0.10871427  0.04774891
   0.10703342  0.54917287  0.94312658
   0.21829127  0.44627341  0.05665622
   0.11159430  0.89189822  0.95356803
   0.22313116  0.77913456  0.05490190
   0.44387468  0.22098942  0.95768069
   0.55424113  0.11344072  0.04850590
   0.44705802  0.55910299  0.95059704
   0.55640839  0.44579962  0.04453225
   0.44462305  0.88531332  0.94992543
   0.55347797  0.77319082  0.04680981
   0.77474468  0.22303445  0.94733536
   0.88918695  0.11737255  0.05616170
   0.77757226  0.55497730  0.94999501
   0.88580768  0.44244566  0.05410635
   0.77502302  0.88507466  0.94597125
   0.89372082  0.78118657  0.04868268
unknown system                          
           1
     8.360765    4.832836    0.000000
    -8.329660    4.779087    0.000000
     0.000000    0.000000   30.000000
   V    Mo   W    S 
   3   3   3  18
Direct configuration=    23
   0.69387639  0.34248184 -0.00035707
   0.69002822  0.68321038  0.00019965
   0.33361687 -0.02882576  0.00008134
   1.00572408  0.33695547  0.00001579
   0.30213610  0.64972328  0.00001131
   0.01180861  0.64982059  0.00000586
  -0.01557769  0.01750400 -0.00038655
   0.30508483  0.33865242 -0.00034610
   0.68850009  0.01036462  0.00069777
   0.10600872  0.22136098  0.94363478
   0.22144628  0.10861838  0.04760919
   0.10658622  0.54875876  0.94310143
   0.21781958  0.44607325  0.05668439
   0.11165441  0.89226889  0.95393351
   0.22300322  0.77875877  0.05498051
   0.44388165  0.22094776  0.95791601
   0.55455430  0.11356134  0.04857253
   0.44708904  0.55912086  0.95070790
   0.55638492  0.44589419  0.04428975
   0.44477832  0.88489209  0.94993683
   0.55336004  0.77299119  0.04642037
   0.77452698  0.22297860  0.94716922
   0.88911400  0.11753869  0.05637740
   0.77779904  0.55494211  0.94987145
   0.88568534  0.44252944  0.05425087
   0.77499834  0.88527762  0.94586707
   0.89432658  0.78181468  0.04875470
unknown system                          
           1
     8.364060    4.835018    0.000000
    -8.333119    4.781549    0.000000
     0.000000    0.000000   30.000000
   V    Mo   W    S 
   3   3   3  18
Direct configuration=    24
   0.69405498  0.34248474 -0.00034058
   0.69103507  0.68336497  0.00013557
   0.33410181 -0.02904919  0.00015228
   1.00524409  0.33666255  0.00004722
   0.30170436  0.64949588  0.00001800
   0.01164077  0.64967568  0.00004519
  -0.01576508  0.01782943 -0.00038475
   0.30468432  0.33852240 -0.00036366
   0.68883456  0.01087468  0.00068165
   0.10579747  0.22143290  0.94360398
   0.22141597  0.10858373  0.04751737
   0.10631818  0.54857697  0.94311984
   0.21752558  0.44591645  0.05667542
   0.11179549  0.89252033  0.95416731
   0.22296753  0.77858183  0.05499425
   0.44384682  0.22087464  0.95805850
   0.55472117  0.11358878  0.04859676
   0.44708584  0.55907474  0.95079658
   0.55638224  0.44599439  0.04413362
   0.44479481  0.88465561  0.94997154