unknown system                          
           1
     8.857997    5.101562    0.000000
    -8.859655    5.104414    0.000000
     0.000000    0.000000   30.000000
   V    Mo   W    S 
   3   3   3  18
Direct configuration=     1
   0.00000000  0.66666669  0.00000000
   1.00000000  0.33333334  0.00000000
   0.33333334  0.00000000  0.00000000
   0.00000000  0.00000000  0.00000000
   0.33333334  0.66666669  0.00000000
   0.33333334  0.33333334  0.00000000
   0.66666669  0.00000000  0.00000000
   0.66666669  0.33333334  0.00000000
   0.66666669  0.66666669  0.00000000
   0.11068511  0.22244981  0.95539999
   0.22244981  0.11068511  0.04460000
   0.11068511  0.55578315  0.95539999
   0.22244981  0.44401845  0.04460000
   0.11068511  0.88911647  0.95539999
   0.22244981  0.77735180  0.04460000
   0.44401845  0.22244981  0.95539999
   0.55578315  0.11068511  0.04460000
   0.44401845  0.55578315  0.95539999
   0.55578315  0.44401845  0.04460000
   0.44401845  0.88911647  0.95539999
   0.55578315  0.77735180  0.04460000
   0.77735180  0.22244981  0.95539999
   0.88911647  0.11068511  0.04460000
   0.77735180  0.55578315  0.95539999
   0.88911647  0.44401845  0.04460000
   0.77735180  0.88911647  0.95539999
   0.88911647  0.77735180  0.04460000
unknown system                          
           1
     8.668760    4.994916    0.000000
    -8.670550    4.998000    0.000000
     0.000000    0.000000   30.000000
   V    Mo   W    S 
   3   3   3  18
Direct configuration=     2
   0.00154899  0.66771572  0.00001287
   1.00234894  0.33368980  0.00014696
   0.33177825 -0.00031500 -0.00016461
   0.00138689  0.00128226  0.00000014
   0.33307722  0.66533811 -0.00001621
   0.33191560  0.33330807 -0.00015752
   0.66662474 -0.00139192  0.00016736
   0.66554443  0.33341478  0.00004221
   0.66528598  0.66668833  0.00003907
   0.10873137  0.22453982  0.95196203
   0.22449418  0.10859398  0.04798795
   0.10662774  0.55351973  0.95312335
   0.21746818  0.44212570  0.04811053
   0.11334603  0.88669747  0.95300307
   0.21993696  0.77980892  0.04694206
   0.44304653  0.21800702  0.95189787
   0.55183602  0.10925543  0.04805424
   0.44534484  0.55584934  0.95071739
   0.55640070  0.44493045  0.04924140
   0.44280358  0.89175945  0.95202192
   0.55640248  0.77825961  0.04934942
   0.78140391  0.22394022  0.95198345
   0.89004716  0.11516131  0.04809633
   0.78136031  0.55722865  0.95191157
   0.89229527  0.44577477  0.04687251
   0.77695112  0.88823613  0.95071917
   0.89020704  0.77479633  0.04793538
unknown system                          
           1
     8.487347    4.898340    0.000000
    -8.487289    4.898222    0.000000
     0.000000    0.000000   30.000000
   V    Mo   W    S 
   3   3   3  18
Direct configuration=     3
   0.00191682  0.66799907  0.00005469
   1.00305486  0.33373523  0.00015701
   0.33137655 -0.00028927 -0.00017849
   0.00160867  0.00173089  0.00004130
   0.33361983  0.66499433 -0.00005536
   0.33176172  0.33350428 -0.00016997
   0.66662111 -0.00212102  0.00012709
   0.66507851  0.33350500  0.00003445
   0.66460981  0.66675022  0.00004227
   0.10867489  0.22461803  0.95186385
   0.22455233  0.10854421  0.04801827
   0.10655132  0.55344709  0.95316258
   0.21728118  0.44201261  0.04820390
   0.11341580  0.88668280  0.95299176
   0.21989100  0.77981935  0.04688386
   0.44318170  0.21800490  0.95188532
   0.55196081  0.10928478  0.04797632
   0.44556070  0.55594376  0.95061212
   0.55660461  0.44502141  0.04924686
   0.44300337  0.89191078  0.95207222
   0.55664228  0.77835336  0.04943729
   0.78126676  0.22390717  0.95213904
   0.88990870  0.11519773  0.04810519
   0.78120972  0.55717609  0.95199401
   0.89211271  0.44569961  0.04676468
   0.77671804  0.88813785  0.95072196
   0.89003065  0.77464421  0.04786769
unknown system                          
           1
     8.278933    4.773007    0.000000
    -8.278391    4.772049    0.000000
     0.000000    0.000000   30.000000
   V    Mo   W    S 
   3   3   3  18
Direct configuration=     4
   0.00274122  0.66884841  0.00020903
   1.00535558  0.33351577  0.00013272
   0.33037274  0.00033243 -0.00015372
   0.00186644  0.00324992  0.00018438
   0.33679048  0.66407106 -0.00016524
   0.33189726  0.33457438 -0.00015190
   0.66651099 -0.00538802 -0.00006746
   0.66309995  0.33390171 -0.00000968
   0.66169179  0.66704845  0.00004823
   0.10807454  0.22528200  0.95004537
   0.22522855  0.10807460  0.04954302
   0.10556244  0.55284810  0.95201368
   0.21595962  0.44128933  0.05001349
   0.11397223  0.88624210  0.95162289
   0.21949041  0.78020997  0.04793462
   0.44235700  0.21681968  0.95034854
   0.55090716  0.10855063  0.04912422
   0.44557941  0.55582109  0.94855402
   0.55650129  0.44502357  0.05090759
   0.44254084  0.89240285  0.95082555
   0.55667650  0.77827733  0.05148996
   0.78218849  0.22449351  0.95130416
   0.89050704  0.11648076  0.04961864
   0.78215763  0.55784914  0.95084034
   0.89298496  0.44619113  0.04768359
   0.77674785  0.88811335  0.94909478
   0.89045203  0.77409122  0.04900907
unknown system                          
           1
     8.291063    4.775480    0.000000
    -8.288687    4.771340    0.000000
     0.000000    0.000000   30.000000
   V    Mo   W    S 
   3   3   3  18
Direct configuration=     5
   0.00398295  0.66994746  0.00041624
   1.00967488  0.33307396 -0.00006594
   0.32879924  0.00248341  0.00004071
   0.00240446  0.00638119  0.00032608
   0.34377774  0.66265635 -0.00020822
   0.33287791  0.33684366 -0.00005232
   0.66599051 -0.01296958 -0.00029035
   0.65906196  0.33531828 -0.00012967
   0.65527893  0.66749159  0.00001655
   0.10786387  0.22605459  0.94758973
   0.22565699  0.10800963  0.05158863
   0.10561321  0.55252061  0.95051950
   0.21519389  0.44092726  0.05251971
   0.11428901  0.88609967  0.94963186
   0.21974669  0.78020033  0.04926972
   0.44062547  0.21555020  0.94813578
   0.54970885  0.10747379  0.05032732
   0.44520567  0.55506493  0.94545548
   0.55567560  0.44516254  0.05319032
   0.44170044  0.89209236  0.94923448
   0.55617161  0.77793414  0.05461908
   0.78300838  0.22486653  0.95065714
   0.89102513  0.11782578  0.05170739
   0.78296531  0.55891034  0.94944447
   0.89378445  0.44653650  0.04886546
   0.77758353  0.88787634  0.94684186
   0.89054777  0.77388260  0.05034890
unknown system                          
           1
     8.290771    4.775170    0.000000
    -8.288411    4.771060    0.000000
     0.000000    0.000000   30.000000
   V    Mo   W    S 
   3   3   3  18
Direct configuration=     6
   0.00446333  0.66985805  0.00049393
   1.01130028  0.33323158 -0.00007828
   0.32804056  0.00380705  0.00005831
   0.00284099  0.00732066  0.00028704
   0.34492510  0.66248526 -0.00018271
   0.33330606  0.33684377 -0.00010755
   0.66581470 -0.01534754 -0.00021227
   0.65764811  0.33665464 -0.00019314
   0.65390803  0.66707729 -0.00007639
   0.10831108  0.22616653  0.94745173
   0.22536530  0.10847707  0.05171552
   0.10675690  0.55289702  0.95056984
   0.21590392  0.44133288  0.05265588
   0.11414435  0.88647251  0.94962385
   0.22052974  0.77995764  0.04910957
   0.44010574  0.21567655  0.94796651
   0.55004207  0.10733535  0.05001925
   0.44500913  0.55455755  0.94508679
   0.55543377  0.44559655  0.05344398
   0.44167933  0.89133973  0.94938855
   0.55608500  0.77777374  0.05510575
   0.78229137  0.22419126  0.95115523
   0.89066906  0.11758118  0.05174873
   0.78240587  0.55929850  0.94950612
   0.89344794  0.44616268  0.04868696
   0.77797051  0.88733386  0.94665093
   0.88981622  0.77413313  0.05012577
unknown system                          
           1
     8.294424    4.786872    0.000000
    -8.294447    4.786890    0.000000
     0.000000    0.000000   30.000000
   V    Mo   W    S 
   3   3   3  18
Direct configuration=     7
   0.00451908  0.66984725  0.00050601
   1.01146228  0.33326084 -0.00007856
   0.32796571  0.00391610  0.00006112
   0.00288289  0.00741703  0.00028681
   0.34503510  0.66245052 -0.00018234
   0.33333713  0.33683929 -0.00010881
   0.66580941 -0.01557573 -0.00021228
   0.65751860  0.33679298 -0.00019648
   0.65376682  0.66703844 -0.00007793
   0.10833354  0.22618019  0.94743363
   0.22534885  0.10850035  0.05173101
   0.10681171  0.55291155  0.95056965
   0.21593591  0.44134313  0.05267185
   0.11414038  0.88649198  0.94961933
   0.22057461  0.77995442  0.04909830
   0.44007179  0.21567682  0.94794474
   0.55006204  0.10733197  0.04999405
   0.44499030  0.55452344  0.94505745
   0.55541396  0.44561943  0.05346897
   0.44167949  0.89130737  0.94940019
   0.55608212  0.77775195  0.05514148
   0.78224250  0.22415574  0.95119882
   0.89065445  0.11757606  0.05175483
   0.78238235  0.55932472  0.94950277
   0.89342449  0.44613517  0.04867150
   0.77799099  0.88730096  0.94663642
   0.88977795  0.77414249  0.05010737
unknown system                          
           1
     8.288172    4.784246    0.000000
    -8.287855    4.783674    0.000000
     0.000000    0.000000   30.000000
   V    Mo   W    S 
   3   3   3  18
Direct configuration=     8
   0.00282504  0.67002633  0.00016547
   1.00761598  0.33189855 -0.00007687
   0.33062632  0.00138140  0.00001675
   0.00162602  0.00562676  0.00034257
   0.34250590  0.66290431 -0.00017982
   0.33185755  0.33727800 -0.00001757
   0.66595225 -0.00999308 -0.00027613
   0.66067896  0.33263180  0.00000084
   0.65680843  0.66841078 -0.00000103
   0.10799531  0.22634622  0.94784224
   0.22609706  0.10834315  0.05133908
   0.10577606  0.55240376  0.95066435
   0.21520287  0.44112129  0.05223825
   0.11452688  0.88631431  0.94966776
   0.21986243  0.77991864  0.04935630
   0.44077524  0.21564823  0.94856488
   0.54917565  0.10707152  0.05064187
   0.44538685  0.55526934  0.94555463
   0.55593552  0.44485412  0.05275261
   0.44179985  0.89203370  0.94914513
   0.55614928  0.77848668  0.05446236
   0.78366374  0.22492939  0.95003995
   0.89089257  0.11788725  0.05166021
   0.78259026  0.55839868  0.94959640
   0.89406084  0.44665622  0.04899470
   0.77728391  0.88834838  0.94684675
   0.89054368  0.77401872  0.05065824
unknown system                          
           1
     8.275794    4.773383    0.000000
    -8.272973    4.768474    0.000000
     0.000000    0.000000   30.000000
   V    Mo   W    S 
   3   3   3  18
Direct configuration=     9
   0.00208882  0.67030896  0.00002716
   1.00586585  0.33127980 -0.00006810
   0.33159615  0.00021321 -0.00000432
   0.00101937  0.00464435  0.00035083
   0.34185016  0.66321493 -0.00017864
   0.33142931  0.33769548 -0.00000537
   0.66593248 -0.00768028 -0.00027231
   0.66206877  0.33065947  0.00004895
   0.65804089  0.66914408  0.00001652
   0.10785061  0.22626522  0.94797125
   0.22628179  0.10824472  0.05116928
   0.10543744  0.55230198  0.95068854
   0.21492490  0.44110373  0.05212377
   0.11460134  0.88625623  0.94969451
   0.21948182  0.77982478  0.04946364
   0.44103978  0.21565874  0.94880414
   0.54888921  0.10694436  0.05097808
   0.44560946  0.55559515  0.94576143
   0.55616763  0.44466527  0.05245518
   0.44181414  0.89221679  0.94898222
   0.55619110  0.77878692  0.05417933
   0.78419355  0.22519233  0.94952302
   0.89097392  0.11794880  0.05165525
   0.78263116  0.55806779  0.94966456
   0.89432529  0.44691593  0.04915646
   0.77708491  0.88872443  0.94694064
   0.89082460  0.77402131  0.05087386
unknown system                          
           1
     8.278503    4.772180    0.000000
    -8.275034    4.766150    0.000000
     0.000000    0.000000   30.000000
   V    Mo   W    S 
   3   3   3  18
Direct configuration=    10
   0.00120082  0.67167524 -0.00007983
   1.00405573  0.33003078 -0.00003633
   0.33236113 -0.00111294  0.00004095
  -0.00014622  0.00299152  0.00036700
   0.34327883  0.66336126 -0.00018068
   0.33106538  0.33969350  0.00000660
   0.66562814 -0.00539060 -0.00016007
   0.66368176  0.32674724  0.00005170
   0.65844097  0.67097910  0.00005085
   0.10786531  0.22593966  0.94788381
   0.22612873  0.10841723  0.05092677
   0.10596186  0.55274265  0.95079182
   0.21491093  0.44156042  0.05225792
   0.11447502  0.88658383  0.94964087
   0.21922933  0.77928159  0.04951993
   0.44100228  0.21569145  0.94899187
   0.54869128  0.10635511  0.05159096
   0.44600024  0.55585974  0.94564022
   0.55666171  0.44500295  0.05204378
   0.44179376  0.89174715  0.94859217
   0.55635995  0.77912943  0.05423463
   0.78442230  0.22498029  0.94884481
   0.89081296  0.11771162  0.05184866
   0.78200348  0.55787191  0.94986744
   0.89454678  0.44708930  0.04934751
   0.77719577  0.88899700  0.94682639
   0.89058620  0.77427802  0.05109013
unknown system                          
           1
     8.278129    4.766058    0.000000
    -8.272681    4.756603    0.000000
     0.000000    0.000000   30.000000
   V    Mo   W    S 
   3   3   3  18
Direct configuration=    11
   0.00152096  0.67255643 -0.00003297
   1.00510975  0.32977517 -0.00005886
   0.33180593 -0.00040785  0.00007301
  -0.00019548  0.00319656  0.00034675
   0.34526832  0.66285703 -0.00019887
   0.33108259  0.34085353 -0.00000920
   0.66535617 -0.00677131 -0.00017964
   0.66309509  0.32570672 -0.00000730
   0.65696554  0.67171041 -0.00003276
   0.10805085  0.22593854  0.94769822
   0.22594740  0.10883380  0.05095314
   0.10677152  0.55316594  0.95095296
   0.21520468  0.44188465  0.05251530
   0.11439819  0.88694057  0.94954898
   0.21961393  0.77901538  0.04938266
   0.44059759  0.21569392  0.94890138
   0.54873810  0.10602245  0.05162808
   0.44609598  0.55560735  0.94518078
   0.55680309  0.44531621  0.05203552
   0.44180127  0.89121122  0.94861681
   0.55647974  0.77916550  0.05477927
   0.78404780  0.22444533  0.94899601
   0.89063777  0.11748234  0.05199613
   0.78134592  0.55793571  0.95003021
   0.89434726  0.44682345  0.04921420
   0.77736253  0.88885953  0.94662284
   0.88996197  0.77439588  0.05104723
unknown system                          
           1
     8.286516    4.771502    0.000000
    -8.281523    4.762836    0.000000
     0.000000    0.000000   30.000000
   V    Mo   W    S 
   3   3   3  18
Direct configuration=    12
   0.00218602  0.67459103  0.00005039
   1.00741970  0.32962240 -0.00001611
   0.33020331  0.00115232  0.00013947
  -0.00002628  0.00349483  0.00036904
   0.34881464  0.66185447 -0.00008601
   0.33122858  0.34283880 -0.00005325
   0.66478597 -0.01001139 -0.00006239
   0.66189962  0.32355446 -0.00004037
   0.65422211  0.67329839 -0.00012547
   0.10838622  0.22605486  0.94740747
   0.22578084  0.10980692  0.05098208
   0.10819358  0.55388794  0.95136410
   0.21579630  0.44244486  0.05289444
   0.11428122  0.88749356  0.94939924
   0.22036183  0.77856944  0.04898717
   0.43979245  0.21570339  0.94879432
   0.54857602  0.10531955  0.05156752
   0.44630894  0.55507933  0.94437727
   0.55705300  0.44589338  0.05183552
   0.44165363  0.89021678  0.94881497
   0.55663463  0.77919193  0.05560078
   0.78363532  0.22349017  0.94927394
   0.89040411  0.11715245  0.05210534
   0.78022006  0.55798364  0.95046710
   0.89403180  0.44635454  0.04882387
   0.77759971  0.88864766  0.94626498
   0.88877113  0.77452875  0.05086447
unknown system                          
           1
     8.289229    4.770596    0.000000
    -8.283592    4.760817    0.000000
     0.000000    0.000000   30.000000
   V    Mo   W    S 
   3   3   3  18
Direct configuration=    13
   0.00210025  0.67430001  0.00002893
   1.00715170  0.32976152 -0.00003223
   0.33026672  0.00103018  0.00011489
   0.00004252  0.00347154  0.00034253
   0.34791175  0.66196471 -0.00012340
   0.33115960  0.34228084 -0.00007999
   0.66498716 -0.00946087 -0.00011860
   0.66211355  0.32388908 -0.00005171
   0.65487194  0.67301559 -0.00015818
   0.10831013  0.22606049  0.94746788
   0.22584424  0.10967020  0.05102152
   0.10790912  0.55373389  0.95130644
   0.21567905  0.44229925  0.05284596
   0.11430211  0.88738589  0.94940148
   0.22024121  0.77868339  0.04905244
   0.43993828  0.21569194  0.94879607
   0.54849394  0.10536990  0.05157923
   0.44629012  0.55518477  0.94454195
   0.55703487  0.44581142  0.05187103
   0.44163686  0.89040086  0.94883342
   0.55656888  0.77916222  0.05549408
   0.78376683  0.22364907  0.94925011
   0.89048064  0.11725323  0.05208436
   0.78045090  0.55797961  0.95040461
   0.89412755  0.44646074  0.04888239
   0.77755942  0.88869601  0.94633888
   0.88897510  0.77446899  0.05090580
unknown system                          
           1
     8.291471    4.770945    0.000000
    -8.285792    4.761095    0.000000
     0.000000    0.000000   30.000000
   V    Mo   W    S 
   3   3   3  18
Direct configuration=    14
   0.00243484  0.67531771  0.00006265
   1.00825960  0.32990660 -0.00000634
   0.32924851  0.00195319  0.00013112
   0.00031252  0.00354211  0.00033820
   0.34904323  0.66142382 -0.00008051
   0.33115385  0.34277821 -0.00012331
   0.66483552 -0.01078750 -0.00008377
   0.66160763  0.32274248 -0.00006053
   0.65396832  0.67378556 -0.00022051
   0.10842597  0.22612725  0.94737771
   0.22581122  0.11009706  0.05107069
   0.10841786  0.55399964  0.95150195
   0.21593327  0.44244026  0.05298666
   0.11424940  0.88760978  0.94931473
   0.22053566  0.77858274  0.04885970
   0.43965630  0.21568185  0.94874869
   0.54826263  0.10497935  0.05152174
   0.44640179  0.55501624  0.94428579
   0.55720157  0.44606518  0.05172484
   0.44151968  0.89004336  0.94902239
   0.55658840  0.77910881  0.05579259
   0.78368760  0.22324714  0.94939084
   0.89042589  0.11714093  0.05208794
   0.78002363  0.55795486  0.95062439
   0.89403125  0.44630621  0.04868551
   0.77767331  0.88865598  0.94622473
   0.88850501  0.77449563  0.05082201
unknown system                          
           1
     8.273258    4.768190    0.000000
    -8.268192    4.759389    0.000000
     0.000000    0.000000   30.000000
   V    Mo   W    S 
   3   3   3  18
Direct configuration=    15
   0.00255153  0.67565747  0.00007498
   1.00862843  0.33000868  0.00000625
   0.32884571  0.00229556  0.00013260
   0.00044502  0.00354351  0.00033570
   0.34925105  0.66121155 -0.00006126
   0.33111217  0.34282557 -0.00013859
   0.66483262 -0.01113054 -0.00007152
   0.66147318  0.32234862 -0.00005874
   0.65379151  0.67403361 -0.00024047
   0.10845278  0.22615142  0.94735684
   0.22579841  0.11021648  0.05110189
   0.10853161  0.55406292  0.95155795
   0.21600706  0.44245233  0.05302185
   0.11422976  0.88767357  0.94927787
   0.22061158  0.77858016  0.04879820
   0.43960065  0.21567939  0.94872829
   0.54815277  0.10484003  0.05150116
   0.44643559  0.55497259  0.94423041
   0.55727059  0.44613416  0.05166588
   0.44146472  0.88995858  0.94910068
   0.55657231  0.77907504  0.05586140
   0.78369345  0.22314005  0.94943084
   0.89042118  0.11711608  0.05207809
   0.77991359  0.55792630  0.95069371
   0.89401350  0.44627438  0.04862150
   0.77772308  0.88866421  0.94619483
   0.88839057  0.77450273  0.05079956
unknown system                          
           1
     8.302566    4.773641    0.000000
    -8.296596    4.763293    0.000000
     0.000000    0.000000   30.000000
   V    Mo   W    S 
   3   3   3  18
Direct configuration=    16
   0.00215012  0.67391843  0.00001750
   1.00665166  0.32931652 -0.00003357
   0.33131087  0.00085395  0.00016933
  -0.00001973  0.00383179  0.00036670
   0.34867794  0.66246706 -0.00011508
   0.33160209  0.34280026 -0.00003670
   0.66454748 -0.00967754 -0.00008589
   0.66164050  0.32391322 -0.00008272
   0.65418479  0.67275793 -0.00013536
   0.10834278  0.22609995  0.94741375
   0.22598943  0.10968367  0.05086308
   0.10817977  0.55378871  0.95132508
   0.21564509  0.44251052  0.05286125
   0.11448662  0.88748280  0.94948331
   0.22040911  0.77862502  0.04905698
   0.43965962  0.21551634  0.94885925
   0.54863293  0.10547955  0.05155898
   0.44628306  0.55515211  0.94432966
   0.55685979  0.44581808  0.05198492
   0.44166668  0.89029825  0.94868322
   0.55670633  0.77931218  0.05566968
   0.78359524  0.22356844  0.94928954
   0.89044500  0.11727421  0.05213596
   0.78030616  0.55809130  0.95035981
   0.89405896  0.44626787  0.04889656
   0.77743966  0.88857557  0.94626979
   0.88876251  0.77448826  0.05089487
unknown system                          
           1
     8.301483    4.772516    0.000000
    -8.295542    4.762219    0.000000
     0.000000    0.000000   30.000000
   V    Mo   W    S 
   3   3   3  18
Direct configuration=    17
   0.00287078  0.67673500  0.00010763
   1.00980898  0.33029196  0.00003335
   0.32756195  0.00327342  0.00013020
   0.00076738  0.00352077  0.00031946
   0.34991930  0.66052910 -0.00001548
   0.33094003  0.34305269 -0.00019768
   0.66486692 -0.01219391 -0.00005217
   0.66114870  0.32117077 -0.00006293
   0.65325445  0.67481865 -0.00032104
   0.10853891  0.22622006  0.94728546
   0.22574051  0.11060822  0.05121339
   0.10890274  0.55427358  0.95173238
   0.21623249  0.44250541  0.05315472
   0.11414413  0.88786243  0.94915530
   0.22084279  0.77853012  0.04861986
   0.43942412  0.21570025  0.94865609
   0.54783068  0.10440117  0.05146903
   0.44654924  0.55482317  0.94404573
   0.55749357  0.44636058  0.05149681
   0.44130806  0.88966485  0.94932549
   0.55652241  0.77898500  0.05610916
   0.78371041  0.22280118  0.94954085
   0.89040041  0.11703557  0.05206965
   0.77956477  0.55785305  0.95090937
   0.89396864  0.44618960  0.04843623
   0.77787665  0.88868378  0.94609621
   0.88802544  0.77451800  0.05074284
unknown system                          
           1
     8.303041    4.771609    0.000000
    -8.297290    4.761646    0.000000
     0.000000    0.000000   30.000000
   V    Mo   W    S 
   3   3   3  18
Direct configuration=    18
   0.00302377  0.67710746  0.00011679
   1.01014501  0.33035043  0.00005007
   0.32726376  0.00362891  0.00013039
   0.00090313  0.00355083  0.00031449
   0.35014510  0.66035410  0.00000931
   0.33094524  0.34315393 -0.00021604
   0.66484572 -0.01252252 -0.00004047
   0.66094463  0.32064588 -0.00006598
   0.65303990  0.67503843 -0.00034904
   0.10856397  0.22625524  0.94726357
   0.22574159  0.11073012  0.05123009
   0.10903261  0.55432997  0.95179903
   0.21629869  0.44253767  0.05318982
   0.11414979  0.88794251  0.94912909
   0.22095269  0.77854817  0.04855033
   0.43934720  0.21567454  0.94864905
   0.54769346  0.10425035  0.05145437
   0.44659697  0.55478064  0.94398104
   0.55757519  0.44643802  0.05142968
   0.44124051  0.88957984  0.94940367
   0.55651996  0.77896658  0.05618988
   0.78371260  0.22269269  0.94958260
   0.89038462  0.11702491  0.05205919
   0.77941676  0.55781318  0.95099292
   0.89393796  0.44613069  0.04836303
   0.77791149  0.88868773  0.94606797
   0.88788211  0.77452415  0.05071505
unknown system                          
           1
     8.301390    4.770737    0.000000
    -8.295643    4.760783    0.000000
     0.000000    0.000000   30.000000
   V    Mo   W    S 
   3   3   3  18
Direct configuration=    19
   0.00319747  0.67780356  0.00013977
   1.01086230  0.33062889  0.00006512
   0.32630651  0.00430392  0.00012847
   0.00116224  0.00342824  0.00031549
   0.35034482  0.65984696  0.00003439
   0.33074092  0.34308265 -0.00024198
   0.66494611 -0.01302598 -0.00002753
   0.66083159  0.31989195 -0.00004857
   0.65291592  0.67558143 -0.00038140
   0.10859702  0.22626492  0.94724245
   0.22566895  0.11089672  0.05130422
   0.10915450  0.55443054  0.95188779
   0.21643147  0.44250552  0.05325208
   0.11405727  0.88802990  0.94904780
   0.22104031  0.77856378  0.04843668
   0.43934587  0.21572652  0.94862599
   0.54749043  0.10400230  0.05139455
   0.44666983  0.55471529  0.94393670
   0.55772075  0.44653107  0.05128970
   0.44114399  0.88947063  0.94958331
   0.55646008  0.77887058  0.05625770
   0.78376120  0.22255469  0.94964297
   0.89038634  0.11696351  0.05202356
   0.77926608  0.55774663  0.95111449
   0.89394445  0.44612690  0.04825619
   0.77802364  0.88873254  0.94602964
   0.88774442  0.77454081  0.05069031
unknown system                          
           1
     8.292970    4.764928    0.000000
    -8.285461    4.751925    0.000000
     0.000000    0.000000   30.000000
   V    Mo   W    S 
   3   3   3  18
Direct configuration=    20
   0.00326205  0.67761336  0.00013690
   1.01081170  0.33039883  0.00007345
   0.32674730  0.00438726  0.00013330
   0.00114846  0.00377804  0.00031303
   0.35044490  0.65992299  0.00003717
   0.33078373  0.34322539 -0.00023626
   0.66486910 -0.01302173 -0.00002172
   0.66064330  0.31973955 -0.00006228
   0.65270525  0.67549499 -0.00038128
   0.10859932  0.22633067  0.94723304
   0.22571810  0.11094665  0.05127127
   0.10925149  0.55437416  0.95190971
   0.21639995  0.44253841  0.05324273
   0.11416379  0.88815573  0.94905962
   0.22117661  0.77859713  0.04844699
   0.43923022  0.21564150  0.94861139
   0.54744816  0.10397167  0.05143005
   0.44665372  0.55472725  0.94388748
   0.55773790  0.44656640  0.05129969
   0.44113950  0.88941722  0.94956036
   0.55650636  0.77890363  0.05630227
   0.78375223  0.22250670  0.94965858
   0.89039877  0.11701033  0.05203603
   0.77911660  0.55769153  0.95112996
   0.89387168  0.44599566  0.04823367
   0.77799079  0.88871650  0.94602235
   0.88764347  0.77458464  0.05067240
unknown system                          
           1
     8.310194    4.772946    0.000000
    -8.304408    4.762923    0.000000
     0.000000    0.000000   30.000000
   V    Mo   W    S 
   3   3   3  18
Direct configuration=    21
   0.00400697  0.67757912  0.00014004
   1.01150439  0.32949541  0.00018445
   0.32797626  0.00605734  0.00011687
   0.00141189  0.00551038  0.00024409
   0.35122454  0.65973920  0.00012901
   0.33083283  0.34362129 -0.00029156
   0.66459656 -0.01358089  0.00003409
   0.65919086  0.31743265 -0.00016401
   0.65146517  0.67582737 -0.00046742
   0.10873435  0.22664848  0.94698127
   0.22588563  0.11155096  0.05132821
   0.10976683  0.55423468  0.95201056
   0.21649643  0.44268562  0.05343264
   0.11446275  0.88884576  0.94903993
   0.22194485  0.77881390  0.04839994
   0.43877209  0.21549856  0.94841171
   0.54697818  0.10341456  0.05165900
   0.44660526  0.55464321  0.94356729
   0.55807653  0.44679110  0.05116884
   0.44089673  0.88901511  0.94965237
   0.55655558  0.77894846  0.05665793
   0.78374150  0.22213002  0.94971429
   0.89035313  0.11713680  0.05218925
   0.77817083  0.55722766  0.95138534
   0.89342358  0.44528635  0.04804066
   0.77802807  0.88875238  0.94592373
   0.88711267  0.77490898  0.05051136
unknown system                          
           1
     8.319535    4.774518    0.000000
    -8.314631    4.766033    0.000000
     0.000000    0.000000   30.000000
   V    Mo   W    S 
   3   3   3  18
Direct configuration=    22
   0.00318586  0.67867683  0.00016077
   1.01167839  0.33115443  0.00006157
   0.32502922  0.00493355  0.00011110
   0.00139249  0.00295542  0.00030851
   0.35051992  0.65924283  0.00006336
   0.33059081  0.34315759 -0.00028991
   0.66506813 -0.01364714 -0.00003412
   0.66095389  0.31922594 -0.00001243
   0.65289125  0.67613422 -0.00043724
   0.10860588  0.22621805  0.94726190
   0.22557554  0.11105938  0.05143057
   0.10929475  0.55461246  0.95200928
   0.21655942  0.44247349  0.05332365
   0.11392873  0.88806718  0.94889602
   0.22111097  0.77857549  0.04827620
   0.43933233  0.21573014  0.94864031
   0.54717158  0.10368818  0.05129859
   0.44680424  0.55459165  0.94388637
   0.55789239  0.44666767  0.05114007
   0.44100290  0.88937405  0.94981070
   0.55636625  0.77875593  0.05634851
   0.78386034  0.22241239  0.94970502
   0.89040850  0.11690760  0.05195241
   0.77918688  0.55772404  0.95123917
   0.89406025  0.44628274  0.04814170
   0.77819099  0.88877926  0.94596773
   0.88755257  0.77446110  0.05074007
unknown system                          
           1
     8.326255    4.775639    0.000000
    -8.321704    4.767776    0.000000
     0.000000    0.000000   30.000000
   V    Mo   W    S 
   3   3   3  18
Direct configuration=    23
   0.00319238  0.68009861  0.00019343
   1.01299140  0.33195803  0.00007309
   0.32299895  0.00597673  0.00009422
   0.00176438  0.00227293  0.00032775
   0.35059634  0.65822922  0.00012937
   0.33018751  0.34303277 -0.00031783
   0.66539584 -0.01447661 -0.00002586
   0.66115789  0.31804161  0.00005376
   0.65305069  0.67705697 -0.00049184
   0.10862606  0.22615512  0.94725528
   0.22537499  0.11129500  0.05161093
   0.10945852  0.55484682  0.95216053
   0.21677058  0.44237125  0.05344191
   0.11372326  0.88819415  0.94867263
   0.22126225  0.77868579  0.04802791
   0.43937849  0.21581421  0.94862639
   0.54662689  0.10312520  0.05117995
   0.44700248  0.55444209  0.94382001
   0.55821323  0.44682643  0.05086800
   0.44072775  0.88927469  0.95017350
   0.55621959  0.77855029  0.05644376
   0.78406451  0.22222689  0.94976496
   0.89042106  0.11681572  0.05184790
   0.77900744  0.55759233  0.95143022
   0.89421096  0.44647389  0.04797966
   0.77847525  0.88891421  0.94586223
   0.88731578  0.77442012  0.05079802
unknown system                          
           1
     8.310907    4.771904    0.000000
    -8.304922    4.761558    0.000000
     0.000000    0.000000   30.000000
   V    Mo   W    S 
   3   3   3  18
Direct configuration=    24
   0.00342841  0.68091299  0.00020353
   1.01392876  0.33218061  0.00010822
   0.32227135  0.00691463  0.00006295
   0.00197159  0.00237784  0.00031268
   0.35069858  0.65761157  0.00018231
   0.32988555  0.34299898 -0.00036120
   0.66554706 -0.01496902 -0.00001060
   0.66094455  0.31671942  0.00006543
   0.65292036  0.67763276 -0.00055956
   0.10868495  0.22623000  0.94718043
   0.22526492  0.11157682  0.05173737
   0.10962068  0.55489459  0.95225982
   0.21689594  0.44232125  0.05356786
   0.11366383  0.88844477  0.94856507
   0.22151217  0.77884943  0.04788160
   0.43931223  0.21585932  0.94855649
   0.54617035  0.10263522  0.05120284
   0.44708577  0.55435367  0.94374039
   0.55851460  0.44693963  0.05067085
   0.44048596  0.88914971  0.95040361