unknown system                          
           1
     8.855782    5.105621    0.000000
    -8.855540    5.105204    0.000000
     0.000000    0.000000   30.000000
   V    Mo   W    S 
   3   3   3  18
Direct configuration=     1
   0.66666669  0.33333334  0.00000000
   0.00000000  0.00000000  0.00000000
   0.33333334  0.66666669  0.00000000
   0.33333334  0.00000000  0.00000000
   0.00000000  0.66666669  0.00000000
   0.66666669  0.00000000  0.00000000
   1.00000000  0.33333334  0.00000000
   0.33333334  0.33333334  0.00000000
   0.66666669  0.66666669  0.00000000
   0.11068511  0.22244981  0.95539999
   0.22244981  0.11068511  0.04460000
   0.11068511  0.55578315  0.95539999
   0.22244981  0.44401845  0.04460000
   0.11068511  0.88911647  0.95539999
   0.22244981  0.77735180  0.04460000
   0.44401845  0.22244981  0.95539999
   0.55578315  0.11068511  0.04460000
   0.44401845  0.55578315  0.95539999
   0.55578315  0.44401845  0.04460000
   0.44401845  0.88911647  0.95539999
   0.55578315  0.77735180  0.04460000
   0.77735180  0.22244981  0.95539999
   0.88911647  0.11068511  0.04460000
   0.77735180  0.55578315  0.95539999
   0.88911647  0.44401845  0.04460000
   0.77735180  0.88911647  0.95539999
   0.88911647  0.77735180  0.04460000
unknown system                          
           1
     8.668360    4.999746    0.000000
    -8.668145    4.999376    0.000000
     0.000000    0.000000   30.000000
   V    Mo   W    S 
   3   3   3  18
Direct configuration=     2
   0.66664415  0.33210741 -0.00000813
   0.00005188 -0.00118493  0.00000495
   0.33323938  0.66902113  0.00000300
   0.33338895 -0.00140744 -0.00000161
   0.00136881  0.66802952 -0.00006324
   0.66525143  0.00006782  0.00006680
   0.99840660  0.33336877  0.00004814
   0.33337857  0.33177063 -0.00000368
   0.66819897  0.66817938 -0.00004635
   0.10917890  0.21824647  0.95190797
   0.21794715  0.10972990  0.04807048
   0.11519776  0.55678105  0.95192435
   0.22401520  0.44822320  0.04805385
   0.10855045  0.89123934  0.95198718
   0.22457980  0.77521553  0.04806506
   0.44853202  0.22492020  0.95191467
   0.55773528  0.11557855  0.04808360
   0.44225174  0.55751739  0.95202322
   0.55751983  0.44226143  0.04802307
   0.44209518  0.88419998  0.95187256
   0.55124955  0.77491219  0.04807387
   0.77616626  0.22508727  0.95194424
   0.89178086  0.10951991  0.04795779
   0.77492039  0.55127498  0.95196788
   0.88463391  0.44161702  0.04809211
   0.78181038  0.89009914  0.95191826
   0.89012105  0.78183861  0.04811985
unknown system                          
           1
     8.487115    4.899822    0.000000
    -8.487153    4.899892    0.000000
     0.000000    0.000000   30.000000
   V    Mo   W    S 
   3   3   3  18
Direct configuration=     3
   0.66663946  0.33172799 -0.00000389
   0.00005614 -0.00156195 -0.00000007
   0.33323978  0.66977174  0.00000376
   0.33339818 -0.00181093 -0.00000272
   0.00175699  0.66842768 -0.00010879
   0.66483628  0.00007003  0.00011343
   0.99798480  0.33337170  0.00010591
   0.33336750  0.33134590 -0.00000502
   0.66864328  0.66861023 -0.00010258
   0.10920548  0.21836541  0.95198342
   0.21795758  0.10988448  0.04806641
   0.11520389  0.55660820  0.95193334
   0.22397338  0.44808202  0.04792556
   0.10852320  0.89129775  0.95192657
   0.22463993  0.77516570  0.04817054
   0.44852547  0.22510513  0.95192108
   0.55779738  0.11570378  0.04813741
   0.44232681  0.55742780  0.95214079
   0.55745815  0.44233649  0.04796055
   0.44200284  0.88405782  0.95177631
   0.55124864  0.77469519  0.04805940
   0.77633931  0.22525273  0.95189448
   0.89194103  0.10973921  0.04790653
   0.77472205  0.55130464  0.95202818
   0.88464447  0.44143132  0.04807914
   0.78180329  0.88994441  0.95193098
   0.88997916  0.78185998  0.04815919
unknown system                          
           1
     8.277653    4.777931    0.000000
    -8.278211    4.778901    0.000000
     0.000000    0.000000   30.000000
   V    Mo   W    S 
   3   3   3  18
Direct configuration=     4
   0.66660208  0.33030667  0.00000963
   0.00006103 -0.00295853 -0.00001098
   0.33323864  0.67248820  0.00000151
   0.33340871 -0.00315891 -0.00000312
   0.00304408  0.66980881 -0.00022794
   0.66344845  0.00012387  0.00023228
   0.99657268  0.33330224  0.00027340
   0.33330346  0.32992381 -0.00000606
   0.67011082  0.66998144 -0.00026846
   0.10848263  0.21737079  0.95080231
   0.21688373  0.10913510  0.04951830
   0.11633310  0.55705031  0.95051691
   0.22457524  0.44903798  0.04888062
   0.10818996  0.89199572  0.95025846
   0.22520133  0.77464607  0.05002057
   0.44961084  0.22555218  0.95046976
   0.55825689  0.11688308  0.04978581
   0.44184857  0.55781841  0.95115134
   0.55806819  0.44202920  0.04918621
   0.44134533  0.88284853  0.94995728
   0.55014686  0.77390218  0.04945928
   0.77576990  0.22572563  0.95023406
   0.89244856  0.10931021  0.04914313
   0.77410928  0.55027780  0.95081805
   0.88356777  0.44102620  0.04949384
   0.78291256  0.89075420  0.95052016
   0.89067377  0.78303328  0.04978357
unknown system                          
           1
     8.265223    4.771767    0.000000
    -8.265614    4.772447    0.000000
     0.000000    0.000000   30.000000
   V    Mo   W    S 
   3   3   3  18
Direct configuration=     5
   0.66632993  0.32739309  0.00002624
   0.00027117 -0.00565577 -0.00001763
   0.33321056  0.67763052 -0.00000772
   0.33337317 -0.00548905  0.00000581
   0.00550260  0.67266644 -0.00029333
   0.66085911  0.00040474  0.00029046
   0.99362252  0.33302671  0.00042262
   0.33317511  0.32670266  0.00000016
   0.67317236  0.67274006 -0.00042655
   0.10740221  0.21604164  0.94933532
   0.21590222  0.10768160  0.05151668
   0.11739102  0.55769985  0.94863650
   0.22522860  0.45032259  0.04996212
   0.10839085  0.89268687  0.94784542
   0.22566417  0.77446111  0.05267630
   0.45062722  0.22511370  0.94846618
   0.55818162  0.11759074  0.05217903
   0.44133132  0.55839907  0.95005300
   0.55904889  0.44185219  0.05067494
   0.44081641  0.88201211  0.94732352
   0.54910642  0.77348680  0.05133826
   0.77480875  0.22573936  0.94799333
   0.89232363  0.10846472  0.05074106
   0.77416637  0.54939495  0.94923313
   0.88250138  0.44138906  0.05138871
   0.78402824  0.89223018  0.94863693
   0.89177862  0.78422850  0.05199942
unknown system                          
           1
     8.269712    4.774223    0.000000
    -8.270128    4.774946    0.000000
     0.000000    0.000000   30.000000
   V    Mo   W    S 
   3   3   3  18
Direct configuration=     6
   0.66577727  0.32592462  0.00006944
   0.00081704 -0.00657375 -0.00006834
   0.33320154  0.67953596 -0.00000054
   0.33340814 -0.00556475  0.00000097
   0.00628813  0.67367814 -0.00028323
   0.66000762  0.00062166  0.00028627
   0.99242524  0.33295599  0.00047707
   0.33316703  0.32484301 -0.00000551
   0.67437017  0.67382695 -0.00047691
   0.10710707  0.21585386  0.94935548
   0.21603992  0.10711561  0.05177068
   0.11722180  0.55782524  0.94852418
   0.22520513  0.45040233  0.04971394
   0.10887570  0.89263411  0.94753173
   0.22563293  0.77478919  0.05304886
   0.45049766  0.22440424  0.94823286
   0.55770519  0.11706298  0.05248947
   0.44136303  0.55848465  0.95030886
   0.55936375  0.44198154  0.05063677
   0.44085438  0.88238770  0.94694120
   0.54927906  0.77379663  0.05144496
   0.77452416  0.22544388  0.94771672
   0.89170123  0.10818817  0.05072023
   0.77479049  0.54972182  0.94925073
   0.88253651  0.44193689  0.05149008
   0.78400134  0.89273499  0.94852612
   0.89205292  0.78420277  0.05229781
unknown system                          
           1
     8.248470    4.761955    0.000000
    -8.248233    4.761548    0.000000
     0.000000    0.000000   30.000000
   V    Mo   W    S 
   3   3   3  18
Direct configuration=     7
   0.66556932  0.32549716  0.00008057
   0.00102904 -0.00680581 -0.00007813
   0.33319802  0.68001724 -0.00000128
   0.33339704 -0.00547061  0.00000180
   0.00647443  0.67393349 -0.00027484
   0.65981680  0.00066567  0.00027667
   0.99207884  0.33296081  0.00049492
   0.33314377  0.32421723 -0.00000477
   0.67475314  0.67420391 -0.00049501
   0.10708002  0.21584324  0.94943789
   0.21606275  0.10702466  0.05177379
   0.11717085  0.55782932  0.94858041
   0.22520003  0.45036979  0.04956220
   0.10896929  0.89261177  0.94754096
   0.22562646  0.77488043  0.05304129
   0.45047159  0.22428161  0.94822791
   0.55760376  0.11693819  0.05248324
   0.44136569  0.55845452  0.95046416
   0.55939225  0.44200301  0.05055184
   0.44086530  0.88248872  0.94694718
   0.54933012  0.77385724  0.05138942
   0.77448507  0.22539537  0.94773169
   0.89158298  0.10814239  0.05062235
   0.77491615  0.54980048  0.94934383
   0.88253377  0.44204093  0.05143267
   0.78400783  0.89283753  0.94858502
   0.89209015  0.78419618  0.05228411
unknown system                          
           1
     8.278637    4.779074    0.000000
    -8.279391    4.780382    0.000000
     0.000000    0.000000   30.000000
   V    Mo   W    S 
   3   3   3  18
Direct configuration=     8
   0.66583769  0.32586457  0.00007790
   0.00073721 -0.00678570 -0.00006831
   0.33322125  0.67986627 -0.00000559
   0.33323048 -0.00592267  0.00000310
   0.00648401  0.67403084 -0.00026993
   0.65992343  0.00053503  0.00026551
   0.99241715  0.33281951  0.00047211
   0.33298718  0.32473374  0.00000217
   0.67459203  0.67402614 -0.00047421
   0.10699046  0.21574908  0.94928438
   0.21608602  0.10698287  0.05181721
   0.11717989  0.55787159  0.94843768
   0.22516399  0.45047262  0.04978004
   0.10899264  0.89265011  0.94741702
   0.22561261  0.77484661  0.05319104
   0.45038221  0.22416903  0.94815196
   0.55754185  0.11687363  0.05263390
   0.44140300  0.55858004  0.95024907
   0.55944742  0.44204120  0.05072004
   0.44088950  0.88245933  0.94680221
   0.54931340  0.77390739  0.05154441
   0.77448763  0.22532370  0.94759004
   0.89153435  0.10810385  0.05079819
   0.77500390  0.54987225  0.94914992
   0.88266661  0.44210906  0.05158465
   0.78395784  0.89281098  0.94845218
   0.89213068  0.78422336  0.05239322
unknown system                          
           1
     8.270307    4.774040    0.000000
    -8.271325    4.775807    0.000000
     0.000000    0.000000   30.000000
   V    Mo   W    S 
   3   3   3  18
Direct configuration=     9
   0.66483451  0.32387110  0.00011393
   0.00178024 -0.00769530 -0.00011287
   0.33317195  0.68189379  0.00000068
   0.33345940 -0.00519716  0.00000357
   0.00721192  0.67483437 -0.00026204
   0.65898872  0.00087969  0.00026283
   0.99069938  0.33303208  0.00057018
   0.33316501  0.32196231 -0.00000498
   0.67613242  0.67554877 -0.00057028
   0.10693307  0.21572200  0.94958042
   0.21602689  0.10663540  0.05197061
   0.11713331  0.55789633  0.94860109
   0.22526710  0.45036784  0.04916216
   0.10924649  0.89259553  0.94737801
   0.22566489  0.77513380  0.05322115
   0.45054541  0.22393431  0.94804076
   0.55734068  0.11669071  0.05264414
   0.44130025  0.55838044  0.95086725
   0.55955907  0.44202351  0.05040064
   0.44083020  0.88270257  0.94676028
   0.54937505  0.77397247  0.05136065
   0.77426251  0.22528640  0.94760437
   0.89125299  0.10794427  0.05044223
   0.77523558  0.54989359  0.94952075
   0.88235019  0.44234066  0.05140562
   0.78415342  0.89328734  0.94861228
   0.89229380  0.78427762  0.05242648
unknown system                          
           1
     8.271174    4.773858    0.000000
    -8.272714    4.776528    0.000000
     0.000000    0.000000   30.000000
   V    Mo   W    S 
   3   3   3  18
Direct configuration=    10
   0.66460921  0.32324944  0.00013418
   0.00199911 -0.00814501 -0.00012566
   0.33318659  0.68266256 -0.00000666
   0.33335488 -0.00524733  0.00000295
   0.00751099  0.67535812 -0.00025911
   0.65873442  0.00092687  0.00026246
   0.99019119  0.33295229  0.00059346
   0.33302551  0.32110069 -0.00000933
   0.67680425  0.67620756 -0.00059369
   0.10682167  0.21560186  0.94956688
   0.21595746  0.10641184  0.05210324
   0.11712097  0.55793778  0.94854058
   0.22529690  0.45041196  0.04908648
   0.10935510  0.89262873  0.94723352
   0.22565407  0.77521605  0.05339785
   0.45054566  0.22375085  0.94790533
   0.55720409  0.11654323  0.05278608
   0.44128817  0.55838608  0.95095997
   0.55963108  0.44205248  0.05040785
   0.44083538  0.88279033  0.94659079
   0.54938055  0.77401940  0.05143182
   0.77417656  0.22521282  0.94746575
   0.89111126  0.10781802  0.05044139
   0.77541265  0.54996989  0.94950839
   0.88232541  0.44250692  0.05147011
   0.78426254  0.89352825  0.94854135
   0.89241880  0.78436277  0.05256391
unknown system                          
           1
     8.260653    4.769157    0.000000
    -8.261171    4.770057    0.000000
     0.000000    0.000000   30.000000
   V    Mo   W    S 
   3   3   3  18
Direct configuration=    11
   0.66387660  0.32178547  0.00015986
   0.00275390 -0.00888933 -0.00015305
   0.33316233  0.68420886 -0.00000344
   0.33339223 -0.00484288  0.00000429
   0.00809485  0.67605720 -0.00025751
   0.65808231  0.00106969  0.00025904
   0.98897556  0.33311576  0.00066705
   0.33302847  0.31902145 -0.00000916
   0.67805016  0.67752117 -0.00066645
   0.10678728  0.21557853  0.94975872
   0.21588048  0.10617213  0.05224372
   0.11711241  0.55793013  0.94861812
   0.22536655  0.45032664  0.04867118
   0.10952213  0.89261445  0.94717104
   0.22569337  0.77540643  0.05346085
   0.45064998  0.22359323  0.94776603
   0.55704602  0.11639499  0.05285578
   0.44121746  0.55822968  0.95137628
   0.55967225  0.44205494  0.05021711
   0.44079878  0.88294046  0.94652228
   0.54939323  0.77402810  0.05134279
   0.77405046  0.22517484  0.94741839
   0.89097421  0.10773449  0.05021114
   0.77554182  0.54999682  0.94972917
   0.88210869  0.44267231  0.05140142
   0.78444935  0.89388781  0.94862013
   0.89253357  0.78443110  0.05261513
unknown system                          
           1
     8.279496    4.778090    0.000000
    -8.281779    4.782047    0.000000
     0.000000    0.000000   30.000000
   V    Mo   W    S 
   3   3   3  18
Direct configuration=    12
   0.66466933  0.32319074  0.00014252
   0.00194572 -0.00824067 -0.00013397
   0.33318743  0.68296022 -0.00000640
   0.33333950 -0.00543283  0.00000325
   0.00768891  0.67555395 -0.00025634
   0.65856662  0.00090699  0.00025753
   0.99011630  0.33285520  0.00060878
   0.33296907  0.32091133 -0.00000697
   0.67693004  0.67627130 -0.00060632
   0.10678575  0.21557735  0.94956819
   0.21602772  0.10643341  0.05208390
   0.11707531  0.55796084  0.94856232
   0.22526156  0.45041859  0.04905454
   0.10939683  0.89261988  0.94721315
   0.22567518  0.77524165  0.05341356
   0.45046445  0.22369386  0.94793462
   0.55715627  0.11647901  0.05279173
   0.44133448  0.55842418  0.95099975
   0.55964984  0.44207330  0.05038485
   0.44081825  0.88279983  0.94657541
   0.54942184  0.77407588  0.05141978
   0.77417603  0.22519574  0.94746745
   0.89100573  0.10780337  0.05043679
   0.77552380  0.55007177  0.94952200
   0.88242180  0.44253897  0.05143439
   0.78418614  0.89347375  0.94855799
   0.89242053  0.78435686  0.05257741
unknown system                          
           1
     8.275993    4.775702    0.000000
    -8.278648    4.780303    0.000000
     0.000000    0.000000   30.000000
   V    Mo   W    S 
   3   3   3  18
Direct configuration=    13
   0.66356679  0.32101765  0.00017845
   0.00306671 -0.00931382 -0.00017094
   0.33316166  0.68517721 -0.00000566
   0.33338297 -0.00484223  0.00000303
   0.00848291  0.67657091 -0.00024903
   0.65768280  0.00111914  0.00025033
   0.98833004  0.33305626  0.00069066
   0.33292790  0.31793940 -0.00001257
   0.67880226  0.67824666 -0.00068607
   0.10667762  0.21546957  0.94975417
   0.21578446  0.10592708  0.05241223
   0.11715495  0.55798884  0.94858254
   0.22545136  0.45040476  0.04852445
   0.10965567  0.89265115  0.94700955
   0.22572446  0.77549257  0.05362801
   0.45072347  0.22344197  0.94761725
   0.55690950  0.11628320  0.05299626
   0.44115696  0.55821830  0.95154156
   0.55975370  0.44207302  0.05018975
   0.44076188  0.88299614  0.94635808
   0.54934709  0.77402431  0.05138821
   0.77394416  0.22513001  0.94728728
   0.89081593  0.10758234  0.05019223
   0.77570563  0.55001781  0.94975517
   0.88200564  0.44284538  0.05144951
   0.78458562  0.89418322  0.94854546
   0.89265231  0.78451360  0.05276998
unknown system                          
           1
     8.271630    4.772132    0.000000
    -8.275254    4.778413    0.000000
     0.000000    0.000000   30.000000
   V    Mo   W    S 
   3   3   3  18
Direct configuration=    14
   0.66323555  0.32033747  0.00019053
   0.00340171 -0.00965482 -0.00018259
   0.33315267  0.68585498 -0.00000568
   0.33339397 -0.00470435  0.00000351
   0.00872260  0.67689157 -0.00025041
   0.65742219  0.00119202  0.00025129
   0.98776750  0.33310920  0.00072299
   0.33290171  0.31706670 -0.00001381
   0.67940296  0.67888121 -0.00071650
   0.10667140  0.21546064  0.94982913
   0.21573622  0.10580951  0.05248127
   0.11716342  0.55798690  0.94861175
   0.22548491  0.45037256  0.04834848
   0.10973071  0.89264667  0.94697283
   0.22572813  0.77556197  0.05366721
   0.45077258  0.22337562  0.94755197
   0.55683741  0.11620957  0.05303126
   0.44112924  0.55815106  0.95172300
   0.55975341  0.44207246  0.05010713
   0.44075604  0.88306011  0.94631806
   0.54934006  0.77401148  0.05135779
   0.77389496  0.22511084  0.94725617
   0.89077044  0.10755993  0.05009845
   0.77574910  0.55003795  0.94984788
   0.88190959  0.44291689  0.05142947
   0.78468154  0.89435042  0.94856201
   0.89270442  0.78454590  0.05280673
unknown system                          
           1
     8.274012    4.773007    0.000000
    -8.278019    4.779951    0.000000
     0.000000    0.000000   30.000000
   V    Mo   W    S 
   3   3   3  18
Direct configuration=    15
   0.66231150  0.31852782  0.00022057
   0.00433851 -0.01055953 -0.00021019
   0.33313044  0.68757635 -0.00000608
   0.33340586 -0.00424260  0.00000534
   0.00930941  0.67768130 -0.00025286
   0.65678112  0.00137126  0.00025334
   0.98629576  0.33332539  0.00080365
   0.33285564  0.31474308 -0.00001739
   0.68096145  0.68058169 -0.00079456
   0.10665638  0.21544321  0.95003421
   0.21558660  0.10548503  0.05268040
   0.11718771  0.55796619  0.94867730
   0.22558057  0.45027145  0.04788564
   0.10992196  0.89263779  0.94687557
   0.22573170  0.77575026  0.05376617
   0.45092443  0.22320513  0.94735521
   0.55665105  0.11602107  0.05313207
   0.44104307  0.55795152  0.95219597
   0.55975508  0.44207400  0.04989573
   0.44074798  0.88323908  0.94621698
   0.54931895  0.77396714  0.05128430
   0.77376052  0.22505993  0.94716651
   0.89068984  0.10750211  0.04984525
   0.77582943  0.55005659  0.95008973
   0.88161256  0.44310506  0.05139264
   0.78497833  0.89483748  0.94860175
   0.89284860  0.78463663  0.05290263
unknown system                          
           1
     8.289058    4.780752    0.000000
    -8.293839    4.789035    0.000000
     0.000000    0.000000   30.000000
   V    Mo   W    S 
   3   3   3  18
Direct configuration=    16
   0.66197479  0.31789209  0.00023071
   0.00467852 -0.01088951 -0.00021781
   0.33313098  0.68812815 -0.00000703
   0.33336795 -0.00408472  0.00000568
   0.00947672  0.67798682 -0.00025067
   0.65661744  0.00144083  0.00025016
   0.98579767  0.33337274  0.00082174
   0.33279424  0.31395498 -0.00001892
   0.68154060  0.68121153 -0.00081180
   0.10663114  0.21542003  0.95008515
   0.21550482  0.10532357  0.05277608
   0.11719611  0.55795513  0.94867688
   0.22562134  0.45024221  0.04774323
   0.11000459  0.89265044  0.94681529
   0.22571789  0.77582420  0.05383164
   0.45099185  0.22311898  0.94725753
   0.55656348  0.11593715  0.05319666
   0.44100842  0.55787754  0.95234615
   0.55976374  0.44208751  0.04983999
   0.44076143  0.88332366  0.94615239
   0.54930819  0.77394902  0.05128502
   0.77370047  0.22502801  0.94710272
   0.89066691  0.10745810  0.04977820
   0.77586113  0.55005145  0.95015028
   0.88148588  0.44319723  0.05141172
   0.78512497  0.89507026  0.94858331
   0.89292321  0.78468708  0.05296560
unknown system                          
           1
     8.284068    4.776086    0.000000
    -8.290707    4.787588    0.000000
     0.000000    0.000000   30.000000
   V    Mo   W    S 
   3   3   3  18
Direct configuration=    17
   0.66157211  0.31725081  0.00023465
   0.00508541 -0.01113389 -0.00022515
   0.33310056  0.68875842 -0.00000425
   0.33341860 -0.00388597  0.00000623
   0.00975676  0.67818886 -0.00024801
   0.65628836  0.00144601  0.00024530
   0.98530438  0.33355086  0.00083432
   0.33286648  0.31313913 -0.00001547
   0.68198943  0.68173669 -0.00082683
   0.10660586  0.21540911  0.95012737
   0.21540884  0.10519504  0.05290173
   0.11729117  0.55797208  0.94865945
   0.22571991  0.45029401  0.04759944
   0.11006407  0.89264281  0.94673056
   0.22574701  0.77584902  0.05390569
   0.45113518  0.22310284  0.94712977
   0.55651987  0.11591756  0.05328941
   0.44090283  0.55783463  0.95248323
   0.55981391  0.44207632  0.04980857
   0.44073364  0.88332197  0.94607286
   0.54921677  0.77387754  0.05128914
   0.77364983  0.22502273  0.94702777
   0.89066037  0.10739842  0.04972191
   0.77584977  0.54995086  0.95020291
   0.88131035  0.44329552  0.05145271
   0.78524690  0.89530473  0.94855559
   0.89295609  0.78469836  0.05304098
unknown system                          
           1
     8.289712    4.777897    0.000000
    -8.297513    4.791410    0.000000
     0.000000    0.000000   30.000000
   V    Mo   W    S 
   3   3   3  18
Direct configuration=    18
   0.66033850  0.31488681  0.00026402
   0.00631699 -0.01225833 -0.00024865
   0.33307561  0.69062992 -0.00000956
   0.33343934 -0.00343653  0.00000804
   0.01037647  0.67916729 -0.00024859
   0.65563290  0.00180144  0.00025063
   0.98343305  0.33381092  0.00091603
   0.33280972  0.31069499 -0.00003039
   0.68393804  0.68388667 -0.00090258
   0.10658824  0.21537843  0.95041160
   0.21514521  0.10462608  0.05316201
   0.11732300  0.55795267  0.94875464
   0.22579605  0.45011183  0.04699379
   0.11037134  0.89263897  0.94659547
   0.22567804  0.77609783  0.05402495
   0.45136436  0.22279908  0.94688290
   0.55621631  0.11559919  0.05341451
   0.44085236  0.55757112  0.95311055
   0.55979191  0.44208529  0.04950874
   0.44078432  0.88362577  0.94595776
   0.54919171  0.77381637  0.05118659
   0.77344272  0.22493472  0.94689815
   0.89067382  0.10740292  0.04937618
   0.77584990  0.54996698  0.95053479
   0.88080409  0.44351877  0.05143169
   0.78578648  0.89606371  0.94856860
   0.89319396  0.78484155  0.05318802
unknown system                          
           1
     8.297102    4.777795    0.000000
    -8.309323    4.798966    0.000000
     0.000000    0.000000   30.000000
   V    Mo   W    S 
   3   3   3  18
Direct configuration=    19
   0.65931404  0.31311727  0.00027164
   0.00733941 -0.01306173 -0.00025196
   0.33304958  0.69191410 -0.00000953
   0.33340532 -0.00318027  0.00001028
   0.01085921  0.67995718 -0.00023841
   0.65514170  0.00207933  0.00023743
   0.98208356  0.33404956  0.00094853
   0.33276646  0.30895871 -0.00003167
   0.68536941  0.68548421 -0.00093433
   0.10653714  0.21533394  0.95061586
   0.21492585  0.10414417  0.05338242
   0.11736975  0.55795096  0.94880338
   0.22585501  0.44999958  0.04654578
   0.11065593  0.89263078  0.94644906
   0.22560565  0.77627463  0.05414735
   0.45158460  0.22253014  0.94665694
   0.55593158  0.11530737  0.05357016
   0.44080353  0.55739308  0.95356814
   0.55981732  0.44209960  0.04930256
   0.44085687  0.88387326  0.94583505
   0.54914524  0.77377412  0.05112754
   0.77325944  0.22484545  0.94674925
   0.89075020  0.10739704  0.04912402
   0.77578858  0.54989501  0.95077144
   0.88031539  0.44372770  0.05146500
   0.78628361  0.89676526  0.94854479
   0.89340003  0.78495400  0.05333919
unknown system                          
           1
     8.316312    4.788566    0.000000
    -8.327858    4.808564    0.000000
     0.000000    0.000000   30.000000
   V    Mo   W    S 
   3   3   3  18
Direct configuration=    20
   0.65481107  0.30548566  0.00026785
   0.01171666 -0.01617065 -0.00023247
   0.33292683  0.69678156 -0.00002341
   0.33355462 -0.00239565  0.00001400
   0.01278039  0.68328989 -0.00014946
   0.65314560  0.00372383  0.00015706
   0.97620188  0.33510804  0.00106085
   0.33280738  0.30227140 -0.00006675
   0.69126747  0.69212942 -0.00103593
   0.10632634  0.21515851  0.95156427
   0.21412004  0.10193592  0.05428310
   0.11743526  0.55804244  0.94907484
   0.22587372  0.44932325  0.04457312
   0.11217206  0.89249743  0.94577137
   0.22512002  0.77700704  0.05464257
   0.45242404  0.22114587  0.94579924
   0.55448032  0.11379285  0.05421028
   0.44083952  0.55668351  0.95558500
   0.55994866  0.44212695  0.04832534
   0.44128869  0.88506313  0.94535273
   0.54911260  0.77379254  0.05080600
   0.77233107  0.22443288  0.94611790
   0.89127323  0.10754879  0.04793419
   0.77529610  0.54949706  0.95192195
   0.87787218  0.44452536  0.05152490
   0.78870438  0.89999046  0.94848601
   0.89438433  0.78542697  0.05403532
unknown system                          
           1
     8.308883    4.785312    0.000000
    -8.319860    4.804324    0.000000
     0.000000    0.000000   30.000000
   V    Mo   W    S 
   3   3   3  18
Direct configuration=    21
   0.65439834  0.30513430  0.00019786
   0.01215189 -0.01622652 -0.00016143
   0.33288573  0.69662818 -0.00001236
   0.33341738 -0.00287955  0.00001820
   0.01296082  0.68389987 -0.00010255
   0.65307100  0.00408670  0.00008756
   0.97584761  0.33521437  0.00095391
   0.33274732  0.30206216 -0.00002846
   0.69174599  0.69267848 -0.00093987
   0.10626734  0.21512028  0.95167528
   0.21411907  0.10154128  0.05437971
   0.11732894  0.55813209  0.94909130
   0.22562482  0.44912646  0.04436564
   0.11262046  0.89240480  0.94560692
   0.22498022  0.77706369  0.05474667
   0.45249831  0.22070825  0.94564671
   0.55399667  0.11324315  0.05443885
   0.44107094  0.55673836  0.95578100
   0.56000019  0.44213080  0.04822200
   0.44147586  0.88528355  0.94523857
   0.54920206  0.77401879  0.05077919
   0.77213859  0.22432966  0.94592825
   0.89156217  0.10759815  0.04775248
   0.77501560  0.54924246  0.95209611
   0.87711223  0.44463518  0.05160365
   0.78940311  0.90077055  0.94844474
   0.89457180  0.78552896  0.05418997
unknown system                          
           1
     8.313732    4.788656    0.000000
    -8.324267    4.806904    0.000000
     0.000000    0.000000   30.000000
   V    Mo   W    S 
   3   3   3  18
Direct configuration=    22
   0.65381672  0.30421671  0.00018950
   0.01269464 -0.01654543 -0.00015212
   0.33285728  0.69696525 -0.00001839
   0.33343886 -0.00299223  0.00001673
   0.01318914  0.68442774 -0.00006968
   0.65284994  0.00444411  0.00006880
   0.97503578  0.33543211  0.00095819
   0.33280898  0.30134594 -0.00004706
   0.69250776  0.69360667 -0.00094085
   0.10629224  0.21514028  0.95183955
   0.21416681  0.10127456  0.05442934
   0.11723060  0.55819936  0.94915879
   0.22542021  0.44891221  0.04410453
   0.11291046  0.89234140  0.94555426
   0.22485868  0.77706941  0.05477322
   0.45242632  0.22039457  0.94561452
   0.55371758  0.11290014  0.05448153
   0.44127628  0.55673840  0.95604801
   0.55997310  0.44212494  0.04806514
   0.44158598  0.88539996  0.94521751
   0.54931183  0.77418271  0.05069956
   0.77201122  0.22430486  0.94584853
   0.89174069  0.10772589  0.04751648
   0.77485068  0.54918990  0.95232632
   0.87667467  0.44460491  0.05153002
   0.78985282  0.90118495  0.94851417
   0.89471517  0.78562516  0.05427331
unknown system                          
           1
     8.323033    4.795433    0.000000
    -8.332279    4.811449    0.000000
     0.000000    0.000000   30.000000
   V    Mo   W    S 
   3   3   3  18
Direct configuration=    23
   0.65324532  0.30338824  0.00016928
   0.01324950 -0.01679596 -0.00012851
   0.33283024  0.69719670 -0.00002277
   0.33343645 -0.00324380  0.00001818
   0.01342486  0.68497912 -0.00002769
   0.65264235  0.00480190  0.00003163
   0.97431296  0.33564641  0.00090614
   0.33285111  0.30074734 -0.00005051
   0.69319823  0.69446672 -0.00089226
   0.10629679  0.21517833  0.95197423
   0.21422883  0.10097431  0.05450614
   0.11712254  0.55829830  0.94919739
   0.22517250  0.44869470  0.04387390
   0.11323923  0.89227219  0.94546328
   0.22472601  0.77701054  0.05483202
   0.45235705  0.22001543  0.94553635
   0.55338594  0.11250026  0.05457157
   0.44151924  0.55678047  0.95628005
   0.55996195  0.44214866  0.04794016
   0.44172224  0.88546930  0.94516577
   0.54942104  0.77438867  0.05064875
   0.77186255  0.22428519  0.94571765
   0.89196668  0.10782810  0.04729167
   0.77463919  0.54906511  0.95254469
   0.87610068  0.44460930  0.05150668
   0.79042470  0.90175222  0.94854246
   0.89487628  0.78575668  0.05440365
unknown system                          
           1
     8.334155    4.803260    0.000000
    -8.341844    4.816577    0.000000
     0.000000    0.000000   30.000000
   V    Mo   W    S 
   3   3   3  18
Direct configuration=    24
   0.65137777  0.30034197  0.00006434
   0.01498530 -0.01776819 -0.00002701
   0.33271558  0.69783409 -0.00003194
   0.33369811 -0.00403165  0.00001982
   0.01397599  0.68658469  0.00012125
   0.65215576  0.00625945 -0.00012057
   0.97165815  0.33642296  0.00070982
   0.33316420  0.29882243 -0.00003162
   0.69561572  0.69753712 -0.00071352
   0.10645416  0.21554009  0.95246440
   0.21459656  0.10007673  0.05471729
   0.11668652  0.55867818  0.94934398
   0.22412946  0.44780359  0.04306153
   0.11431367  0.89195255  0.94521042
   0.22423340  0.77665001  0.05499577
   0.45211468  0.21869612  0.94532707
   0.55232620  0.11125324  0.05480962
   0.44252764  0.55697404  0.95707631
   0.55984863  0.44223904  0.04746630
   0.44223156  0.88560602  0.94501697