<?xml version="1.0" encoding="ISO-8859-1"?>
<modeling>
 <generator>
  <i name="program" type="string">vasp </i>
  <i name="version" type="string">5.4.1  </i>
  <i name="subversion" type="string">05Feb16 (build Jul 05 2020 17:13:04) complex                          parallel </i>
  <i name="platform" type="string">IFC91_ompi </i>
  <i name="date" type="string">2024 07 30 </i>
  <i name="time" type="string">15:04:26 </i>
 </generator>
 <incar>
  <i type="int" name="ISTART">     0</i>
  <i type="string" name="PREC">normal</i>
  <i type="string" name="ALGO"> Normal</i>
  <i type="int" name="ISPIN">     1</i>
  <i type="int" name="ICHARG">     2</i>
  <i type="int" name="IBRION">     1</i>
  <i type="int" name="NSW">   100</i>
  <i type="int" name="ISIF">     3</i>
  <i type="int" name="ISYM">     0</i>
  <i name="SYMPREC">      0.00000001</i>
  <i name="POTIM">      0.50000000</i>
  <i type="logical" name="LREAL"> F  </i>
  <i type="logical" name="LPLANE"> F  </i>
  <i type="int" name="ISMEAR">     0</i>
  <i type="logical" name="LWAVE"> F  </i>
  <i type="logical" name="LCHARG"> F  </i>
  <v type="int" name="KPOINT_BSE">    -1     0     0     0</v>
 </incar>
 <kpoints>
  <generation param="Gamma">
   <v type="int" name="divisions">       8        8        1 </v>
   <v name="usershift">      0.00000000       0.00000000       0.00000000 </v>
   <v name="genvec1">      0.12500000       0.00000000       0.00000000 </v>
   <v name="genvec2">     -0.00000000       0.12500000       0.00000000 </v>
   <v name="genvec3">      0.00000000       0.00000000       1.00000000 </v>
   <v name="shift">      0.00000000       0.00000000       0.00000000 </v>
  </generation>
  <varray name="kpointlist" >
   <v>       0.00000000       0.00000000       0.00000000 </v>
   <v>       0.12500000       0.00000000       0.00000000 </v>
   <v>       0.25000000       0.00000000       0.00000000 </v>
   <v>       0.37500000       0.00000000       0.00000000 </v>
   <v>       0.50000000       0.00000000       0.00000000 </v>
   <v>       0.00000000       0.12500000       0.00000000 </v>
   <v>       0.12500000       0.12500000       0.00000000 </v>
   <v>       0.25000000       0.12500000       0.00000000 </v>
   <v>       0.37500000       0.12500000       0.00000000 </v>
   <v>       0.50000000       0.12500000       0.00000000 </v>
   <v>      -0.37500000       0.12500000       0.00000000 </v>
   <v>      -0.25000000       0.12500000       0.00000000 </v>
   <v>      -0.12500000       0.12500000       0.00000000 </v>
   <v>       0.00000000       0.25000000       0.00000000 </v>
   <v>       0.12500000       0.25000000       0.00000000 </v>
   <v>       0.25000000       0.25000000       0.00000000 </v>
   <v>       0.37500000       0.25000000       0.00000000 </v>
   <v>       0.50000000       0.25000000       0.00000000 </v>
   <v>      -0.37500000       0.25000000       0.00000000 </v>
   <v>      -0.25000000       0.25000000       0.00000000 </v>
   <v>      -0.12500000       0.25000000       0.00000000 </v>
   <v>      -0.00000000       0.37500000       0.00000000 </v>
   <v>       0.12500000       0.37500000       0.00000000 </v>
   <v>       0.25000000       0.37500000       0.00000000 </v>
   <v>       0.37500000       0.37500000       0.00000000 </v>
   <v>       0.50000000       0.37500000       0.00000000 </v>
   <v>      -0.37500000       0.37500000       0.00000000 </v>
   <v>      -0.25000000       0.37500000       0.00000000 </v>
   <v>      -0.12500000       0.37500000       0.00000000 </v>
   <v>       0.00000000       0.50000000       0.00000000 </v>
   <v>       0.12500000       0.50000000       0.00000000 </v>
   <v>       0.25000000       0.50000000       0.00000000 </v>
   <v>       0.37500000       0.50000000       0.00000000 </v>
   <v>       0.50000000       0.50000000       0.00000000 </v>
  </varray>
  <varray name="weights" >
   <v>       0.01562500 </v>
   <v>       0.03125000 </v>
   <v>       0.03125000 </v>
   <v>       0.03125000 </v>
   <v>       0.01562500 </v>
   <v>       0.03125000 </v>
   <v>       0.03125000 </v>
   <v>       0.03125000 </v>
   <v>       0.03125000 </v>
   <v>       0.03125000 </v>
   <v>       0.03125000 </v>
   <v>       0.03125000 </v>
   <v>       0.03125000 </v>
   <v>       0.03125000 </v>
   <v>       0.03125000 </v>
   <v>       0.03125000 </v>
   <v>       0.03125000 </v>
   <v>       0.03125000 </v>
   <v>       0.03125000 </v>
   <v>       0.03125000 </v>
   <v>       0.03125000 </v>
   <v>       0.03125000 </v>
   <v>       0.03125000 </v>
   <v>       0.03125000 </v>
   <v>       0.03125000 </v>
   <v>       0.03125000 </v>
   <v>       0.03125000 </v>
   <v>       0.03125000 </v>
   <v>       0.03125000 </v>
   <v>       0.01562500 </v>
   <v>       0.03125000 </v>
   <v>       0.03125000 </v>
   <v>       0.03125000 </v>
   <v>       0.01562500 </v>
  </varray>
 </kpoints>
 <parameters>
  <separator name="general" >
   <i type="string" name="SYSTEM">unknown system</i>
   <i type="logical" name="LCOMPAT"> F  </i>
  </separator>
  <separator name="electronic" >
   <i type="string" name="PREC">normal</i>
   <i name="ENMAX">    280.00000000</i>
   <i name="ENAUG">    373.43800000</i>
   <i name="EDIFF">      0.00010000</i>
   <i type="int" name="IALGO">    38</i>
   <i type="int" name="IWAVPR">    11</i>
   <i type="int" name="NBANDS">   120</i>
   <i name="NELECT">    159.00000000</i>
   <i type="int" name="TURBO">     0</i>
   <i type="int" name="IRESTART">     0</i>
   <i type="int" name="NREBOOT">     0</i>
   <i type="int" name="NMIN">     0</i>
   <i name="EREF">      0.00000000</i>
   <separator name="electronic smearing" >
    <i type="int" name="ISMEAR">     0</i>
    <i name="SIGMA">      0.20000000</i>
    <i name="KSPACING">      0.50000000</i>
    <i type="logical" name="KGAMMA"> T  </i>
   </separator>
   <separator name="electronic projectors" >
    <i type="logical" name="LREAL"> F  </i>
    <v name="ROPT">      0.00000000      0.00000000      0.00000000      0.00000000</v>
    <i type="int" name="LMAXPAW">  -100</i>
    <i type="int" name="LMAXMIX">     2</i>
    <i type="logical" name="NLSPLINE"> F  </i>
   </separator>
   <separator name="electronic startup" >
    <i type="int" name="ISTART">     0</i>
    <i type="int" name="ICHARG">     2</i>
    <i type="int" name="INIWAV">     1</i>
   </separator>
   <separator name="electronic spin" >
    <i type="int" name="ISPIN">     1</i>
    <i type="logical" name="LNONCOLLINEAR"> F  </i>
    <v name="MAGMOM">      1.00000000      1.00000000      1.00000000      1.00000000      1.00000000      1.00000000      1.00000000      1.00000000      1.00000000      1.00000000      1.00000000      1.00000000      1.00000000      1.00000000      1.00000000      1.00000000      1.00000000      1.00000000      1.00000000      1.00000000
      1.00000000      1.00000000      1.00000000      1.00000000      1.00000000      1.00000000      1.00000000</v>
    <i name="NUPDOWN">     -1.00000000</i>
    <i type="logical" name="LSORBIT"> F  </i>
    <v name="SAXIS">      0.00000000      0.00000000      1.00000000</v>
    <i type="logical" name="LSPIRAL"> F  </i>
    <v name="QSPIRAL">      0.00000000      0.00000000      0.00000000</v>
    <i type="logical" name="LZEROZ"> F  </i>
   </separator>
   <separator name="electronic exchange-correlation" >
    <i type="logical" name="LASPH"> F  </i>
    <i type="logical" name="LMETAGGA"> F  </i>
   </separator>
   <separator name="electronic convergence" >
    <i type="int" name="NELM">    60</i>
    <i type="int" name="NELMDL">    -5</i>
    <i type="int" name="NELMIN">     2</i>
    <i name="ENINI">    280.00000000</i>
    <separator name="electronic convergence detail" >
     <i type="logical" name="LDIAG"> T  </i>
     <i type="logical" name="LSUBROT"> F  </i>
     <i name="WEIMIN">      0.00100000</i>
     <i name="EBREAK">      0.00000021</i>
     <i name="DEPER">      0.30000000</i>
     <i type="int" name="NRMM">     4</i>
     <i name="TIME">      0.40000000</i>
    </separator>
   </separator>
   <separator name="electronic mixer" >
    <i name="AMIX">      0.40000000</i>
    <i name="BMIX">      1.00000000</i>
    <i name="AMIN">      0.10000000</i>
    <i name="AMIX_MAG">      1.60000000</i>
    <i name="BMIX_MAG">      1.00000000</i>
    <separator name="electronic mixer details" >
     <i type="int" name="IMIX">     4</i>
     <i type="logical" name="MIXFIRST"> F  </i>
     <i type="int" name="MAXMIX">   -45</i>
     <i name="WC">    100.00000000</i>
     <i type="int" name="INIMIX">     1</i>
     <i type="int" name="MIXPRE">     1</i>
     <i type="int" name="MREMOVE">     5</i>
    </separator>
   </separator>
   <separator name="electronic dipolcorrection" >
    <i type="logical" name="LDIPOL"> F  </i>
    <i type="logical" name="LMONO"> F  </i>
    <i type="int" name="IDIPOL">     0</i>
    <i name="EPSILON">      1.00000000</i>
    <v name="DIPOL">   -100.00000000   -100.00000000   -100.00000000</v>
    <i name="EFIELD">      0.00000000</i>
   </separator>
  </separator>
  <separator name="grids" >
   <i type="int" name="NGX">    42</i>
   <i type="int" name="NGY">    42</i>
   <i type="int" name="NGZ">   126</i>
   <i type="int" name="NGXF">    84</i>
   <i type="int" name="NGYF">    84</i>
   <i type="int" name="NGZF">   252</i>
   <i type="logical" name="ADDGRID"> F  </i>
  </separator>
  <separator name="ionic" >
   <i type="int" name="NSW">   100</i>
   <i type="int" name="IBRION">     1</i>
   <i type="int" name="ISIF">     3</i>
   <i name="PSTRESS">      0.00000000</i>
   <i name="EDIFFG">      0.00100000</i>
   <i type="int" name="NFREE">     0</i>
   <i name="POTIM">      0.50000000</i>
   <i name="SMASS">     -3.00000000</i>
   <i name="SCALEE">      1.00000000</i>
  </separator>
  <separator name="ionic md" >
   <i name="TEBEG">      0.00010000</i>
   <i name="TEEND">      0.00010000</i>
   <i type="int" name="NBLOCK">     1</i>
   <i type="int" name="KBLOCK">   100</i>
   <i type="int" name="NPACO">   256</i>
   <i name="APACO">     16.00000000</i>
  </separator>
  <separator name="symmetry" >
   <i type="int" name="ISYM">     0</i>
   <i name="SYMPREC">      0.00000001</i>
  </separator>
  <separator name="dos" >
   <i type="logical" name="LORBIT"> F  </i>
   <v name="RWIGS">     -1.00000000     -1.00000000     -1.00000000     -1.00000000</v>
   <i type="int" name="NEDOS">   301</i>
   <i name="EMIN">     10.00000000</i>
   <i name="EMAX">    -10.00000000</i>
   <i name="EFERMI">      0.00000000</i>
  </separator>
  <separator name="writing" >
   <i type="int" name="NWRITE">     2</i>
   <i type="logical" name="LWAVE"> F  </i>
   <i type="logical" name="LCHARG"> F  </i>
   <i type="logical" name="LPARD"> F  </i>
   <i type="logical" name="LVTOT"> F  </i>
   <i type="logical" name="LVHAR"> F  </i>
   <i type="logical" name="LELF"> F  </i>
   <i type="logical" name="LOPTICS"> F  </i>
   <v name="STM">      0.00000000      0.00000000      0.00000000      0.00000000      0.00000000      0.00000000      0.00000000</v>
  </separator>
  <separator name="performance" >
   <i type="int" name="NPAR">    40</i>
   <i type="int" name="NSIM">     4</i>
   <i type="int" name="NBLK">    -1</i>
   <i type="logical" name="LPLANE"> F  </i>
   <i type="logical" name="LSCALAPACK"> T  </i>
   <i type="logical" name="LSCAAWARE"> F  </i>
   <i type="logical" name="LSCALU"> F  </i>
   <i type="logical" name="LASYNC"> F  </i>
   <i type="logical" name="LORBITALREAL"> F  </i>
  </separator>
  <separator name="miscellaneous" >
   <i type="int" name="IDIOT">     3</i>
   <i type="logical" name="LMUSIC"> F  </i>
   <v name="POMASS">     50.94100000     95.94000000    183.85000000     32.06600000</v>
   <v name="DARWINR">      0.00000000      0.00000000      0.00000000      0.00000000</v>
   <v name="DARWINV">      1.00000000      1.00000000      1.00000000      1.00000000</v>
   <i type="logical" name="LCORR"> T  </i>
  </separator>
  <i type="logical" name="GGA_COMPAT"> T  </i>
  <i type="logical" name="LBERRY"> F  </i>
  <i type="int" name="ICORELEVEL">     0</i>
  <i type="logical" name="LDAU"> F  </i>
  <i type="int" name="I_CONSTRAINED_M">     0</i>
  <separator name="electronic exchange-correlation" >
   <i type="string" name="GGA">--</i>
   <i type="int" name="VOSKOWN">     0</i>
   <i type="logical" name="LHFCALC"> F  </i>
   <i type="string" name="PRECFOCK"></i>
   <i type="logical" name="LSYMGRAD"> F  </i>
   <i type="logical" name="LHFONE"> F  </i>
   <i type="logical" name="LRHFCALC"> F  </i>
   <i type="logical" name="LTHOMAS"> F  </i>
   <i type="logical" name="LMODELHF"> F  </i>
   <i name="ENCUT4O">     -1.00000000</i>
   <i type="int" name="EXXOEP">     0</i>
   <i type="int" name="FOURORBIT">     0</i>
   <i name="AEXX">      0.00000000</i>
   <i name="HFALPHA">      0.00000000</i>
   <i name="MCALPHA">      0.00000000</i>
   <i name="ALDAX">      1.00000000</i>
   <i name="AGGAX">      1.00000000</i>
   <i name="ALDAC">      1.00000000</i>
   <i name="AGGAC">      1.00000000</i>
   <i type="int" name="NKREDX">     1</i>
   <i type="int" name="NKREDY">     1</i>
   <i type="int" name="NKREDZ">     1</i>
   <i type="logical" name="SHIFTRED"> F  </i>
   <i type="logical" name="ODDONLY"> F  </i>
   <i type="logical" name="EVENONLY"> F  </i>
   <i type="int" name="LMAXFOCK">     0</i>
   <i type="int" name="NMAXFOCKAE">     0</i>
   <i type="logical" name="LFOCKAEDFT"> F  </i>
   <i name="HFSCREEN">      0.00000000</i>
   <i name="HFSCREENC">      0.00000000</i>
   <i type="int" name="NBANDSGWLOW">     0</i>
  </separator>
  <separator name="vdW DFT" >
   <i type="logical" name="LUSE_VDW"> F  </i>
   <i name="Zab_VDW">     -0.84910000</i>
   <i name="PARAM1">      0.12340000</i>
   <i name="PARAM2">      1.00000000</i>
   <i name="PARAM3">      0.00000000</i>
  </separator>
  <separator name="model GW" >
   <i type="int" name="MODEL_GW">     0</i>
   <i name="MODEL_EPS0">     58.26239943</i>
   <i name="MODEL_ALPHA">      1.00000000</i>
  </separator>
  <separator name="linear response parameters" >
   <i type="logical" name="LEPSILON"> F  </i>
   <i type="logical" name="LRPA"> F  </i>
   <i type="logical" name="LNABLA"> F  </i>
   <i type="logical" name="LVEL"> F  </i>
   <i type="int" name="KINTER">     0</i>
   <i name="CSHIFT">      0.10000000</i>
   <i name="OMEGAMAX">     -1.00000000</i>
   <i name="DEG_THRESHOLD">      0.00200000</i>
  </separator>
  <separator name="orbital magnetization" >
   <i type="logical" name="NUCIND"> F  </i>
   <v name="MAGPOS">      0.00000000      0.00000000      0.00000000</v>
   <i type="logical" name="LNICSALL"> T  </i>
   <i type="logical" name="ORBITALMAG"> F  </i>
   <i type="logical" name="LMAGBLOCH"> F  </i>
   <i type="logical" name="LCHIMAG"> F  </i>
   <i type="logical" name="LGAUGE"> T  </i>
   <i type="int" name="MAGATOM">     0</i>
   <v name="MAGDIPOL">      0.00000000      0.00000000      0.00000000</v>
   <v name="AVECCONST">      0.00000000      0.00000000      0.00000000</v>
  </separator>
  <separator name="response functions" >
   <i type="logical" name="LADDER"> F  </i>
   <i type="logical" name="LFXC"> F  </i>
   <i type="logical" name="LHARTREE"> T  </i>
   <i type="int" name="IBSE">     0</i>
   <v type="int" name="KPOINT">    -1     0     0     0</v>
   <i type="logical" name="LTCTE"> F  </i>
   <i type="logical" name="LTETE"> F  </i>
   <i type="logical" name="LTRIPLET"> F  </i>
   <i type="logical" name="LFXCEPS"> F  </i>
   <i type="logical" name="LFXHEG"> F  </i>
   <i type="int" name="NATURALO">     0</i>
   <i type="logical" name="L2ORDER"> F  </i>
   <i type="logical" name="LUSEW"> F  </i>
   <i name="ENCUTGW">     -2.00000000</i>
   <i name="ENCUTGWSOFT">     -2.00000000</i>
   <i name="ENCUTLF">     -1.00000000</i>
   <i type="int" name="LMAXMP2">    -1</i>
   <i name="SCISSOR">      0.00000000</i>
   <i type="int" name="NOMEGA">     0</i>
   <i type="int" name="NOMEGAR">     0</i>
   <i type="int" name="NBANDSGW">    -1</i>
   <i type="int" name="NBANDSO">    -1</i>
   <i type="int" name="NBANDSV">    -1</i>
   <i type="int" name="NELM">     1</i>
   <i type="int" name="NELMHF">     1</i>
   <i type="int" name="DIM">     3</i>
   <i type="int" name="ANTIRES">     0</i>
   <i name="OMEGAMAX">    -30.00000000</i>
   <i name="OMEGAMIN">    -30.00000000</i>
   <i name="OMEGATL">   -200.00000000</i>
   <i type="int" name="OMEGAGRID">     0</i>
   <i name="CSHIFT">     -0.10000000</i>
   <i type="logical" name="SELFENERGY"> F  </i>
   <i type="logical" name="LSPECTRAL"> F  </i>
   <i type="logical" name="LSPECTRALGW"> F  </i>
   <i type="logical" name="LSINGLES"> F  </i>
   <i type="logical" name="LFERMIGW"> F  </i>
   <i type="logical" name="ODDONLYGW"> F  </i>
   <i type="logical" name="EVENONLYGW"> F  </i>
   <i type="int" name="NKREDLFX">     1</i>
   <i type="int" name="NKREDLFY">     1</i>
   <i type="int" name="NKREDLFZ">     1</i>
   <i type="int" name="MAXMEM">  1800</i>
   <i type="int" name="TELESCOPE">     0</i>
   <i type="int" name="TAUPAR">     1</i>
   <i type="int" name="OMEGAPAR">    -1</i>
   <i name="LAMBDA">      1.00000000</i>
  </separator>
  <separator name="External order field" >
   <i name="OFIELD_KAPPA">      0.00000000</i>
   <v name="OFIELD_K">      0.00000000      0.00000000      0.00000000</v>
   <i name="OFIELD_Q6_NEAR">      0.00000000</i>
   <i name="OFIELD_Q6_FAR">      0.00000000</i>
   <i name="OFIELD_A">      0.00000000</i>
  </separator>
 </parameters>
 <atominfo>
  <atoms>      27 </atoms>
  <types>       4 </types>
  <array name="atoms" >
   <dimension dim="1">ion</dimension>
   <field type="string">element</field>
   <field type="int">atomtype</field>
   <set>
    <rc><c>V </c><c>   1</c></rc>
    <rc><c>V </c><c>   1</c></rc>
    <rc><c>V </c><c>   1</c></rc>
    <rc><c>Mo</c><c>   2</c></rc>
    <rc><c>Mo</c><c>   2</c></rc>
    <rc><c>Mo</c><c>   2</c></rc>
    <rc><c>W </c><c>   3</c></rc>
    <rc><c>W </c><c>   3</c></rc>
    <rc><c>W </c><c>   3</c></rc>
    <rc><c>S </c><c>   4</c></rc>
    <rc><c>S </c><c>   4</c></rc>
    <rc><c>S </c><c>   4</c></rc>
    <rc><c>S </c><c>   4</c></rc>
    <rc><c>S </c><c>   4</c></rc>
    <rc><c>S </c><c>   4</c></rc>
    <rc><c>S </c><c>   4</c></rc>
    <rc><c>S </c><c>   4</c></rc>
    <rc><c>S </c><c>   4</c></rc>
    <rc><c>S </c><c>   4</c></rc>
    <rc><c>S </c><c>   4</c></rc>
    <rc><c>S </c><c>   4</c></rc>
    <rc><c>S </c><c>   4</c></rc>
    <rc><c>S </c><c>   4</c></rc>
    <rc><c>S </c><c>   4</c></rc>
    <rc><c>S </c><c>   4</c></rc>
    <rc><c>S </c><c>   4</c></rc>
    <rc><c>S </c><c>   4</c></rc>
   </set>
  </array>
  <array name="atomtypes" >
   <dimension dim="1">type</dimension>
   <field type="int">atomspertype</field>
   <field type="string">element</field>
   <field>mass</field>
   <field>valence</field>
   <field type="string">pseudopotential</field>
   <set>
    <rc><c>   3</c><c>V </c><c>     50.94100000</c><c>      5.00000000</c><c> PAW_PBE V 08Apr2002                    </c></rc>
    <rc><c>   3</c><c>Mo</c><c>     95.94000000</c><c>      6.00000000</c><c> PAW_PBE Mo 08Apr2002                   </c></rc>
    <rc><c>   3</c><c>W </c><c>    183.85000000</c><c>      6.00000000</c><c> PAW_PBE W 08Apr2002                    </c></rc>
    <rc><c>  18</c><c>S </c><c>     32.06600000</c><c>      6.00000000</c><c>  PAW_PBE S 17Jan2003                   </c></rc>
   </set>
  </array>
 </atominfo>
 <structure name="initialpos" >
  <crystal>
   <varray name="basis" >
    <v>       8.66999996       5.03999989       0.00000000 </v>
    <v>      -8.66999982       5.04000013       0.00000000 </v>
    <v>       0.00000000       0.00000000      30.00000000 </v>
   </varray>
   <i name="volume">   2621.80797419 </i>
   <varray name="rec_basis" >
    <v>       0.05767013       0.09920635       0.00000000 </v>
    <v>      -0.05767013       0.09920635       0.00000000 </v>
    <v>       0.00000000       0.00000000       0.03333333 </v>
   </varray>
  </crystal>
  <varray name="positions" >
   <v>       0.00000000       0.00000000       0.00000000 </v>
   <v>       0.66666669       0.66666669       0.00000000 </v>
   <v>       0.66666669       0.33333334       0.00000000 </v>
   <v>       0.33333334       0.00000000       0.00000000 </v>
   <v>       1.00000000       0.33333334       0.00000000 </v>
   <v>       0.66666669       0.00000000       0.00000000 </v>
   <v>       0.00000000       0.66666669       0.00000000 </v>
   <v>       0.33333334       0.33333334       0.00000000 </v>
   <v>       0.33333334       0.66666669       0.00000000 </v>
   <v>       0.11068511       0.22244981       0.95539999 </v>
   <v>       0.22244981       0.11068511       0.04460000 </v>
   <v>       0.11068511       0.55578315       0.95539999 </v>
   <v>       0.22244981       0.44401845       0.04460000 </v>
   <v>       0.11068511       0.88911647       0.95539999 </v>
   <v>       0.22244981       0.77735180       0.04460000 </v>
   <v>       0.44401845       0.22244981       0.95539999 </v>
   <v>       0.55578315       0.11068511       0.04460000 </v>
   <v>       0.44401845       0.55578315       0.95539999 </v>
   <v>       0.55578315       0.44401845       0.04460000 </v>
   <v>       0.44401845       0.88911647       0.95539999 </v>
   <v>       0.55578315       0.77735180       0.04460000 </v>
   <v>       0.77735180       0.22244981       0.95539999 </v>
   <v>       0.88911647       0.11068511       0.04460000 </v>
   <v>       0.77735180       0.55578315       0.95539999 </v>
   <v>       0.88911647       0.44401845       0.04460000 </v>
   <v>       0.77735180       0.88911647       0.95539999 </v>
   <v>       0.88911647       0.77735180       0.04460000 </v>
  </varray>
 </structure>
 <calculation>
  <scstep>
   <time name="dav">   29.85   29.93</time>
   <time name="total">   29.91   29.99</time>
   <energy>
    <i name="alphaZ">     81.65567618 </i>
    <i name="ewald">  41890.23009656 </i>
    <i name="hartreedc"> -47722.86556129 </i>
    <i name="XCdc">   -242.92862458 </i>
    <i name="pawpsdc">   3467.42045192 </i>
    <i name="pawaedc">  -2871.19716117 </i>
    <i name="eentropy">     -0.54367690 </i>
    <i name="bandstr">   -237.21591292 </i>
    <i name="atom">   6761.44252427 </i>
    <i name="e_fr_energy">   1125.99781207 </i>
    <i name="e_wo_entrp">   1126.54148897 </i>
    <i name="e_0_energy">   1126.26965052 </i>
   </energy>
  </scstep>
  <scstep>
   <time name="dav">   39.61   39.70</time>
   <time name="total">   39.61   39.71</time>
   <energy>
    <i name="e_fr_energy">     -3.70869760 </i>
    <i name="e_wo_entrp">     -3.50982923 </i>
    <i name="e_0_energy">     -3.60926342 </i>
   </energy>
  </scstep>
  <scstep>
   <time name="dav">   37.59   37.68</time>
   <time name="total">   37.59   37.69</time>
   <energy>
    <i name="e_fr_energy">   -199.87793879 </i>
    <i name="e_wo_entrp">   -199.62524450 </i>
    <i name="e_0_energy">   -199.75159165 </i>
   </energy>
  </scstep>
  <scstep>
   <time name="dav">   41.91   42.02</time>
   <time name="total">   41.92   42.03</time>
   <energy>
    <i name="e_fr_energy">   -209.01725667 </i>
    <i name="e_wo_entrp">   -208.73351644 </i>
    <i name="e_0_energy">   -208.87538656 </i>
   </energy>
  </scstep>
  <scstep>
   <time name="dav">   38.98   39.07</time>
   <time name="total">   39.59   39.69</time>
   <energy>
    <i name="e_fr_energy">   -209.31445459 </i>
    <i name="e_wo_entrp">   -209.03376876 </i>
    <i name="e_0_energy">   -209.17411167 </i>
   </energy>
  </scstep>
  <scstep>
   <time name="dav">   42.39   42.50</time>
   <time name="total">   43.03   43.63</time>
   <energy>
    <i name="e_fr_energy">   -237.22443019 </i>
    <i name="e_wo_entrp">   -236.94864352 </i>
    <i name="e_0_energy">   -237.08653686 </i>
   </energy>
  </scstep>
  <scstep>
   <time name="dav">   44.34   44.45</time>
   <time name="total">   44.98   45.10</time>
   <energy>
    <i name="e_fr_energy">   -196.47594281 </i>
    <i name="e_wo_entrp">   -196.14557241 </i>
    <i name="e_0_energy">   -196.31075761 </i>
   </energy>
  </scstep>
  <scstep>
   <time name="dav">   40.74   40.84</time>
   <time name="total">   41.41   41.52</time>
   <energy>
    <i name="e_fr_energy">   -189.42574672 </i>
    <i name="e_wo_entrp">   -189.13411585 </i>
    <i name="e_0_energy">   -189.27993129 </i>
   </energy>
  </scstep>
  <scstep>
   <time name="dav">   42.35   42.45</time>
   <time name="total">   43.02   43.13</time>
   <energy>
    <i name="e_fr_energy">   -188.22917920 </i>
    <i name="e_wo_entrp">   -187.90915921 </i>
    <i name="e_0_energy">   -188.06916920 </i>
   </energy>
  </scstep>
  <scstep>
   <time name="dav">   44.47   44.58</time>
   <time name="total">   45.15   45.27</time>
   <energy>
    <i name="e_fr_energy">   -187.07939183 </i>
    <i name="e_wo_entrp">   -186.73240788 </i>
    <i name="e_0_energy">   -186.90589985 </i>
   </energy>
  </scstep>
  <scstep>
   <time name="dav">   45.33   45.44</time>
   <time name="total">   46.02   46.14</time>
   <energy>
    <i name="e_fr_energy">   -187.02979386 </i>
    <i name="e_wo_entrp">   -186.68176964 </i>
    <i name="e_0_energy">   -186.85578175 </i>
   </energy>
  </scstep>
  <scstep>
   <time name="dav">   42.50   42.61</time>
   <time name="total">   43.18   43.30</time>
   <energy>
    <i name="e_fr_energy">   -187.17401981 </i>
    <i name="e_wo_entrp">   -186.83565204 </i>
    <i name="e_0_energy">   -187.00483593 </i>
   </energy>
  </scstep>
  <scstep>
   <time name="dav">   44.51   44.61</time>
   <time name="total">   45.19   45.31</time>
   <energy>
    <i name="e_fr_energy">   -186.92693237 </i>
    <i name="e_wo_entrp">   -186.59234588 </i>
    <i name="e_0_energy">   -186.75963913 </i>
   </energy>
  </scstep>
  <scstep>
   <time name="dav">   44.98   45.09</time>
   <time name="total">   45.67   45.83</time>
   <energy>
    <i name="e_fr_energy">   -186.87973650 </i>
    <i name="e_wo_entrp">   -186.53598492 </i>
    <i name="e_0_energy">   -186.70786071 </i>
   </energy>
  </scstep>
  <scstep>
   <time name="dav">   41.69   41.79</time>
   <time name="total">   42.37   42.50</time>
   <energy>
    <i name="e_fr_energy">   -186.88167562 </i>
    <i name="e_wo_entrp">   -186.53670749 </i>
    <i name="e_0_energy">   -186.70919156 </i>
   </energy>
  </scstep>
  <scstep>
   <time name="dav">   44.20   44.31</time>
   <time name="total">   44.90   45.01</time>
   <energy>
    <i name="e_fr_energy">   -186.87261565 </i>
    <i name="e_wo_entrp">   -186.52713439 </i>
    <i name="e_0_energy">   -186.69987502 </i>
   </energy>
  </scstep>
  <scstep>
   <time name="dav">   42.94   43.05</time>
   <time name="total">   43.64   43.75</time>
   <energy>
    <i name="e_fr_energy">   -186.86928522 </i>
    <i name="e_wo_entrp">   -186.52623895 </i>
    <i name="e_0_energy">   -186.69776209 </i>
   </energy>
  </scstep>
  <scstep>
   <time name="dav">   40.90   41.00</time>
   <time name="total">   41.60   41.70</time>
   <energy>
    <i name="e_fr_energy">   -186.86909522 </i>
    <i name="e_wo_entrp">   -186.52563882 </i>
    <i name="e_0_energy">   -186.69736702 </i>
   </energy>
  </scstep>
  <scstep>
   <time name="dav">   39.11   39.20</time>
   <time name="total">   39.79   39.90</time>
   <energy>
    <i name="e_fr_energy">   -186.86874493 </i>
    <i name="e_wo_entrp">   -186.52514867 </i>
    <i name="e_0_energy">   -186.69694680 </i>
   </energy>
  </scstep>
  <scstep>
   <time name="dav">   32.17   32.24</time>
   <time name="total">   32.87   32.96</time>
   <energy>
    <i name="e_fr_energy">   -186.86951147 </i>
    <i name="e_wo_entrp">   -186.52618550 </i>
    <i name="e_0_energy">   -186.69784848 </i>
   </energy>
  </scstep>
  <scstep>
   <time name="dav">   30.36   30.43</time>
   <time name="total">   31.05   31.13</time>
   <energy>
    <i name="e_fr_energy">   -186.87011780 </i>
    <i name="e_wo_entrp">   -186.52676280 </i>
    <i name="e_0_energy">   -186.69844030 </i>
   </energy>
  </scstep>
  <scstep>
   <time name="dav">   28.19   28.25</time>
   <time name="total">   28.92   29.00</time>
   <energy>
    <i name="e_fr_energy">   -186.87122614 </i>
    <i name="e_wo_entrp">   -186.52784138 </i>
    <i name="e_0_energy">   -186.69953376 </i>
   </energy>
  </scstep>
  <scstep>
   <time name="dav">   28.47   28.54</time>
   <time name="total">   29.17   29.25</time>
   <energy>
    <i name="e_fr_energy">   -186.87245249 </i>
    <i name="e_wo_entrp">   -186.52915147 </i>
    <i name="e_0_energy">   -186.70080198 </i>
   </energy>
  </scstep>
  <scstep>
   <time name="dav">   26.42   26.48</time>
   <time name="total">   27.10   27.33</time>
   <energy>
    <i name="e_fr_energy">   -186.87303864 </i>
    <i name="e_wo_entrp">   -186.52970886 </i>
    <i name="e_0_energy">   -186.70137375 </i>
   </energy>
  </scstep>
  <scstep>
   <time name="dav">   22.83   22.88</time>
   <time name="total">   23.52   23.59</time>
   <energy>
    <i name="e_fr_energy">   -186.87341772 </i>
    <i name="e_wo_entrp">   -186.53005102 </i>
    <i name="e_0_energy">   -186.70173437 </i>
   </energy>
  </scstep>
  <scstep>
   <time name="dav">   26.71   26.78</time>
   <time name="total">   27.41   27.49</time>
   <energy>
    <i name="e_fr_energy">   -186.87363632 </i>
    <i name="e_wo_entrp">   -186.53028388 </i>
    <i name="e_0_energy">   -186.70196010 </i>
   </energy>
  </scstep>
  <scstep>
   <time name="dav">   26.57   26.64</time>
   <time name="total">   27.26   27.33</time>
   <energy>
    <i name="e_fr_energy">   -186.87374027 </i>
    <i name="e_wo_entrp">   -186.53039219 </i>
    <i name="e_0_energy">   -186.70206623 </i>
   </energy>
  </scstep>
  <scstep>
   <time name="dav">   28.03   28.10</time>
   <time name="total">   28.07   28.15</time>
   <energy>
    <i name="alphaZ">     81.65567618 </i>
    <i name="ewald">  41890.23009656 </i>
    <i name="hartreedc"> -47833.03444878 </i>
    <i name="XCdc">   -231.60127102 </i>
    <i name="pawpsdc">   4192.08584268 </i>
    <i name="pawaedc">  -3610.10368431 </i>
    <i name="eentropy">     -0.34334847 </i>
    <i name="bandstr">  -1437.20517774 </i>
    <i name="atom">   6761.44252427 </i>
    <i name="e_fr_energy">   -186.87379063 </i>
    <i name="e_wo_entrp">   -186.53044216 </i>
    <i name="e_0_energy">   -186.70211640 </i>
   </energy>
  </scstep>
  <structure>
   <crystal>
    <varray name="basis" >
     <v>       8.66999996       5.03999989       0.00000000 </v>
     <v>      -8.66999982       5.04000013       0.00000000 </v>
     <v>       0.00000000       0.00000000      30.00000000 </v>
    </varray>
    <i name="volume">   2621.80797419 </i>
    <varray name="rec_basis" >
     <v>       0.05767013       0.09920635       0.00000000 </v>
     <v>      -0.05767013       0.09920635       0.00000000 </v>
     <v>       0.00000000       0.00000000       0.03333333 </v>
    </varray>
   </crystal>
   <varray name="positions" >
    <v>       0.00000000       0.00000000       0.00000000 </v>
    <v>       0.66666669       0.66666669       0.00000000 </v>
    <v>       0.66666669       0.33333334       0.00000000 </v>
    <v>       0.33333334       0.00000000       0.00000000 </v>
    <v>       1.00000000       0.33333334       0.00000000 </v>
    <v>       0.66666669       0.00000000       0.00000000 </v>
    <v>       0.00000000       0.66666669       0.00000000 </v>
    <v>       0.33333334       0.33333334       0.00000000 </v>
    <v>       0.33333334       0.66666669       0.00000000 </v>
    <v>       0.11068511       0.22244981       0.95539999 </v>
    <v>       0.22244981       0.11068511       0.04460000 </v>
    <v>       0.11068511       0.55578315       0.95539999 </v>
    <v>       0.22244981       0.44401845       0.04460000 </v>
    <v>       0.11068511       0.88911647       0.95539999 </v>
    <v>       0.22244981       0.77735180       0.04460000 </v>
    <v>       0.44401845       0.22244981       0.95539999 </v>
    <v>       0.55578315       0.11068511       0.04460000 </v>
    <v>       0.44401845       0.55578315       0.95539999 </v>
    <v>       0.55578315       0.44401845       0.04460000 </v>
    <v>       0.44401845       0.88911647       0.95539999 </v>
    <v>       0.55578315       0.77735180       0.04460000 </v>
    <v>       0.77735180       0.22244981       0.95539999 </v>
    <v>       0.88911647       0.11068511       0.04460000 </v>
    <v>       0.77735180       0.55578315       0.95539999 </v>
    <v>       0.88911647       0.44401845       0.04460000 </v>
    <v>       0.77735180       0.88911647       0.95539999 </v>
    <v>       0.88911647       0.77735180       0.04460000 </v>
   </varray>
  </structure>
  <varray name="forces" >
   <v>      -0.23380525       0.05700329      -0.11786559 </v>
   <v>      -0.14015883       0.14777666      -0.01699724 </v>
   <v>       0.36505662      -0.19809492       0.10249753 </v>
   <v>       0.26460383       0.11442908       0.10371379 </v>
   <v>      -0.00472993      -0.27879137      -0.07662926 </v>
   <v>      -0.21648980       0.16242638      -0.02289321 </v>
   <v>       0.12935622       0.06604296      -0.02466256 </v>
   <v>       0.10641361      -0.27868231       0.05081586 </v>
   <v>      -0.27073415       0.19355622       0.01979293 </v>
   <v>       0.61625622      -0.57530056      -2.20473340 </v>
   <v>      -0.60343472      -0.53676631       2.14398021 </v>
   <v>       0.07989807       0.12462021      -2.92838523 </v>
   <v>      -0.05948276       0.15952611       2.85125339 </v>
   <v>      -0.69011564      -0.15788549      -2.09162343 </v>
   <v>      -0.05127614      -0.10960215       2.95843034 </v>
   <v>       0.35590409       0.70872172      -2.14509500 </v>
   <v>      -0.54646845       0.71225783       2.20100289 </v>
   <v>       0.45172982       0.56238724      -2.15785896 </v>
   <v>       0.25294197       0.51613042       1.41318549 </v>
   <v>       0.23017232      -0.15849998      -2.89533456 </v>
   <v>       0.65779078      -0.16097329       2.10104479 </v>
   <v>      -0.73189389       0.01077723      -2.13645078 </v>
   <v>       0.74376224      -0.01015519       2.11273517 </v>
   <v>      -0.23562604      -0.51463888      -1.38839213 </v>
   <v>      -0.64173689      -0.57451318       2.15513430 </v>
   <v>       0.91479265       0.01821655      -1.46251193 </v>
   <v>      -0.74272597       0.00003171       1.45584659 </v>
  </varray>
  <varray name="stress" >
   <v>       7.43256087      -0.00222285      -1.61731807 </v>
   <v>      -0.00222269       4.30856376      -0.01836171 </v>
   <v>      -1.61731807      -0.01836170      30.31167776 </v>
  </varray>
  <energy>
   <i name="e_fr_energy">   -186.87379063 </i>
   <i name="e_wo_entrp">   -186.70211640 </i>
   <i name="e_0_energy">     -0.34334847 </i>
  </energy>
  <time name="totalsc"> 1113.21 1116.84</time>
 </calculation>
 <calculation>
  <scstep>
   <time name="dav">   29.62   29.69</time>
   <time name="total">   30.30   30.38</time>
   <energy>
    <i name="alphaZ">     78.92462629 </i>
    <i name="ewald">  39381.34399719 </i>
    <i name="hartreedc"> -45338.90729516 </i>
    <i name="XCdc">   -239.05453040 </i>
    <i name="pawpsdc">   4192.08579262 </i>
    <i name="pawaedc">  -3610.10365309 </i>
    <i name="eentropy">     -0.27939445 </i>
    <i name="bandstr">  -1412.95128003 </i>
    <i name="atom">   6761.44252427 </i>
    <i name="e_fr_energy">   -187.49921275 </i>
    <i name="e_wo_entrp">   -187.21981831 </i>
    <i name="e_0_energy">   -187.35951553 </i>
   </energy>
  </scstep>
  <scstep>
   <time name="dav">   40.96   41.06</time>
   <time name="total">   41.63   41.74</time>
   <energy>
    <i name="e_fr_energy">   -189.50082093 </i>
    <i name="e_wo_entrp">   -189.16703229 </i>
    <i name="e_0_energy">   -189.33392661 </i>
   </energy>
  </scstep>
  <scstep>
   <time name="dav">   41.40   41.50</time>
   <time name="total">   42.10   42.21</time>
   <energy>
    <i name="e_fr_energy">   -189.34044926 </i>
    <i name="e_wo_entrp">   -189.07694104 </i>
    <i name="e_0_energy">   -189.20869515 </i>
   </energy>
  </scstep>
  <scstep>
   <time name="dav">   39.94   40.03</time>
   <time name="total">   40.65   40.75</time>
   <energy>
    <i name="e_fr_energy">   -188.76733273 </i>
    <i name="e_wo_entrp">   -188.48480825 </i>
    <i name="e_0_energy">   -188.62607049 </i>
   </energy>
  </scstep>
  <scstep>
   <time name="dav">   41.19   41.29</time>
   <time name="total">   41.87   41.98</time>
   <energy>
    <i name="e_fr_energy">   -188.89990644 </i>
    <i name="e_wo_entrp">   -188.61325578 </i>
    <i name="e_0_energy">   -188.75658111 </i>
   </energy>
  </scstep>
  <scstep>
   <time name="dav">   42.36   42.46</time>
   <time name="total">   43.04   43.15</time>
   <energy>
    <i name="e_fr_energy">   -188.74232211 </i>
    <i name="e_wo_entrp">   -188.45852222 </i>
    <i name="e_0_energy">   -188.60042216 </i>
   </energy>
  </scstep>
  <scstep>
   <time name="dav">   39.70   39.79</time>
   <time name="total">   40.41   40.52</time>
   <energy>
    <i name="e_fr_energy">   -188.71234853 </i>
    <i name="e_wo_entrp">   -188.42744612 </i>
    <i name="e_0_energy">   -188.56989732 </i>
   </energy>
  </scstep>
  <scstep>
   <time name="dav">   43.25   43.35</time>
   <time name="total">   43.93   44.04</time>
   <energy>
    <i name="e_fr_energy">   -188.69538883 </i>
    <i name="e_wo_entrp">   -188.41484056 </i>
    <i name="e_0_energy">   -188.55511470 </i>
   </energy>
  </scstep>
  <scstep>
   <time name="dav">   40.23   40.33</time>
   <time name="total">   40.92   41.02</time>
   <energy>
    <i name="e_fr_energy">   -188.67036283 </i>
    <i name="e_wo_entrp">   -188.38866706 </i>
    <i name="e_0_energy">   -188.52951494 </i>
   </energy>
  </scstep>
  <scstep>
   <time name="dav">   38.11   38.20</time>
   <time name="total">   38.79   38.89</time>
   <energy>
    <i name="e_fr_energy">   -188.66868995 </i>
    <i name="e_wo_entrp">   -188.38840612 </i>
    <i name="e_0_energy">   -188.52854804 </i>
   </energy>
  </scstep>
  <scstep>
   <time name="dav">   43.59   43.69</time>
   <time name="total">   44.27   44.39</time>
   <energy>
    <i name="e_fr_energy">   -188.66813628 </i>
    <i name="e_wo_entrp">   -188.38859575 </i>
    <i name="e_0_energy">   -188.52836602 </i>
   </energy>
  </scstep>
  <scstep>
   <time name="dav">   39.86   39.95</time>
   <time name="total">   40.55   40.65</time>
   <energy>
    <i name="e_fr_energy">   -188.66807406 </i>
    <i name="e_wo_entrp">   -188.38869903 </i>
    <i name="e_0_energy">   -188.52838655 </i>
   </energy>
  </scstep>
  <scstep>
   <time name="dav">   28.19   28.26</time>
   <time name="total">   28.24   28.31</time>
   <energy>
    <i name="alphaZ">     78.92462629 </i>
    <i name="ewald">  39381.34399719 </i>
    <i name="hartreedc"> -45349.61686236 </i>
    <i name="XCdc">   -237.97300453 </i>
    <i name="pawpsdc">   3950.53241162 </i>
    <i name="pawaedc">  -3365.04537065 </i>
    <i name="eentropy">     -0.27971003 </i>
    <i name="bandstr">  -1407.99666538 </i>
    <i name="atom">   6761.44252427 </i>
    <i name="e_fr_energy">   -188.66805357 </i>
    <i name="e_wo_entrp">   -188.38834355 </i>
    <i name="e_0_energy">   -188.52819856 </i>
   </energy>
  </scstep>
  <structure>
   <crystal>
    <varray name="basis" >
     <v>       8.85838213       5.10343580       0.00000000 </v>
     <v>      -8.85844750       5.10354874       0.00000000 </v>
     <v>       0.00000000       0.00000000      30.00000000 </v>
    </varray>
    <i name="volume">   2712.53109466 </i>
    <varray name="rec_basis" >
     <v>       0.05644413       0.09797249       0.00000000 </v>
     <v>      -0.05644288       0.09797177       0.00000000 </v>
     <v>       0.00000000       0.00000000       0.03333333 </v>
    </varray>
   </crystal>
   <varray name="positions" >
    <v>      -0.00037767       0.00092330      -0.00018954 </v>
    <v>       0.66698400       0.66776389      -0.00002733 </v>
    <v>       0.66673425       0.33136962       0.00016483 </v>
    <v>       0.33461717      -0.00018852       0.00016678 </v>
    <v>       0.99865255       0.33201221      -0.00012323 </v>
    <v>       0.66684175       0.00137968      -0.00003681 </v>
    <v>       0.00067597       0.66662288      -0.00003966 </v>
    <v>       0.33229564       0.33170352       0.00008172 </v>
    <v>       0.33350647       0.66834627       0.00003183 </v>
    <v>       0.10964626       0.21798191       0.95185458 </v>
    <v>       0.21820201       0.10979501       0.04804771 </v>
    <v>       0.11150383       0.55615729       0.95069089 </v>
    <v>       0.22304781       0.44494743       0.04918507 </v>
    <v>       0.10800946       0.89028084       0.95203647 </v>
    <v>       0.22178260       0.77696990       0.04935742 </v>
    <v>       0.44840056       0.22485155       0.95195049 </v>
    <v>       0.55767164       0.11561432       0.04813941 </v>
    <v>       0.44796681       0.55721794       0.95192996 </v>
    <v>       0.55895707       0.44578492       0.04687253 </v>
    <v>       0.44390025       0.88771751       0.95074404 </v>
    <v>       0.55684282       0.77475130       0.04797866 </v>
    <v>       0.77536713       0.22453763       0.95196439 </v>
    <v>       0.89113713       0.10856724       0.04799746 </v>
    <v>       0.77423320       0.55397565       0.95316733 </v>
    <v>       0.88458144       0.44305426       0.04806565 </v>
    <v>       0.77998408       0.88665855       0.95304814 </v>
    <v>       0.88705024       0.77941833       0.04694113 </v>
   </varray>
  </structure>
  <varray name="forces" >
   <v>      -0.24590852       0.11434428      -0.04091438 </v>
   <v>      -0.13332441       0.08534888      -0.01652816 </v>
   <v>       0.32186634      -0.21173188       0.03135541 </v>
   <v>       0.40877383       0.00335773      -0.03757815 </v>
   <v>       0.03467823      -0.12806775       0.04197150 </v>
   <v>      -0.31135271       0.06360728       0.00555748 </v>
   <v>       0.37358497       0.22938627      -0.09910108 </v>
   <v>      -0.02599932      -0.27566181       0.08441817 </v>
   <v>      -0.43031097       0.11494682       0.00469370 </v>
   <v>       0.08881036       0.02588115      -0.09720312 </v>
   <v>      -0.07658941       0.04383064      -0.03077057 </v>
   <v>      -0.06617836       0.09791398      -0.02598094 </v>
   <v>       0.07410977       0.10403118      -0.11033028 </v>
   <v>       0.02727953      -0.11031800       0.09305468 </v>
   <v>       0.07353781      -0.09211516       0.14297793 </v>
   <v>      -0.10812765       0.06582974       0.07500856 </v>
   <v>      -0.02856143       0.09336934       0.19638378 </v>
   <v>      -0.05393340      -0.07133827       0.16990552 </v>
   <v>      -0.05115550      -0.07877991      -0.19183122 </v>
   <v>       0.05461079      -0.09647855      -0.14402464 </v>
   <v>      -0.01958396      -0.08977008      -0.02622037 </v>
   <v>      -0.07164314       0.00069206      -0.16613737 </v>
   <v>       0.06125554      -0.01434879       0.05459224 </v>
   <v>       0.06613659       0.06979891       0.22725436 </v>
   <v>      -0.09393376       0.03897535      -0.02120504 </v>
   <v>       0.02976528       0.01279997       0.06061684 </v>
   <v>       0.10219351       0.00449661      -0.17996484 </v>
  </varray>
  <varray name="stress" >
   <v>     -19.94153093      -0.01051888       0.06881290 </v>
   <v>      -0.01051891     -19.46703257       0.01182126 </v>
   <v>       0.06881285       0.01182135      -1.73878179 </v>
  </varray>
  <energy>
   <i name="e_fr_energy">   -188.66805357 </i>
   <i name="e_wo_entrp">   -188.52819856 </i>
   <i name="e_0_energy">     -0.27971003 </i>
  </energy>
  <time name="totalsc">  575.08  576.56</time>
 </calculation>
 <calculation>
  <scstep>
   <time name="dav">   32.47   32.55</time>
   <time name="total">   33.15   33.23</time>
   <energy>
    <i name="alphaZ">     82.35845168 </i>
    <i name="ewald">  41309.99666828 </i>
    <i name="hartreedc"> -47308.94732492 </i>
    <i name="XCdc">   -233.83842656 </i>
    <i name="pawpsdc">   3950.04126837 </i>
    <i name="pawaedc">  -3364.54940135 </i>
    <i name="eentropy">     -0.23295356 </i>
    <i name="bandstr">  -1386.86125506 </i>
    <i name="atom">   6761.44252427 </i>
    <i name="e_fr_energy">   -190.59044884 </i>
    <i name="e_wo_entrp">   -190.35749529 </i>
    <i name="e_0_energy">   -190.47397207 </i>
   </energy>
  </scstep>
  <scstep>
   <time name="dav">   37.96   38.05</time>
   <time name="total">   38.60   38.70</time>
   <energy>
    <i name="e_fr_energy">   -190.57311153 </i>
    <i name="e_wo_entrp">   -190.34520320 </i>
    <i name="e_0_energy">   -190.45915737 </i>
   </energy>
  </scstep>
  <scstep>
   <time name="dav">   40.96   41.06</time>
   <time name="total">   41.62   41.73</time>
   <energy>
    <i name="e_fr_energy">   -190.06237089 </i>
    <i name="e_wo_entrp">   -189.81379730 </i>
    <i name="e_0_energy">   -189.93808410 </i>
   </energy>
  </scstep>
  <scstep>
   <time name="dav">   42.50   42.60</time>
   <time name="total">   43.17   43.28</time>
   <energy>
    <i name="e_fr_energy">   -189.85613869 </i>
    <i name="e_wo_entrp">   -189.62776843 </i>
    <i name="e_0_energy">   -189.74195356 </i>
   </energy>
  </scstep>
  <scstep>
   <time name="dav">   37.69   37.78</time>
   <time name="total">   38.38   38.48</time>
   <energy>
    <i name="e_fr_energy">   -189.79146922 </i>
    <i name="e_wo_entrp">   -189.54904011 </i>
    <i name="e_0_energy">   -189.67025467 </i>
   </energy>
  </scstep>
  <scstep>
   <time name="dav">   42.29   42.39</time>
   <time name="total">   42.96   43.07</time>
   <energy>
    <i name="e_fr_energy">   -189.75974517 </i>
    <i name="e_wo_entrp">   -189.52726133 </i>
    <i name="e_0_energy">   -189.64350325 </i>
   </energy>
  </scstep>
  <scstep>
   <time name="dav">   42.26   42.36</time>
   <time name="total">   42.93   43.04</time>
   <energy>
    <i name="e_fr_energy">   -189.75228461 </i>
    <i name="e_wo_entrp">   -189.51764377 </i>
    <i name="e_0_energy">   -189.63496419 </i>
   </energy>
  </scstep>
  <scstep>
   <time name="dav">   36.00   36.09</time>
   <time name="total">   36.67   36.76</time>
   <energy>
    <i name="e_fr_energy">   -189.75230351 </i>
    <i name="e_wo_entrp">   -189.51788249 </i>
    <i name="e_0_energy">   -189.63509300 </i>
   </energy>
  </scstep>
  <scstep>
   <time name="dav">   36.14   36.23</time>
   <time name="total">   36.81   36.91</time>
   <energy>
    <i name="e_fr_energy">   -189.75252769 </i>
    <i name="e_wo_entrp">   -189.51801192 </i>
    <i name="e_0_energy">   -189.63526980 </i>
   </energy>
  </scstep>
  <scstep>
   <time name="dav">   35.97   36.06</time>
   <time name="total">   36.65   36.75</time>
   <energy>
    <i name="e_fr_energy">   -189.75269314 </i>
    <i name="e_wo_entrp">   -189.51802518 </i>
    <i name="e_0_energy">   -189.63535916 </i>
   </energy>
  </scstep>
  <scstep>
   <time name="dav">   33.57   33.65</time>
   <time name="total">   34.23   34.32</time>
   <energy>
    <i name="e_fr_energy">   -189.75239387 </i>
    <i name="e_wo_entrp">   -189.51771266 </i>
    <i name="e_0_energy">   -189.63505327 </i>
   </energy>
  </scstep>
  <scstep>
   <time name="dav">   23.87   23.93</time>
   <time name="total">   23.91   23.98</time>
   <energy>
    <i name="alphaZ">     82.35845168 </i>
    <i name="ewald">  41309.99666828 </i>
    <i name="hartreedc"> -47282.24638930 </i>
    <i name="XCdc">   -235.23592683 </i>
    <i name="pawpsdc">   4038.83843146 </i>
    <i name="pawaedc">  -3454.54614247 </i>
    <i name="eentropy">     -0.23462643 </i>
    <i name="bandstr">  -1410.12539108 </i>
    <i name="atom">   6761.44252427 </i>
    <i name="e_fr_energy">   -189.75240042 </i>
    <i name="e_wo_entrp">   -189.51777400 </i>
    <i name="e_0_energy">   -189.63508721 </i>
   </energy>
  </scstep>
  <structure>
   <crystal>
    <varray name="basis" >
     <v>       8.66944257       4.99710782       0.00000000 </v>
     <v>      -8.66962134       4.99741767       0.00000000 </v>
     <v>       0.00000000       0.00000000      30.00000000 </v>
    </varray>
    <i name="volume">   2599.43574178 </i>
    <varray name="rec_basis" >
     <v>       0.05767503       0.10005581       0.00000000 </v>
     <v>      -0.05767145       0.10005374       0.00000000 </v>
     <v>       0.00000000       0.00000000       0.03333333 </v>
    </varray>
   </crystal>
   <varray name="positions" >
    <v>      -0.00042332       0.00135101      -0.00021279 </v>
    <v>       0.66699826       0.66803479      -0.00003673 </v>
    <v>       0.66669032       0.33070611       0.00018265 </v>
    <v>       0.33501622      -0.00057634       0.00014542 </v>
    <v>       0.99847197       0.33176488      -0.00009937 </v>
    <v>       0.66664834       0.00178561      -0.00003366 </v>
    <v>       0.00141876       0.66664653      -0.00009599 </v>
    <v>       0.33181008       0.33126801       0.00012970 </v>
    <v>       0.33328434       0.66895246       0.00003450 </v>
    <v>       0.10977498       0.21793967       0.95179933 </v>
    <v>       0.21820151       0.10994195       0.04803022 </v>
    <v>       0.11160371       0.55638456       0.95067612 </v>
    <v>       0.22329294       0.44504990       0.04912235 </v>
    <v>       0.10785142       0.89007029       0.95208937 </v>
    <v>       0.22169949       0.77674523       0.04943869 </v>
    <v>       0.44840647       0.22506560       0.95199312 </v>
    <v>       0.55780014       0.11579780       0.04825103 </v>
    <v>       0.44779572       0.55715067       0.95202654 </v>
    <v>       0.55877622       0.44570254       0.04676349 </v>
    <v>       0.44379163       0.88750377       0.95066217 </v>
    <v>       0.55667399       0.77462018       0.04796376 </v>
    <v>       0.77529933       0.22460775       0.95186996 </v>
    <v>       0.89117212       0.10848431       0.04802849 </v>
    <v>       0.77441346       0.55402861       0.95329650 </v>
    <v>       0.88455615       0.44320978       0.04805359 </v>
    <v>       0.78003411       0.88665129       0.95308260 </v>
    <v>       0.88715611       0.77932748       0.04683884 </v>
   </varray>
  </structure>
  <varray name="forces" >
   <v>      -0.25975539       0.15782520      -0.01285296 </v>
   <v>      -0.14590677       0.05250177      -0.01146876 </v>
   <v>       0.32611081      -0.21717767       0.00616129 </v>
   <v>       0.46290539      -0.04674317      -0.05269107 </v>
   <v>       0.05135569      -0.07255554       0.05257247 </v>
   <v>      -0.33835591       0.02239826       0.01201451 </v>
   <v>       0.45476140       0.28110896      -0.08507848 </v>
   <v>      -0.08168247      -0.27533343       0.06652163 </v>
   <v>      -0.48187980       0.08040399       0.00243457 </v>
   <v>       0.08120911      -0.10409101      -0.61787342 </v>
   <v>      -0.05638930      -0.10506446       0.46486575 </v>
   <v>      -0.00977390       0.03023646      -0.59551759 </v>
   <v>       0.02852863       0.04958938       0.43055479 </v>
   <v>      -0.08418197      -0.03170637      -0.39996150 </v>
   <v>       0.02499331      -0.02785867       0.73593596 </v>
   <v>       0.00663475       0.12545136      -0.41507871 </v>
   <v>      -0.06180859       0.15486186       0.71264931 </v>
   <v>       0.01465963       0.04270046      -0.32094681 </v>
   <v>       0.02856599       0.05745237       0.25998840 </v>
   <v>       0.02597444      -0.01407556      -0.71153141 </v>
   <v>       0.08279115      -0.01101039       0.46599648 </v>
   <v>      -0.14665529       0.00111989      -0.66524850 </v>
   <v>       0.13296382      -0.02547698       0.54155866 </v>
   <v>      -0.00624627      -0.06582012      -0.21670792 </v>
   <v>      -0.09417759      -0.08313070       0.47843746 </v>
   <v>       0.08775670       0.01419298      -0.39111160 </v>
   <v>      -0.04239758       0.01020110       0.26637746 </v>
  </varray>
  <varray name="stress" >
   <v>     -10.17521479      -0.00108739       0.07150563 </v>
   <v>      -0.00108747      -9.79006894       0.01322481 </v>
   <v>       0.07150549       0.01322467       6.54200921 </v>
  </varray>
  <energy>
   <i name="e_fr_energy">   -189.75240042 </i>
   <i name="e_wo_entrp">   -189.63508721 </i>
   <i name="e_0_energy">     -0.23462643 </i>
  </energy>
  <time name="totalsc">  507.40  508.99</time>
 </calculation>
 <calculation>
  <scstep>
   <time name="dav">   29.65   29.73</time>
   <time name="total">   30.31   30.39</time>
   <energy>
    <i name="alphaZ">     85.83394583 </i>
    <i name="ewald">  42838.23491151 </i>
    <i name="hartreedc"> -48855.05037326 </i>
    <i name="XCdc">   -232.95814963 </i>
    <i name="pawpsdc">   4038.95628338 </i>
    <i name="pawaedc">  -3454.66154517 </i>
    <i name="eentropy">     -0.19129108 </i>
    <i name="bandstr">  -1372.90208829 </i>
    <i name="atom">   6761.44252427 </i>
    <i name="e_fr_energy">   -191.29578244 </i>
    <i name="e_wo_entrp">   -191.10449136 </i>
    <i name="e_0_energy">   -191.20013690 </i>
   </energy>
  </scstep>
  <scstep>
   <time name="dav">   44.38   44.48</time>
   <time name="total">   45.03   45.15</time>
   <energy>
    <i name="e_fr_energy">   -191.18667476 </i>
    <i name="e_wo_entrp">   -190.98847707 </i>
    <i name="e_0_energy">   -191.08757592 </i>
   </energy>
  </scstep>
  <scstep>
   <time name="dav">   39.18   39.27</time>
   <time name="total">   39.82   39.92</time>
   <energy>
    <i name="e_fr_energy">   -191.23516556 </i>
    <i name="e_wo_entrp">   -191.02358763 </i>
    <i name="e_0_energy">   -191.12937660 </i>
   </energy>
  </scstep>
  <scstep>
   <time name="dav">   42.03   42.13</time>
   <time name="total">   42.68   42.79</time>
   <energy>
    <i name="e_fr_energy">   -190.90809382 </i>
    <i name="e_wo_entrp">   -190.69895165 </i>
    <i name="e_0_energy">   -190.80352274 </i>
   </energy>
  </scstep>
  <scstep>
   <time name="dav">   38.25   38.34</time>
   <time name="total">   38.90   39.01</time>
   <energy>
    <i name="e_fr_energy">   -190.89587727 </i>
    <i name="e_wo_entrp">   -190.71046297 </i>
    <i name="e_0_energy">   -190.80317012 </i>
   </energy>
  </scstep>
  <scstep>
   <time name="dav">   38.17   38.27</time>
   <time name="total">   38.85   38.95</time>
   <energy>
    <i name="e_fr_energy">   -190.71276186 </i>
    <i name="e_wo_entrp">   -190.51541628 </i>
    <i name="e_0_energy">   -190.61408907 </i>
   </energy>
  </scstep>
  <scstep>
   <time name="dav">   38.82   38.91</time>
   <time name="total">   39.48   39.58</time>
   <energy>
    <i name="e_fr_energy">   -190.71129151 </i>
    <i name="e_wo_entrp">   -190.51507003 </i>
    <i name="e_0_energy">   -190.61318077 </i>
   </energy>
  </scstep>
  <scstep>
   <time name="dav">   35.28   35.36</time>
   <time name="total">   35.94   36.03</time>
   <energy>
    <i name="e_fr_energy">   -190.70781173 </i>
    <i name="e_wo_entrp">   -190.51103115 </i>
    <i name="e_0_energy">   -190.60942144 </i>
   </energy>
  </scstep>
  <scstep>
   <time name="dav">   41.14   41.24</time>
   <time name="total">   41.79   41.90</time>
   <energy>
    <i name="e_fr_energy">   -190.70851003 </i>
    <i name="e_wo_entrp">   -190.51173214 </i>
    <i name="e_0_energy">   -190.61012109 </i>
   </energy>
  </scstep>
  <scstep>
   <time name="dav">   35.88   35.97</time>
   <time name="total">   36.54   36.63</time>
   <energy>
    <i name="e_fr_energy">   -190.70826729 </i>
    <i name="e_wo_entrp">   -190.51154559 </i>
    <i name="e_0_energy">   -190.60990644 </i>
   </energy>
  </scstep>
  <scstep>
   <time name="dav">   34.54   34.62</time>
   <time name="total">   35.18   35.27</time>
   <energy>
    <i name="e_fr_energy">   -190.70807591 </i>
    <i name="e_wo_entrp">   -190.51133375 </i>
    <i name="e_0_energy">   -190.60970483 </i>
   </energy>
  </scstep>
  <scstep>
   <time name="dav">   25.60   25.66</time>
   <time name="total">   25.64   25.71</time>
   <energy>
    <i name="alphaZ">     85.83394583 </i>
    <i name="ewald">  42838.23491151 </i>
    <i name="hartreedc"> -48826.47419257 </i>
    <i name="XCdc">   -234.29466903 </i>
    <i name="pawpsdc">   4063.15589410 </i>
    <i name="pawaedc">  -3479.02599314 </i>
    <i name="eentropy">     -0.19682583 </i>
    <i name="bandstr">  -1399.38368343 </i>
    <i name="atom">   6761.44252427 </i>
    <i name="e_fr_energy">   -190.70808829 </i>
    <i name="e_wo_entrp">   -190.51126246 </i>
    <i name="e_0_energy">   -190.60967538 </i>
   </energy>
  </scstep>
  <structure>
   <crystal>
    <varray name="basis" >
     <v>       8.48681048       4.89808730       0.00000000 </v>
     <v>      -8.48686806       4.89818729       0.00000000 </v>
     <v>       0.00000000       0.00000000      30.00000000 </v>
    </varray>
    <i name="volume">   2494.18223614 </i>
    <varray name="rec_basis" >
     <v>       0.05891535       0.10207997       0.00000000 </v>
     <v>      -0.05891415       0.10207928       0.00000000 </v>
     <v>       0.00000000       0.00000000       0.03333333 </v>
    </varray>
   </crystal>
   <varray name="positions" >
    <v>      -0.00028452       0.00340679      -0.00021567 </v>
    <v>       0.66670038       0.66882746      -0.00005619 </v>
    <v>       0.66650010       0.32814686       0.00017409 </v>
    <v>       0.33634905      -0.00274412       0.00002354 </v>
    <v>       0.99836469       0.33123867       0.00001845 </v>
    <v>       0.66542485       0.00308487      -0.00000332 </v>
    <v>       0.00506902       0.66677750      -0.00026029 </v>
    <v>       0.32971018       0.32991801       0.00025230 </v>
    <v>       0.33188715       0.67118568       0.00003763 </v>
    <v>       0.10908198       0.21668155       0.95007957 </v>
    <v>       0.21699794       0.10908808       0.04941199 </v>
    <v>       0.11167044       0.55636035       0.94896131 </v>
    <v>       0.22350621       0.44518756       0.05047136 </v>
    <v>       0.10738426       0.89053084       0.95084419 </v>
    <v>       0.22170541       0.77670959       0.05146405 </v>
    <v>       0.44952938       0.22581178       0.95071913 </v>
    <v>       0.55865270       0.11719229       0.05016330 </v>
    <v>       0.44849812       0.55755061       0.95094680 </v>
    <v>       0.55969245       0.44618393       0.04768399 </v>
    <v>       0.44396113       0.88756758       0.94870887 </v>
    <v>       0.55724662       0.77430118       0.04934499 </v>
    <v>       0.77466999       0.22525321       0.95007034 </v>
    <v>       0.89156798       0.10771379       0.04956173 </v>
    <v>       0.77353748       0.55340513       0.95247226 </v>
    <v>       0.88339082       0.44272582       0.04946686 </v>
    <v>       0.78052674       0.88634354       0.95189067 </v>
    <v>       0.88687391       0.77976591       0.04776794 </v>
   </varray>
  </structure>
  <varray name="forces" >
   <v>      -0.31301952       0.17134671       0.04307095 </v>
   <v>      -0.12662970       0.02713628      -0.00432515 </v>
   <v>       0.27349369      -0.19855885      -0.04798368 </v>
   <v>       0.53703473      -0.10891393      -0.02331869 </v>
   <v>       0.08582798      -0.04024521       0.03100430 </v>
   <v>      -0.32738392      -0.02611300       0.01235835 </v>
   <v>       0.45973405       0.31413036      -0.02206579 </v>
   <v>      -0.10936264      -0.25828390       0.02018071 </v>
   <v>      -0.52970649       0.09403819      -0.01006420 </v>
   <v>       0.00293544      -0.06948639      -0.46791046 </v>
   <v>       0.04348622      -0.07280184       0.25886170 </v>
   <v>       0.06892943      -0.01275269      -0.46199440 </v>
   <v>      -0.03180348       0.03117212       0.26941395 </v>
   <v>       0.00175769       0.02260341      -0.24525130 </v>
   <v>      -0.02018859       0.03195761       0.60083206 </v>
   <v>       0.02826568       0.00696566      -0.22033936 </v>
   <v>      -0.02231526       0.03649493       0.54919705 </v>
   <v>      -0.03636087      -0.00983176      -0.16929007 </v>
   <v>       0.02438034      -0.00001973       0.18015112 </v>
   <v>       0.03672602       0.04401518      -0.54759733 </v>
   <v>      -0.03560925       0.02046927       0.30162125 </v>
   <v>      -0.03760723      -0.00026911      -0.44741132 </v>
   <v>       0.00792740      -0.04281531       0.37378246 </v>
   <v>       0.05578813      -0.00231692      -0.09698578 </v>
   <v>      -0.02641198      -0.01865759       0.30685436 </v>
   <v>      -0.03305919       0.02918153      -0.31877735 </v>
   <v>       0.02317135       0.03155498       0.13598662 </v>
  </varray>
  <varray name="stress" >
   <v>      -5.70160880      -0.01947773      -0.12523130 </v>
   <v>      -0.01947776      -5.90713645       0.00807660 </v>
   <v>      -0.12523140       0.00807654       4.52071014 </v>
  </varray>
  <energy>
   <i name="e_fr_energy">   -190.70808829 </i>
   <i name="e_wo_entrp">   -190.60967538 </i>
   <i name="e_0_energy">     -0.19682583 </i>
  </energy>
  <time name="totalsc">  508.73  510.04</time>
 </calculation>
 <calculation>
  <scstep>
   <time name="dav">   29.37   29.44</time>
   <time name="total">   30.02   30.09</time>
   <energy>
    <i name="alphaZ">     90.25218549 </i>
    <i name="ewald">  44705.22082642 </i>
    <i name="hartreedc"> -50749.31343503 </i>
    <i name="XCdc">   -231.76722914 </i>
    <i name="pawpsdc">   4063.12263681 </i>
    <i name="pawaedc">  -3478.98891805 </i>
    <i name="eentropy">     -0.17770037 </i>
    <i name="bandstr">  -1351.89073796 </i>
    <i name="atom">   6761.44252427 </i>
    <i name="e_fr_energy">   -192.09984756 </i>
    <i name="e_wo_entrp">   -191.92214719 </i>
    <i name="e_0_energy">   -192.01099737 </i>
   </energy>
  </scstep>
  <scstep>
   <time name="dav">   41.01   41.11</time>
   <time name="total">   41.65   41.76</time>
   <energy>
    <i name="e_fr_energy">   -191.94067363 </i>
    <i name="e_wo_entrp">   -191.74185875 </i>
    <i name="e_0_energy">   -191.84126619 </i>
   </energy>
  </scstep>
  <scstep>
   <time name="dav">   40.70   40.80</time>
   <time name="total">   41.32   41.43</time>
   <energy>
    <i name="e_fr_energy">   -192.38462705 </i>
    <i name="e_wo_entrp">   -192.19339021 </i>
    <i name="e_0_energy">   -192.28900863 </i>
   </energy>
  </scstep>
  <scstep>
   <time name="dav">   41.13   41.23</time>
   <time name="total">   41.77   41.88</time>
   <energy>
    <i name="e_fr_energy">   -191.53306904 </i>
    <i name="e_wo_entrp">   -191.35269308 </i>
    <i name="e_0_energy">   -191.44288106 </i>
   </energy>
  </scstep>
  <scstep>
   <time name="dav">   39.94   40.04</time>
   <time name="total">   40.58   40.68</time>
   <energy>
    <i name="e_fr_energy">   -191.50605900 </i>
    <i name="e_wo_entrp">   -191.30933393 </i>
    <i name="e_0_energy">   -191.40769647 </i>
   </energy>
  </scstep>
  <scstep>
   <time name="dav">   40.98   41.08</time>
   <time name="total">   41.62   41.73</time>
   <energy>
    <i name="e_fr_energy">   -191.37039662 </i>
    <i name="e_wo_entrp">   -191.18773873 </i>
    <i name="e_0_energy">   -191.27906767 </i>
   </energy>
  </scstep>
  <scstep>
   <time name="dav">   40.33   40.43</time>
   <time name="total">   40.98   41.14</time>
   <energy>
    <i name="e_fr_energy">   -191.34658795 </i>
    <i name="e_wo_entrp">   -191.16141050 </i>
    <i name="e_0_energy">   -191.25399923 </i>
   </energy>
  </scstep>
  <scstep>
   <time name="dav">   40.58   40.68</time>
   <time name="total">   41.22   41.33</time>
   <energy>
    <i name="e_fr_energy">   -191.34521109 </i>
    <i name="e_wo_entrp">   -191.15836241 </i>
    <i name="e_0_energy">   -191.25178675 </i>
   </energy>
  </scstep>
  <scstep>
   <time name="dav">   39.01   39.10</time>
   <time name="total">   39.65   39.76</time>
   <energy>
    <i name="e_fr_energy">   -191.33964587 </i>
    <i name="e_wo_entrp">   -191.15367901 </i>
    <i name="e_0_energy">   -191.24666244 </i>
   </energy>
  </scstep>
  <scstep>
   <time name="dav">   39.12   39.22</time>
   <time name="total">   39.76   39.86</time>
   <energy>
    <i name="e_fr_energy">   -191.33978553 </i>
    <i name="e_wo_entrp">   -191.15353816 </i>
    <i name="e_0_energy">   -191.24666185 </i>
   </energy>
  </scstep>
  <scstep>
   <time name="dav">   36.84   36.93</time>
   <time name="total">   37.48   37.58</time>
   <energy>
    <i name="e_fr_energy">   -191.33966351 </i>
    <i name="e_wo_entrp">   -191.15310787 </i>
    <i name="e_0_energy">   -191.24638569 </i>
   </energy>
  </scstep>
  <scstep>
   <time name="dav">   27.12   27.19</time>
   <time name="total">   27.17   27.24</time>
   <energy>
    <i name="alphaZ">     90.25218549 </i>
    <i name="ewald">  44705.22082642 </i>
    <i name="hartreedc"> -50714.76895119 </i>
    <i name="XCdc">   -233.33154892 </i>
    <i name="pawpsdc">   4085.43255089 </i>
    <i name="pawaedc">  -3501.38478633 </i>
    <i name="eentropy">     -0.18643553 </i>
    <i name="bandstr">  -1384.01599265 </i>
    <i name="atom">   6761.44252427 </i>
    <i name="e_fr_energy">   -191.33962755 </i>
    <i name="e_wo_entrp">   -191.15319202 </i>
    <i name="e_0_energy">   -191.24640978 </i>
   </energy>
  </scstep>
  <structure>
   <crystal>
    <varray name="basis" >
     <v>       8.28066299       4.77315037       0.00000000 </v>
     <v>      -8.28169185       4.77493280       0.00000000 </v>
     <v>       0.00000000       0.00000000      30.00000000 </v>
    </varray>
    <i name="volume">   2372.08109446 </i>
    <varray name="rec_basis" >
     <v>       0.06038916       0.10473957       0.00000000 </v>
     <v>      -0.06036662       0.10472656       0.00000000 </v>
     <v>       0.00000000       0.00000000       0.03333333 </v>
    </varray>
   </crystal>
   <varray name="positions" >
    <v>      -0.00026818       0.00780087      -0.00004591 </v>
    <v>       0.66604511       0.67004462      -0.00007236 </v>
    <v>       0.66601126       0.32366872      -0.00001346 </v>
    <v>       0.33879420      -0.00794330      -0.00010014 </v>
    <v>       0.99857875       0.33024792       0.00016428 </v>
    <v>       0.66269271       0.00510080       0.00005222 </v>
    <v>       0.01240370       0.66734066      -0.00036846 </v>
    <v>       0.32567267       0.32756079       0.00034025 </v>
    <v>       0.32912813       0.67600919       0.00000185 </v>
    <v>       0.10788192       0.21531482       0.94762021 </v>
    <v>       0.21586899       0.10746801       0.05104098 </v>
    <v>       0.11189716       0.55557515       0.94648667 </v>
    <v>       0.22352044       0.44568725       0.05216277 </v>
    <v>       0.10754261       0.89119786       0.94929957 </v>
    <v>       0.22200265       0.77736663       0.05451753 </v>
    <v>       0.45035230       0.22589628       0.94925560 </v>
    <v>       0.55922306       0.11826450       0.05295057 </v>
    <v>       0.44869698       0.55793979       0.94970964 </v>
    <v>       0.56048734       0.44636177       0.04888812 </v>
    <v>       0.44484367       0.88804519       0.94587770 </v>
    <v>       0.55770222       0.77469540       0.05111937 </v>
    <v>       0.77417515       0.22574849       0.94767776 </v>
    <v>       0.89133413       0.10689051       0.05162133 </v>
    <v>       0.77323009       0.55266590       0.95158703 </v>
    <v>       0.88245160       0.44229164       0.05127327 </v>
    <v>       0.78084163       0.88670307       0.95013636 </v>
    <v>       0.88710414       0.78027192       0.04881712 </v>
   </varray>
  </structure>
  <varray name="forces" >
   <v>      -0.41249626       0.06685198       0.01299831 </v>
   <v>      -0.08147138       0.02531276      -0.00107002 </v>
   <v>       0.16229162      -0.11810071       0.00091607 </v>
   <v>       0.32962385      -0.09007243       0.05684838 </v>
   <v>       0.11953037      -0.00358920      -0.02975338 </v>
   <v>      -0.09272117      -0.04722668      -0.01995920 </v>
   <v>       0.27693977       0.19675622       0.01968009 </v>
   <v>      -0.16640820      -0.13978856       0.01298145 </v>
   <v>      -0.24563079       0.07480394      -0.07971942 </v>
   <v>      -0.07025282      -0.02431496      -0.16749093 </v>
   <v>       0.14768083      -0.02475377      -0.07715719 </v>
   <v>       0.12813455      -0.01304233      -0.18613641 </v>
   <v>      -0.08861775       0.07549348       0.00443786 </v>
   <v>       0.11116998       0.06366265       0.08472843 </v>
   <v>      -0.02017347       0.07881026       0.34925866 </v>
   <v>       0.03253215      -0.15939321       0.06538957 </v>
   <v>       0.01396731      -0.08220655       0.16876602 </v>
   <v>      -0.15039031      -0.07996243       0.06822648 </v>
   <v>       0.01545765      -0.08329483      -0.06115237 </v>
   <v>       0.07855932       0.05695687      -0.25177271 </v>
   <v>      -0.17098195      -0.00957730       0.02692249 </v>
   <v>       0.05547292       0.00283920      -0.09261071 </v>
   <v>      -0.13608652      -0.05027944       0.11482146 </v>
   <v>       0.14256220       0.09703650       0.12289425 </v>
   <v>       0.04749386       0.06253043       0.00775147 </v>
   <v>      -0.13074868       0.05449812      -0.04527927 </v>
   <v>       0.10456291       0.07004997      -0.10451936 </v>
  </varray>
  <varray name="stress" >
   <v>       0.19597359       0.03267604      -0.31658980 </v>
   <v>       0.03267603      -0.30403712       0.04221148 </v>
   <v>      -0.31658996       0.04221132      -0.26740305 </v>
  </varray>
  <energy>
   <i name="e_fr_energy">   -191.33962755 </i>
   <i name="e_wo_entrp">   -191.24640978 </i>
   <i name="e_0_energy">     -0.18643553 </i>
  </energy>
  <time name="totalsc">  522.27  523.67</time>
 </calculation>
 <calculation>
  <scstep>
   <time name="dav">   29.49   29.56</time>
   <time name="total">   30.12   30.20</time>
   <energy>
    <i name="alphaZ">     90.27597505 </i>
    <i name="ewald">  44694.98732217 </i>
    <i name="hartreedc"> -50705.54411516 </i>
    <i name="XCdc">   -233.40081747 </i>
    <i name="pawpsdc">   4085.31606925 </i>
    <i name="pawaedc">  -3501.26386589 </i>
    <i name="eentropy">     -0.18927938 </i>
    <i name="bandstr">  -1383.01378418 </i>
    <i name="atom">   6761.44252427 </i>
    <i name="e_fr_energy">   -191.38997134 </i>
    <i name="e_wo_entrp">   -191.20069197 </i>
    <i name="e_0_energy">   -191.29533165 </i>
   </energy>
  </scstep>
  <scstep>
   <time name="dav">   41.89   41.99</time>
   <time name="total">   42.53   42.64</time>
   <energy>
    <i name="e_fr_energy">   -191.44682137 </i>
    <i name="e_wo_entrp">   -191.24595103 </i>
    <i name="e_0_energy">   -191.34638620 </i>
   </energy>
  </scstep>
  <scstep>
   <time name="dav">   40.43   40.53</time>
   <time name="total">   41.08   41.18</time>
   <energy>
    <i name="e_fr_energy">   -191.39973746 </i>
    <i name="e_wo_entrp">   -191.21000181 </i>
    <i name="e_0_energy">   -191.30486964 </i>
   </energy>
  </scstep>
  <scstep>
   <time name="dav">   38.72   38.81</time>
   <time name="total">   39.36   39.46</time>
   <energy>
    <i name="e_fr_energy">   -191.40002538 </i>
    <i name="e_wo_entrp">   -191.20887129 </i>
    <i name="e_0_energy">   -191.30444833 </i>
   </energy>
  </scstep>
  <scstep>
   <time name="dav">   38.84   38.93</time>
   <time name="total">   39.48   39.58</time>
   <energy>
    <i name="e_fr_energy">   -191.39680858 </i>
    <i name="e_wo_entrp">   -191.20585117 </i>
    <i name="e_0_energy">   -191.30132987 </i>
   </energy>
  </scstep>
  <scstep>
   <time name="dav">   38.69   38.79</time>
   <time name="total">   39.32   39.42</time>
   <energy>
    <i name="e_fr_energy">   -191.39686852 </i>
    <i name="e_wo_entrp">   -191.20563584 </i>
    <i name="e_0_energy">   -191.30125218 </i>
   </energy>
  </scstep>
  <scstep>
   <time name="dav">   37.75   37.84</time>
   <time name="total">   38.39   38.49</time>
   <energy>
    <i name="e_fr_energy">   -191.39685211 </i>
    <i name="e_wo_entrp">   -191.20585621 </i>
    <i name="e_0_energy">   -191.30135416 </i>
   </energy>
  </scstep>
  <scstep>
   <time name="dav">   33.35   33.43</time>
   <time name="total">   34.01   34.10</time>
   <energy>
    <i name="e_fr_energy">   -191.39639120 </i>
    <i name="e_wo_entrp">   -191.20534897 </i>
    <i name="e_0_energy">   -191.30087009 </i>
   </energy>
  </scstep>
  <scstep>
   <time name="dav">   24.50   24.56</time>
   <time name="total">   24.55   24.61</time>
   <energy>
    <i name="alphaZ">     90.27597505 </i>
    <i name="ewald">  44694.98732217 </i>
    <i name="hartreedc"> -50706.29649567 </i>
    <i name="XCdc">   -233.38814030 </i>
    <i name="pawpsdc">   4082.79682283 </i>
    <i name="pawaedc">  -3498.70400452 </i>
    <i name="eentropy">     -0.19104823 </i>
    <i name="bandstr">  -1382.31936240 </i>
    <i name="atom">   6761.44252427 </i>
    <i name="e_fr_energy">   -191.39640678 </i>
    <i name="e_wo_entrp">   -191.20535856 </i>
    <i name="e_0_energy">   -191.30088267 </i>
   </energy>
  </scstep>
  <structure>
   <crystal>
    <varray name="basis" >
     <v>       8.28545269       4.77008676       0.00000000 </v>
     <v>      -8.28565723       4.77043694       0.00000000 </v>
     <v>       0.00000000       0.00000000      30.00000000 </v>
    </varray>
    <i name="volume">   2371.45600267 </i>
    <varray name="rec_basis" >
     <v>       0.06034820       0.10481734       0.00000000 </v>
     <v>      -0.06034377       0.10481476       0.00000000 </v>
     <v>       0.00000000       0.00000000       0.03333333 </v>
    </varray>
   </crystal>
   <varray name="positions" >
    <v>      -0.00113111       0.00933461      -0.00002516 </v>
    <v>       0.66593634       0.67040840      -0.00007407 </v>
    <v>       0.66588784       0.32260421      -0.00001185 </v>
    <v>       0.33929689      -0.00935256      -0.00000873 </v>
    <v>       0.99890822       0.32988284       0.00011638 </v>
    <v>       0.66218671       0.00513065       0.00002012 </v>
    <v>       0.01419676       0.66752756      -0.00033676 </v>
    <v>       0.32448614       0.32734121       0.00036103 </v>
    <v>       0.32879311       0.67709747      -0.00012616 </v>
    <v>       0.10755590       0.21539774       0.94735337 </v>
    <v>       0.21617490       0.10691501       0.05091553 </v>
    <v>       0.11220405       0.55513732       0.94618991 </v>
    <v>       0.22364364       0.44632561       0.05216831 </v>
    <v>       0.10818730       0.89119504       0.94943711 </v>
    <v>       0.22234142       0.77782242       0.05507582 </v>
    <v>       0.44964168       0.22499721       0.94936202 </v>
    <v>       0.55884827       0.11780802       0.05321921 </v>
    <v>       0.44785542       0.55797330       0.94982043 </v>
    <v>       0.56011105       0.44589620       0.04878875 </v>
    <v>       0.44535897       0.88810363       0.94547581 </v>
    <v>       0.55715581       0.77514414       0.05116098 </v>
    <v>       0.77435138       0.22560098       0.94753114 </v>
    <v>       0.89068449       0.10703337       0.05180390 </v>
    <v>       0.77413517       0.55274161       0.95178533 </v>
    <v>       0.88290633       0.44246955       0.05128406 </v>
    <v>       0.78073589       0.88735820       0.95006521 </v>
    <v>       0.88776188       0.78032073       0.04864821 </v>
   </varray>
  </structure>
  <varray name="forces" >
   <v>      -0.42503654       0.04024336       0.01959806 </v>
   <v>      -0.07674281       0.03482544       0.02268539 </v>
   <v>       0.15765494      -0.12640600      -0.00390239 </v>
   <v>       0.36970268      -0.06951796       0.01590521 </v>
   <v>       0.12622609      -0.00444157      -0.01615014 </v>
   <v>      -0.09022941      -0.04393502      -0.01454447 </v>
   <v>       0.31345028       0.20132076       0.00941492 </v>
   <v>      -0.18770861      -0.14179627       0.03020561 </v>
   <v>      -0.27242875       0.07727049      -0.02934151 </v>
   <v>      -0.05170322      -0.02343021      -0.14778745 </v>
   <v>       0.08570890      -0.03511686      -0.11250788 </v>
   <v>       0.08296614      -0.00809299      -0.11997822 </v>
   <v>      -0.06197638       0.06010379      -0.01641839 </v>
   <v>       0.05771502       0.05110358       0.12695910 </v>
   <v>       0.02549297       0.04805661       0.23018451 </v>
   <v>       0.01151856      -0.11468776       0.10450698 </v>
   <v>       0.02447837      -0.04459468       0.12419714 </v>
   <v>      -0.09508231      -0.05095456       0.04669428 </v>
   <v>       0.00867625      -0.06140305      -0.09825238 </v>
   <v>       0.05065238       0.04571547      -0.17830700 </v>
   <v>      -0.10638583      -0.01382168       0.00328277 </v>
   <v>       0.02626304       0.00669843      -0.05745935 </v>
   <v>      -0.09933657      -0.02863826       0.09661865 </v>
   <v>       0.10141581       0.06878727       0.14535168 </v>
   <v>       0.04328543       0.03649682      -0.01184077 </v>
   <v>      -0.08287412       0.03969240      -0.03988767 </v>
   <v>       0.06429771       0.05652243      -0.12922666 </v>
  </varray>
  <varray name="stress" >
   <v>      -0.05528805      -0.01698709      -0.12443133 </v>
   <v>      -0.01698713      -0.13954246       0.00348418 </v>
   <v>      -0.12443133       0.00348414      -0.99058956 </v>
  </varray>
  <energy>
   <i name="e_fr_energy">   -191.39640678 </i>
   <i name="e_wo_entrp">   -191.30088267 </i>
   <i name="e_0_energy">     -0.19104823 </i>
  </energy>
  <time name="totalsc">  387.25  388.25</time>
 </calculation>
 <calculation>
  <scstep>
   <time name="dav">   29.55   29.62</time>
   <time name="total">   30.18   30.25</time>
   <energy>
    <i name="alphaZ">     90.39512133 </i>
    <i name="ewald">  44738.35479410 </i>
    <i name="hartreedc"> -50751.22133675 </i>
    <i name="XCdc">   -233.35147595 </i>
    <i name="pawpsdc">   4082.73634956 </i>
    <i name="pawaedc">  -3498.64245392 </i>
    <i name="eentropy">     -0.19072587 </i>
    <i name="bandstr">  -1380.99033608 </i>
    <i name="atom">   6761.44252427 </i>
    <i name="e_fr_energy">   -191.46753931 </i>
    <i name="e_wo_entrp">   -191.27681344 </i>
    <i name="e_0_energy">   -191.37217638 </i>
   </energy>
  </scstep>
  <scstep>
   <time name="dav">   43.41   43.51</time>
   <time name="total">   44.05   44.16</time>
   <energy>
    <i name="e_fr_energy">   -191.59149418 </i>
    <i name="e_wo_entrp">   -191.37164347 </i>
    <i name="e_0_energy">   -191.48156883 </i>
   </energy>
  </scstep>
  <scstep>
   <time name="dav">   40.50   40.59</time>
   <time name="total">   41.13   41.24</time>
   <energy>
    <i name="e_fr_energy">   -191.48506179 </i>
    <i name="e_wo_entrp">   -191.29300469 </i>
    <i name="e_0_energy">   -191.38903324 </i>
   </energy>
  </scstep>
  <scstep>
   <time name="dav">   39.40   39.50</time>
   <time name="total">   40.05   40.15</time>
   <energy>
    <i name="e_fr_energy">   -191.48412446 </i>
    <i name="e_wo_entrp">   -191.29011965 </i>
    <i name="e_0_energy">   -191.38712205 </i>
   </energy>
  </scstep>
  <scstep>
   <time name="dav">   39.60   39.70</time>
   <time name="total">   40.24   40.34</time>
   <energy>
    <i name="e_fr_energy">   -191.47591824 </i>
    <i name="e_wo_entrp">   -191.28145298 </i>
    <i name="e_0_energy">   -191.37868561 </i>
   </energy>
  </scstep>
  <scstep>
   <time name="dav">   38.57   38.66</time>
   <time name="total">   39.22   39.32</time>
   <energy>
    <i name="e_fr_energy">   -191.47602564 </i>
    <i name="e_wo_entrp">   -191.28078283 </i>
    <i name="e_0_energy">   -191.37840423 </i>
   </energy>
  </scstep>
  <scstep>
[...]
      <set comment="kpoint 31">
       <r>  -17.5270    1.0000 </r>
       <r>  -17.2260    1.0000 </r>
       <r>  -16.9201    1.0000 </r>
       <r>  -16.6461    1.0000 </r>
       <r>  -16.5005    1.0000 </r>
       <r>  -16.4074    1.0000 </r>
       <r>  -16.2698    1.0000 </r>
       <r>  -16.2057    1.0000 </r>
       <r>  -16.1287    1.0000 </r>
       <r>  -15.9932    1.0000 </r>
       <r>  -15.8630    1.0000 </r>
       <r>  -15.7850    1.0000 </r>
       <r>  -15.7550    1.0000 </r>
       <r>  -15.6678    1.0000 </r>
       <r>  -15.6392    1.0000 </r>
       <r>  -15.5700    1.0000 </r>
       <r>  -15.4467    1.0000 </r>
       <r>  -15.3712    1.0000 </r>
       <r>   -9.7355    1.0000 </r>
       <r>   -9.4576    1.0000 </r>
       <r>   -9.3284    1.0000 </r>
       <r>   -9.0494    1.0000 </r>
       <r>   -8.8132    1.0000 </r>
       <r>   -8.7066    1.0000 </r>
       <r>   -8.6191    1.0000 </r>
       <r>   -8.5108    1.0000 </r>
       <r>   -8.4064    1.0000 </r>
       <r>   -8.2768    1.0000 </r>
       <r>   -8.2291    1.0000 </r>
       <r>   -8.1529    1.0000 </r>
       <r>   -8.1286    1.0000 </r>
       <r>   -8.0461    1.0000 </r>
       <r>   -7.9437    1.0000 </r>
       <r>   -7.8988    1.0000 </r>
       <r>   -7.8025    1.0000 </r>
       <r>   -7.6636    1.0000 </r>
       <r>   -7.6037    1.0000 </r>
       <r>   -7.4458    1.0000 </r>
       <r>   -7.4096    1.0000 </r>
       <r>   -7.2760    1.0000 </r>
       <r>   -7.1526    1.0000 </r>
       <r>   -7.0973    1.0000 </r>
       <r>   -6.9750    1.0000 </r>
       <r>   -6.9261    1.0000 </r>
       <r>   -6.8349    1.0000 </r>
       <r>   -6.7565    1.0000 </r>
       <r>   -6.6730    1.0000 </r>
       <r>   -6.5870    1.0000 </r>
       <r>   -6.5564    1.0000 </r>
       <r>   -6.4974    1.0000 </r>
       <r>   -6.4029    1.0000 </r>
       <r>   -6.3158    1.0000 </r>
       <r>   -6.2238    1.0000 </r>
       <r>   -6.1495    1.0000 </r>
       <r>   -6.0965    1.0000 </r>
       <r>   -6.0356    1.0000 </r>
       <r>   -5.9544    1.0000 </r>
       <r>   -5.8773    1.0000 </r>
       <r>   -5.8506    1.0000 </r>
       <r>   -5.7912    1.0000 </r>
       <r>   -5.7178    1.0000 </r>
       <r>   -5.6566    1.0000 </r>
       <r>   -5.5556    1.0000 </r>
       <r>   -5.4259    1.0000 </r>
       <r>   -5.3247    1.0000 </r>
       <r>   -5.1763    1.0000 </r>
       <r>   -5.0742    1.0000 </r>
       <r>   -4.9060    1.0000 </r>
       <r>   -4.8396    1.0000 </r>
       <r>   -4.6841    1.0000 </r>
       <r>   -4.5014    1.0000 </r>
       <r>   -4.4759    1.0000 </r>
       <r>   -4.4053    1.0000 </r>
       <r>   -4.3702    1.0000 </r>
       <r>   -4.1326    1.0000 </r>
       <r>   -4.0223    1.0000 </r>
       <r>   -3.8540    0.9997 </r>
       <r>   -3.7376    0.9954 </r>
       <r>   -3.6302    0.9676 </r>
       <r>   -3.3214    0.3678 </r>
       <r>   -3.0135    0.0060 </r>
       <r>   -2.8272    0.0001 </r>
       <r>   -2.7475    0.0000 </r>
       <r>   -2.6436    0.0000 </r>
       <r>   -2.5347    0.0000 </r>
       <r>   -2.4299    0.0000 </r>
       <r>   -2.2875    0.0000 </r>
       <r>   -2.1844    0.0000 </r>
       <r>   -2.1058    0.0000 </r>
       <r>   -1.9667    0.0000 </r>
       <r>   -1.7774    0.0000 </r>
       <r>   -1.5545    0.0000 </r>
       <r>   -1.4358    0.0000 </r>
       <r>   -1.3422    0.0000 </r>
       <r>   -1.2788    0.0000 </r>
       <r>   -1.2250    0.0000 </r>
       <r>   -1.0406    0.0000 </r>
       <r>   -0.9888    0.0000 </r>
       <r>   -0.9289    0.0000 </r>
       <r>   -0.8392    0.0000 </r>
       <r>   -0.7849    0.0000 </r>
       <r>   -0.6797    0.0000 </r>
       <r>   -0.6219    0.0000 </r>
       <r>   -0.5771    0.0000 </r>
       <r>   -0.4735    0.0000 </r>
       <r>   -0.3920    0.0000 </r>
       <r>   -0.2698    0.0000 </r>
       <r>   -0.1332    0.0000 </r>
       <r>   -0.0233    0.0000 </r>
       <r>    0.1764    0.0000 </r>
       <r>    0.2865    0.0000 </r>
       <r>    0.5070    0.0000 </r>
       <r>    0.6656    0.0000 </r>
       <r>    0.9042    0.0000 </r>
       <r>    1.1451    0.0000 </r>
       <r>    1.1960    0.0000 </r>
       <r>    1.3203    0.0000 </r>
       <r>    2.1256    0.0000 </r>
       <r>    2.2872    0.0000 </r>
       <r>    2.3858    0.0000 </r>
      </set>
      <set comment="kpoint 32">
       <r>  -17.5333    1.0000 </r>
       <r>  -17.1818    1.0000 </r>
       <r>  -17.0093    1.0000 </r>
       <r>  -16.6490    1.0000 </r>
       <r>  -16.4216    1.0000 </r>
       <r>  -16.3167    1.0000 </r>
       <r>  -16.2843    1.0000 </r>
       <r>  -16.2376    1.0000 </r>
       <r>  -16.1503    1.0000 </r>
       <r>  -15.9895    1.0000 </r>
       <r>  -15.8780    1.0000 </r>
       <r>  -15.8576    1.0000 </r>
       <r>  -15.7634    1.0000 </r>
       <r>  -15.6701    1.0000 </r>
       <r>  -15.6173    1.0000 </r>
       <r>  -15.5782    1.0000 </r>
       <r>  -15.4071    1.0000 </r>
       <r>  -15.3802    1.0000 </r>
       <r>   -9.6589    1.0000 </r>
       <r>   -9.5529    1.0000 </r>
       <r>   -9.3876    1.0000 </r>
       <r>   -9.0458    1.0000 </r>
       <r>   -8.7107    1.0000 </r>
       <r>   -8.6288    1.0000 </r>
       <r>   -8.5105    1.0000 </r>
       <r>   -8.4660    1.0000 </r>
       <r>   -8.3965    1.0000 </r>
       <r>   -8.3758    1.0000 </r>
       <r>   -8.2528    1.0000 </r>
       <r>   -8.1688    1.0000 </r>
       <r>   -8.1504    1.0000 </r>
       <r>   -8.1018    1.0000 </r>
       <r>   -8.0007    1.0000 </r>
       <r>   -7.9437    1.0000 </r>
       <r>   -7.8403    1.0000 </r>
       <r>   -7.6588    1.0000 </r>
       <r>   -7.5491    1.0000 </r>
       <r>   -7.3712    1.0000 </r>
       <r>   -7.3538    1.0000 </r>
       <r>   -7.2627    1.0000 </r>
       <r>   -7.2019    1.0000 </r>
       <r>   -7.0818    1.0000 </r>
       <r>   -7.0209    1.0000 </r>
       <r>   -6.9854    1.0000 </r>
       <r>   -6.8666    1.0000 </r>
       <r>   -6.8015    1.0000 </r>
       <r>   -6.6494    1.0000 </r>
       <r>   -6.5910    1.0000 </r>
       <r>   -6.5582    1.0000 </r>
       <r>   -6.4197    1.0000 </r>
       <r>   -6.4090    1.0000 </r>
       <r>   -6.3127    1.0000 </r>
       <r>   -6.2599    1.0000 </r>
       <r>   -6.1777    1.0000 </r>
       <r>   -6.1058    1.0000 </r>
       <r>   -6.0325    1.0000 </r>
       <r>   -5.9600    1.0000 </r>
       <r>   -5.9437    1.0000 </r>
       <r>   -5.8427    1.0000 </r>
       <r>   -5.7744    1.0000 </r>
       <r>   -5.6721    1.0000 </r>
       <r>   -5.5703    1.0000 </r>
       <r>   -5.5181    1.0000 </r>
       <r>   -5.4422    1.0000 </r>
       <r>   -5.3106    1.0000 </r>
       <r>   -5.1536    1.0000 </r>
       <r>   -5.0703    1.0000 </r>
       <r>   -5.0135    1.0000 </r>
       <r>   -4.8387    1.0000 </r>
       <r>   -4.6216    1.0000 </r>
       <r>   -4.5078    1.0000 </r>
       <r>   -4.4463    1.0000 </r>
       <r>   -4.3825    1.0000 </r>
       <r>   -4.3720    1.0000 </r>
       <r>   -4.1953    1.0000 </r>
       <r>   -4.0731    1.0000 </r>
       <r>   -3.8547    0.9997 </r>
       <r>   -3.8015    0.9989 </r>
       <r>   -3.6114    0.9567 </r>
       <r>   -3.2854    0.2770 </r>
       <r>   -3.0904    0.0244 </r>
       <r>   -2.7892    0.0000 </r>
       <r>   -2.6680    0.0000 </r>
       <r>   -2.5770    0.0000 </r>
       <r>   -2.5070    0.0000 </r>
       <r>   -2.3989    0.0000 </r>
       <r>   -2.2612    0.0000 </r>
       <r>   -2.1804    0.0000 </r>
       <r>   -2.1055    0.0000 </r>
       <r>   -1.9721    0.0000 </r>
       <r>   -1.7499    0.0000 </r>
       <r>   -1.5676    0.0000 </r>
       <r>   -1.4623    0.0000 </r>
       <r>   -1.4211    0.0000 </r>
       <r>   -1.2726    0.0000 </r>
       <r>   -1.2381    0.0000 </r>
       <r>   -1.1128    0.0000 </r>
       <r>   -0.9995    0.0000 </r>
       <r>   -0.9436    0.0000 </r>
       <r>   -0.8556    0.0000 </r>
       <r>   -0.8332    0.0000 </r>
       <r>   -0.6891    0.0000 </r>
       <r>   -0.6226    0.0000 </r>
       <r>   -0.5559    0.0000 </r>
       <r>   -0.4751    0.0000 </r>
       <r>   -0.3111    0.0000 </r>
       <r>   -0.2193    0.0000 </r>
       <r>   -0.0854    0.0000 </r>
       <r>   -0.0100    0.0000 </r>
       <r>    0.2121    0.0000 </r>
       <r>    0.3080    0.0000 </r>
       <r>    0.4670    0.0000 </r>
       <r>    0.6422    0.0000 </r>
       <r>    0.9264    0.0000 </r>
       <r>    1.0944    0.0000 </r>
       <r>    1.1474    0.0000 </r>
       <r>    1.2685    0.0000 </r>
       <r>    2.0880    0.0000 </r>
       <r>    2.2613    0.0000 </r>
       <r>    2.5533    0.0000 </r>
      </set>
      <set comment="kpoint 33">
       <r>  -17.5147    1.0000 </r>
       <r>  -17.2785    1.0000 </r>
       <r>  -16.8787    1.0000 </r>
       <r>  -16.6519    1.0000 </r>
       <r>  -16.4811    1.0000 </r>
       <r>  -16.3877    1.0000 </r>
       <r>  -16.2590    1.0000 </r>
       <r>  -16.2071    1.0000 </r>
       <r>  -16.0792    1.0000 </r>
       <r>  -15.9874    1.0000 </r>
       <r>  -15.9108    1.0000 </r>
       <r>  -15.8674    1.0000 </r>
       <r>  -15.7844    1.0000 </r>
       <r>  -15.6742    1.0000 </r>
       <r>  -15.5970    1.0000 </r>
       <r>  -15.5651    1.0000 </r>
       <r>  -15.4175    1.0000 </r>
       <r>  -15.3876    1.0000 </r>
       <r>   -9.7113    1.0000 </r>
       <r>   -9.4556    1.0000 </r>
       <r>   -9.3301    1.0000 </r>
       <r>   -9.0404    1.0000 </r>
       <r>   -8.8458    1.0000 </r>
       <r>   -8.7140    1.0000 </r>
       <r>   -8.5223    1.0000 </r>
       <r>   -8.4260    1.0000 </r>
       <r>   -8.3615    1.0000 </r>
       <r>   -8.3506    1.0000 </r>
       <r>   -8.2863    1.0000 </r>
       <r>   -8.1920    1.0000 </r>
       <r>   -8.1121    1.0000 </r>
       <r>   -8.0665    1.0000 </r>
       <r>   -8.0128    1.0000 </r>
       <r>   -7.9021    1.0000 </r>
       <r>   -7.8138    1.0000 </r>
       <r>   -7.6575    1.0000 </r>
       <r>   -7.5793    1.0000 </r>
       <r>   -7.3937    1.0000 </r>
       <r>   -7.3305    1.0000 </r>
       <r>   -7.1857    1.0000 </r>
       <r>   -7.1552    1.0000 </r>
       <r>   -7.1117    1.0000 </r>
       <r>   -7.0281    1.0000 </r>
       <r>   -6.9642    1.0000 </r>
       <r>   -6.9003    1.0000 </r>
       <r>   -6.7955    1.0000 </r>
       <r>   -6.6375    1.0000 </r>
       <r>   -6.6012    1.0000 </r>
       <r>   -6.5581    1.0000 </r>
       <r>   -6.4522    1.0000 </r>
       <r>   -6.3968    1.0000 </r>
       <r>   -6.3540    1.0000 </r>
       <r>   -6.2795    1.0000 </r>
       <r>   -6.1826    1.0000 </r>
       <r>   -6.1345    1.0000 </r>
       <r>   -6.0310    1.0000 </r>
       <r>   -5.9896    1.0000 </r>
       <r>   -5.9447    1.0000 </r>
       <r>   -5.8673    1.0000 </r>
       <r>   -5.8380    1.0000 </r>
       <r>   -5.7007    1.0000 </r>
       <r>   -5.6438    1.0000 </r>
       <r>   -5.5713    1.0000 </r>
       <r>   -5.4745    1.0000 </r>
       <r>   -5.2323    1.0000 </r>
       <r>   -5.0783    1.0000 </r>
       <r>   -5.0102    1.0000 </r>
       <r>   -4.8584    1.0000 </r>
       <r>   -4.7935    1.0000 </r>
       <r>   -4.5990    1.0000 </r>
       <r>   -4.4920    1.0000 </r>
       <r>   -4.4357    1.0000 </r>
       <r>   -4.3889    1.0000 </r>
       <r>   -4.3385    1.0000 </r>
       <r>   -4.2359    1.0000 </r>
       <r>   -4.1744    1.0000 </r>
       <r>   -3.9124    0.9999 </r>
       <r>   -3.8262    0.9994 </r>
       <r>   -3.6149    0.9589 </r>
       <r>   -3.3028    0.3197 </r>
       <r>   -3.1548    0.0649 </r>
       <r>   -2.7239    0.0000 </r>
       <r>   -2.6175    0.0000 </r>
       <r>   -2.5404    0.0000 </r>
       <r>   -2.4356    0.0000 </r>
       <r>   -2.3707    0.0000 </r>
       <r>   -2.2453    0.0000 </r>
       <r>   -2.1817    0.0000 </r>
       <r>   -2.0888    0.0000 </r>
       <r>   -1.9679    0.0000 </r>
       <r>   -1.6840    0.0000 </r>
       <r>   -1.5983    0.0000 </r>
       <r>   -1.5001    0.0000 </r>
       <r>   -1.4389    0.0000 </r>
       <r>   -1.2990    0.0000 </r>
       <r>   -1.2504    0.0000 </r>
       <r>   -1.1709    0.0000 </r>
       <r>   -1.0346    0.0000 </r>
       <r>   -1.0104    0.0000 </r>
       <r>   -0.8520    0.0000 </r>
       <r>   -0.8174    0.0000 </r>
       <r>   -0.7162    0.0000 </r>
       <r>   -0.6372    0.0000 </r>
       <r>   -0.5597    0.0000 </r>
       <r>   -0.4904    0.0000 </r>
       <r>   -0.2624    0.0000 </r>
       <r>   -0.1788    0.0000 </r>
       <r>   -0.0904    0.0000 </r>
       <r>    0.0028    0.0000 </r>
       <r>    0.2297    0.0000 </r>
       <r>    0.3692    0.0000 </r>
       <r>    0.4994    0.0000 </r>
       <r>    0.6311    0.0000 </r>
       <r>    0.9157    0.0000 </r>
       <r>    1.0511    0.0000 </r>
       <r>    1.1040    0.0000 </r>
       <r>    1.2821    0.0000 </r>
       <r>    2.1136    0.0000 </r>
       <r>    2.2948    0.0000 </r>
       <r>    2.3654    0.0000 </r>
      </set>
      <set comment="kpoint 34">
       <r>  -17.4926    1.0000 </r>
       <r>  -17.3371    1.0000 </r>
       <r>  -16.7310    1.0000 </r>
       <r>  -16.6549    1.0000 </r>
       <r>  -16.6240    1.0000 </r>
       <r>  -16.3963    1.0000 </r>
       <r>  -16.2544    1.0000 </r>
       <r>  -16.2024    1.0000 </r>
       <r>  -16.0187    1.0000 </r>
       <r>  -15.9937    1.0000 </r>
       <r>  -15.9165    1.0000 </r>
       <r>  -15.8594    1.0000 </r>
       <r>  -15.8079    1.0000 </r>
       <r>  -15.6748    1.0000 </r>
       <r>  -15.5954    1.0000 </r>
       <r>  -15.5407    1.0000 </r>
       <r>  -15.4428    1.0000 </r>
       <r>  -15.3888    1.0000 </r>
       <r>   -9.7441    1.0000 </r>
       <r>   -9.3650    1.0000 </r>
       <r>   -9.2724    1.0000 </r>
       <r>   -8.9950    1.0000 </r>
       <r>   -8.9759    1.0000 </r>
       <r>   -8.8363    1.0000 </r>
       <r>   -8.5221    1.0000 </r>
       <r>   -8.4369    1.0000 </r>
       <r>   -8.3855    1.0000 </r>
       <r>   -8.3076    1.0000 </r>
       <r>   -8.2604    1.0000 </r>
       <r>   -8.2153    1.0000 </r>
       <r>   -8.1115    1.0000 </r>
       <r>   -8.0492    1.0000 </r>
       <r>   -7.9487    1.0000 </r>
       <r>   -7.8721    1.0000 </r>
       <r>   -7.7980    1.0000 </r>
       <r>   -7.7148    1.0000 </r>
       <r>   -7.4995    1.0000 </r>
       <r>   -7.4262    1.0000 </r>
       <r>   -7.3102    1.0000 </r>
       <r>   -7.2081    1.0000 </r>
       <r>   -7.1383    1.0000 </r>
       <r>   -7.1050    1.0000 </r>
       <r>   -7.0366    1.0000 </r>
       <r>   -6.9356    1.0000 </r>
       <r>   -6.9052    1.0000 </r>
       <r>   -6.7756    1.0000 </r>
       <r>   -6.6604    1.0000 </r>
       <r>   -6.6165    1.0000 </r>
       <r>   -6.5226    1.0000 </r>
       <r>   -6.4778    1.0000 </r>
       <r>   -6.4329    1.0000 </r>
       <r>   -6.2961    1.0000 </r>
       <r>   -6.2596    1.0000 </r>
       <r>   -6.2266    1.0000 </r>
       <r>   -6.1378    1.0000 </r>
       <r>   -6.1298    1.0000 </r>
       <r>   -6.0273    1.0000 </r>
       <r>   -5.9098    1.0000 </r>
       <r>   -5.8574    1.0000 </r>
       <r>   -5.8296    1.0000 </r>
       <r>   -5.7625    1.0000 </r>
       <r>   -5.6817    1.0000 </r>
       <r>   -5.5857    1.0000 </r>
       <r>   -5.5213    1.0000 </r>
       <r>   -5.1829    1.0000 </r>
       <r>   -5.1320    1.0000 </r>
       <r>   -4.8135    1.0000 </r>
       <r>   -4.7701    1.0000 </r>
       <r>   -4.7263    1.0000 </r>
       <r>   -4.6380    1.0000 </r>
       <r>   -4.5653    1.0000 </r>
       <r>   -4.4544    1.0000 </r>
       <r>   -4.3638    1.0000 </r>
       <r>   -4.2956    1.0000 </r>
       <r>   -4.2608    1.0000 </r>
       <r>   -4.2127    1.0000 </r>
       <r>   -3.9276    1.0000 </r>
       <r>   -3.8348    0.9995 </r>
       <r>   -3.6275    0.9662 </r>
       <r>   -3.3727    0.5102 </r>
       <r>   -3.1438    0.0555 </r>
       <r>   -2.6919    0.0000 </r>
       <r>   -2.6025    0.0000 </r>
       <r>   -2.5270    0.0000 </r>
       <r>   -2.4035    0.0000 </r>
       <r>   -2.3604    0.0000 </r>
       <r>   -2.2382    0.0000 </r>
       <r>   -2.1867    0.0000 </r>
       <r>   -2.0673    0.0000 </r>
       <r>   -1.9661    0.0000 </r>
       <r>   -1.6532    0.0000 </r>
       <r>   -1.6007    0.0000 </r>
       <r>   -1.5261    0.0000 </r>
       <r>   -1.4147    0.0000 </r>
       <r>   -1.3545    0.0000 </r>
       <r>   -1.2406    0.0000 </r>
       <r>   -1.1953    0.0000 </r>
       <r>   -1.0612    0.0000 </r>
       <r>   -1.0313    0.0000 </r>
       <r>   -0.8546    0.0000 </r>
       <r>   -0.7833    0.0000 </r>
       <r>   -0.7303    0.0000 </r>
       <r>   -0.6563    0.0000 </r>
       <r>   -0.5900    0.0000 </r>
       <r>   -0.4822    0.0000 </r>
       <r>   -0.2498    0.0000 </r>
       <r>   -0.1710    0.0000 </r>
       <r>   -0.1035    0.0000 </r>
       <r>    0.0124    0.0000 </r>
       <r>    0.2296    0.0000 </r>
       <r>    0.3992    0.0000 </r>
       <r>    0.5425    0.0000 </r>
       <r>    0.6231    0.0000 </r>
       <r>    0.9071    0.0000 </r>
       <r>    1.0209    0.0000 </r>
       <r>    1.1073    0.0000 </r>
       <r>    1.3001    0.0000 </r>
       <r>    2.1827    0.0000 </r>
       <r>    2.2288    0.0000 </r>
       <r>    2.3778    0.0000 </r>
      </set>
     </set>
    </set>
   </array>
  </eigenvalues>
  <separator name="orbital magnetization" >
   <v name="MAGDIPOLOUT">      0.00000000      0.00000000      0.00000000</v>
  </separator>
 </calculation>
 <structure name="finalpos" >
  <crystal>
   <varray name="basis" >
    <v>       8.39478599       4.82634945       0.00000000 </v>
    <v>      -8.38632690       4.81147947       0.00000000 </v>
    <v>       0.00000000       0.00000000      30.00000000 </v>
   </varray>
   <i name="volume">   2426.00054042 </i>
   <varray name="rec_basis" >
    <v>       0.05949891       0.10370559       0.00000000 </v>
    <v>      -0.05968279       0.10381019       0.00000000 </v>
    <v>       0.00000000       0.00000000       0.03333333 </v>
   </varray>
  </crystal>
  <varray name="positions" >
   <v>      -0.01565418       0.02652656      -0.00216109 </v>
   <v>       0.69543283       0.65170538       0.00355664 </v>
   <v>       0.67007931       0.31082066       0.00085708 </v>
   <v>       0.35006564      -0.02014545       0.00251612 </v>
   <v>       1.00954646       0.34212738      -0.00020605 </v>
   <v>       0.65317342       0.01198193      -0.00133771 </v>
   <v>       0.02235438       0.66004330       0.00065636 </v>
   <v>       0.30426299       0.34694581      -0.00202080 </v>
   <v>       0.31421440       0.66913215      -0.00066735 </v>
   <v>       0.10048153       0.22136116       0.94385278 </v>
   <v>       0.21733507       0.11043852       0.04357290 </v>
   <v>       0.11198372       0.55479204       0.94318857 </v>
   <v>       0.21942813       0.45156934       0.05512422 </v>
   <v>       0.11015276       0.89469103       0.95552255 </v>
   <v>       0.22492727       0.77629523       0.05774013 </v>
   <v>       0.44079223       0.22309081       0.95634965 </v>
   <v>       0.55847767       0.11442177       0.05606739 </v>
   <v>       0.45444094       0.56333807       0.95132480 </v>
   <v>       0.54927100       0.43570112       0.04643778 </v>
   <v>       0.44368345       0.88287117       0.94435057 </v>
   <v>       0.56094919       0.77007215       0.04363565 </v>
   <v>       0.77413970       0.22472546       0.94659114 </v>
   <v>       0.88467445       0.11340353       0.05128230 </v>
   <v>       0.78228447       0.54646251       0.95120061 </v>
   <v>       0.88357098       0.44379665       0.05226095 </v>
   <v>       0.77527480       0.88161984       0.95225261 </v>
   <v>       0.90287184       0.79042633       0.04805211 </v>
  </varray>
 </structure>
</modeling>
