<?xml version="1.0" encoding="ISO-8859-1"?>
<modeling>
 <generator>
  <i name="program" type="string">vasp </i>
  <i name="version" type="string">5.4.1  </i>
  <i name="subversion" type="string">05Feb16 (build Jul 05 2020 17:13:04) complex                          parallel </i>
  <i name="platform" type="string">IFC91_ompi </i>
  <i name="date" type="string">2024 07 16 </i>
  <i name="time" type="string">12:04:12 </i>
 </generator>
 <incar>
  <i type="int" name="ISTART">     0</i>
  <i type="string" name="PREC">normal</i>
  <i type="string" name="ALGO"> Normal</i>
  <i type="int" name="ISPIN">     1</i>
  <i type="int" name="ICHARG">     2</i>
  <i type="int" name="IBRION">     1</i>
  <i type="int" name="NSW">   100</i>
  <i type="int" name="ISIF">     3</i>
  <i type="int" name="ISYM">     0</i>
  <i name="SYMPREC">      0.00000001</i>
  <i name="POTIM">      0.50000000</i>
  <i type="logical" name="LREAL"> F  </i>
  <i type="logical" name="LPLANE"> F  </i>
  <i type="int" name="ISMEAR">     0</i>
  <i type="logical" name="LWAVE"> F  </i>
  <i type="logical" name="LCHARG"> F  </i>
  <v type="int" name="KPOINT_BSE">    -1     0     0     0</v>
 </incar>
 <kpoints>
  <generation param="Gamma">
   <v type="int" name="divisions">       8        8        1 </v>
   <v name="usershift">      0.00000000       0.00000000       0.00000000 </v>
   <v name="genvec1">      0.12500000       0.00000000       0.00000000 </v>
   <v name="genvec2">     -0.00000000       0.12500000       0.00000000 </v>
   <v name="genvec3">      0.00000000       0.00000000       1.00000000 </v>
   <v name="shift">      0.00000000       0.00000000       0.00000000 </v>
  </generation>
  <varray name="kpointlist" >
   <v>       0.00000000       0.00000000       0.00000000 </v>
   <v>       0.12500000       0.00000000       0.00000000 </v>
   <v>       0.25000000       0.00000000       0.00000000 </v>
   <v>       0.37500000       0.00000000       0.00000000 </v>
   <v>       0.50000000       0.00000000       0.00000000 </v>
   <v>       0.00000000       0.12500000       0.00000000 </v>
   <v>       0.12500000       0.12500000       0.00000000 </v>
   <v>       0.25000000       0.12500000       0.00000000 </v>
   <v>       0.37500000       0.12500000       0.00000000 </v>
   <v>       0.50000000       0.12500000       0.00000000 </v>
   <v>      -0.37500000       0.12500000       0.00000000 </v>
   <v>      -0.25000000       0.12500000       0.00000000 </v>
   <v>      -0.12500000       0.12500000       0.00000000 </v>
   <v>       0.00000000       0.25000000       0.00000000 </v>
   <v>       0.12500000       0.25000000       0.00000000 </v>
   <v>       0.25000000       0.25000000       0.00000000 </v>
   <v>       0.37500000       0.25000000       0.00000000 </v>
   <v>       0.50000000       0.25000000       0.00000000 </v>
   <v>      -0.37500000       0.25000000       0.00000000 </v>
   <v>      -0.25000000       0.25000000       0.00000000 </v>
   <v>      -0.12500000       0.25000000       0.00000000 </v>
   <v>      -0.00000000       0.37500000       0.00000000 </v>
   <v>       0.12500000       0.37500000       0.00000000 </v>
   <v>       0.25000000       0.37500000       0.00000000 </v>
   <v>       0.37500000       0.37500000       0.00000000 </v>
   <v>       0.50000000       0.37500000       0.00000000 </v>
   <v>      -0.37500000       0.37500000       0.00000000 </v>
   <v>      -0.25000000       0.37500000       0.00000000 </v>
   <v>      -0.12500000       0.37500000       0.00000000 </v>
   <v>       0.00000000       0.50000000       0.00000000 </v>
   <v>       0.12500000       0.50000000       0.00000000 </v>
   <v>       0.25000000       0.50000000       0.00000000 </v>
   <v>       0.37500000       0.50000000       0.00000000 </v>
   <v>       0.50000000       0.50000000       0.00000000 </v>
  </varray>
  <varray name="weights" >
   <v>       0.01562500 </v>
   <v>       0.03125000 </v>
   <v>       0.03125000 </v>
   <v>       0.03125000 </v>
   <v>       0.01562500 </v>
   <v>       0.03125000 </v>
   <v>       0.03125000 </v>
   <v>       0.03125000 </v>
   <v>       0.03125000 </v>
   <v>       0.03125000 </v>
   <v>       0.03125000 </v>
   <v>       0.03125000 </v>
   <v>       0.03125000 </v>
   <v>       0.03125000 </v>
   <v>       0.03125000 </v>
   <v>       0.03125000 </v>
   <v>       0.03125000 </v>
   <v>       0.03125000 </v>
   <v>       0.03125000 </v>
   <v>       0.03125000 </v>
   <v>       0.03125000 </v>
   <v>       0.03125000 </v>
   <v>       0.03125000 </v>
   <v>       0.03125000 </v>
   <v>       0.03125000 </v>
   <v>       0.03125000 </v>
   <v>       0.03125000 </v>
   <v>       0.03125000 </v>
   <v>       0.03125000 </v>
   <v>       0.01562500 </v>
   <v>       0.03125000 </v>
   <v>       0.03125000 </v>
   <v>       0.03125000 </v>
   <v>       0.01562500 </v>
  </varray>
 </kpoints>
 <parameters>
  <separator name="general" >
   <i type="string" name="SYSTEM">unknown system</i>
   <i type="logical" name="LCOMPAT"> F  </i>
  </separator>
  <separator name="electronic" >
   <i type="string" name="PREC">normal</i>
   <i name="ENMAX">    280.00000000</i>
   <i name="ENAUG">    373.43800000</i>
   <i name="EDIFF">      0.00010000</i>
   <i type="int" name="IALGO">    38</i>
   <i type="int" name="IWAVPR">    11</i>
   <i type="int" name="NBANDS">   120</i>
   <i name="NELECT">    159.00000000</i>
   <i type="int" name="TURBO">     0</i>
   <i type="int" name="IRESTART">     0</i>
   <i type="int" name="NREBOOT">     0</i>
   <i type="int" name="NMIN">     0</i>
   <i name="EREF">      0.00000000</i>
   <separator name="electronic smearing" >
    <i type="int" name="ISMEAR">     0</i>
    <i name="SIGMA">      0.20000000</i>
    <i name="KSPACING">      0.50000000</i>
    <i type="logical" name="KGAMMA"> T  </i>
   </separator>
   <separator name="electronic projectors" >
    <i type="logical" name="LREAL"> F  </i>
    <v name="ROPT">      0.00000000      0.00000000      0.00000000      0.00000000</v>
    <i type="int" name="LMAXPAW">  -100</i>
    <i type="int" name="LMAXMIX">     2</i>
    <i type="logical" name="NLSPLINE"> F  </i>
   </separator>
   <separator name="electronic startup" >
    <i type="int" name="ISTART">     0</i>
    <i type="int" name="ICHARG">     2</i>
    <i type="int" name="INIWAV">     1</i>
   </separator>
   <separator name="electronic spin" >
    <i type="int" name="ISPIN">     1</i>
    <i type="logical" name="LNONCOLLINEAR"> F  </i>
    <v name="MAGMOM">      1.00000000      1.00000000      1.00000000      1.00000000      1.00000000      1.00000000      1.00000000      1.00000000      1.00000000      1.00000000      1.00000000      1.00000000      1.00000000      1.00000000      1.00000000      1.00000000      1.00000000      1.00000000      1.00000000      1.00000000
      1.00000000      1.00000000      1.00000000      1.00000000      1.00000000      1.00000000      1.00000000</v>
    <i name="NUPDOWN">     -1.00000000</i>
    <i type="logical" name="LSORBIT"> F  </i>
    <v name="SAXIS">      0.00000000      0.00000000      1.00000000</v>
    <i type="logical" name="LSPIRAL"> F  </i>
    <v name="QSPIRAL">      0.00000000      0.00000000      0.00000000</v>
    <i type="logical" name="LZEROZ"> F  </i>
   </separator>
   <separator name="electronic exchange-correlation" >
    <i type="logical" name="LASPH"> F  </i>
    <i type="logical" name="LMETAGGA"> F  </i>
   </separator>
   <separator name="electronic convergence" >
    <i type="int" name="NELM">    60</i>
    <i type="int" name="NELMDL">    -5</i>
    <i type="int" name="NELMIN">     2</i>
    <i name="ENINI">    280.00000000</i>
    <separator name="electronic convergence detail" >
     <i type="logical" name="LDIAG"> T  </i>
     <i type="logical" name="LSUBROT"> F  </i>
     <i name="WEIMIN">      0.00100000</i>
     <i name="EBREAK">      0.00000021</i>
     <i name="DEPER">      0.30000000</i>
     <i type="int" name="NRMM">     4</i>
     <i name="TIME">      0.40000000</i>
    </separator>
   </separator>
   <separator name="electronic mixer" >
    <i name="AMIX">      0.40000000</i>
    <i name="BMIX">      1.00000000</i>
    <i name="AMIN">      0.10000000</i>
    <i name="AMIX_MAG">      1.60000000</i>
    <i name="BMIX_MAG">      1.00000000</i>
    <separator name="electronic mixer details" >
     <i type="int" name="IMIX">     4</i>
     <i type="logical" name="MIXFIRST"> F  </i>
     <i type="int" name="MAXMIX">   -45</i>
     <i name="WC">    100.00000000</i>
     <i type="int" name="INIMIX">     1</i>
     <i type="int" name="MIXPRE">     1</i>
     <i type="int" name="MREMOVE">     5</i>
    </separator>
   </separator>
   <separator name="electronic dipolcorrection" >
    <i type="logical" name="LDIPOL"> F  </i>
    <i type="logical" name="LMONO"> F  </i>
    <i type="int" name="IDIPOL">     0</i>
    <i name="EPSILON">      1.00000000</i>
    <v name="DIPOL">   -100.00000000   -100.00000000   -100.00000000</v>
    <i name="EFIELD">      0.00000000</i>
   </separator>
  </separator>
  <separator name="grids" >
   <i type="int" name="NGX">    42</i>
   <i type="int" name="NGY">    42</i>
   <i type="int" name="NGZ">   126</i>
   <i type="int" name="NGXF">    84</i>
   <i type="int" name="NGYF">    84</i>
   <i type="int" name="NGZF">   252</i>
   <i type="logical" name="ADDGRID"> F  </i>
  </separator>
  <separator name="ionic" >
   <i type="int" name="NSW">   100</i>
   <i type="int" name="IBRION">     1</i>
   <i type="int" name="ISIF">     3</i>
   <i name="PSTRESS">      0.00000000</i>
   <i name="EDIFFG">      0.00100000</i>
   <i type="int" name="NFREE">     0</i>
   <i name="POTIM">      0.50000000</i>
   <i name="SMASS">     -3.00000000</i>
   <i name="SCALEE">      1.00000000</i>
  </separator>
  <separator name="ionic md" >
   <i name="TEBEG">      0.00010000</i>
   <i name="TEEND">      0.00010000</i>
   <i type="int" name="NBLOCK">     1</i>
   <i type="int" name="KBLOCK">   100</i>
   <i type="int" name="NPACO">   256</i>
   <i name="APACO">     16.00000000</i>
  </separator>
  <separator name="symmetry" >
   <i type="int" name="ISYM">     0</i>
   <i name="SYMPREC">      0.00000001</i>
  </separator>
  <separator name="dos" >
   <i type="logical" name="LORBIT"> F  </i>
   <v name="RWIGS">     -1.00000000     -1.00000000     -1.00000000     -1.00000000</v>
   <i type="int" name="NEDOS">   301</i>
   <i name="EMIN">     10.00000000</i>
   <i name="EMAX">    -10.00000000</i>
   <i name="EFERMI">      0.00000000</i>
  </separator>
  <separator name="writing" >
   <i type="int" name="NWRITE">     2</i>
   <i type="logical" name="LWAVE"> F  </i>
   <i type="logical" name="LCHARG"> F  </i>
   <i type="logical" name="LPARD"> F  </i>
   <i type="logical" name="LVTOT"> F  </i>
   <i type="logical" name="LVHAR"> F  </i>
   <i type="logical" name="LELF"> F  </i>
   <i type="logical" name="LOPTICS"> F  </i>
   <v name="STM">      0.00000000      0.00000000      0.00000000      0.00000000      0.00000000      0.00000000      0.00000000</v>
  </separator>
  <separator name="performance" >
   <i type="int" name="NPAR">    40</i>
   <i type="int" name="NSIM">     4</i>
   <i type="int" name="NBLK">    -1</i>
   <i type="logical" name="LPLANE"> F  </i>
   <i type="logical" name="LSCALAPACK"> T  </i>
   <i type="logical" name="LSCAAWARE"> F  </i>
   <i type="logical" name="LSCALU"> F  </i>
   <i type="logical" name="LASYNC"> F  </i>
   <i type="logical" name="LORBITALREAL"> F  </i>
  </separator>
  <separator name="miscellaneous" >
   <i type="int" name="IDIOT">     3</i>
   <i type="logical" name="LMUSIC"> F  </i>
   <v name="POMASS">     50.94100000     95.94000000    183.85000000     32.06600000</v>
   <v name="DARWINR">      0.00000000      0.00000000      0.00000000      0.00000000</v>
   <v name="DARWINV">      1.00000000      1.00000000      1.00000000      1.00000000</v>
   <i type="logical" name="LCORR"> T  </i>
  </separator>
  <i type="logical" name="GGA_COMPAT"> T  </i>
  <i type="logical" name="LBERRY"> F  </i>
  <i type="int" name="ICORELEVEL">     0</i>
  <i type="logical" name="LDAU"> F  </i>
  <i type="int" name="I_CONSTRAINED_M">     0</i>
  <separator name="electronic exchange-correlation" >
   <i type="string" name="GGA">--</i>
   <i type="int" name="VOSKOWN">     0</i>
   <i type="logical" name="LHFCALC"> F  </i>
   <i type="string" name="PRECFOCK"></i>
   <i type="logical" name="LSYMGRAD"> F  </i>
   <i type="logical" name="LHFONE"> F  </i>
   <i type="logical" name="LRHFCALC"> F  </i>
   <i type="logical" name="LTHOMAS"> F  </i>
   <i type="logical" name="LMODELHF"> F  </i>
   <i name="ENCUT4O">     -1.00000000</i>
   <i type="int" name="EXXOEP">     0</i>
   <i type="int" name="FOURORBIT">     0</i>
   <i name="AEXX">      0.00000000</i>
   <i name="HFALPHA">      0.00000000</i>
   <i name="MCALPHA">      0.00000000</i>
   <i name="ALDAX">      1.00000000</i>
   <i name="AGGAX">      1.00000000</i>
   <i name="ALDAC">      1.00000000</i>
   <i name="AGGAC">      1.00000000</i>
   <i type="int" name="NKREDX">     1</i>
   <i type="int" name="NKREDY">     1</i>
   <i type="int" name="NKREDZ">     1</i>
   <i type="logical" name="SHIFTRED"> F  </i>
   <i type="logical" name="ODDONLY"> F  </i>
   <i type="logical" name="EVENONLY"> F  </i>
   <i type="int" name="LMAXFOCK">     0</i>
   <i type="int" name="NMAXFOCKAE">     0</i>
   <i type="logical" name="LFOCKAEDFT"> F  </i>
   <i name="HFSCREEN">      0.00000000</i>
   <i name="HFSCREENC">      0.00000000</i>
   <i type="int" name="NBANDSGWLOW">     0</i>
  </separator>
  <separator name="vdW DFT" >
   <i type="logical" name="LUSE_VDW"> F  </i>
   <i name="Zab_VDW">     -0.84910000</i>
   <i name="PARAM1">      0.12340000</i>
   <i name="PARAM2">      1.00000000</i>
   <i name="PARAM3">      0.00000000</i>
  </separator>
  <separator name="model GW" >
   <i type="int" name="MODEL_GW">     0</i>
   <i name="MODEL_EPS0">     58.26239943</i>
   <i name="MODEL_ALPHA">      1.00000000</i>
  </separator>
  <separator name="linear response parameters" >
   <i type="logical" name="LEPSILON"> F  </i>
   <i type="logical" name="LRPA"> F  </i>
   <i type="logical" name="LNABLA"> F  </i>
   <i type="logical" name="LVEL"> F  </i>
   <i type="int" name="KINTER">     0</i>
   <i name="CSHIFT">      0.10000000</i>
   <i name="OMEGAMAX">     -1.00000000</i>
   <i name="DEG_THRESHOLD">      0.00200000</i>
  </separator>
  <separator name="orbital magnetization" >
   <i type="logical" name="NUCIND"> F  </i>
   <v name="MAGPOS">      0.00000000      0.00000000      0.00000000</v>
   <i type="logical" name="LNICSALL"> T  </i>
   <i type="logical" name="ORBITALMAG"> F  </i>
   <i type="logical" name="LMAGBLOCH"> F  </i>
   <i type="logical" name="LCHIMAG"> F  </i>
   <i type="logical" name="LGAUGE"> T  </i>
   <i type="int" name="MAGATOM">     0</i>
   <v name="MAGDIPOL">      0.00000000      0.00000000      0.00000000</v>
   <v name="AVECCONST">      0.00000000      0.00000000      0.00000000</v>
  </separator>
  <separator name="response functions" >
   <i type="logical" name="LADDER"> F  </i>
   <i type="logical" name="LFXC"> F  </i>
   <i type="logical" name="LHARTREE"> T  </i>
   <i type="int" name="IBSE">     0</i>
   <v type="int" name="KPOINT">    -1     0     0     0</v>
   <i type="logical" name="LTCTE"> F  </i>
   <i type="logical" name="LTETE"> F  </i>
   <i type="logical" name="LTRIPLET"> F  </i>
   <i type="logical" name="LFXCEPS"> F  </i>
   <i type="logical" name="LFXHEG"> F  </i>
   <i type="int" name="NATURALO">     0</i>
   <i type="logical" name="L2ORDER"> F  </i>
   <i type="logical" name="LUSEW"> F  </i>
   <i name="ENCUTGW">     -2.00000000</i>
   <i name="ENCUTGWSOFT">     -2.00000000</i>
   <i name="ENCUTLF">     -1.00000000</i>
   <i type="int" name="LMAXMP2">    -1</i>
   <i name="SCISSOR">      0.00000000</i>
   <i type="int" name="NOMEGA">     0</i>
   <i type="int" name="NOMEGAR">     0</i>
   <i type="int" name="NBANDSGW">    -1</i>
   <i type="int" name="NBANDSO">    -1</i>
   <i type="int" name="NBANDSV">    -1</i>
   <i type="int" name="NELM">     1</i>
   <i type="int" name="NELMHF">     1</i>
   <i type="int" name="DIM">     3</i>
   <i type="int" name="ANTIRES">     0</i>
   <i name="OMEGAMAX">    -30.00000000</i>
   <i name="OMEGAMIN">    -30.00000000</i>
   <i name="OMEGATL">   -200.00000000</i>
   <i type="int" name="OMEGAGRID">     0</i>
   <i name="CSHIFT">     -0.10000000</i>
   <i type="logical" name="SELFENERGY"> F  </i>
   <i type="logical" name="LSPECTRAL"> F  </i>
   <i type="logical" name="LSPECTRALGW"> F  </i>
   <i type="logical" name="LSINGLES"> F  </i>
   <i type="logical" name="LFERMIGW"> F  </i>
   <i type="logical" name="ODDONLYGW"> F  </i>
   <i type="logical" name="EVENONLYGW"> F  </i>
   <i type="int" name="NKREDLFX">     1</i>
   <i type="int" name="NKREDLFY">     1</i>
   <i type="int" name="NKREDLFZ">     1</i>
   <i type="int" name="MAXMEM">  1800</i>
   <i type="int" name="TELESCOPE">     0</i>
   <i type="int" name="TAUPAR">     1</i>
   <i type="int" name="OMEGAPAR">    -1</i>
   <i name="LAMBDA">      1.00000000</i>
  </separator>
  <separator name="External order field" >
   <i name="OFIELD_KAPPA">      0.00000000</i>
   <v name="OFIELD_K">      0.00000000      0.00000000      0.00000000</v>
   <i name="OFIELD_Q6_NEAR">      0.00000000</i>
   <i name="OFIELD_Q6_FAR">      0.00000000</i>
   <i name="OFIELD_A">      0.00000000</i>
  </separator>
 </parameters>
 <atominfo>
  <atoms>      27 </atoms>
  <types>       4 </types>
  <array name="atoms" >
   <dimension dim="1">ion</dimension>
   <field type="string">element</field>
   <field type="int">atomtype</field>
   <set>
    <rc><c>V </c><c>   1</c></rc>
    <rc><c>V </c><c>   1</c></rc>
    <rc><c>V </c><c>   1</c></rc>
    <rc><c>Mo</c><c>   2</c></rc>
    <rc><c>Mo</c><c>   2</c></rc>
    <rc><c>Mo</c><c>   2</c></rc>
    <rc><c>W </c><c>   3</c></rc>
    <rc><c>W </c><c>   3</c></rc>
    <rc><c>W </c><c>   3</c></rc>
    <rc><c>S </c><c>   4</c></rc>
    <rc><c>S </c><c>   4</c></rc>
    <rc><c>S </c><c>   4</c></rc>
    <rc><c>S </c><c>   4</c></rc>
    <rc><c>S </c><c>   4</c></rc>
    <rc><c>S </c><c>   4</c></rc>
    <rc><c>S </c><c>   4</c></rc>
    <rc><c>S </c><c>   4</c></rc>
    <rc><c>S </c><c>   4</c></rc>
    <rc><c>S </c><c>   4</c></rc>
    <rc><c>S </c><c>   4</c></rc>
    <rc><c>S </c><c>   4</c></rc>
    <rc><c>S </c><c>   4</c></rc>
    <rc><c>S </c><c>   4</c></rc>
    <rc><c>S </c><c>   4</c></rc>
    <rc><c>S </c><c>   4</c></rc>
    <rc><c>S </c><c>   4</c></rc>
    <rc><c>S </c><c>   4</c></rc>
   </set>
  </array>
  <array name="atomtypes" >
   <dimension dim="1">type</dimension>
   <field type="int">atomspertype</field>
   <field type="string">element</field>
   <field>mass</field>
   <field>valence</field>
   <field type="string">pseudopotential</field>
   <set>
    <rc><c>   3</c><c>V </c><c>     50.94100000</c><c>      5.00000000</c><c> PAW_PBE V 08Apr2002                    </c></rc>
    <rc><c>   3</c><c>Mo</c><c>     95.94000000</c><c>      6.00000000</c><c> PAW_PBE Mo 08Apr2002                   </c></rc>
    <rc><c>   3</c><c>W </c><c>    183.85000000</c><c>      6.00000000</c><c> PAW_PBE W 08Apr2002                    </c></rc>
    <rc><c>  18</c><c>S </c><c>     32.06600000</c><c>      6.00000000</c><c>  PAW_PBE S 17Jan2003                   </c></rc>
   </set>
  </array>
 </atominfo>
 <structure name="initialpos" >
  <crystal>
   <varray name="basis" >
    <v>       8.66999996       5.03999989       0.00000000 </v>
    <v>      -8.66999982       5.04000013       0.00000000 </v>
    <v>       0.00000000       0.00000000      30.00000000 </v>
   </varray>
   <i name="volume">   2621.80797419 </i>
   <varray name="rec_basis" >
    <v>       0.05767013       0.09920635       0.00000000 </v>
    <v>      -0.05767013       0.09920635       0.00000000 </v>
    <v>       0.00000000       0.00000000       0.03333333 </v>
   </varray>
  </crystal>
  <varray name="positions" >
   <v>       0.66666669       0.66666669       0.00000000 </v>
   <v>       0.00000000       0.66666669       0.00000000 </v>
   <v>       0.33333334       0.00000000       0.00000000 </v>
   <v>       0.33333334       0.33333334       0.00000000 </v>
   <v>       0.66666669       0.33333334       0.00000000 </v>
   <v>       0.00000000       0.00000000       0.00000000 </v>
   <v>       1.00000000       0.33333334       0.00000000 </v>
   <v>       0.33333334       0.66666669       0.00000000 </v>
   <v>       0.66666669       0.00000000       0.00000000 </v>
   <v>       0.11068511       0.22244981       0.95539999 </v>
   <v>       0.22244981       0.11068511       0.04460000 </v>
   <v>       0.11068511       0.55578315       0.95539999 </v>
   <v>       0.22244981       0.44401845       0.04460000 </v>
   <v>       0.11068511       0.88911647       0.95539999 </v>
   <v>       0.22244981       0.77735180       0.04460000 </v>
   <v>       0.44401845       0.22244981       0.95539999 </v>
   <v>       0.55578315       0.11068511       0.04460000 </v>
   <v>       0.44401845       0.55578315       0.95539999 </v>
   <v>       0.55578315       0.44401845       0.04460000 </v>
   <v>       0.44401845       0.88911647       0.95539999 </v>
   <v>       0.55578315       0.77735180       0.04460000 </v>
   <v>       0.77735180       0.22244981       0.95539999 </v>
   <v>       0.88911647       0.11068511       0.04460000 </v>
   <v>       0.77735180       0.55578315       0.95539999 </v>
   <v>       0.88911647       0.44401845       0.04460000 </v>
   <v>       0.77735180       0.88911647       0.95539999 </v>
   <v>       0.88911647       0.77735180       0.04460000 </v>
  </varray>
 </structure>
 <calculation>
  <scstep>
   <time name="dav">   22.24   22.31</time>
   <time name="total">   22.28   22.35</time>
   <energy>
    <i name="alphaZ">     81.65567618 </i>
    <i name="ewald">  41890.23009673 </i>
    <i name="hartreedc"> -47722.87397966 </i>
    <i name="XCdc">   -242.92731908 </i>
    <i name="pawpsdc">   3467.42045192 </i>
    <i name="pawaedc">  -2871.19716117 </i>
    <i name="eentropy">     -0.54798028 </i>
    <i name="bandstr">   -239.33188458 </i>
    <i name="atom">   6761.44252427 </i>
    <i name="e_fr_energy">   1123.87042433 </i>
    <i name="e_wo_entrp">   1124.41840461 </i>
    <i name="e_0_energy">   1124.14441447 </i>
   </energy>
  </scstep>
  <scstep>
   <time name="dav">   28.72   28.79</time>
   <time name="total">   28.72   28.79</time>
   <energy>
    <i name="e_fr_energy">     -3.05577256 </i>
    <i name="e_wo_entrp">     -2.86322390 </i>
    <i name="e_0_energy">     -2.95949823 </i>
   </energy>
  </scstep>
  <scstep>
   <time name="dav">   28.21   28.27</time>
   <time name="total">   28.21   28.28</time>
   <energy>
    <i name="e_fr_energy">   -199.73994444 </i>
    <i name="e_wo_entrp">   -199.47023835 </i>
    <i name="e_0_energy">   -199.60509140 </i>
   </energy>
  </scstep>
  <scstep>
   <time name="dav">   30.50   30.57</time>
   <time name="total">   30.50   30.58</time>
   <energy>
    <i name="e_fr_energy">   -208.98633558 </i>
    <i name="e_wo_entrp">   -208.68185787 </i>
    <i name="e_0_energy">   -208.83409672 </i>
   </energy>
  </scstep>
  <scstep>
   <time name="dav">   29.46   29.53</time>
   <time name="total">   29.92   30.00</time>
   <energy>
    <i name="e_fr_energy">   -209.32732599 </i>
    <i name="e_wo_entrp">   -209.02565642 </i>
    <i name="e_0_energy">   -209.17649120 </i>
   </energy>
  </scstep>
  <scstep>
   <time name="dav">   31.42   31.49</time>
   <time name="total">   31.92   32.01</time>
   <energy>
    <i name="e_fr_energy">   -237.16246280 </i>
    <i name="e_wo_entrp">   -236.88309202 </i>
    <i name="e_0_energy">   -237.02277741 </i>
   </energy>
  </scstep>
  <scstep>
   <time name="dav">   33.26   33.34</time>
   <time name="total">   33.76   33.85</time>
   <energy>
    <i name="e_fr_energy">   -196.42419214 </i>
    <i name="e_wo_entrp">   -196.11044951 </i>
    <i name="e_0_energy">   -196.26732083 </i>
   </energy>
  </scstep>
  <scstep>
   <time name="dav">   30.44   30.51</time>
   <time name="total">   30.95   31.03</time>
   <energy>
    <i name="e_fr_energy">   -189.41391389 </i>
    <i name="e_wo_entrp">   -189.12108378 </i>
    <i name="e_0_energy">   -189.26749884 </i>
   </energy>
  </scstep>
  <scstep>
   <time name="dav">   32.63   32.71</time>
   <time name="total">   33.16   33.24</time>
   <energy>
    <i name="e_fr_energy">   -188.16649763 </i>
    <i name="e_wo_entrp">   -187.83063452 </i>
    <i name="e_0_energy">   -187.99856608 </i>
   </energy>
  </scstep>
  <scstep>
   <time name="dav">   33.19   33.27</time>
   <time name="total">   33.72   33.81</time>
   <energy>
    <i name="e_fr_energy">   -187.00578186 </i>
    <i name="e_wo_entrp">   -186.65854828 </i>
    <i name="e_0_energy">   -186.83216507 </i>
   </energy>
  </scstep>
  <scstep>
   <time name="dav">   33.03   33.11</time>
   <time name="total">   33.57   33.66</time>
   <energy>
    <i name="e_fr_energy">   -186.96886303 </i>
    <i name="e_wo_entrp">   -186.61852733 </i>
    <i name="e_0_energy">   -186.79369518 </i>
   </energy>
  </scstep>
  <scstep>
   <time name="dav">   30.75   30.83</time>
   <time name="total">   31.29   31.37</time>
   <energy>
    <i name="e_fr_energy">   -187.09757777 </i>
    <i name="e_wo_entrp">   -186.75821533 </i>
    <i name="e_0_energy">   -186.92789655 </i>
   </energy>
  </scstep>
  <scstep>
   <time name="dav">   31.80   31.88</time>
   <time name="total">   32.34   32.42</time>
   <energy>
    <i name="e_fr_energy">   -186.88296901 </i>
    <i name="e_wo_entrp">   -186.54622846 </i>
    <i name="e_0_energy">   -186.71459873 </i>
   </energy>
  </scstep>
  <scstep>
   <time name="dav">   33.16   33.24</time>
   <time name="total">   33.70   33.79</time>
   <energy>
    <i name="e_fr_energy">   -186.85823989 </i>
    <i name="e_wo_entrp">   -186.51328670 </i>
    <i name="e_0_energy">   -186.68576329 </i>
   </energy>
  </scstep>
  <scstep>
   <time name="dav">   30.57   30.64</time>
   <time name="total">   31.11   31.19</time>
   <energy>
    <i name="e_fr_energy">   -186.83986151 </i>
    <i name="e_wo_entrp">   -186.49290098 </i>
    <i name="e_0_energy">   -186.66638125 </i>
   </energy>
  </scstep>
  <scstep>
   <time name="dav">   30.98   31.05</time>
   <time name="total">   31.52   31.60</time>
   <energy>
    <i name="e_fr_energy">   -186.83233842 </i>
    <i name="e_wo_entrp">   -186.48559642 </i>
    <i name="e_0_energy">   -186.65896742 </i>
   </energy>
  </scstep>
  <scstep>
   <time name="dav">   31.57   31.64</time>
   <time name="total">   32.11   32.19</time>
   <energy>
    <i name="e_fr_energy">   -186.83025870 </i>
    <i name="e_wo_entrp">   -186.48546131 </i>
    <i name="e_0_energy">   -186.65786001 </i>
   </energy>
  </scstep>
  <scstep>
   <time name="dav">   29.94   30.02</time>
   <time name="total">   30.48   30.56</time>
   <energy>
    <i name="e_fr_energy">   -186.82999941 </i>
    <i name="e_wo_entrp">   -186.48485774 </i>
    <i name="e_0_energy">   -186.65742857 </i>
   </energy>
  </scstep>
  <scstep>
   <time name="dav">   28.20   28.27</time>
   <time name="total">   28.74   28.82</time>
   <energy>
    <i name="e_fr_energy">   -186.82964988 </i>
    <i name="e_wo_entrp">   -186.48432170 </i>
    <i name="e_0_energy">   -186.65698579 </i>
   </energy>
  </scstep>
  <scstep>
   <time name="dav">   24.76   24.82</time>
   <time name="total">   25.30   25.37</time>
   <energy>
    <i name="e_fr_energy">   -186.83037834 </i>
    <i name="e_wo_entrp">   -186.48521082 </i>
    <i name="e_0_energy">   -186.65779458 </i>
   </energy>
  </scstep>
  <scstep>
   <time name="dav">   22.01   22.07</time>
   <time name="total">   22.55   22.61</time>
   <energy>
    <i name="e_fr_energy">   -186.83097291 </i>
    <i name="e_wo_entrp">   -186.48598278 </i>
    <i name="e_0_energy">   -186.65847785 </i>
   </energy>
  </scstep>
  <scstep>
   <time name="dav">   20.88   20.93</time>
   <time name="total">   21.41   21.47</time>
   <energy>
    <i name="e_fr_energy">   -186.83213453 </i>
    <i name="e_wo_entrp">   -186.48697615 </i>
    <i name="e_0_energy">   -186.65955534 </i>
   </energy>
  </scstep>
  <scstep>
   <time name="dav">   20.99   21.04</time>
   <time name="total">   21.53   21.58</time>
   <energy>
    <i name="e_fr_energy">   -186.83337010 </i>
    <i name="e_wo_entrp">   -186.48832777 </i>
    <i name="e_0_energy">   -186.66084893 </i>
   </energy>
  </scstep>
  <scstep>
   <time name="dav">   18.90   18.95</time>
   <time name="total">   19.44   19.49</time>
   <energy>
    <i name="e_fr_energy">   -186.83395578 </i>
    <i name="e_wo_entrp">   -186.48889811 </i>
    <i name="e_0_energy">   -186.66142694 </i>
   </energy>
  </scstep>
  <scstep>
   <time name="dav">   17.31   17.35</time>
   <time name="total">   17.85   17.90</time>
   <energy>
    <i name="e_fr_energy">   -186.83431739 </i>
    <i name="e_wo_entrp">   -186.48921219 </i>
    <i name="e_0_energy">   -186.66176479 </i>
   </energy>
  </scstep>
  <scstep>
   <time name="dav">   19.28   19.33</time>
   <time name="total">   19.82   19.87</time>
   <energy>
    <i name="e_fr_energy">   -186.83454443 </i>
    <i name="e_wo_entrp">   -186.48945612 </i>
    <i name="e_0_energy">   -186.66200027 </i>
   </energy>
  </scstep>
  <scstep>
   <time name="dav">   20.32   20.37</time>
   <time name="total">   20.86   20.91</time>
   <energy>
    <i name="e_fr_energy">   -186.83464790 </i>
    <i name="e_wo_entrp">   -186.48955957 </i>
    <i name="e_0_energy">   -186.66210374 </i>
   </energy>
  </scstep>
  <scstep>
   <time name="dav">   20.68   20.73</time>
   <time name="total">   20.71   20.77</time>
   <energy>
    <i name="alphaZ">     81.65567618 </i>
    <i name="ewald">  41890.23009673 </i>
    <i name="hartreedc"> -47832.88125468 </i>
    <i name="XCdc">   -231.61041175 </i>
    <i name="pawpsdc">   4192.02002412 </i>
    <i name="pawaedc">  -3610.02410719 </i>
    <i name="eentropy">     -0.34508559 </i>
    <i name="bandstr">  -1437.32215646 </i>
    <i name="atom">   6761.44252427 </i>
    <i name="e_fr_energy">   -186.83469437 </i>
    <i name="e_wo_entrp">   -186.48960878 </i>
    <i name="e_0_energy">   -186.66215158 </i>
   </energy>
  </scstep>
  <structure>
   <crystal>
    <varray name="basis" >
     <v>       8.66999996       5.03999989       0.00000000 </v>
     <v>      -8.66999982       5.04000013       0.00000000 </v>
     <v>       0.00000000       0.00000000      30.00000000 </v>
    </varray>
    <i name="volume">   2621.80797419 </i>
    <varray name="rec_basis" >
     <v>       0.05767013       0.09920635       0.00000000 </v>
     <v>      -0.05767013       0.09920635       0.00000000 </v>
     <v>       0.00000000       0.00000000       0.03333333 </v>
    </varray>
   </crystal>
   <varray name="positions" >
    <v>       0.66666669       0.66666669       0.00000000 </v>
    <v>       0.00000000       0.66666669       0.00000000 </v>
    <v>       0.33333334       0.00000000       0.00000000 </v>
    <v>       0.33333334       0.33333334       0.00000000 </v>
    <v>       0.66666669       0.33333334       0.00000000 </v>
    <v>       0.00000000       0.00000000       0.00000000 </v>
    <v>       1.00000000       0.33333334       0.00000000 </v>
    <v>       0.33333334       0.66666669       0.00000000 </v>
    <v>       0.66666669       0.00000000       0.00000000 </v>
    <v>       0.11068511       0.22244981       0.95539999 </v>
    <v>       0.22244981       0.11068511       0.04460000 </v>
    <v>       0.11068511       0.55578315       0.95539999 </v>
    <v>       0.22244981       0.44401845       0.04460000 </v>
    <v>       0.11068511       0.88911647       0.95539999 </v>
    <v>       0.22244981       0.77735180       0.04460000 </v>
    <v>       0.44401845       0.22244981       0.95539999 </v>
    <v>       0.55578315       0.11068511       0.04460000 </v>
    <v>       0.44401845       0.55578315       0.95539999 </v>
    <v>       0.55578315       0.44401845       0.04460000 </v>
    <v>       0.44401845       0.88911647       0.95539999 </v>
    <v>       0.55578315       0.77735180       0.04460000 </v>
    <v>       0.77735180       0.22244981       0.95539999 </v>
    <v>       0.88911647       0.11068511       0.04460000 </v>
    <v>       0.77735180       0.55578315       0.95539999 </v>
    <v>       0.88911647       0.44401845       0.04460000 </v>
    <v>       0.77735180       0.88911647       0.95539999 </v>
    <v>       0.88911647       0.77735180       0.04460000 </v>
   </varray>
  </structure>
  <varray name="forces" >
   <v>       0.29919079      -0.09069942      -0.10642808 </v>
   <v>      -0.29315901      -0.05672805       0.01689333 </v>
   <v>      -0.44581733       0.15970995       0.09310778 </v>
   <v>       0.27903416      -0.12747993      -0.10552715 </v>
   <v>      -0.27985350      -0.13680475       0.01138189 </v>
   <v>       0.06252396       0.24079271      -0.02659873 </v>
   <v>       0.24226711      -0.15552008       0.02887706 </v>
   <v>       0.19784966      -0.13647371       0.03099188 </v>
   <v>       0.00725844       0.27752973       0.09950028 </v>
   <v>      -0.04840158       0.02757838      -2.91413288 </v>
   <v>       0.78041546      -0.01147965       2.14964927 </v>
   <v>      -0.59477686      -0.00561491      -2.12066594 </v>
   <v>      -0.29642694      -0.01049330       2.87694542 </v>
   <v>       0.89114917      -0.00362660      -1.46101148 </v>
   <v>      -0.74041151       0.01706371       1.45607946 </v>
   <v>       0.50826489      -0.68744824      -2.17921196 </v>
   <v>      -0.36321822      -0.72956697       2.17411323 </v>
   <v>       0.36849409       0.71507471      -2.18528685 </v>
   <v>      -0.51679187       0.69997501       2.15185104 </v>
   <v>      -0.59871014      -0.00459672      -2.07567631 </v>
   <v>       0.58046700       0.01189476       2.10303212 </v>
   <v>       0.26134692       0.03144222      -2.90210517 </v>
   <v>      -0.29470699      -0.00370794       2.94535894 </v>
   <v>      -0.35634810       0.66945892      -1.45462655 </v>
   <v>      -0.35809139       0.69495657       2.11803097 </v>
   <v>       0.38390407      -0.72286012      -2.14134628 </v>
   <v>       0.32454773      -0.66237627       1.41680473 </v>
  </varray>
  <varray name="stress" >
   <v>       7.20082211      -0.08245127      -1.38631933 </v>
   <v>      -0.08245121       4.52965264      -0.01075472 </v>
   <v>      -1.38631943      -0.01075461      30.32972520 </v>
  </varray>
  <energy>
   <i name="e_fr_energy">   -186.83469437 </i>
   <i name="e_wo_entrp">   -186.66215158 </i>
   <i name="e_0_energy">     -0.34508559 </i>
  </energy>
  <time name="totalsc">  819.63  821.82</time>
 </calculation>
 <calculation>
  <scstep>
   <time name="dav">   22.16   22.21</time>
   <time name="total">   22.70   22.76</time>
   <energy>
    <i name="alphaZ">     78.92661916 </i>
    <i name="ewald">  39381.93197627 </i>
    <i name="hartreedc"> -45339.42747453 </i>
    <i name="XCdc">   -239.06652281 </i>
    <i name="pawpsdc">   4192.01872171 </i>
    <i name="pawaedc">  -3610.02279235 </i>
    <i name="eentropy">     -0.28629759 </i>
    <i name="bandstr">  -1412.97603860 </i>
    <i name="atom">   6761.44252427 </i>
    <i name="e_fr_energy">   -187.45928446 </i>
    <i name="e_wo_entrp">   -187.17298687 </i>
    <i name="e_0_energy">   -187.31613566 </i>
   </energy>
  </scstep>
  <scstep>
   <time name="dav">   30.99   31.06</time>
   <time name="total">   31.53   31.61</time>
   <energy>
    <i name="e_fr_energy">   -189.36033885 </i>
    <i name="e_wo_entrp">   -189.03999368 </i>
    <i name="e_0_energy">   -189.20016627 </i>
   </energy>
  </scstep>
  <scstep>
   <time name="dav">   31.18   31.26</time>
   <time name="total">   31.73   31.82</time>
   <energy>
    <i name="e_fr_energy">   -189.32170220 </i>
    <i name="e_wo_entrp">   -189.04243014 </i>
    <i name="e_0_energy">   -189.18206617 </i>
   </energy>
  </scstep>
  <scstep>
   <time name="dav">   31.47   31.55</time>
   <time name="total">   32.02   32.10</time>
   <energy>
    <i name="e_fr_energy">   -188.73205067 </i>
    <i name="e_wo_entrp">   -188.44564960 </i>
    <i name="e_0_energy">   -188.58885013 </i>
   </energy>
  </scstep>
  <scstep>
   <time name="dav">   27.21   27.27</time>
   <time name="total">   27.75   27.83</time>
   <energy>
    <i name="e_fr_energy">   -188.73423637 </i>
    <i name="e_wo_entrp">   -188.44792403 </i>
    <i name="e_0_energy">   -188.59108020 </i>
   </energy>
  </scstep>
  <scstep>
   <time name="dav">   30.10   30.17</time>
   <time name="total">   30.65   30.73</time>
   <energy>
    <i name="e_fr_energy">   -188.69088804 </i>
    <i name="e_wo_entrp">   -188.40177054 </i>
    <i name="e_0_energy">   -188.54632929 </i>
   </energy>
  </scstep>
  <scstep>
   <time name="dav">   31.52   31.59</time>
   <time name="total">   32.06   32.15</time>
   <energy>
    <i name="e_fr_energy">   -188.67590858 </i>
    <i name="e_wo_entrp">   -188.38991035 </i>
    <i name="e_0_energy">   -188.53290947 </i>
   </energy>
  </scstep>
  <scstep>
   <time name="dav">   31.62   31.70</time>
   <time name="total">   32.17   32.26</time>
   <energy>
    <i name="e_fr_energy">   -188.64021405 </i>
    <i name="e_wo_entrp">   -188.35468754 </i>
    <i name="e_0_energy">   -188.49745080 </i>
   </energy>
  </scstep>
  <scstep>
   <time name="dav">   27.51   27.57</time>
   <time name="total">   28.05   28.13</time>
   <energy>
    <i name="e_fr_energy">   -188.63423074 </i>
    <i name="e_wo_entrp">   -188.34934414 </i>
    <i name="e_0_energy">   -188.49178744 </i>
   </energy>
  </scstep>
  <scstep>
   <time name="dav">   31.44   31.52</time>
   <time name="total">   31.99   32.07</time>
   <energy>
    <i name="e_fr_energy">   -188.63462862 </i>
    <i name="e_wo_entrp">   -188.34954495 </i>
    <i name="e_0_energy">   -188.49208679 </i>
   </energy>
  </scstep>
  <scstep>
   <time name="dav">   32.72   32.80</time>
   <time name="total">   33.27   33.35</time>
   <energy>
    <i name="e_fr_energy">   -188.63427724 </i>
    <i name="e_wo_entrp">   -188.34988341 </i>
    <i name="e_0_energy">   -188.49208033 </i>
   </energy>
  </scstep>
  <scstep>
   <time name="dav">   30.00   30.07</time>
   <time name="total">   30.55   30.63</time>
   <energy>
    <i name="e_fr_energy">   -188.63380604 </i>
    <i name="e_wo_entrp">   -188.34960568 </i>
    <i name="e_0_energy">   -188.49170586 </i>
   </energy>
  </scstep>
  <scstep>
   <time name="dav">   20.43   20.48</time>
   <time name="total">   20.47   20.53</time>
   <energy>
    <i name="alphaZ">     78.92661916 </i>
    <i name="ewald">  39381.93197627 </i>
    <i name="hartreedc"> -45350.17138276 </i>
    <i name="XCdc">   -237.98209217 </i>
    <i name="pawpsdc">   3950.22192847 </i>
    <i name="pawaedc">  -3364.72312116 </i>
    <i name="eentropy">     -0.28436062 </i>
    <i name="bandstr">  -1407.99594008 </i>
    <i name="atom">   6761.44252427 </i>
    <i name="e_fr_energy">   -188.63384862 </i>
    <i name="e_wo_entrp">   -188.34948800 </i>
    <i name="e_0_energy">   -188.49166831 </i>
   </energy>
  </scstep>
  <structure>
   <crystal>
    <varray name="basis" >
     <v>       8.85132529       5.10466005       0.00000000 </v>
     <v>      -8.85375520       5.10884056       0.00000000 </v>
     <v>       0.00000000       0.00000000      30.00000000 </v>
    </varray>
    <i name="volume">   2712.46260403 </i>
    <varray name="rec_basis" >
     <v>       0.05650408       0.09792307       0.00000000 </v>
     <v>      -0.05645785       0.09789619       0.00000000 </v>
     <v>       0.00000000       0.00000000       0.03333333 </v>
    </varray>
   </crystal>
   <varray name="positions" >
    <v>       0.66706500       0.66540020      -0.00017115 </v>
    <v>      -0.00108711       0.66721080       0.00002717 </v>
    <v>       0.33285738       0.00200470       0.00014973 </v>
    <v>       0.33349954       0.33194691      -0.00016970 </v>
    <v>       0.66523334       0.33345720       0.00001830 </v>
    <v>       0.00132638       0.00097848      -0.00004277 </v>
    <v>       0.99992971       0.33191500       0.00004644 </v>
    <v>       0.33323063       0.66546308       0.00004984 </v>
    <v>       0.66801513       0.00130806       0.00016001 </v>
    <v>       0.11068244       0.22271646       0.95071381 </v>
    <v>       0.22456611       0.10845893       0.04805682 </v>
    <v>       0.10900347       0.55741104       0.95198977 </v>
    <v>       0.22157488       0.44479294       0.04922638 </v>
    <v>       0.11314707       0.88661979       0.95305055 </v>
    <v>       0.22047153       0.77949341       0.04694150 </v>
    <v>       0.44214242       0.21774562       0.95189562 </v>
    <v>       0.55128093       0.10820395       0.04809617 </v>
    <v>       0.44846599       0.55818027       0.95188586 </v>
    <v>       0.55769542       0.44880632       0.04806037 </v>
    <v>       0.44233075       0.89076017       0.95206212 </v>
    <v>       0.55745503       0.77579377       0.04798186 </v>
    <v>       0.77822939       0.22187318       0.95073315 </v>
    <v>       0.88827880       0.11148729       0.04933640 </v>
    <v>       0.77956439       0.55997859       0.95306082 </v>
    <v>       0.89144625       0.44834077       0.04800598 </v>
    <v>       0.77496029       0.88458879       0.95195652 </v>
    <v>       0.88684929       0.77327873       0.04687835 </v>
   </varray>
  </structure>
  <varray name="forces" >
   <v>       0.20174678      -0.14218739      -0.02887047 </v>
   <v>      -0.17859694      -0.05425543       0.07683942 </v>
   <v>      -0.35703337       0.18374243       0.01898239 </v>
   <v>       0.08314402      -0.14863598      -0.02488575 </v>
   <v>      -0.12031044      -0.20485613       0.07326204 </v>
   <v>      -0.28261237       0.35945983      -0.06883866 </v>
   <v>       0.33937910      -0.24102295       0.00286728 </v>
   <v>       0.24048302      -0.19870228      -0.01498208 </v>
   <v>       0.00463140       0.43785355      -0.06777464 </v>
   <v>      -0.13130671       0.01705600      -0.17598480 </v>
   <v>       0.07838790       0.00126556       0.17834614 </v>
   <v>       0.08802344       0.00158125       0.12869926 </v>
   <v>      -0.08993991      -0.00192870       0.01108152 </v>
   <v>       0.03806720       0.00164197       0.08217331 </v>
   <v>       0.10501713       0.00429111      -0.21074170 </v>
   <v>       0.03076695      -0.07871419      -0.16008881 </v>
   <v>       0.09850979      -0.07398953       0.00839309 </v>
   <v>      -0.09587373       0.05618112      -0.01417940 </v>
   <v>      -0.03342133       0.07101841       0.04181599 </v>
   <v>       0.08630733      -0.00877666       0.25658771 </v>
   <v>      -0.07361962       0.00789081      -0.12251638 </v>
   <v>       0.10741121       0.00186854       0.00573998 </v>
   <v>      -0.10963978       0.00071163       0.15560054 </v>
   <v>      -0.02577324       0.04172162      -0.03389606 </v>
   <v>       0.09746997       0.05418289      -0.14067826 </v>
   <v>      -0.11220516      -0.05468413       0.10668924 </v>
   <v>       0.01098738      -0.03271335      -0.08364090 </v>
  </varray>
  <varray name="stress" >
   <v>     -19.89818735       0.01767812       0.07420952 </v>
   <v>       0.01767832     -19.50881469       0.05079797 </v>
   <v>       0.07420959       0.05079808      -1.73352981 </v>
  </varray>
  <energy>
   <i name="e_fr_energy">   -188.63384862 </i>
   <i name="e_wo_entrp">   -188.49166831 </i>
   <i name="e_0_energy">     -0.28436062 </i>
  </energy>
  <time name="totalsc">  427.10  428.23</time>
 </calculation>
 <calculation>
  <scstep>
   <time name="dav">   24.38   24.44</time>
   <time name="total">   24.91   24.98</time>
   <energy>
    <i name="alphaZ">     82.34456823 </i>
    <i name="ewald">  41301.66198117 </i>
    <i name="hartreedc"> -47300.37422215 </i>
    <i name="XCdc">   -233.86719570 </i>
    <i name="pawpsdc">   3949.52822795 </i>
    <i name="pawaedc">  -3364.02340425 </i>
    <i name="eentropy">     -0.23675489 </i>
    <i name="bandstr">  -1387.02118099 </i>
    <i name="atom">   6761.44252427 </i>
    <i name="e_fr_energy">   -190.54545635 </i>
    <i name="e_wo_entrp">   -190.30870147 </i>
    <i name="e_0_energy">   -190.42707891 </i>
   </energy>
  </scstep>
  <scstep>
   <time name="dav">   29.02   29.09</time>
   <time name="total">   29.55   29.62</time>
   <energy>
    <i name="e_fr_energy">   -190.54195724 </i>
    <i name="e_wo_entrp">   -190.30243666 </i>
    <i name="e_0_energy">   -190.42219695 </i>
   </energy>
  </scstep>
  <scstep>
   <time name="dav">   30.87   30.94</time>
   <time name="total">   31.40   31.49</time>
   <energy>
    <i name="e_fr_energy">   -190.02051363 </i>
    <i name="e_wo_entrp">   -189.77208564 </i>
    <i name="e_0_energy">   -189.89629963 </i>
   </energy>
  </scstep>
  <scstep>
   <time name="dav">   32.14   32.22</time>
   <time name="total">   32.68   32.76</time>
   <energy>
    <i name="e_fr_energy">   -189.81783707 </i>
    <i name="e_wo_entrp">   -189.58022831 </i>
    <i name="e_0_energy">   -189.69903269 </i>
   </energy>
  </scstep>
  <scstep>
   <time name="dav">   28.88   28.94</time>
   <time name="total">   29.41   29.49</time>
   <energy>
    <i name="e_fr_energy">   -189.73754989 </i>
    <i name="e_wo_entrp">   -189.49546685 </i>
    <i name="e_0_energy">   -189.61650837 </i>
   </energy>
  </scstep>
  <scstep>
   <time name="dav">   30.13   30.20</time>
   <time name="total">   30.66   30.74</time>
   <energy>
    <i name="e_fr_energy">   -189.72134806 </i>
    <i name="e_wo_entrp">   -189.48237965 </i>
    <i name="e_0_energy">   -189.60186385 </i>
   </energy>
  </scstep>
  <scstep>
   <time name="dav">   30.94   31.01</time>
   <time name="total">   31.48   31.56</time>
   <energy>
    <i name="e_fr_energy">   -189.71527525 </i>
    <i name="e_wo_entrp">   -189.47534781 </i>
    <i name="e_0_energy">   -189.59531153 </i>
   </energy>
  </scstep>
  <scstep>
   <time name="dav">   28.22   28.29</time>
   <time name="total">   28.76   28.84</time>
   <energy>
    <i name="e_fr_energy">   -189.71518423 </i>
    <i name="e_wo_entrp">   -189.47569049 </i>
    <i name="e_0_energy">   -189.59543736 </i>
   </energy>
  </scstep>
  <scstep>
   <time name="dav">   27.23   27.29</time>
   <time name="total">   27.26   27.34</time>
   <energy>
    <i name="alphaZ">     82.34456823 </i>
    <i name="ewald">  41301.66198117 </i>
    <i name="hartreedc"> -47272.77172893 </i>
    <i name="XCdc">   -235.25828360 </i>
    <i name="pawpsdc">   4029.44363087 </i>
    <i name="pawaedc">  -3445.05458654 </i>
    <i name="eentropy">     -0.23982096 </i>
    <i name="bandstr">  -1411.28352162 </i>
    <i name="atom">   6761.44252427 </i>
    <i name="e_fr_energy">   -189.71523710 </i>
    <i name="e_wo_entrp">   -189.47541613 </i>
    <i name="e_0_energy">   -189.59532662 </i>
   </energy>
  </scstep>
  <structure>
   <crystal>
    <varray name="basis" >
     <v>       8.66394043       4.99882000       0.00000000 </v>
     <v>      -8.66612668       5.00258052       0.00000000 </v>
     <v>       0.00000000       0.00000000      30.00000000 </v>
    </varray>
    <i name="volume">   2599.87401145 </i>
    <varray name="rec_basis" >
     <v>       0.05772488       0.09999861       0.00000000 </v>
     <v>      -0.05768149       0.09997339       0.00000000 </v>
     <v>       0.00000000       0.00000000       0.03333333 </v>
    </varray>
   </crystal>
   <varray name="positions" >
    <v>       0.66702215       0.66497054      -0.00018748 </v>
    <v>      -0.00134862       0.66729181       0.00007065 </v>
    <v>       0.33282035       0.00265227       0.00016047 </v>
    <v>       0.33333221       0.33162020      -0.00018378 </v>
    <v>       0.66477739       0.33323205       0.00005976 </v>
    <v>       0.00165285       0.00184674      -0.00008173 </v>
    <v>       0.99985458       0.33118916       0.00004806 </v>
    <v>       0.33313099       0.66490236       0.00004136 </v>
    <v>       0.66874745       0.00203130       0.00012165 </v>
    <v>       0.11058484       0.22287066       0.95061422 </v>
    <v>       0.22464341       0.10838590       0.04815775 </v>
    <v>       0.10909054       0.55732931       0.95206260 </v>
    <v>       0.22148540       0.44487594       0.04923265 </v>
    <v>       0.11318632       0.88658603       0.95309705 </v>
    <v>       0.22057940       0.77939988       0.04682225 </v>
    <v>       0.44204108       0.21758532       0.95180503 </v>
    <v>       0.55125243       0.10798657       0.04810091 </v>
    <v>       0.44846742       0.55836553       0.95187783 </v>
    <v>       0.55778142       0.44895638       0.04808403 </v>
    <v>       0.44239895       0.89066287       0.95220732 </v>
    <v>       0.55739753       0.77587745       0.04791253 </v>
    <v>       0.77833553       0.22177334       0.95073640 </v>
    <v>       0.88817481       0.11159355       0.04942445 </v>
    <v>       0.77960903       0.56007263       0.95304164 </v>
    <v>       0.89162981       0.44833740       0.04792637 </v>
    <v>       0.77476175       0.88460545       0.95201689 </v>
    <v>       0.88680545       0.77321384       0.04683102 </v>
   </varray>
  </structure>
  <varray name="forces" >
   <v>       0.15395434      -0.16764383      -0.00099128 </v>
   <v>      -0.12696261      -0.05731284       0.07442584 </v>
   <v>      -0.33083941       0.20791432      -0.00512320 </v>
   <v>       0.02043129      -0.16408516       0.00064571 </v>
   <v>      -0.05404962      -0.22865911       0.06914030 </v>
   <v>      -0.39912747       0.38945355      -0.05479381 </v>
   <v>       0.37964217      -0.27923062       0.00285496 </v>
   <v>       0.25201537      -0.22106485      -0.02063807 </v>
   <v>       0.00932863       0.49870493      -0.08401813 </v>
   <v>      -0.04920797       0.02299721      -0.74907074 </v>
   <v>       0.14049850      -0.00146904       0.67836271 </v>
   <v>      -0.05769694      -0.01141484      -0.36950080 </v>
   <v>      -0.00747081      -0.01020276       0.56993316 </v>
   <v>       0.10799357       0.00451792      -0.35787529 </v>
   <v>      -0.05003671       0.00917078       0.24300576 </v>
   <v>       0.07517085      -0.14315356      -0.66051763 </v>
   <v>      -0.01747225      -0.14002429       0.51638202 </v>
   <v>       0.03424806       0.10919251      -0.52987563 </v>
   <v>      -0.07464458       0.12462605       0.52981704 </v>
   <v>      -0.05725937      -0.00973317      -0.22082511 </v>
   <v>       0.06995002       0.01800485       0.37044698 </v>
   <v>       0.01696605       0.01381485      -0.55582382 </v>
   <v>      -0.02147298       0.00379211       0.74604790 </v>
   <v>      -0.04480635       0.09785159      -0.49315306 </v>
   <v>      -0.01015227       0.11148705       0.33638508 </v>
   <v>       0.00899024      -0.10464920      -0.38756763 </v>
   <v>       0.03201023      -0.07288443       0.35232673 </v>
  </varray>
  <varray name="stress" >
   <v>     -10.18979078       0.01477413       0.02729066 </v>
   <v>       0.01477414      -9.96627165       0.06040183 </v>
   <v>       0.02729067       0.06040194       6.58112534 </v>
  </varray>
  <energy>
   <i name="e_fr_energy">   -189.71523710 </i>
   <i name="e_wo_entrp">   -189.59532662 </i>
   <i name="e_0_energy">     -0.23982096 </i>
  </energy>
  <time name="totalsc">  308.35  309.17</time>
 </calculation>
 <calculation>
  <scstep>
   <time name="dav">   22.15   22.20</time>
   <time name="total">   22.67   22.72</time>
   <energy>
    <i name="alphaZ">     85.87681448 </i>
    <i name="ewald">  42860.22971993 </i>
    <i name="hartreedc"> -48876.79367516 </i>
    <i name="XCdc">   -232.91826044 </i>
    <i name="pawpsdc">   4035.40868135 </i>
    <i name="pawaedc">  -3451.07901765 </i>
    <i name="eentropy">     -0.19598217 </i>
    <i name="bandstr">  -1373.26847828 </i>
    <i name="atom">   6761.44252427 </i>
    <i name="e_fr_energy">   -191.29767367 </i>
    <i name="e_wo_entrp">   -191.10169150 </i>
    <i name="e_0_energy">   -191.19968259 </i>
   </energy>
  </scstep>
  <scstep>
   <time name="dav">   33.17   33.25</time>
   <time name="total">   33.69   34.09</time>
   <energy>
    <i name="e_fr_energy">   -191.17859732 </i>
    <i name="e_wo_entrp">   -190.97587419 </i>
    <i name="e_0_energy">   -191.07723576 </i>
   </energy>
  </scstep>
  <scstep>
   <time name="dav">   30.30   30.38</time>
   <time name="total">   30.81   30.90</time>
   <energy>
    <i name="e_fr_energy">   -191.21121283 </i>
    <i name="e_wo_entrp">   -190.99566644 </i>
    <i name="e_0_energy">   -191.10343964 </i>
   </energy>
  </scstep>
  <scstep>
   <time name="dav">   29.84   29.91</time>
   <time name="total">   30.36   30.44</time>
   <energy>
    <i name="e_fr_energy">   -190.87675788 </i>
    <i name="e_wo_entrp">   -190.67198101 </i>
    <i name="e_0_energy">   -190.77436945 </i>
   </energy>
  </scstep>
  <scstep>
   <time name="dav">   30.30   30.38</time>
   <time name="total">   30.82   30.90</time>
   <energy>
    <i name="e_fr_energy">   -190.84814697 </i>
    <i name="e_wo_entrp">   -190.65062889 </i>
    <i name="e_0_energy">   -190.74938793 </i>
   </energy>
  </scstep>
  <scstep>
   <time name="dav">   30.69   30.76</time>
   <time name="total">   31.20   31.29</time>
   <energy>
    <i name="e_fr_energy">   -190.69088095 </i>
    <i name="e_wo_entrp">   -190.48720307 </i>
    <i name="e_0_energy">   -190.58904201 </i>
   </energy>
  </scstep>
  <scstep>
   <time name="dav">   29.81   29.88</time>
   <time name="total">   30.33   30.41</time>
   <energy>
    <i name="e_fr_energy">   -190.68481587 </i>
    <i name="e_wo_entrp">   -190.48261145 </i>
    <i name="e_0_energy">   -190.58371366 </i>
   </energy>
  </scstep>
  <scstep>
   <time name="dav">   29.54   29.61</time>
   <time name="total">   30.06   30.14</time>
   <energy>
    <i name="e_fr_energy">   -190.68322607 </i>
    <i name="e_wo_entrp">   -190.48141361 </i>
    <i name="e_0_energy">   -190.58231984 </i>
   </energy>
  </scstep>
  <scstep>
   <time name="dav">   29.31   29.38</time>
   <time name="total">   29.83   29.91</time>
   <energy>
    <i name="e_fr_energy">   -190.68111325 </i>
    <i name="e_wo_entrp">   -190.47882174 </i>
    <i name="e_0_energy">   -190.57996750 </i>
   </energy>
  </scstep>
  <scstep>
   <time name="dav">   26.81   26.88</time>
   <time name="total">   27.33   27.40</time>
   <energy>
    <i name="e_fr_energy">   -190.68142639 </i>
    <i name="e_wo_entrp">   -190.47894175 </i>
    <i name="e_0_energy">   -190.58018407 </i>
   </energy>
  </scstep>
  <scstep>
   <time name="dav">   26.93   27.00</time>
   <time name="total">   27.45   27.52</time>
   <energy>
    <i name="e_fr_energy">   -190.68123339 </i>
    <i name="e_wo_entrp">   -190.47901139 </i>
    <i name="e_0_energy">   -190.58012239 </i>
   </energy>
  </scstep>
  <scstep>
   <time name="dav">   20.62   20.67</time>
   <time name="total">   20.66   20.71</time>
   <energy>
    <i name="alphaZ">     85.87681448 </i>
    <i name="ewald">  42860.22971993 </i>
    <i name="hartreedc"> -48848.33663276 </i>
    <i name="XCdc">   -234.27500343 </i>
    <i name="pawpsdc">   4063.92650569 </i>
    <i name="pawaedc">  -3479.80403865 </i>
    <i name="eentropy">     -0.20228877 </i>
    <i name="bandstr">  -1399.53884035 </i>
    <i name="atom">   6761.44252427 </i>
    <i name="e_fr_energy">   -190.68123957 </i>
    <i name="e_wo_entrp">   -190.47895080 </i>
    <i name="e_0_energy">   -190.58009519 </i>
   </energy>
  </scstep>
  <structure>
   <crystal>
    <varray name="basis" >
     <v>       8.48185325       4.89666908       0.00000000 </v>
     <v>      -8.48351000       4.89951469       0.00000000 </v>
     <v>       0.00000000       0.00000000      30.00000000 </v>
    </varray>
    <i name="volume">   2492.93717100 </i>
    <varray name="rec_basis" >
     <v>       0.05896075       0.10209054       0.00000000 </v>
     <v>      -0.05892650       0.10207060       0.00000000 </v>
     <v>       0.00000000       0.00000000       0.03333333 </v>
    </varray>
   </crystal>
   <varray name="positions" >
    <v>       0.66639390       0.66336621      -0.00016559 </v>
    <v>      -0.00210104       0.66730907       0.00022298 </v>
    <v>       0.33302562       0.00517810       0.00012913 </v>
    <v>       0.33224592       0.33056873      -0.00016050 </v>
    <v>       0.66318258       0.33183630       0.00019966 </v>
    <v>       0.00255704       0.00598155      -0.00018334 </v>
    <v>       0.99943987       0.32790689       0.00005397 </v>
    <v>       0.33261701       0.66252912      -0.00000632 </v>
    <v>       0.67207219       0.00527396      -0.00006661 </v>
    <v>       0.11068543       0.22308870       0.94856779 </v>
    <v>       0.22522693       0.10777057       0.04999471 </v>
    <v>       0.10856474       0.55764589       0.95086797 </v>
    <v>       0.22149351       0.44469807       0.05089521 </v>
    <v>       0.11371517       0.88612878       0.95197651 </v>
    <v>       0.22024211       0.77987661       0.04771626 </v>
    <v>       0.44131692       0.21618746       0.95000474 </v>
    <v>       0.54997453       0.10717325       0.04960868 </v>
    <v>       0.44960030       0.55887117       0.95033545 </v>
    <v>       0.55836847       0.45020409       0.04960249 </v>
    <v>       0.44191881       0.89101567       0.95133899 </v>
    <v>       0.55799870       0.77555370       0.04910462 </v>
    <v>       0.77838216       0.22196036       0.94910078 </v>
    <v>       0.88825698       0.11157458       0.05147953 </v>
    <v>       0.78017484       0.56101832       0.95162394 </v>
    <v>       0.89228075       0.44937505       0.04903414 </v>
    <v>       0.77418782       0.88361369       0.95078817 </v>
    <v>       0.88639317       0.77250855       0.04793655 </v>
   </varray>
  </structure>
  <varray name="forces" >
   <v>       0.11248690      -0.24649760       0.04976545 </v>
   <v>      -0.09260679      -0.03297508       0.04552814 </v>
   <v>      -0.30943971       0.20106616      -0.05466200 </v>
   <v>      -0.05683084      -0.13594296       0.02632944 </v>
   <v>      -0.06013602      -0.23318797       0.02979710 </v>
   <v>      -0.48012835       0.38239836      -0.00875483 </v>
   <v>       0.44473958      -0.29802944      -0.00369824 </v>
   <v>       0.28058847      -0.28786653      -0.02724060 </v>
   <v>       0.04577937       0.59627502      -0.04802349 </v>
   <v>       0.01886534       0.05310107      -0.61577981 </v>
   <v>       0.01021445       0.00324791       0.48802421 </v>
   <v>      -0.00882167      -0.05616528      -0.21957284 </v>
   <v>       0.05233718      -0.04812062       0.40878593 </v>
   <v>      -0.03007984       0.02088540      -0.24756505 </v>
   <v>      -0.02571876       0.01630592       0.17702333 </v>
   <v>       0.00219757      -0.05645816      -0.46387808 </v>
   <v>      -0.00768919      -0.06437602       0.38472407 </v>
   <v>       0.10542961       0.01039657      -0.40466637 </v>
   <v>      -0.02216766       0.01091227       0.35900333 </v>
   <v>      -0.00858532       0.01109379      -0.03036036 </v>
   <v>       0.03916746       0.03981033       0.15719293 </v>
   <v>      -0.04794650       0.05794247      -0.41276694 </v>
   <v>       0.02265734       0.00881562       0.62758847 </v>
   <v>       0.00087358       0.00109099      -0.36969716 </v>
   <v>       0.01491122       0.00747741       0.19139715 </v>
   <v>       0.04275991       0.00529413      -0.25469579 </v>
   <v>      -0.04285735       0.03350624       0.21620199 </v>
  </varray>
  <varray name="stress" >
   <v>      -5.76578305      -0.07971723      -0.03062697 </v>
   <v>      -0.07971710      -5.65719741      -0.04618760 </v>
   <v>      -0.03062693      -0.04618750       4.59611940 </v>
  </varray>
  <energy>
   <i name="e_fr_energy">   -190.68123957 </i>
   <i name="e_wo_entrp">   -190.58009519 </i>
   <i name="e_0_energy">     -0.20228877 </i>
  </energy>
  <time name="totalsc">  387.25  388.58</time>
 </calculation>
 <calculation>
  <scstep>
   <time name="dav">   22.14   22.20</time>
   <time name="total">   22.65   22.71</time>
   <energy>
    <i name="alphaZ">     90.16747927 </i>
    <i name="ewald">  44658.83228515 </i>
    <i name="hartreedc"> -50701.73154003 </i>
    <i name="XCdc">   -231.88045657 </i>
    <i name="pawpsdc">   4063.90101090 </i>
    <i name="pawaedc">  -3479.77394269 </i>
    <i name="eentropy">     -0.18044199 </i>
    <i name="bandstr">  -1352.80433979 </i>
    <i name="atom">   6761.44252427 </i>
    <i name="e_fr_energy">   -192.02742147 </i>
    <i name="e_wo_entrp">   -191.84697948 </i>
    <i name="e_0_energy">   -191.93720047 </i>
   </energy>
  </scstep>
  <scstep>
   <time name="dav">   30.24   30.31</time>
   <time name="total">   30.74   30.82</time>
   <energy>
    <i name="e_fr_energy">   -191.82392413 </i>
    <i name="e_wo_entrp">   -191.63155689 </i>
    <i name="e_0_energy">   -191.72774051 </i>
   </energy>
  </scstep>
  <scstep>
   <time name="dav">   30.54   30.61</time>
   <time name="total">   31.05   31.13</time>
   <energy>
    <i name="e_fr_energy">   -192.20337956 </i>
    <i name="e_wo_entrp">   -192.00242930 </i>
    <i name="e_0_energy">   -192.10290443 </i>
   </energy>
  </scstep>
  <scstep>
   <time name="dav">   30.51   30.58</time>
   <time name="total">   31.02   31.10</time>
   <energy>
    <i name="e_fr_energy">   -191.55020219 </i>
    <i name="e_wo_entrp">   -191.36288800 </i>
    <i name="e_0_energy">   -191.45654509 </i>
   </energy>
  </scstep>
  <scstep>
   <time name="dav">   30.45   30.53</time>
   <time name="total">   30.96   31.04</time>
   <energy>
    <i name="e_fr_energy">   -191.37889351 </i>
    <i name="e_wo_entrp">   -191.19224016 </i>
    <i name="e_0_energy">   -191.28556683 </i>
   </energy>
  </scstep>
  <scstep>
   <time name="dav">   31.57   31.64</time>
   <time name="total">   32.07   32.16</time>
   <energy>
    <i name="e_fr_energy">   -191.37073352 </i>
    <i name="e_wo_entrp">   -191.17702652 </i>
    <i name="e_0_energy">   -191.27388002 </i>
   </energy>
  </scstep>
  <scstep>
   <time name="dav">   29.79   29.86</time>
   <time name="total">   30.29   30.38</time>
   <energy>
    <i name="e_fr_energy">   -191.34519306 </i>
    <i name="e_wo_entrp">   -191.15801817 </i>
    <i name="e_0_energy">   -191.25160562 </i>
   </energy>
  </scstep>
  <scstep>
   <time name="dav">   29.45   29.52</time>
   <time name="total">   29.96   30.04</time>
   <energy>
    <i name="e_fr_energy">   -191.33796215 </i>
    <i name="e_wo_entrp">   -191.14958022 </i>
    <i name="e_0_energy">   -191.24377118 </i>
   </energy>
  </scstep>
  <scstep>
   <time name="dav">   31.88   31.95</time>
   <time name="total">   32.39   32.47</time>
   <energy>
    <i name="e_fr_energy">   -191.33864776 </i>
    <i name="e_wo_entrp">   -191.14976629 </i>
    <i name="e_0_energy">   -191.24420703 </i>
   </energy>
  </scstep>
  <scstep>
   <time name="dav">   29.15   29.22</time>
   <time name="total">   29.66   29.74</time>
   <energy>
    <i name="e_fr_energy">   -191.33814848 </i>
    <i name="e_wo_entrp">   -191.14951527 </i>
    <i name="e_0_energy">   -191.24383188 </i>
   </energy>
  </scstep>
  <scstep>
   <time name="dav">   27.38   27.44</time>
   <time name="total">   27.89   27.96</time>
   <energy>
    <i name="e_fr_energy">   -191.33796760 </i>
    <i name="e_wo_entrp">   -191.14926242 </i>
    <i name="e_0_energy">   -191.24361501 </i>
   </energy>
  </scstep>
  <scstep>
   <time name="dav">   20.27   20.32</time>
   <time name="total">   20.31   20.36</time>
   <energy>
    <i name="alphaZ">     90.16747927 </i>
    <i name="ewald">  44658.83228515 </i>
    <i name="hartreedc"> -50668.20330382 </i>
    <i name="XCdc">   -233.39519475 </i>
    <i name="pawpsdc">   4083.41325943 </i>
    <i name="pawaedc">  -3499.33957668 </i>
    <i name="eentropy">     -0.18869759 </i>
    <i name="bandstr">  -1384.06671496 </i>
    <i name="atom">   6761.44252427 </i>
    <i name="e_fr_energy">   -191.33793967 </i>
    <i name="e_wo_entrp">   -191.14924208 </i>
    <i name="e_0_energy">   -191.24359088 </i>
   </energy>
  </scstep>
  <structure>
   <crystal>
    <varray name="basis" >
     <v>       8.27319941       4.77600666       0.00000000 </v>
     <v>      -8.27938245       4.78669285       0.00000000 </v>
     <v>       0.00000000       0.00000000      30.00000000 </v>
    </varray>
    <i name="volume">   2374.30950350 </i>
    <varray name="rec_basis" >
     <v>       0.06048107       0.10461209       0.00000000 </v>
     <v>      -0.06034605       0.10453396       0.00000000 </v>
     <v>       0.00000000       0.00000000       0.03333333 </v>
    </varray>
   </crystal>
   <varray name="positions" >
    <v>       0.66420922       0.65968490       0.00003140 </v>
    <v>      -0.00314621       0.66745658       0.00041580 </v>
    <v>       0.33339973       0.00984102      -0.00008419 </v>
    <v>       0.33007837       0.32925748      -0.00004520 </v>
    <v>       0.65998671       0.32925392       0.00033415 </v>
    <v>       0.00381425       0.01419360      -0.00022857 </v>
    <v>       0.99886685       0.32109528       0.00004280 </v>
    <v>       0.33112851       0.65712681      -0.00011598 </v>
    <v>       0.67961311       0.01222578      -0.00029114 </v>
    <v>       0.11149986       0.22349772       0.94550760 </v>
    <v>       0.22554812       0.10749730       0.05250913 </v>
    <v>       0.10757183       0.55734875       0.94943754 </v>
    <v>       0.22139408       0.44370766       0.05313822 </v>
    <v>       0.11398513       0.88632823       0.95051279 </v>
    <v>       0.21998372       0.78053467       0.04889113 </v>
    <v>       0.44046358       0.21501911       0.94758202 </v>
    <v>       0.54862704       0.10633381       0.05169167 </v>
    <v>       0.45092511       0.55842582       0.94816957 </v>
    <v>       0.55856750       0.45094867       0.05158506 </v>
    <v>       0.44167392       0.89145562       0.95065515 </v>
    <v>       0.55901457       0.77549011       0.05031682 </v>
    <v>       0.77862349       0.22304771       0.94684894 </v>
    <v>       0.88862645       0.11142025       0.05459542 </v>
    <v>       0.78043848       0.56141887       0.94965197 </v>
    <v>       0.89260924       0.44989613       0.05033009 </v>
    <v>       0.77439607       0.88288831       0.94923175 </v>
    <v>       0.88631574       0.77282037       0.04928596 </v>
   </varray>
  </structure>
  <varray name="forces" >
   <v>       0.14004792      -0.36813934       0.01467692 </v>
   <v>      -0.09054562       0.06765954       0.05828457 </v>
   <v>      -0.31283323       0.14375343      -0.00030848 </v>
   <v>      -0.08221296       0.03054517      -0.03878042 </v>
   <v>      -0.08329709      -0.17125193      -0.02233704 </v>
   <v>      -0.25469393       0.18484872       0.01910685 </v>
   <v>       0.28553181      -0.08309375      -0.07489124 </v>
   <v>       0.26701940      -0.44360045      -0.04936143 </v>
   <v>       0.03651650       0.51867630       0.04290289 </v>
   <v>       0.03641102       0.08584542      -0.27487622 </v>
   <v>      -0.11716851      -0.00776143       0.11713843 </v>
   <v>       0.10051399      -0.13810237       0.03099019 </v>
   <v>       0.04489810      -0.11348301       0.19630764 </v>
   <v>      -0.20277280       0.04357900       0.00890072 </v>
   <v>       0.05568167       0.04097562      -0.10275588 </v>
   <v>      -0.07859570       0.02020845      -0.12842992 </v>
   <v>       0.05852687       0.01389008       0.04676095 </v>
   <v>       0.10479147      -0.07659493      -0.13427513 </v>
   <v>       0.05081239      -0.12109116       0.11517169 </v>
   <v>       0.12784618       0.06516152       0.32352025 </v>
   <v>      -0.05502398       0.06579275      -0.19047950 </v>
   <v>      -0.06609295       0.14887030      -0.14459992 </v>
   <v>       0.01360276       0.02524261       0.36194432 </v>
   <v>       0.02076852      -0.08955403      -0.02627362 </v>
   <v>       0.12500326      -0.12440776      -0.12693456 </v>
   <v>       0.00827759       0.15251840       0.07417977 </v>
   <v>      -0.13301269       0.12951285      -0.09558180 </v>
  </varray>
  <varray name="stress" >
   <v>      -0.35367251      -0.25514028      -0.00477126 </v>
   <v>      -0.25514041      -0.19940623      -0.33914238 </v>
   <v>      -0.00477131      -0.33914217      -0.51997348 </v>
  </varray>
  <energy>
   <i name="e_fr_energy">   -191.33793967 </i>
   <i name="e_wo_entrp">   -191.24359088 </i>
   <i name="e_0_energy">     -0.18869759 </i>
  </energy>
  <time name="totalsc">  391.40  392.44</time>
 </calculation>
 <calculation>
  <scstep>
   <time name="dav">   22.11   22.17</time>
   <time name="total">   22.63   22.68</time>
   <energy>
    <i name="alphaZ">     90.36903993 </i>
    <i name="ewald">  44733.95418862 </i>
    <i name="hartreedc"> -50746.11704377 </i>
    <i name="XCdc">   -233.32416648 </i>
    <i name="pawpsdc">   4083.30715275 </i>
    <i name="pawaedc">  -3499.22843842 </i>
    <i name="eentropy">     -0.18888923 </i>
    <i name="bandstr">  -1381.64407640 </i>
    <i name="atom">   6761.44252427 </i>
    <i name="e_fr_energy">   -191.42970874 </i>
    <i name="e_wo_entrp">   -191.24081950 </i>
    <i name="e_0_energy">   -191.33526412 </i>
   </energy>
  </scstep>
  <scstep>
   <time name="dav">   32.43   32.51</time>
   <time name="total">   32.94   33.02</time>
   <energy>
    <i name="e_fr_energy">   -191.48619782 </i>
    <i name="e_wo_entrp">   -191.28656363 </i>
    <i name="e_0_energy">   -191.38638072 </i>
   </energy>
  </scstep>
  <scstep>
   <time name="dav">   30.11   30.18</time>
   <time name="total">   30.62   30.70</time>
   <energy>
    <i name="e_fr_energy">   -191.44670260 </i>
    <i name="e_wo_entrp">   -191.25742602 </i>
    <i name="e_0_energy">   -191.35206431 </i>
   </energy>
  </scstep>
  <scstep>
   <time name="dav">   29.39   29.46</time>
   <time name="total">   29.90   29.98</time>
   <energy>
    <i name="e_fr_energy">   -191.44602865 </i>
    <i name="e_wo_entrp">   -191.25575512 </i>
    <i name="e_0_energy">   -191.35089189 </i>
   </energy>
  </scstep>
  <scstep>
   <time name="dav">   28.95   29.02</time>
   <time name="total">   29.46   29.54</time>
   <energy>
    <i name="e_fr_energy">   -191.44027964 </i>
    <i name="e_wo_entrp">   -191.24951075 </i>
    <i name="e_0_energy">   -191.34489520 </i>
   </energy>
  </scstep>
  <scstep>
   <time name="dav">   28.07   28.14</time>
   <time name="total">   28.58   28.65</time>
   <energy>
    <i name="e_fr_energy">   -191.43959278 </i>
    <i name="e_wo_entrp">   -191.24852128 </i>
    <i name="e_0_energy">   -191.34405703 </i>
   </energy>
  </scstep>
  <scstep>
   <time name="dav">   26.73   26.79</time>
   <time name="total">   27.24   27.31</time>
   <energy>
    <i name="e_fr_energy">   -191.43929770 </i>
    <i name="e_wo_entrp">   -191.24798094 </i>
    <i name="e_0_energy">   -191.34363932 </i>
   </energy>
  </scstep>
  <scstep>
   <time name="dav">   25.62   25.68</time>
   <time name="total">   25.65   25.72</time>
   <energy>
    <i name="alphaZ">     90.36903993 </i>
    <i name="ewald">  44733.95418862 </i>
    <i name="hartreedc"> -50745.52966429 </i>
    <i name="XCdc">   -233.36938206 </i>
    <i name="pawpsdc">   4083.76198376 </i>
    <i name="pawaedc">  -3499.67683486 </i>
    <i name="eentropy">     -0.19111821 </i>
    <i name="bandstr">  -1382.19999867 </i>
    <i name="atom">   6761.44252427 </i>
    <i name="e_fr_energy">   -191.43926151 </i>
    <i name="e_wo_entrp">   -191.24814330 </i>
    <i name="e_0_energy">   -191.34370241 </i>
   </energy>
  </scstep>
  <structure>
   <crystal>
    <varray name="basis" >
     <v>       8.25876141       4.76580360       0.00000000 </v>
     <v>      -8.27176961       4.78830849       0.00000000 </v>
     <v>       0.00000000       0.00000000      30.00000000 </v>
    </varray>
    <i name="volume">   2369.01380278 </i>
    <varray name="rec_basis" >
     <v>       0.06063673       0.10474953       0.00000000 </v>
     <v>      -0.06035174       0.10458480       0.00000000 </v>
     <v>       0.00000000       0.00000000       0.03333333 </v>
    </varray>
   </crystal>
   <varray name="positions" >
    <v>       0.66264501       0.65723560       0.00006090 </v>
    <v>      -0.00309167       0.66808872       0.00051847 </v>
    <v>       0.33321567       0.01166247      -0.00008997 </v>
    <v>       0.32993300       0.32963367      -0.00010712 </v>
    <v>       0.65875425       0.32853941       0.00030036 </v>
    <v>       0.00404298       0.01614569      -0.00019786 </v>
    <v>       0.99928243       0.31962141      -0.00008290 </v>
    <v>       0.32957119       0.65385225      -0.00020145 </v>
    <v>       0.68263922       0.01501430      -0.00022543 </v>
    <v>       0.11208291       0.22384679       0.94496021 </v>
    <v>       0.22516268       0.10780102       0.05277795 </v>
    <v>       0.10712221       0.55631628       0.94944428 </v>
    <v>       0.22093336       0.44294981       0.05353365 </v>
    <v>       0.11360842       0.88717277       0.95048300 </v>
    <v>       0.22035733       0.78060224       0.04875629 </v>
    <v>       0.44030651       0.21532662       0.94729650 </v>
    <v>       0.54883571       0.10620643       0.05183144 </v>
    <v>       0.45088176       0.55769722       0.94788103 </v>
    <v>       0.55809396       0.45018459       0.05183698 </v>
    <v>       0.44239370       0.89142534       0.95117059 </v>
    <v>       0.55922297       0.77599650       0.05003791 </v>
    <v>       0.77920926       0.22405836       0.94654005 </v>
    <v>       0.88881151       0.11150603       0.05529024 </v>
    <v>       0.78004143       0.56090199       0.94955017 </v>
    <v>       0.89234553       0.44888533       0.05015886 </v>
    <v>       0.77522579       0.88363819       0.94930793 </v>
    <v>       0.88658734       0.77390542       0.04916783 </v>
   </varray>
  </structure>
  <varray name="forces" >
   <v>       0.17266280      -0.38994076       0.02223580 </v>
   <v>      -0.12844222       0.11705008       0.10424955 </v>
   <v>      -0.37866517       0.12999911       0.00185304 </v>
   <v>      -0.05795896       0.06676162      -0.01123315 </v>
   <v>      -0.10551811      -0.19908333      -0.00577878 </v>
   <v>      -0.20811699       0.21705504       0.00624728 </v>
   <v>       0.29418016      -0.04881511      -0.00305043 </v>
   <v>       0.28788125      -0.54630579      -0.02463468 </v>
   <v>       0.00630900       0.55893588       0.01187271 </v>
   <v>       0.04833677       0.06537182      -0.20714622 </v>
   <v>      -0.07687423       0.01690646       0.09438119 </v>
   <v>       0.06011107      -0.10812038      -0.01189107 </v>
   <v>       0.04044883      -0.08928570       0.17814160 </v>
   <v>      -0.13203415       0.03720347       0.02431751 </v>
   <v>       0.05892419       0.04679257      -0.15530904 </v>
   <v>      -0.05230087      -0.00532882      -0.11688169 </v>
   <v>       0.03592076       0.00219408       0.01473800 </v>
   <v>       0.07773890      -0.04999898      -0.15680640 </v>
   <v>       0.04369360      -0.09019272       0.10499523 </v>
   <v>       0.12202717       0.03100985       0.39796068 </v>
   <v>      -0.05662153       0.03761772      -0.24266630 </v>
   <v>      -0.04691405       0.11847375      -0.09128589 </v>
   <v>      -0.00166861       0.06109929       0.25644226 </v>
   <v>       0.01236681      -0.06111469      -0.00195202 </v>
   <v>       0.09197851      -0.08150928      -0.18806888 </v>
   <v>      -0.00182877       0.09244714       0.12379226 </v>
   <v>      -0.10563616       0.07077767      -0.12452255 </v>
  </varray>
  <varray name="stress" >
   <v>       0.20536720      -0.05285857      -0.05664227 </v>
   <v>      -0.05285851       0.30213086      -0.16132134 </v>
   <v>      -0.05664217      -0.16132126      -1.14302656 </v>
  </varray>
  <energy>
   <i name="e_fr_energy">   -191.43926151 </i>
   <i name="e_wo_entrp">   -191.34370241 </i>
   <i name="e_0_energy">     -0.19111821 </i>
  </energy>
  <time name="totalsc">  269.53  270.26</time>
 </calculation>
 <calculation>
  <scstep>
   <time name="dav">   22.15   22.20</time>
   <time name="total">   22.66   22.72</time>
   <energy>
    <i name="alphaZ">     90.30295162 </i>
    <i name="ewald">  44704.47688177 </i>
    <i name="hartreedc"> -50715.27318323 </i>
    <i name="XCdc">   -233.41303080 </i>
    <i name="pawpsdc">   4083.80484584 </i>
    <i name="pawaedc">  -3499.72041423 </i>
    <i name="eentropy">     -0.19070598 </i>
    <i name="bandstr">  -1382.89801615 </i>
    <i name="atom">   6761.44252427 </i>
    <i name="e_fr_energy">   -191.46814687 </i>
    <i name="e_wo_entrp">   -191.27744090 </i>
    <i name="e_0_energy">   -191.37279389 </i>
   </energy>
  </scstep>
  <scstep>
   <time name="dav">   33.29   33.37</time>
   <time name="total">   33.80   33.88</time>
   <energy>
    <i name="e_fr_energy">   -191.47371844 </i>
    <i name="e_wo_entrp">   -191.27944027 </i>
    <i name="e_0_energy">   -191.37657935 </i>
   </energy>
  </scstep>
  <scstep>
   <time name="dav">   29.86   29.94</time>
   <time name="total">   30.37   30.45</time>
   <energy>
    <i name="e_fr_energy">   -191.46903031 </i>
    <i name="e_wo_entrp">   -191.27818299 </i>
    <i name="e_0_energy">   -191.37360665 </i>
   </energy>
  </scstep>
  <scstep>
   <time name="dav">   26.37   26.43</time>
   <time name="total">   26.88   26.95</time>
   <energy>
    <i name="e_fr_energy">   -191.46938445 </i>
    <i name="e_wo_entrp">   -191.27818636 </i>
    <i name="e_0_energy">   -191.37378540 </i>
   </energy>
  </scstep>
  <scstep>
   <time name="dav">   25.46   25.52</time>
   <time name="total">   25.96   26.03</time>
   <energy>
    <i name="e_fr_energy">   -191.46871090 </i>
    <i name="e_wo_entrp">   -191.27740708 </i>
    <i name="e_0_energy">   -191.37305899 </i>
   </energy>
  </scstep>
  <scstep>
   <time name="dav">   20.31   20.36</time>
   <time name="total">   20.35   20.40</time>
   <energy>
    <i name="alphaZ">     90.30295162 </i>
    <i name="ewald">  44704.47688177 </i>
    <i name="hartreedc"> -50716.32035831 </i>
    <i name="XCdc">   -233.38070177 </i>
    <i name="pawpsdc">   4084.43830365 </i>
    <i name="pawaedc">  -3500.36054711 </i>
    <i name="eentropy">     -0.19132425 </i>
    <i name="bandstr">  -1381.87643649 </i>
    <i name="atom">   6761.44252427 </i>
    <i name="e_fr_energy">   -191.46870661 </i>
    <i name="e_wo_entrp">   -191.27738236 </i>
    <i name="e_0_energy">   -191.37304448 </i>
   </energy>
  </scstep>
  <structure>
   <crystal>
    <varray name="basis" >
     <v>       8.26131936       4.76746389       0.00000000 </v>
     <v>      -8.27463630       4.79050469       0.00000000 </v>
     <v>       0.00000000       0.00000000      30.00000000 </v>
    </varray>
    <i name="volume">   2370.74756788 </i>
    <varray name="rec_basis" >
     <v>       0.06062018       0.10470920       0.00000000 </v>
     <v>      -0.06032861       0.10454069       0.00000000 </v>
     <v>       0.00000000       0.00000000       0.03333333 </v>
    </varray>
   </crystal>
   <varray name="positions" >
    <v>       0.66219986       0.65648205       0.00007061 </v>
    <v>      -0.00301139       0.66839967       0.00057096 </v>
[...]
      <set comment="kpoint 31">
       <r>  -17.5282    1.0000 </r>
       <r>  -17.2711    1.0000 </r>
       <r>  -16.9151    1.0000 </r>
       <r>  -16.6718    1.0000 </r>
       <r>  -16.5137    1.0000 </r>
       <r>  -16.4267    1.0000 </r>
       <r>  -16.2902    1.0000 </r>
       <r>  -16.1921    1.0000 </r>
       <r>  -16.1099    1.0000 </r>
       <r>  -15.9890    1.0000 </r>
       <r>  -15.9328    1.0000 </r>
       <r>  -15.8455    1.0000 </r>
       <r>  -15.8060    1.0000 </r>
       <r>  -15.6999    1.0000 </r>
       <r>  -15.5751    1.0000 </r>
       <r>  -15.5198    1.0000 </r>
       <r>  -15.3827    1.0000 </r>
       <r>  -15.3429    1.0000 </r>
       <r>   -9.7364    1.0000 </r>
       <r>   -9.4518    1.0000 </r>
       <r>   -9.3354    1.0000 </r>
       <r>   -9.0643    1.0000 </r>
       <r>   -8.8583    1.0000 </r>
       <r>   -8.6778    1.0000 </r>
       <r>   -8.4858    1.0000 </r>
       <r>   -8.4516    1.0000 </r>
       <r>   -8.4244    1.0000 </r>
       <r>   -8.3358    1.0000 </r>
       <r>   -8.2762    1.0000 </r>
       <r>   -8.2040    1.0000 </r>
       <r>   -8.1490    1.0000 </r>
       <r>   -8.0187    1.0000 </r>
       <r>   -7.9851    1.0000 </r>
       <r>   -7.9107    1.0000 </r>
       <r>   -7.7989    1.0000 </r>
       <r>   -7.6844    1.0000 </r>
       <r>   -7.6099    1.0000 </r>
       <r>   -7.3884    1.0000 </r>
       <r>   -7.3554    1.0000 </r>
       <r>   -7.2482    1.0000 </r>
       <r>   -7.1660    1.0000 </r>
       <r>   -7.0872    1.0000 </r>
       <r>   -7.0268    1.0000 </r>
       <r>   -6.9667    1.0000 </r>
       <r>   -6.8435    1.0000 </r>
       <r>   -6.7559    1.0000 </r>
       <r>   -6.6403    1.0000 </r>
       <r>   -6.5869    1.0000 </r>
       <r>   -6.5298    1.0000 </r>
       <r>   -6.4771    1.0000 </r>
       <r>   -6.4274    1.0000 </r>
       <r>   -6.3702    1.0000 </r>
       <r>   -6.3103    1.0000 </r>
       <r>   -6.2137    1.0000 </r>
       <r>   -6.1094    1.0000 </r>
       <r>   -6.0789    1.0000 </r>
       <r>   -5.9996    1.0000 </r>
       <r>   -5.9136    1.0000 </r>
       <r>   -5.8551    1.0000 </r>
       <r>   -5.7808    1.0000 </r>
       <r>   -5.7378    1.0000 </r>
       <r>   -5.6836    1.0000 </r>
       <r>   -5.5811    1.0000 </r>
       <r>   -5.4492    1.0000 </r>
       <r>   -5.2427    1.0000 </r>
       <r>   -5.1273    1.0000 </r>
       <r>   -4.9754    1.0000 </r>
       <r>   -4.8449    1.0000 </r>
       <r>   -4.7723    1.0000 </r>
       <r>   -4.6318    1.0000 </r>
       <r>   -4.5269    1.0000 </r>
       <r>   -4.4145    1.0000 </r>
       <r>   -4.3613    1.0000 </r>
       <r>   -4.2905    1.0000 </r>
       <r>   -4.1824    1.0000 </r>
       <r>   -4.1162    1.0000 </r>
       <r>   -3.8588    0.9998 </r>
       <r>   -3.7316    0.9963 </r>
       <r>   -3.5446    0.9121 </r>
       <r>   -3.3547    0.5043 </r>
       <r>   -3.1028    0.0384 </r>
       <r>   -2.7043    0.0000 </r>
       <r>   -2.5703    0.0000 </r>
       <r>   -2.4930    0.0000 </r>
       <r>   -2.3954    0.0000 </r>
       <r>   -2.3392    0.0000 </r>
       <r>   -2.1646    0.0000 </r>
       <r>   -2.0870    0.0000 </r>
       <r>   -1.9375    0.0000 </r>
       <r>   -1.8985    0.0000 </r>
       <r>   -1.6998    0.0000 </r>
       <r>   -1.5924    0.0000 </r>
       <r>   -1.4577    0.0000 </r>
       <r>   -1.4077    0.0000 </r>
       <r>   -1.3576    0.0000 </r>
       <r>   -1.1881    0.0000 </r>
       <r>   -1.1618    0.0000 </r>
       <r>   -1.0658    0.0000 </r>
       <r>   -1.0271    0.0000 </r>
       <r>   -0.9048    0.0000 </r>
       <r>   -0.8423    0.0000 </r>
       <r>   -0.7568    0.0000 </r>
       <r>   -0.6219    0.0000 </r>
       <r>   -0.5426    0.0000 </r>
       <r>   -0.4870    0.0000 </r>
       <r>   -0.2707    0.0000 </r>
       <r>   -0.2439    0.0000 </r>
       <r>   -0.0539    0.0000 </r>
       <r>    0.0663    0.0000 </r>
       <r>    0.2021    0.0000 </r>
       <r>    0.4149    0.0000 </r>
       <r>    0.4952    0.0000 </r>
       <r>    0.8542    0.0000 </r>
       <r>    0.9207    0.0000 </r>
       <r>    1.0065    0.0000 </r>
       <r>    1.2451    0.0000 </r>
       <r>    1.3878    0.0000 </r>
       <r>    2.1223    0.0000 </r>
       <r>    2.2951    0.0000 </r>
       <r>    2.3748    0.0000 </r>
      </set>
      <set comment="kpoint 32">
       <r>  -17.5506    1.0000 </r>
       <r>  -17.1447    1.0000 </r>
       <r>  -17.0691    1.0000 </r>
       <r>  -16.6711    1.0000 </r>
       <r>  -16.4337    1.0000 </r>
       <r>  -16.4029    1.0000 </r>
       <r>  -16.2915    1.0000 </r>
       <r>  -16.2372    1.0000 </r>
       <r>  -16.1370    1.0000 </r>
       <r>  -15.9863    1.0000 </r>
       <r>  -15.9173    1.0000 </r>
       <r>  -15.8480    1.0000 </r>
       <r>  -15.7829    1.0000 </r>
       <r>  -15.7054    1.0000 </r>
       <r>  -15.6028    1.0000 </r>
       <r>  -15.5296    1.0000 </r>
       <r>  -15.3862    1.0000 </r>
       <r>  -15.3147    1.0000 </r>
       <r>   -9.6535    1.0000 </r>
       <r>   -9.6147    1.0000 </r>
       <r>   -9.3633    1.0000 </r>
       <r>   -9.0177    1.0000 </r>
       <r>   -8.7545    1.0000 </r>
       <r>   -8.5718    1.0000 </r>
       <r>   -8.4998    1.0000 </r>
       <r>   -8.4537    1.0000 </r>
       <r>   -8.3960    1.0000 </r>
       <r>   -8.3216    1.0000 </r>
       <r>   -8.2855    1.0000 </r>
       <r>   -8.2325    1.0000 </r>
       <r>   -8.1832    1.0000 </r>
       <r>   -8.1098    1.0000 </r>
       <r>   -8.0419    1.0000 </r>
       <r>   -7.9436    1.0000 </r>
       <r>   -7.8039    1.0000 </r>
       <r>   -7.6910    1.0000 </r>
       <r>   -7.5474    1.0000 </r>
       <r>   -7.3939    1.0000 </r>
       <r>   -7.3486    1.0000 </r>
       <r>   -7.2972    1.0000 </r>
       <r>   -7.1393    1.0000 </r>
       <r>   -7.0622    1.0000 </r>
       <r>   -7.0133    1.0000 </r>
       <r>   -6.9319    1.0000 </r>
       <r>   -6.8790    1.0000 </r>
       <r>   -6.7579    1.0000 </r>
       <r>   -6.7106    1.0000 </r>
       <r>   -6.6421    1.0000 </r>
       <r>   -6.5236    1.0000 </r>
       <r>   -6.4394    1.0000 </r>
       <r>   -6.4075    1.0000 </r>
       <r>   -6.3466    1.0000 </r>
       <r>   -6.2993    1.0000 </r>
       <r>   -6.2087    1.0000 </r>
       <r>   -6.1537    1.0000 </r>
       <r>   -6.0903    1.0000 </r>
       <r>   -5.9797    1.0000 </r>
       <r>   -5.8835    1.0000 </r>
       <r>   -5.8431    1.0000 </r>
       <r>   -5.7495    1.0000 </r>
       <r>   -5.6941    1.0000 </r>
       <r>   -5.6073    1.0000 </r>
       <r>   -5.4894    1.0000 </r>
       <r>   -5.4030    1.0000 </r>
       <r>   -5.3101    1.0000 </r>
       <r>   -5.1696    1.0000 </r>
       <r>   -5.0697    1.0000 </r>
       <r>   -4.9685    1.0000 </r>
       <r>   -4.7770    1.0000 </r>
       <r>   -4.6676    1.0000 </r>
       <r>   -4.4608    1.0000 </r>
       <r>   -4.4276    1.0000 </r>
       <r>   -4.3907    1.0000 </r>
       <r>   -4.2945    1.0000 </r>
       <r>   -4.1792    1.0000 </r>
       <r>   -4.0591    1.0000 </r>
       <r>   -3.8505    0.9998 </r>
       <r>   -3.6586    0.9846 </r>
       <r>   -3.5218    0.8835 </r>
       <r>   -3.4070    0.6485 </r>
       <r>   -3.0201    0.0093 </r>
       <r>   -2.7368    0.0000 </r>
       <r>   -2.5835    0.0000 </r>
       <r>   -2.5170    0.0000 </r>
       <r>   -2.4154    0.0000 </r>
       <r>   -2.3700    0.0000 </r>
       <r>   -2.1915    0.0000 </r>
       <r>   -2.0878    0.0000 </r>
       <r>   -1.9657    0.0000 </r>
       <r>   -1.9081    0.0000 </r>
       <r>   -1.7415    0.0000 </r>
       <r>   -1.5495    0.0000 </r>
       <r>   -1.4368    0.0000 </r>
       <r>   -1.3776    0.0000 </r>
       <r>   -1.3439    0.0000 </r>
       <r>   -1.2029    0.0000 </r>
       <r>   -1.1426    0.0000 </r>
       <r>   -1.0904    0.0000 </r>
       <r>   -1.0146    0.0000 </r>
       <r>   -0.9046    0.0000 </r>
       <r>   -0.8795    0.0000 </r>
       <r>   -0.7793    0.0000 </r>
       <r>   -0.6326    0.0000 </r>
       <r>   -0.5298    0.0000 </r>
       <r>   -0.4219    0.0000 </r>
       <r>   -0.3031    0.0000 </r>
       <r>   -0.2049    0.0000 </r>
       <r>   -0.0697    0.0000 </r>
       <r>    0.0572    0.0000 </r>
       <r>    0.1487    0.0000 </r>
       <r>    0.4381    0.0000 </r>
       <r>    0.5226    0.0000 </r>
       <r>    0.8291    0.0000 </r>
       <r>    0.8698    0.0000 </r>
       <r>    1.0000    0.0000 </r>
       <r>    1.3194    0.0000 </r>
       <r>    1.4014    0.0000 </r>
       <r>    2.0960    0.0000 </r>
       <r>    2.2635    0.0000 </r>
       <r>    2.5612    0.0000 </r>
      </set>
      <set comment="kpoint 33">
       <r>  -17.5484    1.0000 </r>
       <r>  -17.2196    1.0000 </r>
       <r>  -16.9393    1.0000 </r>
       <r>  -16.6711    1.0000 </r>
       <r>  -16.5323    1.0000 </r>
       <r>  -16.4116    1.0000 </r>
       <r>  -16.3227    1.0000 </r>
       <r>  -16.2391    1.0000 </r>
       <r>  -16.0822    1.0000 </r>
       <r>  -15.9685    1.0000 </r>
       <r>  -15.8931    1.0000 </r>
       <r>  -15.8603    1.0000 </r>
       <r>  -15.7432    1.0000 </r>
       <r>  -15.7121    1.0000 </r>
       <r>  -15.6098    1.0000 </r>
       <r>  -15.5295    1.0000 </r>
       <r>  -15.4315    1.0000 </r>
       <r>  -15.2955    1.0000 </r>
       <r>   -9.7572    1.0000 </r>
       <r>   -9.5034    1.0000 </r>
       <r>   -9.2704    1.0000 </r>
       <r>   -9.0104    1.0000 </r>
       <r>   -8.8332    1.0000 </r>
       <r>   -8.7120    1.0000 </r>
       <r>   -8.5784    1.0000 </r>
       <r>   -8.4353    1.0000 </r>
       <r>   -8.3734    1.0000 </r>
       <r>   -8.3333    1.0000 </r>
       <r>   -8.2648    1.0000 </r>
       <r>   -8.2124    1.0000 </r>
       <r>   -8.1759    1.0000 </r>
       <r>   -8.1058    1.0000 </r>
       <r>   -7.9756    1.0000 </r>
       <r>   -7.8972    1.0000 </r>
       <r>   -7.7860    1.0000 </r>
       <r>   -7.7105    1.0000 </r>
       <r>   -7.5656    1.0000 </r>
       <r>   -7.3964    1.0000 </r>
       <r>   -7.3446    1.0000 </r>
       <r>   -7.2078    1.0000 </r>
       <r>   -7.1109    1.0000 </r>
       <r>   -7.0654    1.0000 </r>
       <r>   -6.9955    1.0000 </r>
       <r>   -6.9552    1.0000 </r>
       <r>   -6.8653    1.0000 </r>
       <r>   -6.8002    1.0000 </r>
       <r>   -6.7220    1.0000 </r>
       <r>   -6.6187    1.0000 </r>
       <r>   -6.5771    1.0000 </r>
       <r>   -6.4684    1.0000 </r>
       <r>   -6.4164    1.0000 </r>
       <r>   -6.3409    1.0000 </r>
       <r>   -6.2559    1.0000 </r>
       <r>   -6.2046    1.0000 </r>
       <r>   -6.1306    1.0000 </r>
       <r>   -6.0808    1.0000 </r>
       <r>   -5.9943    1.0000 </r>
       <r>   -5.9613    1.0000 </r>
       <r>   -5.8640    1.0000 </r>
       <r>   -5.8117    1.0000 </r>
       <r>   -5.7273    1.0000 </r>
       <r>   -5.6148    1.0000 </r>
       <r>   -5.4984    1.0000 </r>
       <r>   -5.3269    1.0000 </r>
       <r>   -5.2307    1.0000 </r>
       <r>   -5.1686    1.0000 </r>
       <r>   -5.0879    1.0000 </r>
       <r>   -4.9312    1.0000 </r>
       <r>   -4.7755    1.0000 </r>
       <r>   -4.6430    1.0000 </r>
       <r>   -4.5034    1.0000 </r>
       <r>   -4.4521    1.0000 </r>
       <r>   -4.3553    1.0000 </r>
       <r>   -4.3218    1.0000 </r>
       <r>   -4.1744    1.0000 </r>
       <r>   -4.0145    1.0000 </r>
       <r>   -3.8324    0.9996 </r>
       <r>   -3.6037    0.9618 </r>
       <r>   -3.5866    0.9506 </r>
       <r>   -3.4326    0.7129 </r>
       <r>   -2.9119    0.0009 </r>
       <r>   -2.7575    0.0000 </r>
       <r>   -2.6313    0.0000 </r>
       <r>   -2.5546    0.0000 </r>
       <r>   -2.4401    0.0000 </r>
       <r>   -2.3919    0.0000 </r>
       <r>   -2.2392    0.0000 </r>
       <r>   -2.0929    0.0000 </r>
       <r>   -2.0130    0.0000 </r>
       <r>   -1.8798    0.0000 </r>
       <r>   -1.7168    0.0000 </r>
       <r>   -1.4995    0.0000 </r>
       <r>   -1.4243    0.0000 </r>
       <r>   -1.3501    0.0000 </r>
       <r>   -1.3101    0.0000 </r>
       <r>   -1.2277    0.0000 </r>
       <r>   -1.1645    0.0000 </r>
       <r>   -1.1430    0.0000 </r>
       <r>   -0.9934    0.0000 </r>
       <r>   -0.9251    0.0000 </r>
       <r>   -0.8613    0.0000 </r>
       <r>   -0.7800    0.0000 </r>
       <r>   -0.6628    0.0000 </r>
       <r>   -0.5197    0.0000 </r>
       <r>   -0.3934    0.0000 </r>
       <r>   -0.3041    0.0000 </r>
       <r>   -0.2396    0.0000 </r>
       <r>   -0.0774    0.0000 </r>
       <r>    0.0080    0.0000 </r>
       <r>    0.1517    0.0000 </r>
       <r>    0.4861    0.0000 </r>
       <r>    0.5156    0.0000 </r>
       <r>    0.7338    0.0000 </r>
       <r>    0.9161    0.0000 </r>
       <r>    1.0051    0.0000 </r>
       <r>    1.3696    0.0000 </r>
       <r>    1.5025    0.0000 </r>
       <r>    2.1296    0.0000 </r>
       <r>    2.2925    0.0000 </r>
       <r>    2.3913    0.0000 </r>
      </set>
      <set comment="kpoint 34">
       <r>  -17.5404    1.0000 </r>
       <r>  -17.2689    1.0000 </r>
       <r>  -16.7534    1.0000 </r>
       <r>  -16.7188    1.0000 </r>
       <r>  -16.6692    1.0000 </r>
       <r>  -16.4174    1.0000 </r>
       <r>  -16.3108    1.0000 </r>
       <r>  -16.2482    1.0000 </r>
       <r>  -16.0605    1.0000 </r>
       <r>  -15.9568    1.0000 </r>
       <r>  -15.8747    1.0000 </r>
       <r>  -15.8606    1.0000 </r>
       <r>  -15.7460    1.0000 </r>
       <r>  -15.7070    1.0000 </r>
       <r>  -15.5782    1.0000 </r>
       <r>  -15.5222    1.0000 </r>
       <r>  -15.4871    1.0000 </r>
       <r>  -15.2895    1.0000 </r>
       <r>   -9.8009    1.0000 </r>
       <r>   -9.4149    1.0000 </r>
       <r>   -9.1596    1.0000 </r>
       <r>   -9.0532    1.0000 </r>
       <r>   -8.8926    1.0000 </r>
       <r>   -8.8638    1.0000 </r>
       <r>   -8.5922    1.0000 </r>
       <r>   -8.4738    1.0000 </r>
       <r>   -8.3861    1.0000 </r>
       <r>   -8.3056    1.0000 </r>
       <r>   -8.2499    1.0000 </r>
       <r>   -8.1976    1.0000 </r>
       <r>   -8.1370    1.0000 </r>
       <r>   -8.0473    1.0000 </r>
       <r>   -8.0086    1.0000 </r>
       <r>   -7.8318    1.0000 </r>
       <r>   -7.7959    1.0000 </r>
       <r>   -7.7378    1.0000 </r>
       <r>   -7.4613    1.0000 </r>
       <r>   -7.4270    1.0000 </r>
       <r>   -7.3652    1.0000 </r>
       <r>   -7.2748    1.0000 </r>
       <r>   -7.0762    1.0000 </r>
       <r>   -7.0558    1.0000 </r>
       <r>   -6.9615    1.0000 </r>
       <r>   -6.9142    1.0000 </r>
       <r>   -6.8813    1.0000 </r>
       <r>   -6.7432    1.0000 </r>
       <r>   -6.7006    1.0000 </r>
       <r>   -6.6737    1.0000 </r>
       <r>   -6.5420    1.0000 </r>
       <r>   -6.5071    1.0000 </r>
       <r>   -6.4346    1.0000 </r>
       <r>   -6.3430    1.0000 </r>
       <r>   -6.3360    1.0000 </r>
       <r>   -6.2332    1.0000 </r>
       <r>   -6.1246    1.0000 </r>
       <r>   -6.0402    1.0000 </r>
       <r>   -6.0129    1.0000 </r>
       <r>   -5.9642    1.0000 </r>
       <r>   -5.8939    1.0000 </r>
       <r>   -5.8172    1.0000 </r>
       <r>   -5.7870    1.0000 </r>
       <r>   -5.6226    1.0000 </r>
       <r>   -5.4481    1.0000 </r>
       <r>   -5.3705    1.0000 </r>
       <r>   -5.2629    1.0000 </r>
       <r>   -5.1039    1.0000 </r>
       <r>   -5.0333    1.0000 </r>
       <r>   -4.9009    1.0000 </r>
       <r>   -4.7321    1.0000 </r>
       <r>   -4.6461    1.0000 </r>
       <r>   -4.5139    1.0000 </r>
       <r>   -4.4422    1.0000 </r>
       <r>   -4.3875    1.0000 </r>
       <r>   -4.3146    1.0000 </r>
       <r>   -4.1877    1.0000 </r>
       <r>   -3.9902    1.0000 </r>
       <r>   -3.8330    0.9997 </r>
       <r>   -3.6499    0.9821 </r>
       <r>   -3.5581    0.9264 </r>
       <r>   -3.4408    0.7322 </r>
       <r>   -2.8514    0.0002 </r>
       <r>   -2.7587    0.0000 </r>
       <r>   -2.6889    0.0000 </r>
       <r>   -2.5555    0.0000 </r>
       <r>   -2.4518    0.0000 </r>
       <r>   -2.4050    0.0000 </r>
       <r>   -2.2659    0.0000 </r>
       <r>   -2.0867    0.0000 </r>
       <r>   -2.0360    0.0000 </r>
       <r>   -1.8706    0.0000 </r>
       <r>   -1.6826    0.0000 </r>
       <r>   -1.4672    0.0000 </r>
       <r>   -1.4382    0.0000 </r>
       <r>   -1.3266    0.0000 </r>
       <r>   -1.2855    0.0000 </r>
       <r>   -1.2348    0.0000 </r>
       <r>   -1.2038    0.0000 </r>
       <r>   -1.1725    0.0000 </r>
       <r>   -0.9894    0.0000 </r>
       <r>   -0.9181    0.0000 </r>
       <r>   -0.8583    0.0000 </r>
       <r>   -0.7539    0.0000 </r>
       <r>   -0.6910    0.0000 </r>
       <r>   -0.4837    0.0000 </r>
       <r>   -0.4724    0.0000 </r>
       <r>   -0.3049    0.0000 </r>
       <r>   -0.1745    0.0000 </r>
       <r>   -0.1313    0.0000 </r>
       <r>   -0.0175    0.0000 </r>
       <r>    0.1864    0.0000 </r>
       <r>    0.4447    0.0000 </r>
       <r>    0.5531    0.0000 </r>
       <r>    0.6866    0.0000 </r>
       <r>    0.9744    0.0000 </r>
       <r>    0.9889    0.0000 </r>
       <r>    1.3951    0.0000 </r>
       <r>    1.5563    0.0000 </r>
       <r>    2.2040    0.0000 </r>
       <r>    2.2541    0.0000 </r>
       <r>    2.3789    0.0000 </r>
      </set>
     </set>
    </set>
   </array>
  </eigenvalues>
  <separator name="orbital magnetization" >
   <v name="MAGDIPOLOUT">      0.00000000      0.00000000      0.00000000</v>
  </separator>
 </calculation>
 <structure name="finalpos" >
  <crystal>
   <varray name="basis" >
    <v>       8.32800404       4.83577233       0.00000000 </v>
    <v>      -8.33310714       4.84498921       0.00000000 </v>
    <v>       0.00000000       0.00000000      30.00000000 </v>
   </varray>
   <i name="volume">   2419.38296009 </i>
   <varray name="rec_basis" >
    <v>       0.06007717       0.10332933       0.00000000 </v>
    <v>      -0.05996288       0.10326605       0.00000000 </v>
    <v>       0.00000000       0.00000000       0.03333333 </v>
   </varray>
  </crystal>
  <varray name="positions" >
   <v>       0.64582971       0.62731579      -0.00172678 </v>
   <v>       0.01240098       0.70420541       0.00266237 </v>
   <v>       0.32510779       0.02147637       0.00023825 </v>
   <v>       0.32972381       0.32946738      -0.00026961 </v>
   <v>       0.63556909       0.31605872      -0.00068069 </v>
   <v>       0.01550639       0.02534974       0.00067770 </v>
   <v>       1.01345380       0.31697835       0.00005304 </v>
   <v>       0.31899510       0.62776619      -0.00168001 </v>
   <v>       0.69845540       0.03615283       0.00185738 </v>
   <v>       0.11592699       0.22354124       0.94310806 </v>
   <v>       0.22420334       0.10984257       0.05510893 </v>
   <v>       0.10497545       0.55540942       0.95050788 </v>
   <v>       0.22067330       0.43725763       0.05582477 </v>
   <v>       0.11606386       0.89550002       0.94862546 </v>
   <v>       0.22685281       0.78204735       0.04666399 </v>
   <v>       0.43600235       0.21304980       0.94467620 </v>
   <v>       0.54659830       0.10497376       0.05230652 </v>
   <v>       0.44806159       0.54981339       0.94519068 </v>
   <v>       0.55287395       0.44140364       0.05338940 </v>
   <v>       0.44482505       0.88855208       0.95896436 </v>
   <v>       0.55907002       0.77540773       0.04435198 </v>
   <v>       0.78532711       0.23136077       0.94728211 </v>
   <v>       0.89548470       0.11692630       0.05763422 </v>
   <v>       0.78111028       0.55762539       0.95108383 </v>
   <v>       0.89271022       0.45172626       0.04076361 </v>
   <v>       0.77313133       0.88141519       0.95519821 </v>
   <v>       0.87928174       0.77759112       0.04818803 </v>
  </varray>
 </structure>
</modeling>
