   27   27  100    1
  0.9710400E+02  0.1002848E-08  0.1002848E-08  0.3000000E-08  0.5000000E-15
  1.000000000000000E-004
  CAR 
 unknown system                          
    159     34    120
 
  0.0000000E+00  0.0000000E+00  0.0000000E+00  0.1562500E-01
    1      -17.814968   1.000000
    2      -16.677514   1.000000
    3      -16.614741   1.000000
    4      -16.553742   1.000000
    5      -16.523384   1.000000
    6      -16.462415   1.000000
    7      -16.419286   1.000000
    8      -16.274374   1.000000
    9      -16.156589   1.000000
   10      -16.135273   1.000000
   11      -16.065028   1.000000
   12      -15.963443   1.000000
   13      -15.858408   1.000000
   14      -15.734002   1.000000
   15      -15.612727   1.000000
   16      -15.501018   1.000000
   17      -15.423601   1.000000
   18      -15.282187   1.000000
   19       -9.342385   1.000000
   20       -8.980771   1.000000
   21       -8.908553   1.000000
   22       -8.790247   1.000000
   23       -8.776001   1.000000
   24       -8.649597   1.000000
   25       -8.620326   1.000000
   26       -8.578832   1.000000
   27       -8.455815   1.000000
   28       -8.413722   1.000000
   29       -8.388087   1.000000
   30       -8.344399   1.000000
   31       -8.219357   1.000000
   32       -8.190450   1.000000
   33       -8.151805   1.000000
   34       -8.028540   1.000000
   35       -7.835961   1.000000
   36       -7.822847   1.000000
   37       -7.714225   1.000000
   38       -7.589046   1.000000
   39       -7.476011   1.000000
   40       -7.459540   1.000000
   41       -7.403033   1.000000
   42       -7.237639   1.000000
   43       -7.087838   1.000000
   44       -6.910592   1.000000
   45       -6.874187   1.000000
   46       -6.815807   1.000000
   47       -6.710382   1.000000
   48       -6.655231   1.000000
   49       -6.614101   1.000000
   50       -6.514253   1.000000
   51       -6.486698   1.000000
   52       -6.448136   1.000000
   53       -6.290525   1.000000
   54       -6.224351   1.000000
   55       -6.197969   1.000000
   56       -6.030946   1.000000
   57       -5.991630   1.000000
   58       -5.859712   1.000000
   59       -5.803950   1.000000
   60       -5.580398   1.000000
   61       -5.404404   1.000000
   62       -5.332911   1.000000
   63       -5.297764   1.000000
   64       -5.256886   1.000000
   65       -5.097398   1.000000
   66       -4.932367   1.000000
   67       -4.878228   1.000000
   68       -4.855746   1.000000
   69       -4.786880   1.000000
   70       -4.615613   1.000000
   71       -4.548948   1.000000
   72       -4.490827   1.000000
   73       -4.408189   1.000000
   74       -4.361616   1.000000
   75       -4.246403   1.000000
   76       -3.934036   0.999993
   77       -3.657992   0.991664
   78       -3.631510   0.986329
   79       -3.560483   0.955843
   80       -3.414196   0.748555
   81       -3.271576   0.367483
   82       -2.727750   0.000014
   83       -2.634010   0.000001
   84       -2.585731   0.000000
   85       -2.467412   0.000000
   86       -2.385021   0.000000
   87       -2.306320   0.000000
   88       -2.226979   0.000000
   89       -2.195557   0.000000
   90       -1.962739   0.000000
   91       -1.797969   0.000000
   92       -1.653099   0.000000
   93       -1.529875   0.000000
   94       -1.390009   0.000000
   95       -1.322672   0.000000
   96       -1.213794   0.000000
   97       -1.100588   0.000000
   98       -0.901826   0.000000
   99       -0.703818   0.000000
  100       -0.621230   0.000000
  101       -0.571198   0.000000
  102       -0.530135   0.000000
  103       -0.411170   0.000000
  104       -0.327731   0.000000
  105       -0.296373   0.000000
  106        0.008336   0.000000
  107        0.096990   0.000000
  108        0.103680   0.000000
  109        0.253663   0.000000
  110        0.340895   0.000000
  111        0.421143   0.000000
  112        0.461367   0.000000
  113        0.669185   0.000000
  114        0.755471   0.000000
  115        0.849895   0.000000
  116        1.045425   0.000000
  117        1.204767   0.000000
  118        1.650798   0.000000
  119        1.835023   0.000000
  120        2.158823   0.000000
 
  0.1250000E+00  0.2775558E-16  0.0000000E+00  0.3125000E-01
    1      -17.790416   1.000000
    2      -16.771817   1.000000
    3      -16.645564   1.000000
    4      -16.617775   1.000000
    5      -16.524382   1.000000
    6      -16.402803   1.000000
    7      -16.357632   1.000000
    8      -16.291795   1.000000
    9      -16.173800   1.000000
   10      -16.095920   1.000000
   11      -16.023919   1.000000
   12      -15.945088   1.000000
   13      -15.843715   1.000000
   14      -15.727474   1.000000
   15      -15.626915   1.000000
   16      -15.501304   1.000000
   17      -15.430402   1.000000
   18      -15.290531   1.000000
   19       -9.357037   1.000000
   20       -9.102327   1.000000
   21       -8.988657   1.000000
   22       -8.917665   1.000000
   23       -8.800479   1.000000
   24       -8.653841   1.000000
   25       -8.622453   1.000000
   26       -8.561929   1.000000
   27       -8.496383   1.000000
   28       -8.461494   1.000000
   29       -8.328166   1.000000
   30       -8.249403   1.000000
   31       -8.193756   1.000000
   32       -8.107414   1.000000
   33       -8.037467   1.000000
   34       -7.904191   1.000000
   35       -7.799645   1.000000
   36       -7.750111   1.000000
   37       -7.688299   1.000000
   38       -7.613441   1.000000
   39       -7.516863   1.000000
   40       -7.459177   1.000000
   41       -7.351177   1.000000
   42       -7.207639   1.000000
   43       -7.084811   1.000000
   44       -7.012313   1.000000
   45       -6.908437   1.000000
   46       -6.837932   1.000000
   47       -6.706633   1.000000
   48       -6.656962   1.000000
   49       -6.582210   1.000000
   50       -6.507090   1.000000
   51       -6.453527   1.000000
   52       -6.405256   1.000000
   53       -6.353031   1.000000
   54       -6.251625   1.000000
   55       -6.202064   1.000000
   56       -6.053364   1.000000
   57       -5.979181   1.000000
   58       -5.866390   1.000000
   59       -5.720052   1.000000
   60       -5.577169   1.000000
   61       -5.430667   1.000000
   62       -5.374190   1.000000
   63       -5.300373   1.000000
   64       -5.265009   1.000000
   65       -5.186313   1.000000
   66       -5.063296   1.000000
   67       -4.933169   1.000000
   68       -4.852186   1.000000
   69       -4.763886   1.000000
   70       -4.675219   1.000000
   71       -4.553139   1.000000
   72       -4.393108   1.000000
   73       -4.305297   1.000000
   74       -4.231077   1.000000
   75       -4.177255   1.000000
   76       -3.946474   0.999995
   77       -3.795396   0.999618
   78       -3.740662   0.998551
   79       -3.606255   0.978721
   80       -3.319006   0.498745
   81       -3.211516   0.222668
   82       -2.747345   0.000026
   83       -2.631132   0.000001
   84       -2.567512   0.000000
   85       -2.437127   0.000000
   86       -2.382585   0.000000
   87       -2.292562   0.000000
   88       -2.203276   0.000000
   89       -2.185892   0.000000
   90       -1.972341   0.000000
   91       -1.787631   0.000000
   92       -1.655418   0.000000
   93       -1.533589   0.000000
   94       -1.390492   0.000000
   95       -1.302823   0.000000
   96       -1.206307   0.000000
   97       -1.094062   0.000000
   98       -0.896240   0.000000
   99       -0.743448   0.000000
  100       -0.694551   0.000000
  101       -0.612829   0.000000
  102       -0.594029   0.000000
  103       -0.485796   0.000000
  104       -0.380661   0.000000
  105       -0.263273   0.000000
  106       -0.125520   0.000000
  107        0.043439   0.000000
  108        0.100090   0.000000
  109        0.228269   0.000000
  110        0.331863   0.000000
  111        0.495536   0.000000
  112        0.535627   0.000000
  113        0.653103   0.000000
  114        0.790316   0.000000
  115        0.917763   0.000000
  116        1.067604   0.000000
  117        1.188046   0.000000
  118        1.693712   0.000000
  119        1.875304   0.000000
  120        2.193496   0.000000
 
  0.2500000E+00  0.5551115E-16  0.0000000E+00  0.3125000E-01
    1      -17.718416   1.000000
    2      -16.983717   1.000000
    3      -16.691749   1.000000
    4      -16.612568   1.000000
    5      -16.573781   1.000000
    6      -16.370834   1.000000
    7      -16.333735   1.000000
    8      -16.237697   1.000000
    9      -16.151333   1.000000
   10      -16.055480   1.000000
   11      -15.997083   1.000000
   12      -15.874302   1.000000
   13      -15.804421   1.000000
   14      -15.718545   1.000000
   15      -15.648622   1.000000
   16      -15.504176   1.000000
   17      -15.444177   1.000000
   18      -15.312727   1.000000
   19       -9.513771   1.000000
   20       -9.208158   1.000000
   21       -9.092038   1.000000
   22       -9.050120   1.000000
   23       -8.885553   1.000000
   24       -8.782522   1.000000
   25       -8.587079   1.000000
   26       -8.497172   1.000000
   27       -8.462394   1.000000
   28       -8.424775   1.000000
   29       -8.267193   1.000000
   30       -8.197965   1.000000
   31       -8.167512   1.000000
   32       -8.074582   1.000000
   33       -7.894795   1.000000
   34       -7.808257   1.000000
   35       -7.709520   1.000000
   36       -7.666457   1.000000
   37       -7.620010   1.000000
   38       -7.533755   1.000000
   39       -7.458646   1.000000
   40       -7.397687   1.000000
   41       -7.288431   1.000000
   42       -7.137840   1.000000
   43       -7.103609   1.000000
   44       -7.037709   1.000000
   45       -6.952775   1.000000
   46       -6.878547   1.000000
   47       -6.730704   1.000000
   48       -6.660887   1.000000
   49       -6.556389   1.000000
   50       -6.513373   1.000000
   51       -6.490722   1.000000
   52       -6.381560   1.000000
   53       -6.305147   1.000000
   54       -6.237628   1.000000
   55       -6.194249   1.000000
   56       -6.059512   1.000000
   57       -5.947171   1.000000
   58       -5.867727   1.000000
   59       -5.683228   1.000000
   60       -5.649165   1.000000
   61       -5.610846   1.000000
   62       -5.493875   1.000000
   63       -5.461095   1.000000
   64       -5.311302   1.000000
   65       -5.254605   1.000000
   66       -5.159661   1.000000
   67       -4.926752   1.000000
   68       -4.822207   1.000000
   69       -4.713115   1.000000
   70       -4.610085   1.000000
   71       -4.501233   1.000000
   72       -4.348697   1.000000
   73       -4.269296   1.000000
   74       -4.185256   1.000000
   75       -4.057676   1.000000
   76       -3.976915   0.999998
   77       -3.930109   0.999992
   78       -3.831647   0.999854
   79       -3.604246   0.977985
   80       -3.252302   0.317461
   81       -3.127200   0.087007
   82       -2.773214   0.000056
   83       -2.626481   0.000000
   84       -2.546171   0.000000
   85       -2.409024   0.000000
   86       -2.344131   0.000000
   87       -2.249124   0.000000
   88       -2.176897   0.000000
   89       -2.111574   0.000000
   90       -1.986541   0.000000
   91       -1.767747   0.000000
   92       -1.660887   0.000000
   93       -1.536176   0.000000
   94       -1.374811   0.000000
   95       -1.283720   0.000000
   96       -1.207464   0.000000
   97       -1.084100   0.000000
   98       -0.934554   0.000000
   99       -0.884617   0.000000
  100       -0.796746   0.000000
  101       -0.734673   0.000000
  102       -0.661276   0.000000
  103       -0.591169   0.000000
  104       -0.477609   0.000000
  105       -0.312416   0.000000
  106       -0.286966   0.000000
  107       -0.064778   0.000000
  108        0.063721   0.000000
  109        0.155447   0.000000
  110        0.352811   0.000000
  111        0.456535   0.000000
  112        0.589072   0.000000
  113        0.775074   0.000000
  114        0.868437   0.000000
  115        1.015454   0.000000
  116        1.108247   0.000000
  117        1.239306   0.000000
  118        1.813764   0.000000
  119        1.989325   0.000000
  120        2.296393   0.000000
 
  0.3750000E+00  0.0000000E+00  0.0000000E+00  0.3125000E-01
    1      -17.606886   1.000000
    2      -17.193362   1.000000
    3      -16.725121   1.000000
    4      -16.630053   1.000000
    5      -16.573651   1.000000
    6      -16.414769   1.000000
    7      -16.296853   1.000000
    8      -16.203066   1.000000
    9      -16.098060   1.000000
   10      -16.011509   1.000000
   11      -15.960763   1.000000
   12      -15.865877   1.000000
   13      -15.782381   1.000000
   14      -15.702870   1.000000
   15      -15.641938   1.000000
   16      -15.513867   1.000000
   17      -15.445492   1.000000
   18      -15.338311   1.000000
   19       -9.703855   1.000000
   20       -9.284812   1.000000
   21       -9.165482   1.000000
   22       -9.047138   1.000000
   23       -8.948430   1.000000
   24       -8.872250   1.000000
   25       -8.538203   1.000000
   26       -8.442891   1.000000
   27       -8.412352   1.000000
   28       -8.362364   1.000000
   29       -8.273279   1.000000
   30       -8.228930   1.000000
   31       -8.124316   1.000000
   32       -8.052191   1.000000
   33       -7.933211   1.000000
   34       -7.779807   1.000000
   35       -7.748754   1.000000
   36       -7.643066   1.000000
   37       -7.596179   1.000000
   38       -7.408041   1.000000
   39       -7.326949   1.000000
   40       -7.275264   1.000000
   41       -7.245860   1.000000
   42       -7.098729   1.000000
   43       -7.055816   1.000000
   44       -7.003742   1.000000
   45       -6.877555   1.000000
   46       -6.766042   1.000000
   47       -6.703400   1.000000
   48       -6.688738   1.000000
   49       -6.576612   1.000000
   50       -6.508231   1.000000
   51       -6.455149   1.000000
   52       -6.365301   1.000000
   53       -6.283318   1.000000
   54       -6.199211   1.000000
   55       -6.157052   1.000000
   56       -6.043741   1.000000
   57       -5.986460   1.000000
   58       -5.897675   1.000000
   59       -5.838100   1.000000
   60       -5.793235   1.000000
   61       -5.732354   1.000000
   62       -5.689330   1.000000
   63       -5.580821   1.000000
   64       -5.393175   1.000000
   65       -5.228203   1.000000
   66       -5.091564   1.000000
   67       -4.854593   1.000000
   68       -4.800510   1.000000
   69       -4.747275   1.000000
   70       -4.589322   1.000000
   71       -4.558362   1.000000
   72       -4.409694   1.000000
   73       -4.283140   1.000000
   74       -4.190488   1.000000
   75       -4.107681   1.000000
   76       -3.914879   0.999987
   77       -3.850466   0.999913
   78       -3.740558   0.998548
   79       -3.602989   0.977514
   80       -3.232080   0.268351
   81       -3.069617   0.038648
   82       -2.790779   0.000093
   83       -2.615247   0.000000
   84       -2.530285   0.000000
   85       -2.438111   0.000000
   86       -2.270528   0.000000
   87       -2.213360   0.000000
   88       -2.115024   0.000000
   89       -2.037977   0.000000
   90       -1.972029   0.000000
   91       -1.749000   0.000000
   92       -1.665374   0.000000
   93       -1.531431   0.000000
   94       -1.376612   0.000000
   95       -1.287882   0.000000
   96       -1.235407   0.000000
   97       -1.123022   0.000000
   98       -1.056982   0.000000
   99       -0.942208   0.000000
  100       -0.881914   0.000000
  101       -0.827247   0.000000
  102       -0.765376   0.000000
  103       -0.591962   0.000000
  104       -0.549214   0.000000
  105       -0.437566   0.000000
  106       -0.343059   0.000000
  107       -0.172293   0.000000
  108        0.011908   0.000000
  109        0.098150   0.000000
  110        0.306704   0.000000
  111        0.421920   0.000000
  112        0.646684   0.000000
  113        0.829523   0.000000
  114        0.936998   0.000000
  115        1.075540   0.000000
  116        1.171449   0.000000
  117        1.348856   0.000000
  118        1.993974   0.000000
  119        2.162776   0.000000
  120        2.461555   0.000000
 
  0.5000000E+00  0.1110223E-15  0.0000000E+00  0.1562500E-01
    1      -17.515026   1.000000
    2      -17.319582   1.000000
    3      -16.737103   1.000000
    4      -16.642646   1.000000
    5      -16.561722   1.000000
    6      -16.436125   1.000000
    7      -16.285305   1.000000
    8      -16.198729   1.000000
    9      -16.070956   1.000000
   10      -15.981104   1.000000
   11      -15.923651   1.000000
   12      -15.900452   1.000000
   13      -15.787090   1.000000
   14      -15.692267   1.000000
   15      -15.629656   1.000000
   16      -15.521640   1.000000
   17      -15.440089   1.000000
   18      -15.349682   1.000000
   19       -9.776381   1.000000
   20       -9.319664   1.000000
   21       -9.198961   1.000000
   22       -9.034555   1.000000
   23       -8.952645   1.000000
   24       -8.892047   1.000000
   25       -8.521268   1.000000
   26       -8.478423   1.000000
   27       -8.383623   1.000000
   28       -8.337765   1.000000
   29       -8.241891   1.000000
   30       -8.186198   1.000000
   31       -8.123174   1.000000
   32       -8.077359   1.000000
   33       -7.944093   1.000000
   34       -7.815035   1.000000
   35       -7.778914   1.000000
   36       -7.653136   1.000000
   37       -7.612639   1.000000
   38       -7.379039   1.000000
   39       -7.291203   1.000000
   40       -7.244408   1.000000
   41       -7.151064   1.000000
   42       -7.077467   1.000000
   43       -7.054316   1.000000
   44       -6.899016   1.000000
   45       -6.820701   1.000000
   46       -6.772186   1.000000
   47       -6.673470   1.000000
   48       -6.627675   1.000000
   49       -6.539239   1.000000
   50       -6.478110   1.000000
   51       -6.458844   1.000000
   52       -6.387594   1.000000
   53       -6.302639   1.000000
   54       -6.235202   1.000000
   55       -6.185275   1.000000
   56       -6.138549   1.000000
   57       -5.936098   1.000000
   58       -5.891448   1.000000
   59       -5.866371   1.000000
   60       -5.852327   1.000000
   61       -5.750041   1.000000
   62       -5.700907   1.000000
   63       -5.618227   1.000000
   64       -5.466666   1.000000
   65       -5.182148   1.000000
   66       -5.153422   1.000000
   67       -4.973385   1.000000
   68       -4.807103   1.000000
   69       -4.705683   1.000000
   70       -4.591056   1.000000
   71       -4.523776   1.000000
   72       -4.393928   1.000000
   73       -4.284861   1.000000
   74       -4.248431   1.000000
   75       -4.106086   1.000000
   76       -3.871069   0.999952
   77       -3.820702   0.999803
   78       -3.680312   0.994640
   79       -3.609326   0.979804
   80       -3.229612   0.262630
   81       -3.047501   0.027242
   82       -2.797713   0.000112
   83       -2.609387   0.000000
   84       -2.521160   0.000000
   85       -2.455320   0.000000
   86       -2.240748   0.000000
   87       -2.204331   0.000000
   88       -2.062087   0.000000
   89       -2.033895   0.000000
   90       -1.942157   0.000000
   91       -1.743524   0.000000
   92       -1.662278   0.000000
   93       -1.522639   0.000000
   94       -1.412105   0.000000
   95       -1.286909   0.000000
   96       -1.255711   0.000000
   97       -1.162309   0.000000
   98       -1.088201   0.000000
   99       -0.960322   0.000000
  100       -0.924125   0.000000
  101       -0.884342   0.000000
  102       -0.767783   0.000000
  103       -0.610205   0.000000
  104       -0.549700   0.000000
  105       -0.486790   0.000000
  106       -0.366698   0.000000
  107       -0.219286   0.000000
  108       -0.008616   0.000000
  109        0.078757   0.000000
  110        0.262386   0.000000
  111        0.429817   0.000000
  112        0.666142   0.000000
  113        0.833005   0.000000
  114        0.964835   0.000000
  115        1.097557   0.000000
  116        1.206155   0.000000
  117        1.393946   0.000000
  118        2.206565   0.000000
  119        2.237493   0.000000
  120        2.366935   0.000000
 
  0.0000000E+00  0.1250000E+00  0.0000000E+00  0.3125000E-01
    1      -17.789833   1.000000
    2      -16.753863   1.000000
    3      -16.663568   1.000000
    4      -16.627397   1.000000
    5      -16.499156   1.000000
    6      -16.430428   1.000000
    7      -16.378567   1.000000
    8      -16.250317   1.000000
    9      -16.181849   1.000000
   10      -16.116277   1.000000
   11      -16.006186   1.000000
   12      -15.955256   1.000000
   13      -15.836023   1.000000
   14      -15.723150   1.000000
   15      -15.613963   1.000000
   16      -15.511908   1.000000
   17      -15.435586   1.000000
   18      -15.286799   1.000000
   19       -9.334062   1.000000
   20       -9.146068   1.000000
   21       -9.015183   1.000000
   22       -8.886026   1.000000
   23       -8.783711   1.000000
   24       -8.695897   1.000000
   25       -8.646131   1.000000
   26       -8.539820   1.000000
   27       -8.476217   1.000000
   28       -8.392202   1.000000
   29       -8.334135   1.000000
   30       -8.292362   1.000000
   31       -8.167204   1.000000
   32       -8.152312   1.000000
   33       -8.057505   1.000000
   34       -7.892090   1.000000
   35       -7.800187   1.000000
   36       -7.756967   1.000000
   37       -7.707481   1.000000
   38       -7.583040   1.000000
   39       -7.489750   1.000000
   40       -7.410613   1.000000
   41       -7.345819   1.000000
   42       -7.258637   1.000000
   43       -7.098250   1.000000
   44       -6.999886   1.000000
   45       -6.857734   1.000000
   46       -6.849679   1.000000
   47       -6.727900   1.000000
   48       -6.690722   1.000000
   49       -6.613407   1.000000
   50       -6.578725   1.000000
   51       -6.430725   1.000000
   52       -6.382702   1.000000
   53       -6.318677   1.000000
   54       -6.215293   1.000000
   55       -6.173149   1.000000
   56       -6.061504   1.000000
   57       -5.989135   1.000000
   58       -5.831672   1.000000
   59       -5.748441   1.000000
   60       -5.551602   1.000000
   61       -5.431394   1.000000
   62       -5.380038   1.000000
   63       -5.317746   1.000000
   64       -5.273730   1.000000
   65       -5.138822   1.000000
   66       -5.052097   1.000000
   67       -4.937417   1.000000
   68       -4.885336   1.000000
   69       -4.799963   1.000000
   70       -4.717527   1.000000
   71       -4.530617   1.000000
   72       -4.454970   1.000000
   73       -4.267010   1.000000
   74       -4.212403   1.000000
   75       -4.159584   1.000000
   76       -3.920516   0.999989
   77       -3.803246   0.999688
   78       -3.709916   0.997119
   79       -3.549187   0.947863
   80       -3.419542   0.760452
   81       -3.180927   0.163664
   82       -2.772488   0.000055
   83       -2.616167   0.000000
   84       -2.593945   0.000000
   85       -2.465305   0.000000
   86       -2.384282   0.000000
   87       -2.292569   0.000000
   88       -2.212826   0.000000
   89       -2.181180   0.000000
   90       -1.989663   0.000000
   91       -1.778115   0.000000
   92       -1.651770   0.000000
   93       -1.498081   0.000000
   94       -1.398926   0.000000
   95       -1.285496   0.000000
   96       -1.203529   0.000000
   97       -1.092056   0.000000
   98       -0.904713   0.000000
   99       -0.721386   0.000000
  100       -0.686424   0.000000
  101       -0.646992   0.000000
  102       -0.566099   0.000000
  103       -0.526529   0.000000
  104       -0.352601   0.000000
  105       -0.243890   0.000000
  106       -0.066745   0.000000
  107       -0.000835   0.000000
  108        0.122850   0.000000
  109        0.202203   0.000000
  110        0.305598   0.000000
  111        0.391117   0.000000
  112        0.559941   0.000000
  113        0.627909   0.000000
  114        0.756102   0.000000
  115        0.952030   0.000000
  116        1.127045   0.000000
  117        1.233165   0.000000
  118        1.695879   0.000000
  119        1.872408   0.000000
  120        2.194250   0.000000
 
  0.1250000E+00  0.1250000E+00  0.0000000E+00  0.3125000E-01
    1      -17.741186   1.000000
    2      -16.894957   1.000000
    3      -16.764678   1.000000
    4      -16.618902   1.000000
    5      -16.466331   1.000000
    6      -16.406591   1.000000
    7      -16.334439   1.000000
    8      -16.265052   1.000000
    9      -16.160696   1.000000
   10      -16.057930   1.000000
   11      -16.003793   1.000000
   12      -15.916304   1.000000
   13      -15.804853   1.000000
   14      -15.713084   1.000000
   15      -15.633157   1.000000
   16      -15.512717   1.000000
   17      -15.449311   1.000000
   18      -15.296420   1.000000
   19       -9.412004   1.000000
   20       -9.256565   1.000000
   21       -9.139042   1.000000
   22       -9.018323   1.000000
   23       -8.780398   1.000000
   24       -8.731507   1.000000
   25       -8.610562   1.000000
   26       -8.505529   1.000000
   27       -8.483409   1.000000
   28       -8.375631   1.000000
   29       -8.299897   1.000000
   30       -8.253291   1.000000
   31       -8.140448   1.000000
   32       -8.087659   1.000000
   33       -8.002345   1.000000
   34       -7.813514   1.000000
   35       -7.759534   1.000000
   36       -7.716903   1.000000
   37       -7.606843   1.000000
   38       -7.525769   1.000000
   39       -7.414168   1.000000
   40       -7.351206   1.000000
   41       -7.277387   1.000000
   42       -7.254726   1.000000
   43       -7.124914   1.000000
   44       -7.025694   1.000000
   45       -6.945239   1.000000
   46       -6.855429   1.000000
   47       -6.783719   1.000000
   48       -6.650689   1.000000
   49       -6.610198   1.000000
   50       -6.552309   1.000000
   51       -6.451041   1.000000
   52       -6.364406   1.000000
   53       -6.301310   1.000000
   54       -6.236416   1.000000
   55       -6.155130   1.000000
   56       -6.041405   1.000000
   57       -6.004674   1.000000
   58       -5.845528   1.000000
   59       -5.682080   1.000000
   60       -5.612576   1.000000
   61       -5.553026   1.000000
   62       -5.459348   1.000000
   63       -5.360528   1.000000
   64       -5.277989   1.000000
   65       -5.213356   1.000000
   66       -5.112282   1.000000
   67       -5.047303   1.000000
   68       -4.884375   1.000000
   69       -4.799779   1.000000
   70       -4.650530   1.000000
   71       -4.472005   1.000000
   72       -4.340344   1.000000
   73       -4.214098   1.000000
   74       -4.172252   1.000000
   75       -4.071492   1.000000
   76       -4.003155   0.999999
   77       -3.880256   0.999963
   78       -3.798017   0.999643
   79       -3.571510   0.962652
   80       -3.288124   0.412347
   81       -3.168340   0.142644
   82       -2.808418   0.000151
   83       -2.617077   0.000000
   84       -2.540983   0.000000
   85       -2.454125   0.000000
   86       -2.366792   0.000000
   87       -2.254410   0.000000
   88       -2.179578   0.000000
   89       -2.164828   0.000000
   90       -1.992642   0.000000
   91       -1.784333   0.000000
   92       -1.647029   0.000000
   93       -1.497206   0.000000
   94       -1.373838   0.000000
   95       -1.276090   0.000000
   96       -1.219310   0.000000
   97       -1.079530   0.000000
   98       -0.918703   0.000000
   99       -0.832622   0.000000
  100       -0.780493   0.000000
  101       -0.738753   0.000000
  102       -0.619734   0.000000
  103       -0.594864   0.000000
  104       -0.402142   0.000000
  105       -0.305231   0.000000
  106       -0.186164   0.000000
  107       -0.046908   0.000000
  108        0.064797   0.000000
  109        0.204675   0.000000
  110        0.257970   0.000000
  111        0.441772   0.000000
  112        0.575310   0.000000
  113        0.662948   0.000000
  114        0.809270   0.000000
  115        1.039990   0.000000
  116        1.188540   0.000000
  117        1.263373   0.000000
  118        1.778511   0.000000
  119        1.949329   0.000000
  120        2.263311   0.000000
 
  0.2500000E+00  0.1250000E+00  0.0000000E+00  0.3125000E-01
    1      -17.648172   1.000000
    2      -17.088180   1.000000
    3      -16.852605   1.000000
    4      -16.592501   1.000000
    5      -16.486621   1.000000
    6      -16.357729   1.000000
    7      -16.333620   1.000000
    8      -16.219665   1.000000
    9      -16.153498   1.000000
   10      -16.012877   1.000000
   11      -15.977385   1.000000
   12      -15.865238   1.000000
   13      -15.796763   1.000000
   14      -15.705143   1.000000
   15      -15.640584   1.000000
   16      -15.510644   1.000000
   17      -15.454980   1.000000
   18      -15.315617   1.000000
   19       -9.607242   1.000000
   20       -9.364787   1.000000
   21       -9.232913   1.000000
   22       -9.047919   1.000000
   23       -8.843711   1.000000
   24       -8.731038   1.000000
   25       -8.557980   1.000000
   26       -8.456643   1.000000
   27       -8.381405   1.000000
   28       -8.349731   1.000000
   29       -8.287511   1.000000
   30       -8.220035   1.000000
   31       -8.181185   1.000000
   32       -8.096610   1.000000
   33       -7.977899   1.000000
   34       -7.860217   1.000000
   35       -7.818651   1.000000
   36       -7.580878   1.000000
   37       -7.521520   1.000000
   38       -7.407078   1.000000
   39       -7.335964   1.000000
   40       -7.292375   1.000000
   41       -7.236279   1.000000
   42       -7.154000   1.000000
   43       -7.063453   1.000000
   44       -7.022463   1.000000
   45       -6.880309   1.000000
   46       -6.842877   1.000000
   47       -6.784124   1.000000