<?xml version="1.0" encoding="ISO-8859-1"?>
<modeling>
 <generator>
  <i name="program" type="string">vasp </i>
  <i name="version" type="string">5.4.1  </i>
  <i name="subversion" type="string">05Feb16 (build Jul 05 2020 17:13:04) complex                          parallel </i>
  <i name="platform" type="string">IFC91_ompi </i>
  <i name="date" type="string">2024 07 30 </i>
  <i name="time" type="string">20:16:29 </i>
 </generator>
 <incar>
  <i type="int" name="ISTART">     0</i>
  <i type="string" name="PREC">normal</i>
  <i type="string" name="ALGO"> Normal</i>
  <i type="int" name="ISPIN">     1</i>
  <i type="int" name="ICHARG">     2</i>
  <i type="int" name="IBRION">     1</i>
  <i type="int" name="NSW">   100</i>
  <i type="int" name="ISIF">     3</i>
  <i type="int" name="ISYM">     0</i>
  <i name="SYMPREC">      0.00000001</i>
  <i name="POTIM">      0.50000000</i>
  <i type="logical" name="LREAL"> F  </i>
  <i type="logical" name="LPLANE"> F  </i>
  <i type="int" name="ISMEAR">     0</i>
  <i type="logical" name="LWAVE"> F  </i>
  <i type="logical" name="LCHARG"> F  </i>
  <v type="int" name="KPOINT_BSE">    -1     0     0     0</v>
 </incar>
 <kpoints>
  <generation param="Gamma">
   <v type="int" name="divisions">       8        8        1 </v>
   <v name="usershift">      0.00000000       0.00000000       0.00000000 </v>
   <v name="genvec1">      0.12500000       0.00000000       0.00000000 </v>
   <v name="genvec2">     -0.00000000       0.12500000       0.00000000 </v>
   <v name="genvec3">      0.00000000       0.00000000       1.00000000 </v>
   <v name="shift">      0.00000000       0.00000000       0.00000000 </v>
  </generation>
  <varray name="kpointlist" >
   <v>       0.00000000       0.00000000       0.00000000 </v>
   <v>       0.12500000       0.00000000       0.00000000 </v>
   <v>       0.25000000       0.00000000       0.00000000 </v>
   <v>       0.37500000       0.00000000       0.00000000 </v>
   <v>       0.50000000       0.00000000       0.00000000 </v>
   <v>       0.00000000       0.12500000       0.00000000 </v>
   <v>       0.12500000       0.12500000       0.00000000 </v>
   <v>       0.25000000       0.12500000       0.00000000 </v>
   <v>       0.37500000       0.12500000       0.00000000 </v>
   <v>       0.50000000       0.12500000       0.00000000 </v>
   <v>      -0.37500000       0.12500000       0.00000000 </v>
   <v>      -0.25000000       0.12500000       0.00000000 </v>
   <v>      -0.12500000       0.12500000       0.00000000 </v>
   <v>       0.00000000       0.25000000       0.00000000 </v>
   <v>       0.12500000       0.25000000       0.00000000 </v>
   <v>       0.25000000       0.25000000       0.00000000 </v>
   <v>       0.37500000       0.25000000       0.00000000 </v>
   <v>       0.50000000       0.25000000       0.00000000 </v>
   <v>      -0.37500000       0.25000000       0.00000000 </v>
   <v>      -0.25000000       0.25000000       0.00000000 </v>
   <v>      -0.12500000       0.25000000       0.00000000 </v>
   <v>      -0.00000000       0.37500000       0.00000000 </v>
   <v>       0.12500000       0.37500000       0.00000000 </v>
   <v>       0.25000000       0.37500000       0.00000000 </v>
   <v>       0.37500000       0.37500000       0.00000000 </v>
   <v>       0.50000000       0.37500000       0.00000000 </v>
   <v>      -0.37500000       0.37500000       0.00000000 </v>
   <v>      -0.25000000       0.37500000       0.00000000 </v>
   <v>      -0.12500000       0.37500000       0.00000000 </v>
   <v>       0.00000000       0.50000000       0.00000000 </v>
   <v>       0.12500000       0.50000000       0.00000000 </v>
   <v>       0.25000000       0.50000000       0.00000000 </v>
   <v>       0.37500000       0.50000000       0.00000000 </v>
   <v>       0.50000000       0.50000000       0.00000000 </v>
  </varray>
  <varray name="weights" >
   <v>       0.01562500 </v>
   <v>       0.03125000 </v>
   <v>       0.03125000 </v>
   <v>       0.03125000 </v>
   <v>       0.01562500 </v>
   <v>       0.03125000 </v>
   <v>       0.03125000 </v>
   <v>       0.03125000 </v>
   <v>       0.03125000 </v>
   <v>       0.03125000 </v>
   <v>       0.03125000 </v>
   <v>       0.03125000 </v>
   <v>       0.03125000 </v>
   <v>       0.03125000 </v>
   <v>       0.03125000 </v>
   <v>       0.03125000 </v>
   <v>       0.03125000 </v>
   <v>       0.03125000 </v>
   <v>       0.03125000 </v>
   <v>       0.03125000 </v>
   <v>       0.03125000 </v>
   <v>       0.03125000 </v>
   <v>       0.03125000 </v>
   <v>       0.03125000 </v>
   <v>       0.03125000 </v>
   <v>       0.03125000 </v>
   <v>       0.03125000 </v>
   <v>       0.03125000 </v>
   <v>       0.03125000 </v>
   <v>       0.01562500 </v>
   <v>       0.03125000 </v>
   <v>       0.03125000 </v>
   <v>       0.03125000 </v>
   <v>       0.01562500 </v>
  </varray>
 </kpoints>
 <parameters>
  <separator name="general" >
   <i type="string" name="SYSTEM">unknown system</i>
   <i type="logical" name="LCOMPAT"> F  </i>
  </separator>
  <separator name="electronic" >
   <i type="string" name="PREC">normal</i>
   <i name="ENMAX">    280.00000000</i>
   <i name="ENAUG">    373.43800000</i>
   <i name="EDIFF">      0.00010000</i>
   <i type="int" name="IALGO">    38</i>
   <i type="int" name="IWAVPR">    11</i>
   <i type="int" name="NBANDS">   120</i>
   <i name="NELECT">    159.00000000</i>
   <i type="int" name="TURBO">     0</i>
   <i type="int" name="IRESTART">     0</i>
   <i type="int" name="NREBOOT">     0</i>
   <i type="int" name="NMIN">     0</i>
   <i name="EREF">      0.00000000</i>
   <separator name="electronic smearing" >
    <i type="int" name="ISMEAR">     0</i>
    <i name="SIGMA">      0.20000000</i>
    <i name="KSPACING">      0.50000000</i>
    <i type="logical" name="KGAMMA"> T  </i>
   </separator>
   <separator name="electronic projectors" >
    <i type="logical" name="LREAL"> F  </i>
    <v name="ROPT">      0.00000000      0.00000000      0.00000000      0.00000000</v>
    <i type="int" name="LMAXPAW">  -100</i>
    <i type="int" name="LMAXMIX">     2</i>
    <i type="logical" name="NLSPLINE"> F  </i>
   </separator>
   <separator name="electronic startup" >
    <i type="int" name="ISTART">     0</i>
    <i type="int" name="ICHARG">     2</i>
    <i type="int" name="INIWAV">     1</i>
   </separator>
   <separator name="electronic spin" >
    <i type="int" name="ISPIN">     1</i>
    <i type="logical" name="LNONCOLLINEAR"> F  </i>
    <v name="MAGMOM">      1.00000000      1.00000000      1.00000000      1.00000000      1.00000000      1.00000000      1.00000000      1.00000000      1.00000000      1.00000000      1.00000000      1.00000000      1.00000000      1.00000000      1.00000000      1.00000000      1.00000000      1.00000000      1.00000000      1.00000000
      1.00000000      1.00000000      1.00000000      1.00000000      1.00000000      1.00000000      1.00000000</v>
    <i name="NUPDOWN">     -1.00000000</i>
    <i type="logical" name="LSORBIT"> F  </i>
    <v name="SAXIS">      0.00000000      0.00000000      1.00000000</v>
    <i type="logical" name="LSPIRAL"> F  </i>
    <v name="QSPIRAL">      0.00000000      0.00000000      0.00000000</v>
    <i type="logical" name="LZEROZ"> F  </i>
   </separator>
   <separator name="electronic exchange-correlation" >
    <i type="logical" name="LASPH"> F  </i>
    <i type="logical" name="LMETAGGA"> F  </i>
   </separator>
   <separator name="electronic convergence" >
    <i type="int" name="NELM">    60</i>
    <i type="int" name="NELMDL">    -5</i>
    <i type="int" name="NELMIN">     2</i>
    <i name="ENINI">    280.00000000</i>
    <separator name="electronic convergence detail" >
     <i type="logical" name="LDIAG"> T  </i>
     <i type="logical" name="LSUBROT"> F  </i>
     <i name="WEIMIN">      0.00100000</i>
     <i name="EBREAK">      0.00000021</i>
     <i name="DEPER">      0.30000000</i>
     <i type="int" name="NRMM">     4</i>
     <i name="TIME">      0.40000000</i>
    </separator>
   </separator>
   <separator name="electronic mixer" >
    <i name="AMIX">      0.40000000</i>
    <i name="BMIX">      1.00000000</i>
    <i name="AMIN">      0.10000000</i>
    <i name="AMIX_MAG">      1.60000000</i>
    <i name="BMIX_MAG">      1.00000000</i>
    <separator name="electronic mixer details" >
     <i type="int" name="IMIX">     4</i>
     <i type="logical" name="MIXFIRST"> F  </i>
     <i type="int" name="MAXMIX">   -45</i>
     <i name="WC">    100.00000000</i>
     <i type="int" name="INIMIX">     1</i>
     <i type="int" name="MIXPRE">     1</i>
     <i type="int" name="MREMOVE">     5</i>
    </separator>
   </separator>
   <separator name="electronic dipolcorrection" >
    <i type="logical" name="LDIPOL"> F  </i>
    <i type="logical" name="LMONO"> F  </i>
    <i type="int" name="IDIPOL">     0</i>
    <i name="EPSILON">      1.00000000</i>
    <v name="DIPOL">   -100.00000000   -100.00000000   -100.00000000</v>
    <i name="EFIELD">      0.00000000</i>
   </separator>
  </separator>
  <separator name="grids" >
   <i type="int" name="NGX">    42</i>
   <i type="int" name="NGY">    42</i>
   <i type="int" name="NGZ">   126</i>
   <i type="int" name="NGXF">    84</i>
   <i type="int" name="NGYF">    84</i>
   <i type="int" name="NGZF">   252</i>
   <i type="logical" name="ADDGRID"> F  </i>
  </separator>
  <separator name="ionic" >
   <i type="int" name="NSW">   100</i>
   <i type="int" name="IBRION">     1</i>
   <i type="int" name="ISIF">     3</i>
   <i name="PSTRESS">      0.00000000</i>
   <i name="EDIFFG">      0.00100000</i>
   <i type="int" name="NFREE">     0</i>
   <i name="POTIM">      0.50000000</i>
   <i name="SMASS">     -3.00000000</i>
   <i name="SCALEE">      1.00000000</i>
  </separator>
  <separator name="ionic md" >
   <i name="TEBEG">      0.00010000</i>
   <i name="TEEND">      0.00010000</i>
   <i type="int" name="NBLOCK">     1</i>
   <i type="int" name="KBLOCK">   100</i>
   <i type="int" name="NPACO">   256</i>
   <i name="APACO">     16.00000000</i>
  </separator>
  <separator name="symmetry" >
   <i type="int" name="ISYM">     0</i>
   <i name="SYMPREC">      0.00000001</i>
  </separator>
  <separator name="dos" >
   <i type="logical" name="LORBIT"> F  </i>
   <v name="RWIGS">     -1.00000000     -1.00000000     -1.00000000     -1.00000000</v>
   <i type="int" name="NEDOS">   301</i>
   <i name="EMIN">     10.00000000</i>
   <i name="EMAX">    -10.00000000</i>
   <i name="EFERMI">      0.00000000</i>
  </separator>
  <separator name="writing" >
   <i type="int" name="NWRITE">     2</i>
   <i type="logical" name="LWAVE"> F  </i>
   <i type="logical" name="LCHARG"> F  </i>
   <i type="logical" name="LPARD"> F  </i>
   <i type="logical" name="LVTOT"> F  </i>
   <i type="logical" name="LVHAR"> F  </i>
   <i type="logical" name="LELF"> F  </i>
   <i type="logical" name="LOPTICS"> F  </i>
   <v name="STM">      0.00000000      0.00000000      0.00000000      0.00000000      0.00000000      0.00000000      0.00000000</v>
  </separator>
  <separator name="performance" >
   <i type="int" name="NPAR">    40</i>
   <i type="int" name="NSIM">     4</i>
   <i type="int" name="NBLK">    -1</i>
   <i type="logical" name="LPLANE"> F  </i>
   <i type="logical" name="LSCALAPACK"> T  </i>
   <i type="logical" name="LSCAAWARE"> F  </i>
   <i type="logical" name="LSCALU"> F  </i>
   <i type="logical" name="LASYNC"> F  </i>
   <i type="logical" name="LORBITALREAL"> F  </i>
  </separator>
  <separator name="miscellaneous" >
   <i type="int" name="IDIOT">     3</i>
   <i type="logical" name="LMUSIC"> F  </i>
   <v name="POMASS">     50.94100000     95.94000000    183.85000000     32.06600000</v>
   <v name="DARWINR">      0.00000000      0.00000000      0.00000000      0.00000000</v>
   <v name="DARWINV">      1.00000000      1.00000000      1.00000000      1.00000000</v>
   <i type="logical" name="LCORR"> T  </i>
  </separator>
  <i type="logical" name="GGA_COMPAT"> T  </i>
  <i type="logical" name="LBERRY"> F  </i>
  <i type="int" name="ICORELEVEL">     0</i>
  <i type="logical" name="LDAU"> F  </i>
  <i type="int" name="I_CONSTRAINED_M">     0</i>
  <separator name="electronic exchange-correlation" >
   <i type="string" name="GGA">--</i>
   <i type="int" name="VOSKOWN">     0</i>
   <i type="logical" name="LHFCALC"> F  </i>
   <i type="string" name="PRECFOCK"></i>
   <i type="logical" name="LSYMGRAD"> F  </i>
   <i type="logical" name="LHFONE"> F  </i>
   <i type="logical" name="LRHFCALC"> F  </i>
   <i type="logical" name="LTHOMAS"> F  </i>
   <i type="logical" name="LMODELHF"> F  </i>
   <i name="ENCUT4O">     -1.00000000</i>
   <i type="int" name="EXXOEP">     0</i>
   <i type="int" name="FOURORBIT">     0</i>
   <i name="AEXX">      0.00000000</i>
   <i name="HFALPHA">      0.00000000</i>
   <i name="MCALPHA">      0.00000000</i>
   <i name="ALDAX">      1.00000000</i>
   <i name="AGGAX">      1.00000000</i>
   <i name="ALDAC">      1.00000000</i>
   <i name="AGGAC">      1.00000000</i>
   <i type="int" name="NKREDX">     1</i>
   <i type="int" name="NKREDY">     1</i>
   <i type="int" name="NKREDZ">     1</i>
   <i type="logical" name="SHIFTRED"> F  </i>
   <i type="logical" name="ODDONLY"> F  </i>
   <i type="logical" name="EVENONLY"> F  </i>
   <i type="int" name="LMAXFOCK">     0</i>
   <i type="int" name="NMAXFOCKAE">     0</i>
   <i type="logical" name="LFOCKAEDFT"> F  </i>
   <i name="HFSCREEN">      0.00000000</i>
   <i name="HFSCREENC">      0.00000000</i>
   <i type="int" name="NBANDSGWLOW">     0</i>
  </separator>
  <separator name="vdW DFT" >
   <i type="logical" name="LUSE_VDW"> F  </i>
   <i name="Zab_VDW">     -0.84910000</i>
   <i name="PARAM1">      0.12340000</i>
   <i name="PARAM2">      1.00000000</i>
   <i name="PARAM3">      0.00000000</i>
  </separator>
  <separator name="model GW" >
   <i type="int" name="MODEL_GW">     0</i>
   <i name="MODEL_EPS0">     58.26239943</i>
   <i name="MODEL_ALPHA">      1.00000000</i>
  </separator>
  <separator name="linear response parameters" >
   <i type="logical" name="LEPSILON"> F  </i>
   <i type="logical" name="LRPA"> F  </i>
   <i type="logical" name="LNABLA"> F  </i>
   <i type="logical" name="LVEL"> F  </i>
   <i type="int" name="KINTER">     0</i>
   <i name="CSHIFT">      0.10000000</i>
   <i name="OMEGAMAX">     -1.00000000</i>
   <i name="DEG_THRESHOLD">      0.00200000</i>
  </separator>
  <separator name="orbital magnetization" >
   <i type="logical" name="NUCIND"> F  </i>
   <v name="MAGPOS">      0.00000000      0.00000000      0.00000000</v>
   <i type="logical" name="LNICSALL"> T  </i>
   <i type="logical" name="ORBITALMAG"> F  </i>
   <i type="logical" name="LMAGBLOCH"> F  </i>
   <i type="logical" name="LCHIMAG"> F  </i>
   <i type="logical" name="LGAUGE"> T  </i>
   <i type="int" name="MAGATOM">     0</i>
   <v name="MAGDIPOL">      0.00000000      0.00000000      0.00000000</v>
   <v name="AVECCONST">      0.00000000      0.00000000      0.00000000</v>
  </separator>
  <separator name="response functions" >
   <i type="logical" name="LADDER"> F  </i>
   <i type="logical" name="LFXC"> F  </i>
   <i type="logical" name="LHARTREE"> T  </i>
   <i type="int" name="IBSE">     0</i>
   <v type="int" name="KPOINT">    -1     0     0     0</v>
   <i type="logical" name="LTCTE"> F  </i>
   <i type="logical" name="LTETE"> F  </i>
   <i type="logical" name="LTRIPLET"> F  </i>
   <i type="logical" name="LFXCEPS"> F  </i>
   <i type="logical" name="LFXHEG"> F  </i>
   <i type="int" name="NATURALO">     0</i>
   <i type="logical" name="L2ORDER"> F  </i>
   <i type="logical" name="LUSEW"> F  </i>
   <i name="ENCUTGW">     -2.00000000</i>
   <i name="ENCUTGWSOFT">     -2.00000000</i>
   <i name="ENCUTLF">     -1.00000000</i>
   <i type="int" name="LMAXMP2">    -1</i>
   <i name="SCISSOR">      0.00000000</i>
   <i type="int" name="NOMEGA">     0</i>
   <i type="int" name="NOMEGAR">     0</i>
   <i type="int" name="NBANDSGW">    -1</i>
   <i type="int" name="NBANDSO">    -1</i>
   <i type="int" name="NBANDSV">    -1</i>
   <i type="int" name="NELM">     1</i>
   <i type="int" name="NELMHF">     1</i>
   <i type="int" name="DIM">     3</i>
   <i type="int" name="ANTIRES">     0</i>
   <i name="OMEGAMAX">    -30.00000000</i>
   <i name="OMEGAMIN">    -30.00000000</i>
   <i name="OMEGATL">   -200.00000000</i>
   <i type="int" name="OMEGAGRID">     0</i>
   <i name="CSHIFT">     -0.10000000</i>
   <i type="logical" name="SELFENERGY"> F  </i>
   <i type="logical" name="LSPECTRAL"> F  </i>
   <i type="logical" name="LSPECTRALGW"> F  </i>
   <i type="logical" name="LSINGLES"> F  </i>
   <i type="logical" name="LFERMIGW"> F  </i>
   <i type="logical" name="ODDONLYGW"> F  </i>
   <i type="logical" name="EVENONLYGW"> F  </i>
   <i type="int" name="NKREDLFX">     1</i>
   <i type="int" name="NKREDLFY">     1</i>
   <i type="int" name="NKREDLFZ">     1</i>
   <i type="int" name="MAXMEM">  1800</i>
   <i type="int" name="TELESCOPE">     0</i>
   <i type="int" name="TAUPAR">     1</i>
   <i type="int" name="OMEGAPAR">    -1</i>
   <i name="LAMBDA">      1.00000000</i>
  </separator>
  <separator name="External order field" >
   <i name="OFIELD_KAPPA">      0.00000000</i>
   <v name="OFIELD_K">      0.00000000      0.00000000      0.00000000</v>
   <i name="OFIELD_Q6_NEAR">      0.00000000</i>
   <i name="OFIELD_Q6_FAR">      0.00000000</i>
   <i name="OFIELD_A">      0.00000000</i>
  </separator>
 </parameters>
 <atominfo>
  <atoms>      27 </atoms>
  <types>       4 </types>
  <array name="atoms" >
   <dimension dim="1">ion</dimension>
   <field type="string">element</field>
   <field type="int">atomtype</field>
   <set>
    <rc><c>V </c><c>   1</c></rc>
    <rc><c>V </c><c>   1</c></rc>
    <rc><c>V </c><c>   1</c></rc>
    <rc><c>Mo</c><c>   2</c></rc>
    <rc><c>Mo</c><c>   2</c></rc>
    <rc><c>Mo</c><c>   2</c></rc>
    <rc><c>W </c><c>   3</c></rc>
    <rc><c>W </c><c>   3</c></rc>
    <rc><c>W </c><c>   3</c></rc>
    <rc><c>S </c><c>   4</c></rc>
    <rc><c>S </c><c>   4</c></rc>
    <rc><c>S </c><c>   4</c></rc>
    <rc><c>S </c><c>   4</c></rc>
    <rc><c>S </c><c>   4</c></rc>
    <rc><c>S </c><c>   4</c></rc>
    <rc><c>S </c><c>   4</c></rc>
    <rc><c>S </c><c>   4</c></rc>
    <rc><c>S </c><c>   4</c></rc>
    <rc><c>S </c><c>   4</c></rc>
    <rc><c>S </c><c>   4</c></rc>
    <rc><c>S </c><c>   4</c></rc>
    <rc><c>S </c><c>   4</c></rc>
    <rc><c>S </c><c>   4</c></rc>
    <rc><c>S </c><c>   4</c></rc>
    <rc><c>S </c><c>   4</c></rc>
    <rc><c>S </c><c>   4</c></rc>
    <rc><c>S </c><c>   4</c></rc>
   </set>
  </array>
  <array name="atomtypes" >
   <dimension dim="1">type</dimension>
   <field type="int">atomspertype</field>
   <field type="string">element</field>
   <field>mass</field>
   <field>valence</field>
   <field type="string">pseudopotential</field>
   <set>
    <rc><c>   3</c><c>V </c><c>     50.94100000</c><c>      5.00000000</c><c> PAW_PBE V 08Apr2002                    </c></rc>
    <rc><c>   3</c><c>Mo</c><c>     95.94000000</c><c>      6.00000000</c><c> PAW_PBE Mo 08Apr2002                   </c></rc>
    <rc><c>   3</c><c>W </c><c>    183.85000000</c><c>      6.00000000</c><c> PAW_PBE W 08Apr2002                    </c></rc>
    <rc><c>  18</c><c>S </c><c>     32.06600000</c><c>      6.00000000</c><c>  PAW_PBE S 17Jan2003                   </c></rc>
   </set>
  </array>
 </atominfo>
 <structure name="initialpos" >
  <crystal>
   <varray name="basis" >
    <v>       8.66999996       5.03999989       0.00000000 </v>
    <v>      -8.66999982       5.04000013       0.00000000 </v>
    <v>       0.00000000       0.00000000      30.00000000 </v>
   </varray>
   <i name="volume">   2621.80797419 </i>
   <varray name="rec_basis" >
    <v>       0.05767013       0.09920635       0.00000000 </v>
    <v>      -0.05767013       0.09920635       0.00000000 </v>
    <v>       0.00000000       0.00000000       0.03333333 </v>
   </varray>
  </crystal>
  <varray name="positions" >
   <v>       0.66666669       0.33333334       0.00000000 </v>
   <v>       0.66666669       0.00000000       0.00000000 </v>
   <v>       0.66666669       0.66666669       0.00000000 </v>
   <v>       0.33333334       0.00000000       0.00000000 </v>
   <v>       0.00000000       0.00000000       0.00000000 </v>
   <v>       0.00000000       0.66666669       0.00000000 </v>
   <v>       1.00000000       0.33333334       0.00000000 </v>
   <v>       0.33333334       0.33333334       0.00000000 </v>
   <v>       0.33333334       0.66666669       0.00000000 </v>
   <v>       0.11068511       0.22244981       0.95539999 </v>
   <v>       0.22244981       0.11068511       0.04460000 </v>
   <v>       0.11068511       0.55578315       0.95539999 </v>
   <v>       0.22244981       0.44401845       0.04460000 </v>
   <v>       0.11068511       0.88911647       0.95539999 </v>
   <v>       0.22244981       0.77735180       0.04460000 </v>
   <v>       0.44401845       0.22244981       0.95539999 </v>
   <v>       0.55578315       0.11068511       0.04460000 </v>
   <v>       0.44401845       0.55578315       0.95539999 </v>
   <v>       0.55578315       0.44401845       0.04460000 </v>
   <v>       0.44401845       0.88911647       0.95539999 </v>
   <v>       0.55578315       0.77735180       0.04460000 </v>
   <v>       0.77735180       0.22244981       0.95539999 </v>
   <v>       0.88911647       0.11068511       0.04460000 </v>
   <v>       0.77735180       0.55578315       0.95539999 </v>
   <v>       0.88911647       0.44401845       0.04460000 </v>
   <v>       0.77735180       0.88911647       0.95539999 </v>
   <v>       0.88911647       0.77735180       0.04460000 </v>
  </varray>
 </structure>
 <calculation>
  <scstep>
   <time name="dav">   21.78   21.83</time>
   <time name="total">   21.83   21.88</time>
   <energy>
    <i name="alphaZ">     81.65567618 </i>
    <i name="ewald">  41891.19377233 </i>
    <i name="hartreedc"> -47723.83912552 </i>
    <i name="XCdc">   -242.92452236 </i>
    <i name="pawpsdc">   3467.42045192 </i>
    <i name="pawaedc">  -2871.19716117 </i>
    <i name="eentropy">     -0.52959085 </i>
    <i name="bandstr">   -239.43109825 </i>
    <i name="atom">   6761.44252427 </i>
    <i name="e_fr_energy">   1123.79092656 </i>
    <i name="e_wo_entrp">   1124.32051741 </i>
    <i name="e_0_energy">   1124.05572198 </i>
   </energy>
  </scstep>
  <scstep>
   <time name="dav">   27.82   27.89</time>
   <time name="total">   27.82   27.89</time>
   <energy>
    <i name="e_fr_energy">     -4.04380577 </i>
    <i name="e_wo_entrp">     -3.87292648 </i>
    <i name="e_0_energy">     -3.95836612 </i>
   </energy>
  </scstep>
  <scstep>
   <time name="dav">   27.62   27.68</time>
   <time name="total">   27.62   27.69</time>
   <energy>
    <i name="e_fr_energy">   -199.68816244 </i>
    <i name="e_wo_entrp">   -199.41955147 </i>
    <i name="e_0_energy">   -199.55385695 </i>
   </energy>
  </scstep>
  <scstep>
   <time name="dav">   30.09   30.17</time>
   <time name="total">   30.10   30.17</time>
   <energy>
    <i name="e_fr_energy">   -209.03237853 </i>
    <i name="e_wo_entrp">   -208.75403063 </i>
    <i name="e_0_energy">   -208.89320458 </i>
   </energy>
  </scstep>
  <scstep>
   <time name="dav">   28.84   28.91</time>
   <time name="total">   29.31   29.39</time>
   <energy>
    <i name="e_fr_energy">   -209.35505379 </i>
    <i name="e_wo_entrp">   -209.08007673 </i>
    <i name="e_0_energy">   -209.21756526 </i>
   </energy>
  </scstep>
  <scstep>
   <time name="dav">   31.14   31.21</time>
   <time name="total">   31.64   31.72</time>
   <energy>
    <i name="e_fr_energy">   -240.93980919 </i>
    <i name="e_wo_entrp">   -240.66495875 </i>
    <i name="e_0_energy">   -240.80238397 </i>
   </energy>
  </scstep>
  <scstep>
   <time name="dav">   32.34   32.42</time>
   <time name="total">   32.85   32.93</time>
   <energy>
    <i name="e_fr_energy">   -196.27511359 </i>
    <i name="e_wo_entrp">   -195.94431549 </i>
    <i name="e_0_energy">   -196.10971454 </i>
   </energy>
  </scstep>
  <scstep>
   <time name="dav">   29.95   30.02</time>
   <time name="total">   30.47   30.55</time>
   <energy>
    <i name="e_fr_energy">   -189.53112016 </i>
    <i name="e_wo_entrp">   -189.19414750 </i>
    <i name="e_0_energy">   -189.36263383 </i>
   </energy>
  </scstep>
  <scstep>
   <time name="dav">   31.49   31.57</time>
   <time name="total">   32.01   32.10</time>
   <energy>
    <i name="e_fr_energy">   -188.08299398 </i>
    <i name="e_wo_entrp">   -187.73740356 </i>
    <i name="e_0_energy">   -187.91019877 </i>
   </energy>
  </scstep>
  <scstep>
   <time name="dav">   32.58   32.65</time>
   <time name="total">   33.11   33.20</time>
   <energy>
    <i name="e_fr_energy">   -186.92917605 </i>
    <i name="e_wo_entrp">   -186.57534241 </i>
    <i name="e_0_energy">   -186.75225923 </i>
   </energy>
  </scstep>
  <scstep>
   <time name="dav">   32.79   32.87</time>
   <time name="total">   33.32   33.41</time>
   <energy>
    <i name="e_fr_energy">   -187.07866022 </i>
    <i name="e_wo_entrp">   -186.73962954 </i>
    <i name="e_0_energy">   -186.90914488 </i>
   </energy>
  </scstep>
  <scstep>
   <time name="dav">   31.02   31.10</time>
   <time name="total">   31.56   31.64</time>
   <energy>
    <i name="e_fr_energy">   -186.92434119 </i>
    <i name="e_wo_entrp">   -186.58365285 </i>
    <i name="e_0_energy">   -186.75399702 </i>
   </energy>
  </scstep>
  <scstep>
   <time name="dav">   32.12   32.19</time>
   <time name="total">   32.65   32.74</time>
   <energy>
    <i name="e_fr_energy">   -186.85547362 </i>
    <i name="e_wo_entrp">   -186.51111006 </i>
    <i name="e_0_energy">   -186.68329184 </i>
   </energy>
  </scstep>
  <scstep>
   <time name="dav">   31.04   31.12</time>
   <time name="total">   31.58   31.66</time>
   <energy>
    <i name="e_fr_energy">   -186.84303447 </i>
    <i name="e_wo_entrp">   -186.49686364 </i>
    <i name="e_0_energy">   -186.66994905 </i>
   </energy>
  </scstep>
  <scstep>
   <time name="dav">   32.16   32.24</time>
   <time name="total">   32.70   32.79</time>
   <energy>
    <i name="e_fr_energy">   -186.82967620 </i>
    <i name="e_wo_entrp">   -186.48258749 </i>
    <i name="e_0_energy">   -186.65613184 </i>
   </energy>
  </scstep>
  <scstep>
   <time name="dav">   29.22   29.29</time>
   <time name="total">   29.76   29.84</time>
   <energy>
    <i name="e_fr_energy">   -186.82744826 </i>
    <i name="e_wo_entrp">   -186.48081148 </i>
    <i name="e_0_energy">   -186.65412987 </i>
   </energy>
  </scstep>
  <scstep>
   <time name="dav">   31.02   31.09</time>
   <time name="total">   31.56   31.64</time>
   <energy>
    <i name="e_fr_energy">   -186.82612971 </i>
    <i name="e_wo_entrp">   -186.48031000 </i>
    <i name="e_0_energy">   -186.65321985 </i>
   </energy>
  </scstep>
  <scstep>
   <time name="dav">   30.97   31.05</time>
   <time name="total">   31.51   31.59</time>
   <energy>
    <i name="e_fr_energy">   -186.82563098 </i>
    <i name="e_wo_entrp">   -186.47939867 </i>
    <i name="e_0_energy">   -186.65251483 </i>
   </energy>
  </scstep>
  <scstep>
   <time name="dav">   26.51   26.57</time>
   <time name="total">   27.05   27.12</time>
   <energy>
    <i name="e_fr_energy">   -186.82627809 </i>
    <i name="e_wo_entrp">   -186.48045094 </i>
    <i name="e_0_energy">   -186.65336451 </i>
   </energy>
  </scstep>
  <scstep>
   <time name="dav">   20.77   20.82</time>
   <time name="total">   21.32   21.37</time>
   <energy>
    <i name="e_fr_energy">   -186.82674002 </i>
    <i name="e_wo_entrp">   -186.48097885 </i>
    <i name="e_0_energy">   -186.65385943 </i>
   </energy>
  </scstep>
  <scstep>
   <time name="dav">   20.20   20.24</time>
   <time name="total">   20.73   20.79</time>
   <energy>
    <i name="e_fr_energy">   -186.82780891 </i>
    <i name="e_wo_entrp">   -186.48199382 </i>
    <i name="e_0_energy">   -186.65490136 </i>
   </energy>
  </scstep>
  <scstep>
   <time name="dav">   21.56   21.61</time>
   <time name="total">   22.10   22.16</time>
   <energy>
    <i name="e_fr_energy">   -186.82890684 </i>
    <i name="e_wo_entrp">   -186.48307006 </i>
    <i name="e_0_energy">   -186.65598845 </i>
   </energy>
  </scstep>
  <scstep>
   <time name="dav">   17.74   17.78</time>
   <time name="total">   18.28   18.34</time>
   <energy>
    <i name="e_fr_energy">   -186.82936982 </i>
    <i name="e_wo_entrp">   -186.48353411 </i>
    <i name="e_0_energy">   -186.65645196 </i>
   </energy>
  </scstep>
  <scstep>
   <time name="dav">   19.64   19.69</time>
   <time name="total">   20.18   20.24</time>
   <energy>
    <i name="e_fr_energy">   -186.83001438 </i>
    <i name="e_wo_entrp">   -186.48417692 </i>
    <i name="e_0_energy">   -186.65709565 </i>
   </energy>
  </scstep>
  <scstep>
   <time name="dav">   18.17   18.22</time>
   <time name="total">   18.71   18.76</time>
   <energy>
    <i name="e_fr_energy">   -186.83036413 </i>
    <i name="e_wo_entrp">   -186.48451330 </i>
    <i name="e_0_energy">   -186.65743871 </i>
   </energy>
  </scstep>
  <scstep>
   <time name="dav">   19.04   19.08</time>
   <time name="total">   19.58   19.63</time>
   <energy>
    <i name="e_fr_energy">   -186.83060830 </i>
    <i name="e_wo_entrp">   -186.48476870 </i>
    <i name="e_0_energy">   -186.65768850 </i>
   </energy>
  </scstep>
  <scstep>
   <time name="dav">   20.67   20.72</time>
   <time name="total">   20.71   20.76</time>
   <energy>
    <i name="alphaZ">     81.65567618 </i>
    <i name="ewald">  41891.19377233 </i>
    <i name="hartreedc"> -47833.69800515 </i>
    <i name="XCdc">   -231.60754149 </i>
    <i name="pawpsdc">   4192.07304902 </i>
    <i name="pawaedc">  -3610.07338803 </i>
    <i name="eentropy">     -0.34583930 </i>
    <i name="bandstr">  -1437.47092543 </i>
    <i name="atom">   6761.44252427 </i>
    <i name="e_fr_energy">   -186.83067759 </i>
    <i name="e_wo_entrp">   -186.48483829 </i>
    <i name="e_0_energy">   -186.65775794 </i>
   </energy>
  </scstep>
  <structure>
   <crystal>
    <varray name="basis" >
     <v>       8.66999996       5.03999989       0.00000000 </v>
     <v>      -8.66999982       5.04000013       0.00000000 </v>
     <v>       0.00000000       0.00000000      30.00000000 </v>
    </varray>
    <i name="volume">   2621.80797419 </i>
    <varray name="rec_basis" >
     <v>       0.05767013       0.09920635       0.00000000 </v>
     <v>      -0.05767013       0.09920635       0.00000000 </v>
     <v>       0.00000000       0.00000000       0.03333333 </v>
    </varray>
   </crystal>
   <varray name="positions" >
    <v>       0.66666669       0.33333334       0.00000000 </v>
    <v>       0.66666669       0.00000000       0.00000000 </v>
    <v>       0.66666669       0.66666669       0.00000000 </v>
    <v>       0.33333334       0.00000000       0.00000000 </v>
    <v>       0.00000000       0.00000000       0.00000000 </v>
    <v>       0.00000000       0.66666669       0.00000000 </v>
    <v>       1.00000000       0.33333334       0.00000000 </v>
    <v>       0.33333334       0.33333334       0.00000000 </v>
    <v>       0.33333334       0.66666669       0.00000000 </v>
    <v>       0.11068511       0.22244981       0.95539999 </v>
    <v>       0.22244981       0.11068511       0.04460000 </v>
    <v>       0.11068511       0.55578315       0.95539999 </v>
    <v>       0.22244981       0.44401845       0.04460000 </v>
    <v>       0.11068511       0.88911647       0.95539999 </v>
    <v>       0.22244981       0.77735180       0.04460000 </v>
    <v>       0.44401845       0.22244981       0.95539999 </v>
    <v>       0.55578315       0.11068511       0.04460000 </v>
    <v>       0.44401845       0.55578315       0.95539999 </v>
    <v>       0.55578315       0.44401845       0.04460000 </v>
    <v>       0.44401845       0.88911647       0.95539999 </v>
    <v>       0.55578315       0.77735180       0.04460000 </v>
    <v>       0.77735180       0.22244981       0.95539999 </v>
    <v>       0.88911647       0.11068511       0.04460000 </v>
    <v>       0.77735180       0.55578315       0.95539999 </v>
    <v>       0.88911647       0.44401845       0.04460000 </v>
    <v>       0.77735180       0.88911647       0.95539999 </v>
    <v>       0.88911647       0.77735180       0.04460000 </v>
   </varray>
  </structure>
  <varray name="forces" >
   <v>      -0.00951563      -0.01353902       0.02644125 </v>
   <v>      -0.00952670      -0.01225351       0.02781930 </v>
   <v>       0.22841731       0.37878507      -0.05663545 </v>
   <v>      -0.23618145      -0.39449066       0.17381543 </v>
   <v>       0.49876465      -0.02929064      -0.13698063 </v>
   <v>      -0.27833208       0.39420791      -0.13237509 </v>
   <v>      -0.05077978      -0.07558240      -0.09177476 </v>
   <v>       0.34375028      -0.39841893       0.11422002 </v>
   <v>      -0.51528171       0.07619472       0.12011834 </v>
   <v>       0.02867487       0.10621681      -2.91879512 </v>
   <v>      -0.18810573       0.19026410       2.92746616 </v>
   <v>       0.26060984      -0.03261989      -2.91560641 </v>
   <v>      -0.10908996       0.04347837       2.92649091 </v>
   <v>       0.09609888      -0.03152959      -2.94196981 </v>
   <v>       0.06988357       0.03646990       2.92930279 </v>
   <v>       0.37352368       0.71133531      -2.15649903 </v>
   <v>       0.32543124       0.66870930       1.38125999 </v>
   <v>       0.46531154       0.56645908      -2.09358682 </v>
   <v>       0.23827796       0.52151446       1.41523781 </v>
   <v>       0.62457779       0.56078918      -2.14827058 </v>
   <v>       0.23847061       0.52253018       1.41200137 </v>
   <v>      -0.23319160      -0.51534904      -1.43260996 </v>
   <v>      -0.61415983      -0.54732958       2.10521466 </v>
   <v>      -0.32608539      -0.66059049      -1.40909485 </v>
   <v>      -0.37047855      -0.69265469       2.11339931 </v>
   <v>      -0.31606578      -0.66796841      -1.40576295 </v>
   <v>      -0.53499803      -0.70533753       2.16717414 </v>
  </varray>
  <varray name="stress" >
   <v>       7.27064808       0.13421560      -1.56551745 </v>
   <v>       0.13421551       4.50432543       0.00062316 </v>
   <v>      -1.56551752       0.00062306      30.31227652 </v>
  </varray>
  <energy>
   <i name="e_fr_energy">   -186.83067759 </i>
   <i name="e_wo_entrp">   -186.65775794 </i>
   <i name="e_0_energy">     -0.34583930 </i>
  </energy>
  <time name="totalsc">  781.78  783.86</time>
 </calculation>
 <calculation>
  <scstep>
   <time name="dav">   21.65   21.70</time>
   <time name="total">   22.20   22.25</time>
   <energy>
    <i name="alphaZ">     78.91661567 </i>
    <i name="ewald">  39376.57296924 </i>
    <i name="hartreedc"> -45333.83689476 </i>
    <i name="XCdc">   -239.07970434 </i>
    <i name="pawpsdc">   4192.05006227 </i>
    <i name="pawaedc">  -3610.05076845 </i>
    <i name="eentropy">     -0.28810206 </i>
    <i name="bandstr">  -1413.24912280 </i>
    <i name="atom">   6761.44252427 </i>
    <i name="e_fr_energy">   -187.52242096 </i>
    <i name="e_wo_entrp">   -187.23431890 </i>
    <i name="e_0_energy">   -187.37836993 </i>
   </energy>
  </scstep>
  <scstep>
   <time name="dav">   30.27   30.34</time>
   <time name="total">   30.81   30.89</time>
   <energy>
    <i name="e_fr_energy">   -189.50754997 </i>
    <i name="e_wo_entrp">   -189.18100270 </i>
    <i name="e_0_energy">   -189.34427633 </i>
   </energy>
  </scstep>
  <scstep>
   <time name="dav">   30.86   30.94</time>
   <time name="total">   31.42   31.51</time>
   <energy>
    <i name="e_fr_energy">   -189.34961185 </i>
    <i name="e_wo_entrp">   -189.07510459 </i>
    <i name="e_0_energy">   -189.21235822 </i>
   </energy>
  </scstep>
  <scstep>
   <time name="dav">   31.32   31.39</time>
   <time name="total">   31.86   31.95</time>
   <energy>
    <i name="e_fr_energy">   -188.77269993 </i>
    <i name="e_wo_entrp">   -188.48615361 </i>
    <i name="e_0_energy">   -188.62942677 </i>
   </energy>
  </scstep>
  <scstep>
   <time name="dav">   26.42   26.48</time>
   <time name="total">   26.97   27.04</time>
   <energy>
    <i name="e_fr_energy">   -188.73059617 </i>
    <i name="e_wo_entrp">   -188.44423198 </i>
    <i name="e_0_energy">   -188.58741408 </i>
   </energy>
  </scstep>
  <scstep>
   <time name="dav">   32.42   32.50</time>
   <time name="total">   32.96   33.05</time>
   <energy>
    <i name="e_fr_energy">   -188.77931540 </i>
    <i name="e_wo_entrp">   -188.49030459 </i>
    <i name="e_0_energy">   -188.63480999 </i>
   </energy>
  </scstep>
  <scstep>
   <time name="dav">   31.33   31.40</time>
   <time name="total">   31.87   31.95</time>
   <energy>
    <i name="e_fr_energy">   -188.71216600 </i>
    <i name="e_wo_entrp">   -188.42578271 </i>
    <i name="e_0_energy">   -188.56897435 </i>
   </energy>
  </scstep>
  <scstep>
   <time name="dav">   28.63   28.70</time>
   <time name="total">   29.18   29.25</time>
   <energy>
    <i name="e_fr_energy">   -188.68890890 </i>
    <i name="e_wo_entrp">   -188.40336058 </i>
    <i name="e_0_energy">   -188.54613474 </i>
   </energy>
  </scstep>
  <scstep>
   <time name="dav">   30.76   30.84</time>
   <time name="total">   31.31   31.39</time>
   <energy>
    <i name="e_fr_energy">   -188.68992544 </i>
    <i name="e_wo_entrp">   -188.40459756 </i>
    <i name="e_0_energy">   -188.54726150 </i>
   </energy>
  </scstep>
  <scstep>
   <time name="dav">   32.05   32.13</time>
   <time name="total">   32.60   32.68</time>
   <energy>
    <i name="e_fr_energy">   -188.68782974 </i>
    <i name="e_wo_entrp">   -188.40290359 </i>
    <i name="e_0_energy">   -188.54536666 </i>
   </energy>
  </scstep>
  <scstep>
   <time name="dav">   28.80   28.87</time>
   <time name="total">   29.34   29.42</time>
   <energy>
    <i name="e_fr_energy">   -188.68734592 </i>
    <i name="e_wo_entrp">   -188.40264007 </i>
    <i name="e_0_energy">   -188.54499299 </i>
   </energy>
  </scstep>
  <scstep>
   <time name="dav">   25.70   25.76</time>
   <time name="total">   25.74   25.81</time>
   <energy>
    <i name="alphaZ">     78.91661567 </i>
    <i name="ewald">  39376.57296924 </i>
    <i name="hartreedc"> -45344.81133754 </i>
    <i name="XCdc">   -237.98148305 </i>
    <i name="pawpsdc">   3950.91104155 </i>
    <i name="pawaedc">  -3365.42404504 </i>
    <i name="eentropy">     -0.28471259 </i>
    <i name="bandstr">  -1408.02900318 </i>
    <i name="atom">   6761.44252427 </i>
    <i name="e_fr_energy">   -188.68743068 </i>
    <i name="e_wo_entrp">   -188.40271808 </i>
    <i name="e_0_energy">   -188.54507438 </i>
   </energy>
  </scstep>
  <structure>
   <crystal>
    <varray name="basis" >
     <v>       8.85628825       5.10977931       0.00000000 </v>
     <v>      -8.85233243       5.10297484       0.00000000 </v>
     <v>       0.00000000       0.00000000      30.00000000 </v>
    </varray>
    <i name="volume">   2712.80643659 </i>
    <varray name="rec_basis" >
     <v>       0.05643206       0.09789492       0.00000000 </v>
     <v>      -0.05650730       0.09793867       0.00000000 </v>
     <v>       0.00000000       0.00000000       0.03333333 </v>
    </varray>
   </crystal>
   <varray name="positions" >
    <v>       0.66657542       0.33329502       0.00004252 </v>
    <v>       0.66658154      -0.00003214       0.00004474 </v>
    <v>       0.66911504       0.66784405      -0.00009107 </v>
    <v>       0.33078823      -0.00123093       0.00027951 </v>
    <v>       0.00124746      -0.00152783      -0.00022028 </v>
    <v>       0.00111231       0.66932772      -0.00021287 </v>
    <v>       0.99949699       0.33311289      -0.00014758 </v>
    <v>       0.33238289       0.33047015       0.00018368 </v>
    <v>       0.33226441       0.66846495       0.00019316 </v>
    <v>       0.11127324       0.22287838       0.95070631 </v>
    <v>       0.22283707       0.11211905       0.04930762 </v>
    <v>       0.11125405       0.55490198       0.95071144 </v>
    <v>       0.22235439       0.44453005       0.04930606 </v>
    <v>       0.11080157       0.88869820       0.95066904 </v>
    <v>       0.22281878       0.77733191       0.04931058 </v>
    <v>       0.44846209       0.22481504       0.95193215 </v>
    <v>       0.55988898       0.11298014       0.04682119 </v>
    <v>       0.44802408       0.55719964       0.95203332 </v>
    <v>       0.55894204       0.44585148       0.04687583 </v>
    <v>       0.44844005       0.89006272       0.95194538 </v>
    <v>       0.55894743       0.77918915       0.04687062 </v>
    <v>       0.77423657       0.22063214       0.95309623 </v>
    <v>       0.88478827       0.10977429       0.04798537 </v>
    <v>       0.77328300       0.55352880       0.95313404 </v>
    <v>       0.88477071       0.44173415       0.04799853 </v>
    <v>       0.77327557       0.88679893       0.95313940 </v>
    <v>       0.88425229       0.77546452       0.04808501 </v>
   </varray>
  </structure>
  <varray name="forces" >
   <v>       0.00257930      -0.00460376       0.08909611 </v>
   <v>      -0.00659820      -0.00076598       0.08964236 </v>
   <v>       0.18195760       0.32015292      -0.11077704 </v>
   <v>      -0.32258825      -0.55889299       0.02205392 </v>
   <v>       0.55602900       0.20861282      -0.03715180 </v>
   <v>      -0.09221319       0.58679559      -0.03319897 </v>
   <v>       0.07171892       0.13696507       0.08887170 </v>
   <v>       0.17843301      -0.51727842      -0.07829096 </v>
   <v>      -0.53117573      -0.10733382      -0.07237259 </v>
   <v>      -0.06074432       0.09487946      -0.03333240 </v>
   <v>      -0.04853550       0.08754601       0.29324213 </v>
   <v>       0.09555576       0.00535788      -0.04081642 </v>
   <v>       0.01970068       0.00930054      -0.11422613 </v>
   <v>       0.00076306       0.00919828      -0.40040695 </v>
   <v>       0.11311545      -0.00526939       0.28544730 </v>
   <v>      -0.09635434       0.04139707       0.07191018 </v>
   <v>       0.00611514       0.03743373      -0.13759054 </v>
   <v>      -0.06336306      -0.08055774       0.38506473 </v>
   <v>      -0.04959842      -0.07170441      -0.13550769 </v>
   <v>       0.06438975      -0.05004611       0.07232637 </v>
   <v>      -0.06083558      -0.06802940      -0.14139717 </v>
   <v>       0.05127232       0.06161382       0.04817994 </v>
   <v>      -0.06407332       0.05204179      -0.17060542 </v>
   <v>      -0.01497341      -0.03419010       0.05439957 </v>
   <v>       0.09678720      -0.03849601      -0.17123954 </v>
   <v>       0.00243581      -0.04303948       0.05920575 </v>
   <v>      -0.02979968      -0.07108738       0.11747354 </v>
  </varray>
  <varray name="stress" >
   <v>     -19.94409918      -0.04593069      -0.00215946 </v>
   <v>      -0.04593057     -19.56041366      -0.07977663 </v>
   <v>      -0.00215929      -0.07977664      -1.85180695 </v>
  </varray>
  <energy>
   <i name="e_fr_energy">   -188.68743068 </i>
   <i name="e_wo_entrp">   -188.54507438 </i>
   <i name="e_0_energy">     -0.28471259 </i>
  </energy>
  <time name="totalsc">  398.13  399.38</time>
 </calculation>
 <calculation>
  <scstep>
   <time name="dav">   23.86   23.92</time>
   <time name="total">   24.39   24.45</time>
   <energy>
    <i name="alphaZ">     82.34696057 </i>
    <i name="ewald">  41303.45817584 </i>
    <i name="hartreedc"> -47302.34595295 </i>
    <i name="XCdc">   -233.85078236 </i>
    <i name="pawpsdc">   3950.28882942 </i>
    <i name="pawaedc">  -3364.79460603 </i>
    <i name="eentropy">     -0.24031560 </i>
    <i name="bandstr">  -1386.93262535 </i>
    <i name="atom">   6761.44252427 </i>
    <i name="e_fr_energy">   -190.62779219 </i>
    <i name="e_wo_entrp">   -190.38747659 </i>
    <i name="e_0_energy">   -190.50763439 </i>
   </energy>
  </scstep>
  <scstep>
   <time name="dav">   28.91   28.98</time>
   <time name="total">   29.44   29.52</time>
   <energy>
    <i name="e_fr_energy">   -190.54647729 </i>
    <i name="e_wo_entrp">   -190.30874510 </i>
    <i name="e_0_energy">   -190.42761119 </i>
   </energy>
  </scstep>
  <scstep>
   <time name="dav">   30.53   30.60</time>
   <time name="total">   31.05   31.13</time>
   <energy>
    <i name="e_fr_energy">   -190.12353294 </i>
    <i name="e_wo_entrp">   -189.87114565 </i>
    <i name="e_0_energy">   -189.99733930 </i>
   </energy>
  </scstep>
  <scstep>
   <time name="dav">   31.07   31.15</time>
   <time name="total">   31.61   31.69</time>
   <energy>
    <i name="e_fr_energy">   -189.89568573 </i>
    <i name="e_wo_entrp">   -189.65650331 </i>
    <i name="e_0_energy">   -189.77609452 </i>
   </energy>
  </scstep>
  <scstep>
   <time name="dav">   29.40   29.47</time>
   <time name="total">   29.94   30.01</time>
   <energy>
    <i name="e_fr_energy">   -189.81230880 </i>
    <i name="e_wo_entrp">   -189.56908411 </i>
    <i name="e_0_energy">   -189.69069646 </i>
   </energy>
  </scstep>
  <scstep>
   <time name="dav">   29.47   29.54</time>
   <time name="total">   30.00   30.08</time>
   <energy>
    <i name="e_fr_energy">   -189.80028599 </i>
    <i name="e_wo_entrp">   -189.55698222 </i>
    <i name="e_0_energy">   -189.67863410 </i>
   </energy>
  </scstep>
  <scstep>
   <time name="dav">   28.92   28.99</time>
   <time name="total">   29.45   29.53</time>
   <energy>
    <i name="e_fr_energy">   -189.79399305 </i>
    <i name="e_wo_entrp">   -189.55090185 </i>
    <i name="e_0_energy">   -189.67244745 </i>
   </energy>
  </scstep>
  <scstep>
   <time name="dav">   28.72   28.79</time>
   <time name="total">   29.25   29.33</time>
   <energy>
    <i name="e_fr_energy">   -189.79366506 </i>
    <i name="e_wo_entrp">   -189.55052522 </i>
    <i name="e_0_energy">   -189.67209514 </i>
   </energy>
  </scstep>
  <scstep>
   <time name="dav">   27.02   27.08</time>
   <time name="total">   27.55   27.62</time>
   <energy>
    <i name="e_fr_energy">   -189.79417875 </i>
    <i name="e_wo_entrp">   -189.55095357 </i>
    <i name="e_0_energy">   -189.67256616 </i>
   </energy>
  </scstep>
  <scstep>
   <time name="dav">   26.99   27.06</time>
   <time name="total">   27.52   27.60</time>
   <energy>
    <i name="e_fr_energy">   -189.79399893 </i>
    <i name="e_wo_entrp">   -189.55065922 </i>
    <i name="e_0_energy">   -189.67232907 </i>
   </energy>
  </scstep>
  <scstep>
   <time name="dav">   23.27   23.33</time>
   <time name="total">   23.81   23.87</time>
   <energy>
    <i name="e_fr_energy">   -189.79381893 </i>
    <i name="e_wo_entrp">   -189.55048098 </i>
    <i name="e_0_energy">   -189.67214996 </i>
   </energy>
  </scstep>
  <scstep>
   <time name="dav">   17.33   17.37</time>
   <time name="total">   17.37   17.42</time>
   <energy>
    <i name="alphaZ">     82.34696057 </i>
    <i name="ewald">  41303.45817584 </i>
    <i name="hartreedc"> -47275.58856748 </i>
    <i name="XCdc">   -235.24710368 </i>
    <i name="pawpsdc">   4038.89377334 </i>
    <i name="pawaedc">  -3454.59955913 </i>
    <i name="eentropy">     -0.24332525 </i>
    <i name="bandstr">  -1410.25670087 </i>
    <i name="atom">   6761.44252427 </i>
    <i name="e_fr_energy">   -189.79382239 </i>
    <i name="e_wo_entrp">   -189.55049714 </i>
    <i name="e_0_energy">   -189.67215976 </i>
   </energy>
  </scstep>
  <structure>
   <crystal>
    <varray name="basis" >
     <v>       8.66780138       5.00282893       0.00000000 </v>
     <v>      -8.66442953       4.99703312       0.00000000 </v>
     <v>       0.00000000       0.00000000      30.00000000 </v>
    </varray>
    <i name="volume">   2599.79848003 </i>
    <varray name="rec_basis" >
     <v>       0.05766254       0.09998194       0.00000000 </v>
     <v>      -0.05772942       0.10002085       0.00000000 </v>
     <v>       0.00000000       0.00000000       0.03333333 </v>
    </varray>
   </crystal>
   <varray name="positions" >
    <v>       0.66657023       0.33328488       0.00009299 </v>
    <v>       0.66657393      -0.00002708       0.00009552 </v>
    <v>       0.66982215       0.66820217      -0.00015383 </v>
    <v>       0.32954908      -0.00185135       0.00029200 </v>
    <v>       0.00212774      -0.00171456      -0.00024132 </v>
    <v>       0.00200008       0.67039291      -0.00023168 </v>
    <v>       0.99979362       0.33327197      -0.00009724 </v>
    <v>       0.33169345       0.32943787       0.00013933 </v>
    <v>       0.33157645       0.66879638       0.00015216 </v>
    <v>       0.11137283       0.22309463       0.95068743 </v>
    <v>       0.22293617       0.11231137       0.04947373 </v>
    <v>       0.11135460       0.55481913       0.95068832 </v>
    <v>       0.22238876       0.44452661       0.04924135 </v>
    <v>       0.11081761       0.88871278       0.95044223 </v>
    <v>       0.22291849       0.77721452       0.04947227 </v>
    <v>       0.44843856       0.22497647       0.95197288 </v>
    <v>       0.55995712       0.11303657       0.04674325 </v>
    <v>       0.44782930       0.55712641       0.95225144 </v>
    <v>       0.55877518       0.44577977       0.04679907 </v>
    <v>       0.44841855       0.88991759       0.95198635 </v>
    <v>       0.55877592       0.77913434       0.04679053 </v>
    <v>       0.77438824       0.22068545       0.95312352 </v>
    <v>       0.88481340       0.10992244       0.04788873 </v>
    <v>       0.77321176       0.55348628       0.95316486 </v>
    <v>       0.88479948       0.44157714       0.04790153 </v>
    <v>       0.77320630       0.88672496       0.95317294 </v>
    <v>       0.88410545       0.77537482       0.04815155 </v>
   </varray>
  </structure>
  <varray name="forces" >
   <v>       0.00641070      -0.00508300       0.08521535 </v>
   <v>      -0.00584020       0.00236269       0.08540184 </v>
   <v>       0.17292849       0.30573000      -0.09710751 </v>
   <v>      -0.35667228      -0.61621949      -0.01324260 </v>
   <v>       0.56599049       0.29527902      -0.00020755 </v>
   <v>      -0.02499114       0.63922455       0.00010848 </v>
   <v>       0.11603802       0.20923029       0.10753865 </v>
   <v>       0.12071200      -0.57125617      -0.10036402 </v>
   <v>      -0.54371658      -0.18300163      -0.09852216 </v>
   <v>      -0.02002724       0.01303309      -0.59851469 </v>
   <v>      -0.00679227      -0.00190644       0.87477665 </v>
   <v>       0.00712706      -0.00121344      -0.60582653 </v>
   <v>       0.02580712       0.02151503       0.44167238 </v>
   <v>       0.00649592       0.01893989      -0.97438221 </v>
   <v>       0.01184776      -0.01080060       0.86885633 </v>
   <v>       0.04146025       0.08686923      -0.42037680 </v>
   <v>       0.02809126       0.07805807       0.29246875 </v>
   <v>       0.00354837       0.03364608      -0.07543830 </v>
   <v>       0.01454365       0.05927263       0.31312504 </v>
   <v>       0.03669195       0.08970427      -0.42052111 </v>
   <v>       0.02131742       0.05289470       0.31001430 </v>
   <v>      -0.02715520      -0.07166839      -0.41561476 </v>
   <v>      -0.03017898      -0.07873204       0.30506926 </v>
   <v>      -0.03411713      -0.08462635      -0.38704773 </v>
   <v>      -0.03589909      -0.07595425       0.30572126 </v>
   <v>      -0.03025620      -0.08367582      -0.38328340 </v>
   <v>      -0.06336416      -0.12162190       0.60048109 </v>
  </varray>
  <varray name="stress" >
   <v>     -10.16421061      -0.01640877      -0.02838914 </v>
   <v>      -0.01640870      -9.84531806      -0.09552881 </v>
   <v>      -0.02838904      -0.09552855       6.48186974 </v>
  </varray>
  <energy>
   <i name="e_fr_energy">   -189.79382239 </i>
   <i name="e_wo_entrp">   -189.67215976 </i>
   <i name="e_0_energy">     -0.24332525 </i>
  </energy>
  <time name="totalsc">  373.10  374.08</time>
 </calculation>
 <calculation>
  <scstep>
   <time name="dav">   21.65   21.70</time>
   <time name="total">   22.16   22.22</time>
   <energy>
    <i name="alphaZ">     85.82043266 </i>
    <i name="ewald">  42834.33372251 </i>
    <i name="hartreedc"> -48850.79716490 </i>
    <i name="XCdc">   -232.96124708 </i>
    <i name="pawpsdc">   4038.91608383 </i>
    <i name="pawaedc">  -3454.61946207 </i>
    <i name="eentropy">     -0.20905845 </i>
    <i name="bandstr">  -1373.33368973 </i>
    <i name="atom">   6761.44252427 </i>
    <i name="e_fr_energy">   -191.40785896 </i>
    <i name="e_wo_entrp">   -191.19880051 </i>
    <i name="e_0_energy">   -191.30332973 </i>
   </energy>
  </scstep>
  <scstep>
   <time name="dav">   31.51   31.59</time>
   <time name="total">   32.03   32.11</time>
   <energy>
    <i name="e_fr_energy">   -191.15924140 </i>
    <i name="e_wo_entrp">   -190.95028361 </i>
    <i name="e_0_energy">   -191.05476250 </i>
   </energy>
  </scstep>
  <scstep>
   <time name="dav">   30.16   30.24</time>
   <time name="total">   30.68   30.76</time>
   <energy>
    <i name="e_fr_energy">   -191.37526307 </i>
    <i name="e_wo_entrp">   -191.14763937 </i>
    <i name="e_0_energy">   -191.26145122 </i>
   </energy>
  </scstep>
  <scstep>
   <time name="dav">   30.11   30.18</time>
   <time name="total">   30.63   30.71</time>
   <energy>
    <i name="e_fr_energy">   -190.98464271 </i>
    <i name="e_wo_entrp">   -190.77658191 </i>
    <i name="e_0_energy">   -190.88061231 </i>
   </energy>
  </scstep>
  <scstep>
   <time name="dav">   30.08   30.15</time>
   <time name="total">   30.59   30.67</time>
   <energy>
    <i name="e_fr_energy">   -190.85866889 </i>
    <i name="e_wo_entrp">   -190.64460890 </i>
    <i name="e_0_energy">   -190.75163889 </i>
   </energy>
  </scstep>
  <scstep>
   <time name="dav">   30.00   30.08</time>
   <time name="total">   30.52   30.60</time>
   <energy>
    <i name="e_fr_energy">   -190.85998291 </i>
    <i name="e_wo_entrp">   -190.64396289 </i>
    <i name="e_0_energy">   -190.75197290 </i>
   </energy>
  </scstep>
  <scstep>
   <time name="dav">   29.07   29.14</time>
   <time name="total">   29.59   29.67</time>
   <energy>
    <i name="e_fr_energy">   -190.83854241 </i>
    <i name="e_wo_entrp">   -190.62262716 </i>
    <i name="e_0_energy">   -190.73058478 </i>
   </energy>
  </scstep>
  <scstep>
   <time name="dav">   28.81   28.88</time>
   <time name="total">   29.32   29.40</time>
   <energy>
    <i name="e_fr_energy">   -190.83470847 </i>
    <i name="e_wo_entrp">   -190.61926955 </i>
    <i name="e_0_energy">   -190.72698901 </i>
   </energy>
  </scstep>
  <scstep>
   <time name="dav">   31.27   31.35</time>
   <time name="total">   31.79   31.87</time>
   <energy>
    <i name="e_fr_energy">   -190.83466779 </i>
    <i name="e_wo_entrp">   -190.61917125 </i>
    <i name="e_0_energy">   -190.72691952 </i>
   </energy>
  </scstep>
  <scstep>
   <time name="dav">   27.75   27.81</time>
   <time name="total">   28.26   28.34</time>
   <energy>
    <i name="e_fr_energy">   -190.83446253 </i>
    <i name="e_wo_entrp">   -190.61886134 </i>
    <i name="e_0_energy">   -190.72666193 </i>
   </energy>
  </scstep>
  <scstep>
   <time name="dav">   19.77   19.82</time>
   <time name="total">   19.81   19.86</time>
   <energy>
    <i name="alphaZ">     85.82043266 </i>
    <i name="ewald">  42834.33372251 </i>
    <i name="hartreedc"> -48822.00735843 </i>
    <i name="XCdc">   -234.28617193 </i>
    <i name="pawpsdc">   4064.52222162 </i>
    <i name="pawaedc">  -3480.42297159 </i>
    <i name="eentropy">     -0.21569660 </i>
    <i name="bandstr">  -1400.02116316 </i>
    <i name="atom">   6761.44252427 </i>
    <i name="e_fr_energy">   -190.83446064 </i>
    <i name="e_wo_entrp">   -190.61876404 </i>
    <i name="e_0_energy">   -190.72661234 </i>
   </energy>
  </scstep>
  <structure>
   <crystal>
    <varray name="basis" >
     <v>       8.48603204       4.90305395       0.00000000 </v>
     <v>      -8.48282992       4.89754527       0.00000000 </v>
     <v>       0.00000000       0.00000000      30.00000000 </v>
    </varray>
    <i name="volume">   2494.57496646 </i>
    <varray name="rec_basis" >
     <v>       0.05889835       0.10201533       0.00000000 </v>
     <v>      -0.05896460       0.10205384       0.00000000 </v>
     <v>       0.00000000       0.00000000       0.03333333 </v>
    </varray>
   </crystal>
   <varray name="positions" >
    <v>       0.66656586       0.33322321       0.00026597 </v>
    <v>       0.66657650       0.00001551       0.00026858 </v>
    <v>       0.67231063       0.66946817      -0.00034312 </v>
    <v>       0.32421428      -0.00451360       0.00023473 </v>
    <v>       0.00624819      -0.00171009      -0.00021047 </v>
    <v>       0.00613652       0.67451855      -0.00020325 </v>
    <v>       1.00176493       0.33427856       0.00014101 </v>
    <v>       0.32833760       0.32537432      -0.00008697 </v>
    <v>       0.32826263       0.66944532      -0.00007377 </v>
    <v>       0.11123694       0.22298654       0.94897087 </v>
    <v>       0.22273713       0.11204154       0.05177560 </v>
    <v>       0.11122964       0.55489636       0.94895677 </v>
    <v>       0.22265566       0.44458965       0.05062562 </v>
    <v>       0.11099201       0.88882387       0.94794073 </v>
    <v>       0.22273477       0.77723569       0.05176348 </v>
    <v>       0.44944240       0.22528575       0.95068652 </v>
    <v>       0.56067948       0.11349320       0.04771234 </v>
    <v>       0.44843253       0.55751227       0.95170551 </v>
    <v>       0.55961619       0.44633201       0.04782661 </v>
    <v>       0.44942010       0.89073393       0.95069922 </v>
    <v>       0.55960229       0.77957132       0.04781399 </v>
    <v>       0.77339794       0.22011596       0.95187113 </v>
    <v>       0.88393521       0.10916468       0.04892251 </v>
    <v>       0.77240622       0.55298183       0.95199048 </v>
    <v>       0.88391129       0.44132866       0.04893775 </v>
    <v>       0.77242559       0.88625633       0.95200547 </v>
    <v>       0.88294192       0.77476492       0.04980261 </v>
   </varray>
  </structure>
  <varray name="forces" >
   <v>      -0.00137785      -0.00172402       0.05362005 </v>
   <v>       0.00032370      -0.00433933       0.05336321 </v>
   <v>       0.19114706       0.33343136      -0.05824937 </v>
   <v>      -0.34721780      -0.59851093      -0.04017301 </v>
   <v>       0.51750215       0.35166033       0.02967474 </v>
   <v>       0.05160851       0.62244627       0.02488565 </v>
   <v>       0.14350384       0.25987195       0.07447683 </v>
   <v>       0.14005157      -0.64054176      -0.05609387 </v>
   <v>      -0.61944284      -0.20150244      -0.06268932 </v>
   <v>       0.01083808      -0.09342615      -0.46137638 </v>
   <v>       0.04052027      -0.03911648       0.67367657 </v>
   <v>      -0.08622202      -0.03752052      -0.46130152 </v>
   <v>       0.03814802       0.06560931       0.29241448 </v>
   <v>      -0.00016773      -0.00543927      -0.76478243 </v>
   <v>      -0.05809294       0.01749899       0.67188847 </v>
   <v>       0.05732628      -0.05330948      -0.25893939 </v>
   <v>      -0.05290686      -0.07150891       0.21202411 </v>
   <v>      -0.02058726      -0.03642987       0.07516206 </v>
   <v>      -0.02636772      -0.01882144       0.19048254 </v>
   <v>      -0.07461379       0.02167133      -0.25468656 </v>
   <v>      -0.01939321      -0.02215754       0.19214224 </v>
   <v>       0.00712751      -0.00560946      -0.26751258 </v>
   <v>       0.07591000      -0.02121624       0.16124632 </v>
   <v>       0.04316331       0.05054026      -0.29340877 </v>
   <v>      -0.05913947       0.05604229       0.16366810 </v>
   <v>       0.03853277       0.05309920      -0.29549977 </v>
   <v>       0.00982644       0.01930253       0.40598760 </v>
  </varray>
  <varray name="stress" >
   <v>      -5.85912271       0.17816029      -0.02056833 </v>
   <v>       0.17816041      -5.67943068       0.09689265 </v>
   <v>      -0.02056835       0.09689258       4.56142731 </v>
  </varray>
  <energy>
   <i name="e_fr_energy">   -190.83446064 </i>
   <i name="e_wo_entrp">   -190.72661234 </i>
   <i name="e_0_energy">     -0.21569660 </i>
  </energy>
  <time name="totalsc">  357.10  358.04</time>
 </calculation>
 <calculation>
  <scstep>
   <time name="dav">   21.63   21.69</time>
   <time name="total">   22.15   22.20</time>
   <energy>
    <i name="alphaZ">     90.20618464 </i>
    <i name="ewald">  44679.28088730 </i>
    <i name="hartreedc"> -50722.43345423 </i>
    <i name="XCdc">   -231.82896759 </i>
    <i name="pawpsdc">   4064.61727912 </i>
    <i name="pawaedc">  -3480.51461586 </i>
    <i name="eentropy">     -0.20452312 </i>
    <i name="bandstr">  -1352.83000792 </i>
    <i name="atom">   6761.44252427 </i>
    <i name="e_fr_energy">   -192.26469339 </i>
    <i name="e_wo_entrp">   -192.06017027 </i>
    <i name="e_0_energy">   -192.16243183 </i>
   </energy>
  </scstep>
  <scstep>
   <time name="dav">   25.45   25.51</time>
   <time name="total">   25.96   26.03</time>
   <energy>
    <i name="e_fr_energy">   -191.97282559 </i>
    <i name="e_wo_entrp">   -191.75218363 </i>
    <i name="e_0_energy">   -191.86250461 </i>
   </energy>
  </scstep>
  <scstep>
   <time name="dav">   27.31   27.37</time>
   <time name="total">   27.81   27.89</time>
   <energy>
    <i name="e_fr_energy">   -191.84795805 </i>
    <i name="e_wo_entrp">   -191.64978676 </i>
    <i name="e_0_energy">   -191.74887241 </i>
   </energy>
  </scstep>
  <scstep>
   <time name="dav">   30.01   30.08</time>
   <time name="total">   30.52   30.60</time>
   <energy>
    <i name="e_fr_energy">   -191.86403190 </i>
    <i name="e_wo_entrp">   -191.64082646 </i>
    <i name="e_0_energy">   -191.75242918 </i>
   </energy>
  </scstep>
  <scstep>
   <time name="dav">   30.27   30.34</time>
   <time name="total">   30.78   30.86</time>
   <energy>
    <i name="e_fr_energy">   -191.61255580 </i>
    <i name="e_wo_entrp">   -191.40193755 </i>
    <i name="e_0_energy">   -191.50724667 </i>
   </energy>
  </scstep>
  <scstep>
   <time name="dav">   30.17   30.24</time>
   <time name="total">   30.68   30.76</time>
   <energy>
    <i name="e_fr_energy">   -191.61098729 </i>
    <i name="e_wo_entrp">   -191.39580906 </i>
    <i name="e_0_energy">   -191.50339818 </i>
   </energy>
  </scstep>
  <scstep>
   <time name="dav">   30.19   30.26</time>
   <time name="total">   30.69   30.78</time>
   <energy>
    <i name="e_fr_energy">   -191.57550820 </i>
    <i name="e_wo_entrp">   -191.35815843 </i>
    <i name="e_0_energy">   -191.46683331 </i>
   </energy>
  </scstep>
  <scstep>
   <time name="dav">   28.74   28.81</time>
   <time name="total">   29.25   29.32</time>
   <energy>
    <i name="e_fr_energy">   -191.57170631 </i>
    <i name="e_wo_entrp">   -191.35592994 </i>
    <i name="e_0_energy">   -191.46381813 </i>
   </energy>
  </scstep>
  <scstep>
   <time name="dav">   29.46   29.53</time>
   <time name="total">   29.97   30.05</time>
   <energy>
    <i name="e_fr_energy">   -191.57022766 </i>
    <i name="e_wo_entrp">   -191.35449172 </i>
    <i name="e_0_energy">   -191.46235969 </i>
   </energy>
  </scstep>
  <scstep>
   <time name="dav">   28.79   28.86</time>
   <time name="total">   29.30   29.38</time>
   <energy>
    <i name="e_fr_energy">   -191.57006670 </i>
    <i name="e_wo_entrp">   -191.35425906 </i>
    <i name="e_0_energy">   -191.46216288 </i>
   </energy>
  </scstep>
  <scstep>
   <time name="dav">   24.80   24.86</time>
   <time name="total">   24.84   24.91</time>
   <energy>
    <i name="alphaZ">     90.20618464 </i>
    <i name="ewald">  44679.28088730 </i>
    <i name="hartreedc"> -50688.56574658 </i>
    <i name="XCdc">   -233.33936306 </i>
    <i name="pawpsdc">   4089.02958530 </i>
    <i name="pawaedc">  -3505.07571783 </i>
    <i name="eentropy">     -0.21597487 </i>
    <i name="bandstr">  -1384.33239943 </i>
    <i name="atom">   6761.44252427 </i>
    <i name="e_fr_energy">   -191.57002026 </i>
    <i name="e_wo_entrp">   -191.35404539 </i>
    <i name="e_0_energy">   -191.46203283 </i>
   </energy>
  </scstep>
  <structure>
   <crystal>
    <varray name="basis" >
     <v>       8.27753775       4.79486501       0.00000000 </v>
     <v>      -8.26342734       4.77046122       0.00000000 </v>
     <v>       0.00000000       0.00000000      30.00000000 </v>
    </varray>
    <i name="volume">   2373.29074253 </i>
    <varray name="rec_basis" >
     <v>       0.06030186       0.10445531       0.00000000 </v>
     <v>      -0.06061034       0.10463368       0.00000000 </v>
     <v>       0.00000000       0.00000000       0.03333333 </v>
    </varray>
   </crystal>
   <varray name="positions" >
    <v>       0.66654165       0.33319069       0.00049530 </v>
    <v>       0.66654082      -0.00001540       0.00049675 </v>
    <v>       0.67767682       0.67217089      -0.00058531 </v>
    <v>       0.31407172      -0.00956593       0.00005232 </v>
    <v>       0.01451235      -0.00096452      -0.00007034 </v>
    <v>       0.01442112       0.68199153      -0.00008328 </v>
    <v>       1.00617594       0.33654518       0.00047755 </v>
    <v>       0.32126045       0.31652499      -0.00035883 </v>
    <v>       0.32121197       0.67113791      -0.00037171 </v>
    <v>       0.11013796       0.22165532       0.94647675 </v>
    <v>       0.22236891       0.11104572       0.05517616 </v>
    <v>       0.11013406       0.55514836       0.94645914 </v>
    <v>       0.22369907       0.44509181       0.05243602 </v>
    <v>       0.11100896       0.88881103       0.94417584 </v>
    <v>       0.22237059       0.77790602       0.05515646 </v>
    <v>       0.44977631       0.22436836       0.94906756 </v>
    <v>       0.55990250       0.11324087       0.04903681 </v>
    <v>       0.44842112       0.55752334       0.95147061 </v>
    <v>       0.55985518       0.44665293       0.04910543 </v>
    <v>       0.44973809       0.89199527       0.94909447 </v>
    <v>       0.55984547       0.77973665       0.04909968 </v>
    <v>       0.77271545       0.21966142       0.95025306 </v>
    <v>       0.88369138       0.10792805       0.05012171 </v>
    <v>       0.77285833       0.55303165       0.95031956 </v>
    <v>       0.88365107       0.44231414       0.05014703 </v>
    <v>       0.77288761       0.88641129       0.95032824 </v>
    <v>       0.88273957       0.77467690       0.05202291 </v>
   </varray>
  </structure>
  <varray name="forces" >
   <v>      -0.03776311      -0.00584142       0.05687379 </v>
   <v>       0.01657114      -0.03797518       0.06006424 </v>
   <v>       0.25644902       0.44333053      -0.07438813 </v>
   <v>       0.00455014       0.00873755       0.06019461 </v>
   <v>      -0.01015821       0.09376000      -0.11308551 </v>
   <v>       0.09868081       0.03528651      -0.10420904 </v>
   <v>       0.13267898       0.23855132      -0.04152075 </v>
   <v>       0.13612397      -0.46331018       0.08055390 </v>
   <v>      -0.47807477      -0.11355899       0.09266184 </v>
   <v>       0.01398626      -0.17439803      -0.18018073 </v>
   <v>       0.11129501      -0.02558709       0.26664217 </v>
   <v>      -0.15573233      -0.07732058      -0.19007922 </v>
   <v>       0.07439720       0.13475189       0.02029642 </v>
   <v>      -0.04430772      -0.07583411      -0.23829618 </v>
   <v>      -0.07611442       0.08396110       0.26030172 </v>
   <v>       0.01773040      -0.24673177       0.00094778 </v>
   <v>      -0.12049316      -0.20972711      -0.05857494 </v>
   <v>      -0.09749062      -0.17723828       0.42357978 </v>
   <v>      -0.09711252      -0.11965030      -0.12196340 </v>
   <v>      -0.22241105      -0.10635844      -0.00269537 </v>
   <v>      -0.05627404      -0.14295994      -0.12160550 </v>
   <v>       0.04735555       0.08264836       0.05138714 </v>
   <v>       0.17778338       0.10022292      -0.10473590 </v>
   <v>       0.11519182       0.18187307      -0.00667430 </v>
   <v>      -0.00699044       0.20638495      -0.10211962 </v>
   <v>       0.09845540       0.19310680      -0.00850577 </v>
   <v>       0.10167332       0.17387642       0.09513097 </v>
  </varray>
  <varray name="stress" >
   <v>       0.13815446       0.60257794       0.37913393 </v>
   <v>       0.60257789       0.87912542       0.67955936 </v>
   <v>       0.37913392       0.67955931      -0.73774103 </v>
  </varray>
  <energy>
   <i name="e_fr_energy">   -191.57002026 </i>
   <i name="e_wo_entrp">   -191.46203283 </i>
   <i name="e_0_energy">     -0.21597487 </i>
  </energy>
  <time name="totalsc">  353.84  354.77</time>
 </calculation>
 <calculation>
  <scstep>
   <time name="dav">   21.74   21.79</time>
   <time name="total">   22.25   22.31</time>
   <energy>
    <i name="alphaZ">     89.88584980 </i>
    <i name="ewald">  44519.41433417 </i>
    <i name="hartreedc"> -50525.82587993 </i>
    <i name="XCdc">   -233.62648220 </i>
    <i name="pawpsdc">   4089.27928439 </i>
    <i name="pawaedc">  -3505.32173229 </i>
    <i name="eentropy">     -0.21670259 </i>
    <i name="bandstr">  -1386.67660579 </i>
    <i name="atom">   6761.44252427 </i>
    <i name="e_fr_energy">   -191.64541016 </i>
    <i name="e_wo_entrp">   -191.42870757 </i>
    <i name="e_0_energy">   -191.53705887 </i>
   </energy>
  </scstep>
  <scstep>
   <time name="dav">   30.67   30.75</time>
   <time name="total">   31.18   31.26</time>
   <energy>
    <i name="e_fr_energy">   -191.72287419 </i>
    <i name="e_wo_entrp">   -191.49530480 </i>
    <i name="e_0_energy">   -191.60908949 </i>
   </energy>
  </scstep>
  <scstep>
   <time name="dav">   30.64   30.71</time>
   <time name="total">   31.14   31.22</time>
   <energy>
    <i name="e_fr_energy">   -191.65650773 </i>
    <i name="e_wo_entrp">   -191.43901006 </i>
    <i name="e_0_energy">   -191.54775889 </i>
   </energy>
  </scstep>
  <scstep>
   <time name="dav">   26.91   26.97</time>
   <time name="total">   27.42   27.50</time>
   <energy>
    <i name="e_fr_energy">   -191.66120004 </i>
    <i name="e_wo_entrp">   -191.44248422 </i>
    <i name="e_0_energy">   -191.55184213 </i>
   </energy>
  </scstep>
  <scstep>
   <time name="dav">   27.15   27.22</time>
   <time name="total">   27.66   27.73</time>
   <energy>
    <i name="e_fr_energy">   -191.65218804 </i>
    <i name="e_wo_entrp">   -191.43233561 </i>
    <i name="e_0_energy">   -191.54226183 </i>
   </energy>
  </scstep>
  <scstep>
   <time name="dav">   28.12   28.19</time>
   <time name="total">   28.63   28.70</time>
   <energy>
    <i name="e_fr_energy">   -191.65176589 </i>
    <i name="e_wo_entrp">   -191.43333863 </i>
    <i name="e_0_energy">   -191.54255226 </i>
   </energy>
  </scstep>
  <scstep>
   <time name="dav">   27.54   27.61</time>
   <time name="total">   28.05   28.13</time>
   <energy>
    <i name="e_fr_energy">   -191.65155352 </i>
    <i name="e_wo_entrp">   -191.43266402 </i>
    <i name="e_0_energy">   -191.54210877 </i>
   </energy>
  </scstep>
  <scstep>
   <time name="dav">   22.73   22.79</time>
   <time name="total">   23.24   23.30</time>
   <energy>
    <i name="e_fr_energy">   -191.65145165 </i>
    <i name="e_wo_entrp">   -191.43252880 </i>
    <i name="e_0_energy">   -191.54199022 </i>
   </energy>
  </scstep>
  <scstep>
   <time name="dav">   17.39   17.43</time>
   <time name="total">   17.43   17.48</time>
   <energy>
    <i name="alphaZ">     89.88584980 </i>
    <i name="ewald">  44519.41433417 </i>
    <i name="hartreedc"> -50529.45667839 </i>
    <i name="XCdc">   -233.50116095 </i>
    <i name="pawpsdc">   4084.29877975 </i>
    <i name="pawaedc">  -3500.27430549 </i>
    <i name="eentropy">     -0.21892012 </i>
    <i name="bandstr">  -1383.24184066 </i>
    <i name="atom">   6761.44252427 </i>
    <i name="e_fr_energy">   -191.65141761 </i>
    <i name="e_wo_entrp">   -191.43249749 </i>
    <i name="e_0_energy">   -191.54195755 </i>
   </energy>
  </scstep>
  <structure>
   <crystal>
    <varray name="basis" >
     <v>       8.29184078       4.81984249       0.00000000 </v>
     <v>      -8.26372186       4.77117031       0.00000000 </v>
     <v>       0.00000000       0.00000000      30.00000000 </v>
    </varray>
    <i name="volume">   2381.74866698 </i>
    <varray name="rec_basis" >
     <v>       0.06009665       0.10408808       0.00000000 </v>
     <v>      -0.06070971       0.10444226       0.00000000 </v>
     <v>       0.00000000       0.00000000       0.03333333 </v>
    </varray>
   </crystal>
   <varray name="positions" >
    <v>       0.66641122       0.33326852       0.00057301 </v>
    <v>       0.66640695      -0.00024097       0.00057934 </v>
    <v>       0.68029577       0.67347763      -0.00068922 </v>
    <v>       0.31448958      -0.00935566       0.00015035 </v>
    <v>       0.01463261      -0.00051951      -0.00024695 </v>
    <v>       0.01456138       0.68162062      -0.00024572 </v>
    <v>       1.00751131       0.33723178       0.00040199 </v>
    <v>       0.31968867       0.31425908      -0.00022624 </v>
    <v>       0.31961591       0.67186018      -0.00021988 </v>
    <v>       0.10938820       0.22083733       0.94630666 </v>
    <v>       0.22256937       0.11065809       0.05544402 </v>
    <v>       0.10937979       0.55519839       0.94627429 </v>
    <v>       0.22450619       0.44551050       0.05238821 </v>
    <v>       0.11052528       0.88857184       0.94396366 </v>
    <v>       0.22257716       0.77848997       0.05541500 </v>
    <v>       0.44862900       0.22317591       0.94913947 </v>
    <v>       0.55859369       0.11257890       0.04889050 </v>
    <v>       0.44730006       0.55694174       0.95213269 </v>
    <v>       0.55899779       0.44633182       0.04886380 </v>
    <v>       0.44859962       0.89204685       0.94916044 </v>
    <v>       0.55898929       0.77919936       0.04885835 </v>
    <v>       0.77327678       0.21994764       0.95040047 </v>
    <v>       0.88467452       0.10796863       0.04990808 </v>
    <v>       0.77403185       0.55358330       0.95037973 </v>
    <v>       0.88463256       0.44328239       0.04993700 </v>
    <v>       0.77406798       0.88705773       0.95038581 </v>
    <v>       0.88386193       0.77523238       0.05207507 </v>
   </varray>
  </structure>
  <varray name="forces" >
   <v>      -0.06048788      -0.03717569       0.07030491 </v>
   <v>      -0.00074045      -0.07342967       0.07189737 </v>
   <v>       0.29387694       0.50683079      -0.03681918 </v>
   <v>      -0.08064670      -0.13904964      -0.04845414 </v>
   <v>       0.11328174       0.14281159       0.00653085 </v>
   <v>       0.07659864       0.16397608       0.00194272 </v>
   <v>       0.14402265       0.26678913       0.00100974 </v>
   <v>       0.16864261      -0.51779472      -0.00608206 </v>
   <v>      -0.53591203      -0.11440445      -0.01092128 </v>
   <v>       0.00721429      -0.07361257      -0.15189486 </v>
   <v>       0.04573591      -0.07958501       0.21212237 </v>
   <v>      -0.06394643      -0.02908673      -0.15516041 </v>
   <v>       0.04060373       0.07383396      -0.00963497 </v>
   <v>      -0.00424768      -0.01209516      -0.12749595 </v>
   <v>      -0.09377766       0.00268538       0.21783539 </v>
   <v>      -0.00160049      -0.14519999       0.00264789 </v>
   <v>      -0.05862683      -0.09953701      -0.04022759 </v>
   <v>      -0.06090284      -0.10805937       0.47997021 </v>
   <v>      -0.08089666      -0.07816526      -0.14510758 </v>
   <v>      -0.12293576      -0.07497833       0.00277105 </v>
   <v>      -0.02936572      -0.10816937      -0.14402820 </v>
   <v>       0.03431002       0.05817176       0.08249361 </v>
   <v>       0.07153648       0.06302563      -0.12538173 </v>
   <v>       0.08353348       0.09925465      -0.04235360 </v>
   <v>       0.01488407       0.09424438      -0.11982589 </v>
   <v>       0.04421545       0.12255961      -0.04368922 </v>
   <v>       0.05563112       0.09616000       0.05755056 </v>
  </varray>
  <varray name="stress" >
   <v>      -0.14943357      -0.01026913       0.05803941 </v>
   <v>      -0.01026939      -0.16474942       0.14369878 </v>
   <v>       0.05803939       0.14369869      -1.38232039 </v>
  </varray>
  <energy>
   <i name="e_fr_energy">   -191.65141761 </i>
   <i name="e_wo_entrp">   -191.54195755 </i>
   <i name="e_0_energy">     -0.21892012 </i>
  </energy>
  <time name="totalsc">  278.78  279.52</time>
 </calculation>
 <calculation>
  <scstep>
   <time name="dav">   21.60   21.65</time>
   <time name="total">   22.11   22.16</time>
   <energy>
    <i name="alphaZ">     89.98629314 </i>
    <i name="ewald">  44567.44525692 </i>
    <i name="hartreedc"> -50578.36522330 </i>
    <i name="XCdc">   -233.42609800 </i>
    <i name="pawpsdc">   4083.85762183 </i>
    <i name="pawaedc">  -3499.82917990 </i>
    <i name="eentropy">     -0.21747289 </i>
    <i name="bandstr">  -1382.62264796 </i>
    <i name="atom">   6761.44252427 </i>
    <i name="e_fr_energy">   -191.72892588 </i>
    <i name="e_wo_entrp">   -191.51145300 </i>
    <i name="e_0_energy">   -191.62018944 </i>
   </energy>
  </scstep>
  <scstep>
   <time name="dav">   32.14   32.22</time>
   <time name="total">   32.65   32.74</time>
   <energy>
    <i name="e_fr_energy">   -191.78505935 </i>
    <i name="e_wo_entrp">   -191.55551930 </i>
    <i name="e_0_energy">   -191.67028933 </i>
   </energy>
  </scstep>
  <scstep>
   <time name="dav">   30.62   30.69</time>
   <time name="total">   31.13   31.21</time>
   <energy>
    <i name="e_fr_energy">   -191.73714351 </i>
    <i name="e_wo_entrp">   -191.51907542 </i>
    <i name="e_0_energy">   -191.62810947 </i>
   </energy>
  </scstep>
  <scstep>
   <time name="dav">   26.55   26.62</time>
   <time name="total">   27.06   27.13</time>
   <energy>
    <i name="e_fr_energy">   -191.73871048 </i>
    <i name="e_wo_entrp">   -191.52014537 </i>
    <i name="e_0_energy">   -191.62942793 </i>
   </energy>
  </scstep>
  <scstep>
   <time name="dav">   27.70   27.77</time>
   <time name="total">   28.21   28.29</time>
   <energy>
    <i name="e_fr_energy">   -191.73389764 </i>
    <i name="e_wo_entrp">   -191.51382972 </i>
    <i name="e_0_energy">   -191.62386368 </i>
   </energy>
  </scstep>
  <scstep>
   <time name="dav">   26.62   26.68</time>
   <time name="total">   27.13   27.20</time>
   <energy>
    <i name="e_fr_energy">   -191.73367686 </i>
    <i name="e_wo_entrp">   -191.51415528 </i>
    <i name="e_0_energy">   -191.62391607 </i>
   </energy>
  </scstep>
  <scstep>
   <time name="dav">   27.49   27.56</time>
   <time name="total">   28.00   28.07</time>
   <energy>
    <i name="e_fr_energy">   -191.73356402 </i>
    <i name="e_wo_entrp">   -191.51357699 </i>
    <i name="e_0_energy">   -191.62357050 </i>
   </energy>
  </scstep>
  <scstep>
   <time name="dav">   22.49   22.55</time>
   <time name="total">   22.53   22.59</time>
   <energy>
    <i name="alphaZ">     89.98629314 </i>
    <i name="ewald">  44567.44525692 </i>
    <i name="hartreedc"> -50578.21727083 </i>
    <i name="XCdc">   -233.44326327 </i>
    <i name="pawpsdc">   4087.07167453 </i>
    <i name="pawaedc">  -3503.08273476 </i>
    <i name="eentropy">     -0.21996550 </i>
    <i name="bandstr">  -1382.71598675 </i>
    <i name="atom">   6761.44252427 </i>
    <i name="e_fr_energy">   -191.73347223 </i>
    <i name="e_wo_entrp">   -191.51350674 </i>
    <i name="e_0_energy">   -191.62348948 </i>
   </energy>
  </scstep>
  <structure>
   <crystal>
    <varray name="basis" >
     <v>       8.28723689       4.81745673       0.00000000 </v>
     <v>      -8.25885780       4.76833415       0.00000000 </v>
[...]
      <set comment="kpoint 31">
       <r>  -17.5108    1.0000 </r>
       <r>  -17.2785    1.0000 </r>
       <r>  -16.8918    1.0000 </r>
       <r>  -16.5506    1.0000 </r>
       <r>  -16.5289    1.0000 </r>
       <r>  -16.4705    1.0000 </r>
       <r>  -16.2525    1.0000 </r>
       <r>  -16.1649    1.0000 </r>
       <r>  -16.1396    1.0000 </r>
       <r>  -16.1063    1.0000 </r>
       <r>  -15.8726    1.0000 </r>
       <r>  -15.8553    1.0000 </r>
       <r>  -15.8126    1.0000 </r>
       <r>  -15.6736    1.0000 </r>
       <r>  -15.6092    1.0000 </r>
       <r>  -15.5196    1.0000 </r>
       <r>  -15.4022    1.0000 </r>
       <r>  -15.3654    1.0000 </r>
       <r>   -9.7817    1.0000 </r>
       <r>   -9.5050    1.0000 </r>
       <r>   -9.2606    1.0000 </r>
       <r>   -8.9151    1.0000 </r>
       <r>   -8.8085    1.0000 </r>
       <r>   -8.7060    1.0000 </r>
       <r>   -8.6275    1.0000 </r>
       <r>   -8.5421    1.0000 </r>
       <r>   -8.4010    1.0000 </r>
       <r>   -8.3579    1.0000 </r>
       <r>   -8.2619    1.0000 </r>
       <r>   -8.1384    1.0000 </r>
       <r>   -8.0650    1.0000 </r>
       <r>   -7.9961    1.0000 </r>
       <r>   -7.9651    1.0000 </r>
       <r>   -7.9120    1.0000 </r>
       <r>   -7.7993    1.0000 </r>
       <r>   -7.6798    1.0000 </r>
       <r>   -7.5892    1.0000 </r>
       <r>   -7.4606    1.0000 </r>
       <r>   -7.4171    1.0000 </r>
       <r>   -7.2269    1.0000 </r>
       <r>   -7.0969    1.0000 </r>
       <r>   -7.0440    1.0000 </r>
       <r>   -6.9592    1.0000 </r>
       <r>   -6.9024    1.0000 </r>
       <r>   -6.7994    1.0000 </r>
       <r>   -6.7527    1.0000 </r>
       <r>   -6.6753    1.0000 </r>
       <r>   -6.6320    1.0000 </r>
       <r>   -6.5764    1.0000 </r>
       <r>   -6.5307    1.0000 </r>
       <r>   -6.4567    1.0000 </r>
       <r>   -6.4071    1.0000 </r>
       <r>   -6.3271    1.0000 </r>
       <r>   -6.1555    1.0000 </r>
       <r>   -6.1339    1.0000 </r>
       <r>   -6.0569    1.0000 </r>
       <r>   -5.9715    1.0000 </r>
       <r>   -5.9372    1.0000 </r>
       <r>   -5.8557    1.0000 </r>
       <r>   -5.8208    1.0000 </r>
       <r>   -5.7152    1.0000 </r>
       <r>   -5.6285    1.0000 </r>
       <r>   -5.6077    1.0000 </r>
       <r>   -5.4384    1.0000 </r>
       <r>   -5.2780    1.0000 </r>
       <r>   -5.1709    1.0000 </r>
       <r>   -5.0310    1.0000 </r>
       <r>   -4.8965    1.0000 </r>
       <r>   -4.8083    1.0000 </r>
       <r>   -4.7047    1.0000 </r>
       <r>   -4.5147    1.0000 </r>
       <r>   -4.4206    1.0000 </r>
       <r>   -4.3459    1.0000 </r>
       <r>   -4.2267    1.0000 </r>
       <r>   -4.1839    1.0000 </r>
       <r>   -4.0129    1.0000 </r>
       <r>   -3.8158    1.0000 </r>
       <r>   -3.6027    0.9981 </r>
       <r>   -3.3446    0.8592 </r>
       <r>   -3.1445    0.3678 </r>
       <r>   -3.0698    0.1933 </r>
       <r>   -2.8341    0.0057 </r>
       <r>   -2.7348    0.0006 </r>
       <r>   -2.6443    0.0001 </r>
       <r>   -2.5678    0.0000 </r>
       <r>   -2.4896    0.0000 </r>
       <r>   -2.4055    0.0000 </r>
       <r>   -2.1637    0.0000 </r>
       <r>   -2.0624    0.0000 </r>
       <r>   -1.9736    0.0000 </r>
       <r>   -1.8250    0.0000 </r>
       <r>   -1.5429    0.0000 </r>
       <r>   -1.4355    0.0000 </r>
       <r>   -1.2740    0.0000 </r>
       <r>   -1.2288    0.0000 </r>
       <r>   -1.1381    0.0000 </r>
       <r>   -1.0661    0.0000 </r>
       <r>   -0.9904    0.0000 </r>
       <r>   -0.9261    0.0000 </r>
       <r>   -0.8723    0.0000 </r>
       <r>   -0.8058    0.0000 </r>
       <r>   -0.7217    0.0000 </r>
       <r>   -0.6702    0.0000 </r>
       <r>   -0.6205    0.0000 </r>
       <r>   -0.4612    0.0000 </r>
       <r>   -0.3370    0.0000 </r>
       <r>   -0.2306    0.0000 </r>
       <r>   -0.1058    0.0000 </r>
       <r>    0.0415    0.0000 </r>
       <r>    0.2420    0.0000 </r>
       <r>    0.3044    0.0000 </r>
       <r>    0.4486    0.0000 </r>
       <r>    0.8125    0.0000 </r>
       <r>    0.8791    0.0000 </r>
       <r>    1.1587    0.0000 </r>
       <r>    1.3369    0.0000 </r>
       <r>    1.4681    0.0000 </r>
       <r>    2.1405    0.0000 </r>
       <r>    2.2890    0.0000 </r>
       <r>    2.4002    0.0000 </r>
      </set>
      <set comment="kpoint 32">
       <r>  -17.5281    1.0000 </r>
       <r>  -17.2026    1.0000 </r>
       <r>  -17.0038    1.0000 </r>
       <r>  -16.5506    1.0000 </r>
       <r>  -16.5101    1.0000 </r>
       <r>  -16.3566    1.0000 </r>
       <r>  -16.2779    1.0000 </r>
       <r>  -16.1919    1.0000 </r>
       <r>  -16.1538    1.0000 </r>
       <r>  -16.1009    1.0000 </r>
       <r>  -15.8984    1.0000 </r>
       <r>  -15.8772    1.0000 </r>
       <r>  -15.8021    1.0000 </r>
       <r>  -15.6801    1.0000 </r>
       <r>  -15.6009    1.0000 </r>
       <r>  -15.5053    1.0000 </r>
       <r>  -15.4080    1.0000 </r>
       <r>  -15.3559    1.0000 </r>
       <r>   -9.7215    1.0000 </r>
       <r>   -9.5996    1.0000 </r>
       <r>   -9.3191    1.0000 </r>
       <r>   -8.8944    1.0000 </r>
       <r>   -8.7150    1.0000 </r>
       <r>   -8.6636    1.0000 </r>
       <r>   -8.5795    1.0000 </r>
       <r>   -8.4434    1.0000 </r>
       <r>   -8.4132    1.0000 </r>
       <r>   -8.3564    1.0000 </r>
       <r>   -8.2708    1.0000 </r>
       <r>   -8.1897    1.0000 </r>
       <r>   -8.1447    1.0000 </r>
       <r>   -8.0741    1.0000 </r>
       <r>   -8.0264    1.0000 </r>
       <r>   -7.9609    1.0000 </r>
       <r>   -7.7333    1.0000 </r>
       <r>   -7.6567    1.0000 </r>
       <r>   -7.5381    1.0000 </r>
       <r>   -7.4997    1.0000 </r>
       <r>   -7.3482    1.0000 </r>
       <r>   -7.2884    1.0000 </r>
       <r>   -7.1171    1.0000 </r>
       <r>   -7.0637    1.0000 </r>
       <r>   -6.9846    1.0000 </r>
       <r>   -6.9003    1.0000 </r>
       <r>   -6.7947    1.0000 </r>
       <r>   -6.7540    1.0000 </r>
       <r>   -6.6882    1.0000 </r>
       <r>   -6.6357    1.0000 </r>
       <r>   -6.5692    1.0000 </r>
       <r>   -6.5247    1.0000 </r>
       <r>   -6.4218    1.0000 </r>
       <r>   -6.3976    1.0000 </r>
       <r>   -6.3464    1.0000 </r>
       <r>   -6.1660    1.0000 </r>
       <r>   -6.0993    1.0000 </r>
       <r>   -6.0566    1.0000 </r>
       <r>   -5.9639    1.0000 </r>
       <r>   -5.9274    1.0000 </r>
       <r>   -5.8789    1.0000 </r>
       <r>   -5.7397    1.0000 </r>
       <r>   -5.6925    1.0000 </r>
       <r>   -5.5831    1.0000 </r>
       <r>   -5.5233    1.0000 </r>
       <r>   -5.4007    1.0000 </r>
       <r>   -5.3391    1.0000 </r>
       <r>   -5.2889    1.0000 </r>
       <r>   -5.0339    1.0000 </r>
       <r>   -4.8978    1.0000 </r>
       <r>   -4.8396    1.0000 </r>
       <r>   -4.7863    1.0000 </r>
       <r>   -4.5226    1.0000 </r>
       <r>   -4.4668    1.0000 </r>
       <r>   -4.2924    1.0000 </r>
       <r>   -4.2115    1.0000 </r>
       <r>   -4.1709    1.0000 </r>
       <r>   -4.0119    1.0000 </r>
       <r>   -3.7829    1.0000 </r>
       <r>   -3.5525    0.9946 </r>
       <r>   -3.3565    0.8773 </r>
       <r>   -3.1357    0.3446 </r>
       <r>   -3.0855    0.2250 </r>
       <r>   -2.8597    0.0093 </r>
       <r>   -2.7282    0.0005 </r>
       <r>   -2.6577    0.0001 </r>
       <r>   -2.5735    0.0000 </r>
       <r>   -2.4938    0.0000 </r>
       <r>   -2.4000    0.0000 </r>
       <r>   -2.1537    0.0000 </r>
       <r>   -2.0543    0.0000 </r>
       <r>   -1.9705    0.0000 </r>
       <r>   -1.8587    0.0000 </r>
       <r>   -1.5246    0.0000 </r>
       <r>   -1.4457    0.0000 </r>
       <r>   -1.2851    0.0000 </r>
       <r>   -1.2428    0.0000 </r>
       <r>   -1.1484    0.0000 </r>
       <r>   -1.0411    0.0000 </r>
       <r>   -0.9614    0.0000 </r>
       <r>   -0.9200    0.0000 </r>
       <r>   -0.8727    0.0000 </r>
       <r>   -0.8321    0.0000 </r>
       <r>   -0.7356    0.0000 </r>
       <r>   -0.6534    0.0000 </r>
       <r>   -0.5892    0.0000 </r>
       <r>   -0.4283    0.0000 </r>
       <r>   -0.3703    0.0000 </r>
       <r>   -0.2233    0.0000 </r>
       <r>   -0.1495    0.0000 </r>
       <r>    0.0653    0.0000 </r>
       <r>    0.2411    0.0000 </r>
       <r>    0.2599    0.0000 </r>
       <r>    0.4640    0.0000 </r>
       <r>    0.8087    0.0000 </r>
       <r>    0.8892    0.0000 </r>
       <r>    1.1591    0.0000 </r>
       <r>    1.3180    0.0000 </r>
       <r>    1.4786    0.0000 </r>
       <r>    2.1090    0.0000 </r>
       <r>    2.2566    0.0000 </r>
       <r>    2.5705    0.0000 </r>
      </set>
      <set comment="kpoint 33">
       <r>  -17.5177    1.0000 </r>
       <r>  -17.2641    1.0000 </r>
       <r>  -16.8987    1.0000 </r>
       <r>  -16.5542    1.0000 </r>
       <r>  -16.5281    1.0000 </r>
       <r>  -16.4627    1.0000 </r>
       <r>  -16.2594    1.0000 </r>
       <r>  -16.1957    1.0000 </r>
       <r>  -16.1286    1.0000 </r>
       <r>  -16.0907    1.0000 </r>
       <r>  -15.8989    1.0000 </r>
       <r>  -15.8431    1.0000 </r>
       <r>  -15.7670    1.0000 </r>
       <r>  -15.6944    1.0000 </r>
       <r>  -15.6161    1.0000 </r>
       <r>  -15.5106    1.0000 </r>
       <r>  -15.4263    1.0000 </r>
       <r>  -15.3484    1.0000 </r>
       <r>   -9.7741    1.0000 </r>
       <r>   -9.5072    1.0000 </r>
       <r>   -9.2599    1.0000 </r>
       <r>   -8.9128    1.0000 </r>
       <r>   -8.8269    1.0000 </r>
       <r>   -8.6960    1.0000 </r>
       <r>   -8.6245    1.0000 </r>
       <r>   -8.5360    1.0000 </r>
       <r>   -8.4147    1.0000 </r>
       <r>   -8.3468    1.0000 </r>
       <r>   -8.2853    1.0000 </r>
       <r>   -8.1558    1.0000 </r>
       <r>   -8.0646    1.0000 </r>
       <r>   -7.9990    1.0000 </r>
       <r>   -7.9478    1.0000 </r>
       <r>   -7.9186    1.0000 </r>
       <r>   -7.7189    1.0000 </r>
       <r>   -7.6458    1.0000 </r>
       <r>   -7.6139    1.0000 </r>
       <r>   -7.5112    1.0000 </r>
       <r>   -7.4410    1.0000 </r>
       <r>   -7.1883    1.0000 </r>
       <r>   -7.1088    1.0000 </r>
       <r>   -7.0840    1.0000 </r>
       <r>   -6.9611    1.0000 </r>
       <r>   -6.9253    1.0000 </r>
       <r>   -6.8279    1.0000 </r>
       <r>   -6.7581    1.0000 </r>
       <r>   -6.6679    1.0000 </r>
       <r>   -6.6238    1.0000 </r>
       <r>   -6.6033    1.0000 </r>
       <r>   -6.5350    1.0000 </r>
       <r>   -6.4339    1.0000 </r>
       <r>   -6.3717    1.0000 </r>
       <r>   -6.2508    1.0000 </r>
       <r>   -6.1398    1.0000 </r>
       <r>   -6.1063    1.0000 </r>
       <r>   -6.0577    1.0000 </r>
       <r>   -5.9892    1.0000 </r>
       <r>   -5.9502    1.0000 </r>
       <r>   -5.8470    1.0000 </r>
       <r>   -5.8167    1.0000 </r>
       <r>   -5.7224    1.0000 </r>
       <r>   -5.6862    1.0000 </r>
       <r>   -5.6117    1.0000 </r>
       <r>   -5.4173    1.0000 </r>
       <r>   -5.3056    1.0000 </r>
       <r>   -5.1558    1.0000 </r>
       <r>   -5.0791    1.0000 </r>
       <r>   -4.8662    1.0000 </r>
       <r>   -4.8018    1.0000 </r>
       <r>   -4.7008    1.0000 </r>
       <r>   -4.5672    1.0000 </r>
       <r>   -4.4512    1.0000 </r>
       <r>   -4.2478    1.0000 </r>
       <r>   -4.2093    1.0000 </r>
       <r>   -4.1730    1.0000 </r>
       <r>   -4.0223    1.0000 </r>
       <r>   -3.7618    1.0000 </r>
       <r>   -3.5977    0.9979 </r>
       <r>   -3.4189    0.9455 </r>
       <r>   -3.1250    0.3171 </r>
       <r>   -3.0234    0.1162 </r>
       <r>   -2.8844    0.0147 </r>
       <r>   -2.7383    0.0007 </r>
       <r>   -2.6792    0.0001 </r>
       <r>   -2.6013    0.0000 </r>
       <r>   -2.5063    0.0000 </r>
       <r>   -2.3856    0.0000 </r>
       <r>   -2.1463    0.0000 </r>
       <r>   -2.0323    0.0000 </r>
       <r>   -1.9741    0.0000 </r>
       <r>   -1.8293    0.0000 </r>
       <r>   -1.4980    0.0000 </r>
       <r>   -1.4402    0.0000 </r>
       <r>   -1.2812    0.0000 </r>
       <r>   -1.2487    0.0000 </r>
       <r>   -1.1693    0.0000 </r>
       <r>   -1.0407    0.0000 </r>
       <r>   -0.9997    0.0000 </r>
       <r>   -0.9511    0.0000 </r>
       <r>   -0.8466    0.0000 </r>
       <r>   -0.8110    0.0000 </r>
       <r>   -0.7246    0.0000 </r>
       <r>   -0.6650    0.0000 </r>
       <r>   -0.5735    0.0000 </r>
       <r>   -0.5032    0.0000 </r>
       <r>   -0.3631    0.0000 </r>
       <r>   -0.2674    0.0000 </r>
       <r>   -0.1083    0.0000 </r>
       <r>    0.0423    0.0000 </r>
       <r>    0.2348    0.0000 </r>
       <r>    0.2628    0.0000 </r>
       <r>    0.4886    0.0000 </r>
       <r>    0.8151    0.0000 </r>
       <r>    0.9223    0.0000 </r>
       <r>    1.1710    0.0000 </r>
       <r>    1.3098    0.0000 </r>
       <r>    1.5111    0.0000 </r>
       <r>    2.1416    0.0000 </r>
       <r>    2.2871    0.0000 </r>
       <r>    2.4033    0.0000 </r>
      </set>
      <set comment="kpoint 34">
       <r>  -17.5023    1.0000 </r>
       <r>  -17.3134    1.0000 </r>
       <r>  -16.7335    1.0000 </r>
       <r>  -16.6812    1.0000 </r>
       <r>  -16.5399    1.0000 </r>
       <r>  -16.5009    1.0000 </r>
       <r>  -16.2517    1.0000 </r>
       <r>  -16.1931    1.0000 </r>
       <r>  -16.1202    1.0000 </r>
       <r>  -16.0865    1.0000 </r>
       <r>  -15.8993    1.0000 </r>
       <r>  -15.8066    1.0000 </r>
       <r>  -15.7258    1.0000 </r>
       <r>  -15.6882    1.0000 </r>
       <r>  -15.6613    1.0000 </r>
       <r>  -15.5183    1.0000 </r>
       <r>  -15.4367    1.0000 </r>
       <r>  -15.3461    1.0000 </r>
       <r>   -9.8065    1.0000 </r>
       <r>   -9.4225    1.0000 </r>
       <r>   -9.1348    1.0000 </r>
       <r>   -9.0664    1.0000 </r>
       <r>   -8.8682    1.0000 </r>
       <r>   -8.7500    1.0000 </r>
       <r>   -8.6608    1.0000 </r>
       <r>   -8.5423    1.0000 </r>
       <r>   -8.4539    1.0000 </r>
       <r>   -8.3642    1.0000 </r>
       <r>   -8.2256    1.0000 </r>
       <r>   -8.1779    1.0000 </r>
       <r>   -8.0338    1.0000 </r>
       <r>   -7.9240    1.0000 </r>
       <r>   -7.8953    1.0000 </r>
       <r>   -7.7958    1.0000 </r>
       <r>   -7.7375    1.0000 </r>
       <r>   -7.7016    1.0000 </r>
       <r>   -7.6174    1.0000 </r>
       <r>   -7.5430    1.0000 </r>
       <r>   -7.4319    1.0000 </r>
       <r>   -7.2831    1.0000 </r>
       <r>   -7.0935    1.0000 </r>
       <r>   -7.0250    1.0000 </r>
       <r>   -6.9643    1.0000 </r>
       <r>   -6.9053    1.0000 </r>
       <r>   -6.8393    1.0000 </r>
       <r>   -6.7484    1.0000 </r>
       <r>   -6.6883    1.0000 </r>
       <r>   -6.5942    1.0000 </r>
       <r>   -6.5514    1.0000 </r>
       <r>   -6.5391    1.0000 </r>
       <r>   -6.4524    1.0000 </r>
       <r>   -6.3925    1.0000 </r>
       <r>   -6.2512    1.0000 </r>
       <r>   -6.1685    1.0000 </r>
       <r>   -6.1440    1.0000 </r>
       <r>   -6.0149    1.0000 </r>
       <r>   -5.9870    1.0000 </r>
       <r>   -5.9756    1.0000 </r>
       <r>   -5.8341    1.0000 </r>
       <r>   -5.8122    1.0000 </r>
       <r>   -5.7626    1.0000 </r>
       <r>   -5.7334    1.0000 </r>
       <r>   -5.6288    1.0000 </r>
       <r>   -5.4711    1.0000 </r>
       <r>   -5.3735    1.0000 </r>
       <r>   -5.0490    1.0000 </r>
       <r>   -4.9762    1.0000 </r>
       <r>   -4.9241    1.0000 </r>
       <r>   -4.7819    1.0000 </r>
       <r>   -4.6655    1.0000 </r>
       <r>   -4.5727    1.0000 </r>
       <r>   -4.3531    1.0000 </r>
       <r>   -4.2764    1.0000 </r>
       <r>   -4.1967    1.0000 </r>
       <r>   -4.1815    1.0000 </r>
       <r>   -4.0384    1.0000 </r>
       <r>   -3.7892    1.0000 </r>
       <r>   -3.6211    0.9988 </r>
       <r>   -3.4468    0.9641 </r>
       <r>   -3.1153    0.2932 </r>
       <r>   -2.9913    0.0776 </r>
       <r>   -2.8927    0.0171 </r>
       <r>   -2.7529    0.0009 </r>
       <r>   -2.6907    0.0002 </r>
       <r>   -2.6112    0.0000 </r>
       <r>   -2.5168    0.0000 </r>
       <r>   -2.3775    0.0000 </r>
       <r>   -2.1446    0.0000 </r>
       <r>   -2.0109    0.0000 </r>
       <r>   -1.9835    0.0000 </r>
       <r>   -1.8026    0.0000 </r>
       <r>   -1.4799    0.0000 </r>
       <r>   -1.4314    0.0000 </r>
       <r>   -1.2796    0.0000 </r>
       <r>   -1.2443    0.0000 </r>
       <r>   -1.1855    0.0000 </r>
       <r>   -1.0722    0.0000 </r>
       <r>   -0.9986    0.0000 </r>
       <r>   -0.9646    0.0000 </r>
       <r>   -0.8514    0.0000 </r>
       <r>   -0.7888    0.0000 </r>
       <r>   -0.6991    0.0000 </r>
       <r>   -0.6783    0.0000 </r>
       <r>   -0.5877    0.0000 </r>
       <r>   -0.5597    0.0000 </r>
       <r>   -0.3424    0.0000 </r>
       <r>   -0.2933    0.0000 </r>
       <r>   -0.0763    0.0000 </r>
       <r>    0.0197    0.0000 </r>
       <r>    0.2337    0.0000 </r>
       <r>    0.2674    0.0000 </r>
       <r>    0.5002    0.0000 </r>
       <r>    0.8168    0.0000 </r>
       <r>    0.9515    0.0000 </r>
       <r>    1.1784    0.0000 </r>
       <r>    1.3079    0.0000 </r>
       <r>    1.5306    0.0000 </r>
       <r>    2.2333    0.0000 </r>
       <r>    2.2437    0.0000 </r>
       <r>    2.3725    0.0000 </r>
      </set>
     </set>
    </set>
   </array>
  </eigenvalues>
  <separator name="orbital magnetization" >
   <v name="MAGDIPOLOUT">      0.00000000      0.00000000      0.00000000</v>
  </separator>
 </calculation>
 <structure name="finalpos" >
  <crystal>
   <varray name="basis" >
    <v>       8.34980672       4.84368499       0.00000000 </v>
    <v>      -8.33056386       4.81035802       0.00000000 </v>
    <v>       0.00000000       0.00000000      30.00000000 </v>
   </varray>
   <i name="volume">   2415.48560653 </i>
   <varray name="rec_basis" >
    <v>       0.05974399       0.10346446       0.00000000 </v>
    <v>      -0.06015790       0.10370345       0.00000000 </v>
    <v>       0.00000000       0.00000000       0.03333333 </v>
   </varray>
  </crystal>
  <varray name="positions" >
   <v>       0.68974307       0.35688588       0.00079020 </v>
   <v>       0.66232543      -0.01282305       0.00140332 </v>
   <v>       0.70129779       0.68402338      -0.00116379 </v>
   <v>       0.30197002      -0.01943289       0.00097110 </v>
   <v>       0.01458018       0.00515207      -0.00052946 </v>
   <v>       0.01052194       0.68217866      -0.00020968 </v>
   <v>       1.01459626       0.33115005      -0.00066649 </v>
   <v>       0.30893552       0.29701574       0.00005098 </v>
   <v>       0.31395909       0.68153056      -0.00000275 </v>
   <v>       0.10953061       0.21922855       0.94418262 </v>
   <v>       0.21796007       0.10550515       0.05728699 </v>
   <v>       0.10793582       0.55565498       0.94658021 </v>
   <v>       0.22688862       0.44524895       0.05117534 </v>
   <v>       0.10563070       0.88743931       0.94355052 </v>
   <v>       0.21666193       0.77662329       0.05740145 </v>
   <v>       0.44585876       0.21764329       0.95129730 </v>
   <v>       0.55580078       0.11513437       0.04437089 </v>
   <v>       0.44565061       0.55574962       0.95946602 </v>
   <v>       0.55953897       0.44879286       0.04581337 </v>
   <v>       0.44231166       0.89279747       0.94930572 </v>
   <v>       0.55667216       0.77439835       0.04769695 </v>
   <v>       0.77478045       0.22047691       0.95204003 </v>
   <v>       0.88351890       0.10915430       0.04914725 </v>
   <v>       0.77758039       0.55727215       0.94785274 </v>
   <v>       0.89150191       0.44334976       0.04993801 </v>
   <v>       0.77487310       0.88954370       0.94906954 </v>
   <v>       0.88758974       0.77852103       0.05318152 </v>
  </varray>
 </structure>
</modeling>
