       N       E                     dE             d eps       ncg     rms          rms(c)
DAV:   1     0.112575620933E+04    0.11258E+04   -0.35983E+04  8160   0.577E+02
DAV:   2    -0.181240260616E+01   -0.11276E+04   -0.10858E+04 11240   0.173E+02
DAV:   3    -0.199785538025E+03   -0.19797E+03   -0.18994E+03 10920   0.821E+01
DAV:   4    -0.208955800851E+03   -0.91703E+01   -0.89117E+01 12160   0.261E+01
DAV:   5    -0.209276111273E+03   -0.32031E+00   -0.31946E+00 11480   0.354E+00    0.275E+01
DAV:   6    -0.237137670153E+03   -0.27862E+02   -0.10767E+02 12480   0.605E+01    0.594E+01
DAV:   7    -0.196664568453E+03    0.40473E+02   -0.17776E+02 13080   0.152E+02    0.204E+01
DAV:   8    -0.190083539283E+03    0.65810E+01   -0.20287E+01 11800   0.134E+01    0.137E+01
DAV:   9    -0.188318699791E+03    0.17648E+01   -0.35115E+00 12160   0.623E+00    0.941E+00
DAV:  10    -0.187127736625E+03    0.11910E+01   -0.17825E+00 13360   0.759E+00    0.339E+00
DAV:  11    -0.187012569174E+03    0.11517E+00   -0.65577E-01 12640   0.250E+00    0.236E+00
DAV:  12    -0.187032701423E+03   -0.20132E-01   -0.46427E-01 12920   0.327E+00    0.355E+00
DAV:  13    -0.186933898002E+03    0.98803E-01   -0.29943E-01 13080   0.318E+00    0.192E+00
DAV:  14    -0.186904161774E+03    0.29736E-01   -0.10824E-01 12760   0.174E+00    0.103E+00
DAV:  15    -0.186898500718E+03    0.56611E-02   -0.45698E-02 12520   0.115E+00    0.101E+00
DAV:  16    -0.186891945237E+03    0.65555E-02   -0.16865E-02 12960   0.685E-01    0.489E-01
DAV:  17    -0.186889235787E+03    0.27094E-02   -0.74601E-03 12920   0.392E-01    0.177E-01
DAV:  18    -0.186888707770E+03    0.52802E-03   -0.18847E-03 11640   0.139E-01    0.165E-01
DAV:  19    -0.186888496257E+03    0.21151E-03   -0.76103E-04 10880   0.133E-01    0.461E-02
DAV:  20    -0.186889381106E+03   -0.88485E-03   -0.82533E-04  9040   0.566E-02    0.428E-02
DAV:  21    -0.186890321330E+03   -0.94022E-03   -0.23622E-04  8200   0.538E-02    0.374E-02
DAV:  22    -0.186891073722E+03   -0.75239E-03   -0.95173E-05  6360   0.288E-02    0.331E-02
DAV:  23    -0.186892213786E+03   -0.11401E-02   -0.14216E-04  7480   0.408E-02    0.166E-02
DAV:  24    -0.186892794540E+03   -0.58075E-03   -0.26102E-05  6720   0.175E-02    0.466E-03
DAV:  25    -0.186893160984E+03   -0.36644E-03   -0.16375E-05  5560   0.896E-03    0.518E-03
DAV:  26    -0.186893407774E+03   -0.24679E-03   -0.93642E-06  6760   0.780E-03    0.154E-03
DAV:  27    -0.186893500586E+03   -0.92812E-04   -0.33178E-06  7240   0.403E-03
   1 F= -.18689350E+03 E0= -.18672282E+03  d E =-.186894E+03
       N       E                     dE             d eps       ncg     rms          rms(c)
DAV:   1    -0.187532257696E+03   -0.63885E+00   -0.27041E+02  8160   0.349E+01    0.464E+00
DAV:   2    -0.189487979975E+03   -0.19557E+01   -0.20206E+01 12280   0.155E+01    0.930E+00
DAV:   3    -0.189372987227E+03    0.11499E+00   -0.42107E+00 12440   0.122E+01    0.652E+00
DAV:   4    -0.188787161230E+03    0.58583E+00   -0.58106E-01 12520   0.449E+00    0.175E+00
DAV:   5    -0.188924283967E+03   -0.13712E+00   -0.49334E-01 12360   0.356E+00    0.577E+00
DAV:   6    -0.188751710450E+03    0.17257E+00   -0.83917E-01 12760   0.443E+00    0.195E+00
DAV:   7    -0.188718997933E+03    0.32713E-01   -0.12188E-01 11840   0.143E+00    0.104E+00
DAV:   8    -0.188709590695E+03    0.94072E-02   -0.53479E-02 12800   0.122E+00    0.118E+00
DAV:   9    -0.188699820755E+03    0.97699E-02   -0.18700E-02 11880   0.775E-01    0.304E-01
DAV:  10    -0.188699296964E+03    0.52379E-03   -0.32070E-03 12840   0.214E-01    0.185E-01
DAV:  11    -0.188698881494E+03    0.41547E-03   -0.21277E-03 11720   0.152E-01    0.120E-01
DAV:  12    -0.188698956801E+03   -0.75307E-04   -0.94042E-04 11920   0.892E-02
   2 F= -.18869896E+03 E0= -.18856069E+03  d E =-.180546E+01
       N       E                     dE             d eps       ncg     rms          rms(c)
DAV:   1    -0.190620061290E+03   -0.19212E+01   -0.30998E+01  9120   0.142E+01    0.443E+00
DAV:   2    -0.190569959800E+03    0.50101E-01   -0.27345E+00 11120   0.942E+00    0.722E+00
DAV:   3    -0.190107689806E+03    0.46227E+00   -0.13096E+00 12360   0.859E+00    0.425E+00
DAV:   4    -0.189894696081E+03    0.21299E+00   -0.70194E-01 12560   0.420E+00    0.250E+00
DAV:   5    -0.189846943312E+03    0.47753E-01   -0.33543E-01 12320   0.268E+00    0.229E+00
DAV:   6    -0.189797706407E+03    0.49237E-01   -0.11493E-01 12720   0.212E+00    0.769E-01
DAV:   7    -0.189791124912E+03    0.65815E-02   -0.13813E-02 11600   0.567E-01    0.205E-01
DAV:   8    -0.189791595891E+03   -0.47098E-03   -0.34887E-03 12360   0.275E-01    0.283E-01
DAV:   9    -0.189791216681E+03    0.37921E-03   -0.18963E-03 10880   0.283E-01    0.164E-01
DAV:  10    -0.189791470006E+03   -0.25332E-03   -0.96257E-04  9800   0.148E-01    0.128E-01
DAV:  11    -0.189791196209E+03    0.27380E-03   -0.45768E-04  8760   0.775E-02    0.214E-02
DAV:  12    -0.189791219435E+03   -0.23226E-04   -0.74340E-05  6760   0.289E-02
   3 F= -.18979122E+03 E0= -.18967466E+03  d E =-.109226E+01
       N       E                     dE             d eps       ncg     rms          rms(c)
DAV:   1    -0.191366509126E+03   -0.15753E+01   -0.74643E+01  8160   0.197E+01    0.457E+00
DAV:   2    -0.191183308980E+03    0.18320E+00   -0.53347E+00 13360   0.760E+00    0.451E+00
DAV:   3    -0.191337561684E+03   -0.15425E+00   -0.15074E+00 12200   0.905E+00    0.674E+00
DAV:   4    -0.190938456698E+03    0.39910E+00   -0.13544E+00 12440   0.764E+00    0.295E+00
DAV:   5    -0.190898651810E+03    0.39805E-01   -0.42327E-01 12320   0.396E+00    0.289E+00
DAV:   6    -0.190808082133E+03    0.90570E-01   -0.19812E-01 12320   0.313E+00    0.116E+00
DAV:   7    -0.190796690472E+03    0.11392E-01   -0.42233E-02 12560   0.108E+00    0.450E-01
DAV:   8    -0.190793325987E+03    0.33645E-02   -0.64704E-03 10360   0.334E-01    0.174E-01
DAV:   9    -0.190794077298E+03   -0.75131E-03   -0.24179E-03 12200   0.323E-01    0.306E-01
DAV:  10    -0.190793563205E+03    0.51409E-03   -0.20965E-03 11160   0.289E-01    0.102E-01
DAV:  11    -0.190793448844E+03    0.11436E-03   -0.51817E-04  9760   0.934E-02    0.470E-02
DAV:  12    -0.190793441540E+03    0.73040E-05   -0.10837E-04  7240   0.404E-02
   4 F= -.19079344E+03 E0= -.19069546E+03  d E =-.100222E+01
       N       E                     dE             d eps       ncg     rms          rms(c)
DAV:   1    -0.192259548267E+03   -0.14661E+01   -0.17029E+02  8160   0.291E+01    0.577E+00
DAV:   2    -0.191993685355E+03    0.26586E+00   -0.99582E+00 11000   0.796E+00    0.362E+00
DAV:   3    -0.192064534293E+03   -0.70849E-01   -0.18782E+00 12240   0.795E+00    0.609E+00
DAV:   4    -0.191867497019E+03    0.19704E+00   -0.15079E+00 12040   0.950E+00    0.469E+00
DAV:   5    -0.191603219686E+03    0.26428E+00   -0.62165E-01 12400   0.470E+00    0.153E+00
DAV:   6    -0.191591460692E+03    0.11759E-01   -0.15440E-01 12640   0.269E+00    0.156E+00
DAV:   7    -0.191573083397E+03    0.18377E-01   -0.85339E-02 12360   0.210E+00    0.742E-01
DAV:   8    -0.191565893423E+03    0.71900E-02   -0.14148E-02 11720   0.755E-01    0.393E-01
DAV:   9    -0.191564799767E+03    0.10937E-02   -0.46517E-03 11920   0.474E-01    0.211E-01
DAV:  10    -0.191564818465E+03   -0.18697E-04   -0.23426E-03 11480   0.200E-01    0.833E-02
DAV:  11    -0.191564761099E+03    0.57366E-04   -0.54272E-04 11000   0.866E-02
   5 F= -.19156476E+03 E0= -.19147855E+03  d E =-.771320E+00
       N       E                     dE             d eps       ncg     rms          rms(c)
DAV:   1    -0.191688230611E+03   -0.12341E+00   -0.99033E+00  8160   0.669E+00    0.773E-01
DAV:   2    -0.191752739237E+03   -0.64509E-01   -0.38143E-01 12680   0.293E+00    0.203E+00
DAV:   3    -0.191708852684E+03    0.43887E-01   -0.10233E-01 12560   0.241E+00    0.549E-01
DAV:   4    -0.191708124424E+03    0.72826E-03   -0.13623E-02 11640   0.785E-01    0.597E-01
DAV:   5    -0.191704883062E+03    0.32414E-02   -0.91549E-03 11880   0.730E-01    0.302E-01
DAV:   6    -0.191704614738E+03    0.26832E-03   -0.41937E-03 11360   0.347E-01    0.199E-01
DAV:   7    -0.191704073229E+03    0.54151E-03   -0.21220E-03 11600   0.253E-01    0.168E-01
DAV:   8    -0.191703838710E+03    0.23452E-03   -0.74063E-04  9080   0.192E-01    0.587E-02
DAV:   9    -0.191703835205E+03    0.35047E-05   -0.12276E-04  6120   0.625E-02
   6 F= -.19170384E+03 E0= -.19161942E+03  d E =-.139074E+00
       N       E                     dE             d eps       ncg     rms          rms(c)
DAV:   1    -0.191830363291E+03   -0.12652E+00   -0.10694E+01  8160   0.698E+00    0.749E-01
DAV:   2    -0.191876154791E+03   -0.45792E-01   -0.36216E-01 12760   0.257E+00    0.156E+00
DAV:   3    -0.191851250356E+03    0.24904E-01   -0.71402E-02 12560   0.208E+00    0.585E-01
DAV:   4    -0.191847636882E+03    0.36135E-02   -0.10264E-02 11720   0.669E-01    0.429E-01
DAV:   5    -0.191847158599E+03    0.47828E-03   -0.83797E-03 12120   0.706E-01    0.417E-01
DAV:   6    -0.191846179552E+03    0.97905E-03   -0.59711E-03 11920   0.477E-01    0.209E-01
DAV:   7    -0.191845250448E+03    0.92910E-03   -0.17788E-03 10240   0.170E-01    0.375E-02
DAV:   8    -0.191845270860E+03   -0.20411E-04   -0.18199E-04  7560   0.442E-02
   7 F= -.19184527E+03 E0= -.19176327E+03  d E =-.141436E+00
       N       E                     dE             d eps       ncg     rms          rms(c)
DAV:   1    -0.192003041543E+03   -0.15779E+00   -0.24417E+01  8160   0.106E+01    0.109E+00
DAV:   2    -0.192072980186E+03   -0.69939E-01   -0.83171E-01 12280   0.306E+00    0.138E+00
DAV:   3    -0.192067423399E+03    0.55568E-02   -0.10011E-01 12360   0.259E+00    0.121E+00
DAV:   4    -0.192047159921E+03    0.20263E-01   -0.24993E-02 11720   0.127E+00    0.444E-01
DAV:   5    -0.192052153479E+03   -0.49936E-02   -0.18679E-02 12040   0.107E+00    0.856E-01
DAV:   6    -0.192046110110E+03    0.60434E-02   -0.16650E-02 12440   0.962E-01    0.303E-01
DAV:   7    -0.192044338755E+03    0.17714E-02   -0.33456E-03 10480   0.252E-01    0.635E-02
DAV:   8    -0.192044380267E+03   -0.41512E-04   -0.52039E-04 11320   0.107E-01
   8 F= -.19204438E+03 E0= -.19196408E+03  d E =-.199109E+00
       N       E                     dE             d eps       ncg     rms          rms(c)
DAV:   1    -0.192161939142E+03   -0.11760E+00   -0.45737E+01  8160   0.145E+01    0.151E+00
DAV:   2    -0.192293582412E+03   -0.13164E+00   -0.16947E+00 11360   0.382E+00    0.158E+00
DAV:   3    -0.192321779279E+03   -0.28197E-01   -0.19361E-01 12280   0.372E+00    0.226E+00
DAV:   4    -0.192262611920E+03    0.59167E-01   -0.71567E-02 12280   0.237E+00    0.647E-01
DAV:   5    -0.192265272528E+03   -0.26606E-02   -0.24992E-02 12360   0.136E+00    0.867E-01
DAV:   6    -0.192258923305E+03    0.63492E-02   -0.23904E-02 12720   0.115E+00    0.444E-01
DAV:   7    -0.192257169098E+03    0.17542E-02   -0.87482E-03 11640   0.722E-01    0.346E-01
DAV:   8    -0.192255793911E+03    0.13752E-02   -0.22610E-03 11280   0.378E-01    0.789E-02
DAV:   9    -0.192255700652E+03    0.93259E-04   -0.55472E-04 10040   0.830E-02
   9 F= -.19225570E+03 E0= -.19218052E+03  d E =-.211320E+00
       N       E                     dE             d eps       ncg     rms          rms(c)
DAV:   1    -0.192302566193E+03   -0.46772E-01   -0.58948E+00  8160   0.521E+00    0.641E-01
DAV:   2    -0.192325339763E+03   -0.22774E-01   -0.25939E-01 12160   0.178E+00    0.975E-01
DAV:   3    -0.192320836547E+03    0.45032E-02   -0.38249E-02 12400   0.167E+00    0.733E-01
DAV:   4    -0.192314008472E+03    0.68281E-02   -0.90587E-03 12520   0.801E-01    0.264E-01
DAV:   5    -0.192314844944E+03   -0.83647E-03   -0.52860E-03 12040   0.621E-01    0.393E-01
DAV:   6    -0.192313063817E+03    0.17811E-02   -0.42562E-03 11760   0.493E-01    0.108E-01
DAV:   7    -0.192312926695E+03    0.13712E-03   -0.69738E-04 10600   0.159E-01    0.837E-02
DAV:   8    -0.192312868490E+03    0.58206E-04   -0.23033E-04 10200   0.126E-01
  10 F= -.19231287E+03 E0= -.19223998E+03  d E =-.571678E-01
       N       E                     dE             d eps       ncg     rms          rms(c)
DAV:   1    -0.192347614038E+03   -0.34687E-01   -0.70190E+00  8160   0.559E+00    0.627E-01
DAV:   2    -0.192376562795E+03   -0.28949E-01   -0.27851E-01 12040   0.190E+00    0.105E+00
DAV:   3    -0.192368743733E+03    0.78191E-02   -0.37809E-02 12240   0.168E+00    0.678E-01
DAV:   4    -0.192363117055E+03    0.56267E-02   -0.73469E-03 12480   0.707E-01    0.203E-01
DAV:   5    -0.192363773841E+03   -0.65679E-03   -0.36410E-03 12520   0.479E-01    0.309E-01
DAV:   6    -0.192362975120E+03    0.79872E-03   -0.30642E-03 12160   0.462E-01    0.160E-01
DAV:   7    -0.192362544773E+03    0.43035E-03   -0.86944E-04 10400   0.161E-01    0.395E-02
DAV:   8    -0.192362574396E+03   -0.29624E-04   -0.14615E-04  7360   0.939E-02
  11 F= -.19236257E+03 E0= -.19229240E+03  d E =-.497059E-01
       N       E                     dE             d eps       ncg     rms          rms(c)
DAV:   1    -0.192376492663E+03   -0.13948E-01   -0.78336E-01  8160   0.191E+00    0.261E-01
DAV:   2    -0.192379956585E+03   -0.34639E-02   -0.33417E-02 12440   0.787E-01    0.484E-01
DAV:   3    -0.192377879381E+03    0.20772E-02   -0.67565E-03 12480   0.710E-01    0.243E-01
DAV:   4    -0.192377202676E+03    0.67670E-03   -0.13851E-03 11760   0.291E-01    0.130E-01
DAV:   5    -0.192377204958E+03   -0.22820E-05   -0.95152E-04 10680   0.262E-01
  12 F= -.19237720E+03 E0= -.19230763E+03  d E =-.146306E-01
       N       E                     dE             d eps       ncg     rms          rms(c)
DAV:   1    -0.192396764378E+03   -0.19562E-01   -0.20130E+00  8160   0.302E+00    0.395E-01
DAV:   2    -0.192406074785E+03   -0.93104E-02   -0.77700E-02 12280   0.124E+00    0.789E-01
DAV:   3    -0.192400135063E+03    0.59397E-02   -0.15182E-02 12520   0.109E+00    0.331E-01
DAV:   4    -0.192398723719E+03    0.14113E-02   -0.25529E-03 12400   0.369E-01    0.162E-01
DAV:   5    -0.192398926957E+03   -0.20324E-03   -0.19150E-03 12080   0.358E-01    0.217E-01
DAV:   6    -0.192398424047E+03    0.50291E-03   -0.13630E-03 11360   0.294E-01    0.736E-02
DAV:   7    -0.192398345064E+03    0.78984E-04   -0.23487E-04  7680   0.105E-01
  13 F= -.19239835E+03 E0= -.19232968E+03  d E =-.211401E-01
       N       E                     dE             d eps       ncg     rms          rms(c)
DAV:   1    -0.192404817156E+03   -0.63931E-02   -0.20282E-01  8160   0.103E+00    0.231E-01
DAV:   2    -0.192405300021E+03   -0.48286E-03   -0.13186E-02 11600   0.583E-01    0.355E-01
DAV:   3    -0.192404195242E+03    0.11048E-02   -0.40824E-03 11360   0.562E-01    0.204E-01
DAV:   4    -0.192403797493E+03    0.39775E-03   -0.14941E-03 10400   0.312E-01    0.157E-01
DAV:   5    -0.192403747810E+03    0.49683E-04   -0.11248E-03 10080   0.289E-01    0.152E-01
DAV:   6    -0.192403449188E+03    0.29862E-03   -0.56721E-04  9760   0.178E-01    0.287E-02
DAV:   7    -0.192403449169E+03    0.19236E-07   -0.72736E-05  6120   0.412E-02
  14 F= -.19240345E+03 E0= -.19233551E+03  d E =-.510411E-02
       N       E                     dE             d eps       ncg     rms          rms(c)
DAV:   1    -0.192414131930E+03   -0.10683E-01   -0.75815E-01  8160   0.185E+00    0.228E-01
DAV:   2    -0.192418436288E+03   -0.43044E-02   -0.31556E-02 12360   0.791E-01    0.505E-01
DAV:   3    -0.192415826787E+03    0.26095E-02   -0.59963E-03 12680   0.676E-01    0.184E-01
DAV:   4    -0.192415419193E+03    0.40759E-03   -0.82369E-04 10400   0.195E-01    0.881E-02
DAV:   5    -0.192415424799E+03   -0.56059E-05   -0.53820E-04 10200   0.166E-01
  15 F= -.19241542E+03 E0= -.19234816E+03  d E =-.119756E-01
       N       E                     dE             d eps       ncg     rms          rms(c)
DAV:   1    -0.192432863337E+03   -0.17444E-01   -0.46773E+00  8160   0.463E+00    0.610E-01
DAV:   2    -0.192455086522E+03   -0.22223E-01   -0.20067E-01 12360   0.192E+00    0.117E+00
DAV:   3    -0.192442501622E+03    0.12585E-01   -0.36235E-02 12400   0.166E+00    0.520E-01
DAV:   4    -0.192439146326E+03    0.33553E-02   -0.66485E-03 12360   0.640E-01    0.306E-01
DAV:   5    -0.192439075285E+03    0.71041E-04   -0.49629E-03 11840   0.610E-01    0.327E-01
DAV:   6    -0.192437834576E+03    0.12407E-02   -0.34374E-03 12040   0.420E-01    0.916E-02
DAV:   7    -0.192437708021E+03    0.12655E-03   -0.55244E-04 10600   0.130E-01    0.640E-02
DAV:   8    -0.192437674032E+03    0.33989E-04   -0.12542E-04  8160   0.101E-01
  16 F= -.19243767E+03 E0= -.19237137E+03  d E =-.222492E-01
       N       E                     dE             d eps       ncg     rms          rms(c)
DAV:   1    -0.192444702549E+03   -0.69945E-02   -0.14915E+00  8160   0.257E+00    0.293E-01
DAV:   2    -0.192451959830E+03   -0.72573E-02   -0.62358E-02 11160   0.103E+00    0.556E-01
DAV:   3    -0.192449031849E+03    0.29280E-02   -0.88463E-03 12120   0.812E-01    0.273E-01
DAV:   4    -0.192448229792E+03    0.80206E-03   -0.16297E-03 11720   0.331E-01    0.137E-01
DAV:   5    -0.192448203744E+03    0.26048E-04   -0.88505E-04 11040   0.262E-01
  17 F= -.19244820E+03 E0= -.19238286E+03  d E =-.105297E-01
       N       E                     dE             d eps       ncg     rms          rms(c)
DAV:   1    -0.192450654562E+03   -0.24248E-02   -0.28619E+00  8160   0.358E+00    0.425E-01
DAV:   2    -0.192462604344E+03   -0.11950E-01   -0.13056E-01 11360   0.130E+00    0.609E-01
DAV:   3    -0.192460661259E+03    0.19431E-02   -0.15021E-02 11880   0.106E+00    0.479E-01
DAV:   4    -0.192457807332E+03    0.28539E-02   -0.41161E-03 12200   0.552E-01    0.179E-01
DAV:   5    -0.192458164036E+03   -0.35670E-03   -0.22818E-03 11920   0.404E-01    0.251E-01
DAV:   6    -0.192457426501E+03    0.73754E-03   -0.17555E-03 12120   0.325E-01    0.649E-02
DAV:   7    -0.192457399232E+03    0.27269E-04   -0.24630E-04  7280   0.104E-01
  18 F= -.19245740E+03 E0= -.19239337E+03  d E =-.919549E-02
       N       E                     dE             d eps       ncg     rms          rms(c)
DAV:   1    -0.192456968387E+03    0.45811E-03   -0.22480E-01  8160   0.102E+00    0.148E-01
DAV:   2    -0.192458538514E+03   -0.15701E-02   -0.98351E-03 11600   0.534E-01    0.360E-01
DAV:   3    -0.192457137439E+03    0.14011E-02   -0.27830E-03 11920   0.450E-01    0.106E-01
DAV:   4    -0.192456975446E+03    0.16199E-03   -0.37687E-04  8800   0.136E-01    0.634E-02
DAV:   5    -0.192456991806E+03   -0.16360E-04   -0.29772E-04  8800   0.144E-01
  19 F= -.19245699E+03 E0= -.19239254E+03  d E =0.407425E-03
       N       E                     dE             d eps       ncg     rms          rms(c)
DAV:   1    -0.192457865029E+03   -0.88958E-03   -0.72034E-02  8160   0.584E-01    0.106E-01
DAV:   2    -0.192458204082E+03   -0.33905E-03   -0.42078E-03 11040   0.281E-01    0.173E-01
DAV:   3    -0.192457939467E+03    0.26462E-03   -0.10247E-03 10880   0.263E-01    0.996E-02
DAV:   4    -0.192457846012E+03    0.93455E-04   -0.32742E-04  8640   0.144E-01
  20 F= -.19245785E+03 E0= -.19239341E+03  d E =-.854205E-03
       N       E                     dE             d eps       ncg     rms          rms(c)
DAV:   1    -0.192458871647E+03   -0.93218E-03   -0.54823E-02  8160   0.502E-01    0.798E-02
DAV:   2    -0.192459575741E+03   -0.70409E-03   -0.35189E-03 12080   0.343E-01    0.211E-01
DAV:   3    -0.192458986925E+03    0.58882E-03   -0.89632E-04 10320   0.262E-01    0.352E-02
DAV:   4    -0.192458981208E+03    0.57168E-05   -0.48663E-05  5680   0.468E-02
  21 F= -.19245898E+03 E0= -.19239471E+03  d E =-.113520E-02
       N       E                     dE             d eps       ncg     rms          rms(c)
DAV:   1    -0.192459602274E+03   -0.61535E-03   -0.16507E-02  8160   0.299E-01    0.682E-02
DAV:   2    -0.192459808128E+03   -0.20585E-03   -0.13206E-03 10720   0.218E-01    0.150E-01
DAV:   3    -0.192459565557E+03    0.24257E-03   -0.42503E-04  8920   0.194E-01    0.517E-02
DAV:   4    -0.192459536420E+03    0.29138E-04   -0.68657E-05  5560   0.678E-02
  22 F= -.19245954E+03 E0= -.19239543E+03  d E =-.555211E-03
       N       E                     dE             d eps       ncg     rms          rms(c)
DAV:   1    -0.192460665971E+03   -0.11004E-02   -0.94301E-02  8160   0.654E-01    0.805E-02
DAV:   2    -0.192461012484E+03   -0.34651E-03   -0.43787E-03 10520   0.196E-01    0.885E-02
DAV:   3    -0.192461003660E+03    0.88240E-05   -0.50085E-04 10800   0.188E-01
  23 F= -.19246100E+03 E0= -.19239718E+03  d E =-.146724E-02
       N       E                     dE             d eps       ncg     rms          rms(c)
DAV:   1    -0.192461183485E+03   -0.17100E-03   -0.66202E-03  8280   0.193E-01    0.503E-02
DAV:   2    -0.192461210646E+03   -0.27161E-04   -0.32444E-04  8480   0.109E-01
  24 F= -.19246121E+03 E0= -.19239746E+03  d E =-.206985E-03
       N       E                     dE             d eps       ncg     rms          rms(c)
DAV:   1    -0.192461924581E+03   -0.74110E-03   -0.50164E-02  8160   0.490E-01    0.706E-02
DAV:   2    -0.192462128664E+03   -0.20408E-03   -0.22271E-03 11920   0.168E-01    0.107E-01
DAV:   3    -0.192462051432E+03    0.77232E-04   -0.39504E-04  9920   0.178E-01
  25 F= -.19246205E+03 E0= -.19239846E+03  d E =-.840787E-03
       N       E                     dE             d eps       ncg     rms          rms(c)
DAV:   1    -0.192462388010E+03   -0.25935E-03   -0.12928E-02  8160   0.250E-01    0.453E-02
DAV:   2    -0.192462486269E+03   -0.98259E-04   -0.67508E-04 10360   0.139E-01
  26 F= -.19246249E+03 E0= -.19239890E+03  d E =-.434837E-03
