   27   27  100    1
  0.9710400E+02  0.1002848E-08  0.1002848E-08  0.3000000E-08  0.5000000E-15
  1.000000000000000E-004
  CAR 
 unknown system                          
    159     34    120
 
  0.0000000E+00  0.0000000E+00  0.0000000E+00  0.1562500E-01
    1      -17.805095   1.000000
    2      -16.729627   1.000000
    3      -16.678043   1.000000
    4      -16.577473   1.000000
    5      -16.534834   1.000000
    6      -16.461628   1.000000
    7      -16.424621   1.000000
    8      -16.313687   1.000000
    9      -16.156155   1.000000
   10      -16.097655   1.000000
   11      -16.077912   1.000000
   12      -15.942193   1.000000
   13      -15.916097   1.000000
   14      -15.674177   1.000000
   15      -15.584703   1.000000
   16      -15.526900   1.000000
   17      -15.318207   1.000000
   18      -15.271373   1.000000
   19       -9.286516   1.000000
   20       -9.004120   1.000000
   21       -8.926940   1.000000
   22       -8.822608   1.000000
   23       -8.770601   1.000000
   24       -8.705478   1.000000
   25       -8.651794   1.000000
   26       -8.610491   1.000000
   27       -8.559906   1.000000
   28       -8.421319   1.000000
   29       -8.406180   1.000000
   30       -8.345994   1.000000
   31       -8.294787   1.000000
   32       -8.199259   1.000000
   33       -8.112453   1.000000
   34       -8.030614   1.000000
   35       -7.875053   1.000000
   36       -7.772844   1.000000
   37       -7.692730   1.000000
   38       -7.516347   1.000000
   39       -7.502343   1.000000
   40       -7.425299   1.000000
   41       -7.315227   1.000000
   42       -7.211783   1.000000
   43       -7.132843   1.000000
   44       -6.904870   1.000000
   45       -6.809889   1.000000
   46       -6.801918   1.000000
   47       -6.694865   1.000000
   48       -6.648286   1.000000
   49       -6.548949   1.000000
   50       -6.533663   1.000000
   51       -6.487435   1.000000
   52       -6.420518   1.000000
   53       -6.313929   1.000000
   54       -6.225257   1.000000
   55       -6.165566   1.000000
   56       -6.061120   1.000000
   57       -6.030972   1.000000
   58       -5.843388   1.000000
   59       -5.821527   1.000000
   60       -5.581650   1.000000
   61       -5.502637   1.000000
   62       -5.461225   1.000000
   63       -5.256988   1.000000
   64       -5.109761   1.000000
   65       -5.055507   1.000000
   66       -4.992763   1.000000
   67       -4.951504   1.000000
   68       -4.814000   1.000000
   69       -4.786121   1.000000
   70       -4.702930   1.000000
   71       -4.592217   1.000000
   72       -4.555388   1.000000
   73       -4.536352   1.000000
   74       -4.378217   1.000000
   75       -4.162800   1.000000
   76       -4.026420   1.000000
   77       -3.762358   0.999185
   78       -3.628297   0.986188
   79       -3.548230   0.949126
   80       -3.345449   0.580259
   81       -3.253884   0.328194
   82       -2.831187   0.000298
   83       -2.750162   0.000031
   84       -2.546502   0.000000
   85       -2.474104   0.000000
   86       -2.365918   0.000000
   87       -2.304203   0.000000
   88       -2.193453   0.000000
   89       -2.121689   0.000000
   90       -2.038520   0.000000
   91       -1.776886   0.000000
   92       -1.576179   0.000000
   93       -1.485408   0.000000
   94       -1.365221   0.000000
   95       -1.254015   0.000000
   96       -1.005765   0.000000
   97       -0.950425   0.000000
   98       -0.842878   0.000000
   99       -0.810316   0.000000
  100       -0.633677   0.000000
  101       -0.520257   0.000000
  102       -0.467615   0.000000
  103       -0.464526   0.000000
  104       -0.305720   0.000000
  105       -0.280130   0.000000
  106       -0.161200   0.000000
  107       -0.075561   0.000000
  108       -0.035972   0.000000
  109        0.080423   0.000000
  110        0.193860   0.000000
  111        0.362773   0.000000
  112        0.488396   0.000000
  113        0.687649   0.000000
  114        0.824732   0.000000
  115        0.838636   0.000000
  116        1.096474   0.000000
  117        1.314183   0.000000
  118        1.646244   0.000000
  119        1.836080   0.000000
  120        2.149470   0.000000
 
  0.1250000E+00  0.2775558E-16  0.0000000E+00  0.3125000E-01
    1      -17.780214   1.000000
    2      -16.783322   1.000000
    3      -16.724311   1.000000
    4      -16.625178   1.000000
    5      -16.541917   1.000000
    6      -16.470667   1.000000
    7      -16.386531   1.000000
    8      -16.266958   1.000000
    9      -16.181331   1.000000
   10      -16.069645   1.000000
   11      -16.016761   1.000000
   12      -15.935968   1.000000
   13      -15.891909   1.000000
   14      -15.676277   1.000000
   15      -15.599958   1.000000
   16      -15.522833   1.000000
   17      -15.329822   1.000000
   18      -15.275404   1.000000
   19       -9.279249   1.000000
   20       -9.156274   1.000000
   21       -9.027409   1.000000
   22       -8.946212   1.000000
   23       -8.802737   1.000000
   24       -8.722320   1.000000
   25       -8.647775   1.000000
   26       -8.577965   1.000000
   27       -8.521164   1.000000
   28       -8.409211   1.000000
   29       -8.375280   1.000000
   30       -8.329704   1.000000
   31       -8.227802   1.000000
   32       -8.107418   1.000000
   33       -8.003251   1.000000
   34       -7.940763   1.000000
   35       -7.826360   1.000000
   36       -7.758622   1.000000
   37       -7.619770   1.000000
   38       -7.585983   1.000000
   39       -7.494341   1.000000
   40       -7.429271   1.000000
   41       -7.277522   1.000000
   42       -7.218392   1.000000
   43       -7.148391   1.000000
   44       -6.957609   1.000000
   45       -6.887406   1.000000
   46       -6.783794   1.000000
   47       -6.700294   1.000000
   48       -6.634369   1.000000
   49       -6.580932   1.000000
   50       -6.541311   1.000000
   51       -6.468737   1.000000
   52       -6.389958   1.000000
   53       -6.279681   1.000000
   54       -6.229794   1.000000
   55       -6.183951   1.000000
   56       -6.087848   1.000000
   57       -5.982492   1.000000
   58       -5.847749   1.000000
   59       -5.766746   1.000000
   60       -5.563313   1.000000
   61       -5.539595   1.000000
   62       -5.461063   1.000000
   63       -5.322785   1.000000
   64       -5.193784   1.000000
   65       -5.141176   1.000000
   66       -5.061613   1.000000
   67       -4.923886   1.000000
   68       -4.863559   1.000000
   69       -4.784412   1.000000
   70       -4.669436   1.000000
   71       -4.611269   1.000000
   72       -4.520650   1.000000
   73       -4.412293   1.000000
   74       -4.305382   1.000000
   75       -4.139399   1.000000
   76       -4.011563   1.000000
   77       -3.789390   0.999584
   78       -3.736647   0.998505
   79       -3.525180   0.929685
   80       -3.454348   0.834622
   81       -3.108701   0.070578
   82       -2.833866   0.000319
   83       -2.731574   0.000018
   84       -2.568205   0.000000
   85       -2.449446   0.000000
   86       -2.379150   0.000000
   87       -2.288305   0.000000
   88       -2.156172   0.000000
   89       -2.125053   0.000000
   90       -2.008413   0.000000
   91       -1.793329   0.000000
   92       -1.567608   0.000000
   93       -1.488792   0.000000
   94       -1.358411   0.000000
   95       -1.252639   0.000000
   96       -1.007656   0.000000
   97       -0.954485   0.000000
   98       -0.873978   0.000000
   99       -0.815549   0.000000
  100       -0.712049   0.000000
  101       -0.608721   0.000000
  102       -0.530558   0.000000
  103       -0.456338   0.000000
  104       -0.334319   0.000000
  105       -0.306323   0.000000
  106       -0.210160   0.000000
  107       -0.122800   0.000000
  108       -0.048192   0.000000
  109        0.086705   0.000000
  110        0.143121   0.000000
  111        0.420082   0.000000
  112        0.556013   0.000000
  113        0.724844   0.000000
  114        0.826350   0.000000
  115        0.890601   0.000000
  116        1.114599   0.000000
  117        1.285261   0.000000
  118        1.691116   0.000000
  119        1.874685   0.000000
  120        2.184705   0.000000
 
  0.2500000E+00  0.5551115E-16  0.0000000E+00  0.3125000E-01
    1      -17.707147   1.000000
    2      -16.978637   1.000000
    3      -16.747109   1.000000
    4      -16.664359   1.000000
    5      -16.601111   1.000000
    6      -16.445740   1.000000
    7      -16.342135   1.000000
    8      -16.222133   1.000000
    9      -16.163115   1.000000
   10      -16.025603   1.000000
   11      -15.960448   1.000000
   12      -15.911142   1.000000
   13      -15.803397   1.000000
   14      -15.695602   1.000000
   15      -15.613707   1.000000
   16      -15.527183   1.000000
   17      -15.367879   1.000000
   18      -15.274770   1.000000
   19       -9.488344   1.000000
   20       -9.227408   1.000000
   21       -9.161855   1.000000
   22       -9.040394   1.000000
   23       -8.896247   1.000000
   24       -8.777351   1.000000
   25       -8.682798   1.000000
   26       -8.519011   1.000000
   27       -8.438747   1.000000
   28       -8.353517   1.000000
   29       -8.308796   1.000000
   30       -8.270221   1.000000
   31       -8.148199   1.000000
   32       -8.045303   1.000000
   33       -7.950990   1.000000
   34       -7.842752   1.000000
   35       -7.748452   1.000000
   36       -7.643648   1.000000
   37       -7.595213   1.000000
   38       -7.530111   1.000000
   39       -7.430177   1.000000
   40       -7.386392   1.000000
   41       -7.256191   1.000000
   42       -7.210891   1.000000
   43       -7.137432   1.000000
   44       -6.966350   1.000000
   45       -6.936143   1.000000
   46       -6.797126   1.000000
   47       -6.749595   1.000000
   48       -6.658869   1.000000
   49       -6.582078   1.000000
   50       -6.513821   1.000000
   51       -6.461081   1.000000
   52       -6.381928   1.000000
   53       -6.237376   1.000000
   54       -6.212869   1.000000
   55       -6.121877   1.000000
   56       -6.082295   1.000000
   57       -5.967516   1.000000
   58       -5.839038   1.000000
   59       -5.740632   1.000000
   60       -5.708897   1.000000
   61       -5.599487   1.000000
   62       -5.574820   1.000000
   63       -5.408348   1.000000
   64       -5.338385   1.000000
   65       -5.179398   1.000000
   66       -5.091432   1.000000
   67       -5.012431   1.000000
   68       -4.865408   1.000000
   69       -4.812523   1.000000
   70       -4.596011   1.000000
   71       -4.517023   1.000000
   72       -4.408437   1.000000
   73       -4.313946   1.000000
   74       -4.240530   1.000000
   75       -4.134150   1.000000
   76       -4.073506   1.000000
   77       -4.000552   0.999999
   78       -3.698046   0.996489
   79       -3.513227   0.917573
   80       -3.422620   0.772841
   81       -3.000785   0.012722
   82       -2.827620   0.000271
   83       -2.698727   0.000006
   84       -2.581269   0.000000
   85       -2.436835   0.000000
   86       -2.404754   0.000000
   87       -2.251863   0.000000
   88       -2.155011   0.000000
   89       -2.032092   0.000000
   90       -1.948136   0.000000
   91       -1.819233   0.000000
   92       -1.557829   0.000000
   93       -1.495641   0.000000
   94       -1.332734   0.000000
   95       -1.248084   0.000000
   96       -1.073453   0.000000
   97       -0.992004   0.000000
   98       -0.938711   0.000000
   99       -0.854997   0.000000
  100       -0.821433   0.000000
  101       -0.722398   0.000000
  102       -0.631062   0.000000
  103       -0.522543   0.000000
  104       -0.424345   0.000000
  105       -0.378129   0.000000
  106       -0.305253   0.000000
  107       -0.161267   0.000000
  108       -0.091733   0.000000
  109        0.009130   0.000000
  110        0.143421   0.000000
  111        0.493686   0.000000
  112        0.588418   0.000000
  113        0.734163   0.000000
  114        0.934258   0.000000
  115        1.010259   0.000000
  116        1.190821   0.000000
  117        1.244542   0.000000
  118        1.814440   0.000000
  119        1.985404   0.000000
  120        2.289059   0.000000
 
  0.3750000E+00  0.0000000E+00  0.0000000E+00  0.3125000E-01
    1      -17.593267   1.000000
    2      -17.186057   1.000000
    3      -16.777856   1.000000
    4      -16.676126   1.000000
    5      -16.633921   1.000000
    6      -16.435275   1.000000
    7      -16.339403   1.000000
    8      -16.208044   1.000000
    9      -16.082359   1.000000
   10      -15.984592   1.000000
   11      -15.944852   1.000000
   12      -15.876137   1.000000
   13      -15.753001   1.000000
   14      -15.706203   1.000000
   15      -15.601497   1.000000
   16      -15.537968   1.000000
   17      -15.424679   1.000000
   18      -15.261409   1.000000
   19       -9.704527   1.000000
   20       -9.334247   1.000000
   21       -9.149958   1.000000
   22       -9.103132   1.000000
   23       -8.943060   1.000000
   24       -8.807602   1.000000
   25       -8.661260   1.000000
   26       -8.464077   1.000000
   27       -8.412147   1.000000
   28       -8.312496   1.000000
   29       -8.275858   1.000000
   30       -8.193484   1.000000
   31       -8.137130   1.000000
   32       -8.061419   1.000000
   33       -7.920896   1.000000
   34       -7.848947   1.000000
   35       -7.767106   1.000000
   36       -7.679215   1.000000
   37       -7.545575   1.000000
   38       -7.443952   1.000000
   39       -7.339823   1.000000
   40       -7.298901   1.000000
   41       -7.202041   1.000000
   42       -7.160747   1.000000
   43       -7.061560   1.000000
   44       -6.932477   1.000000
   45       -6.904175   1.000000
   46       -6.852012   1.000000
   47       -6.693204   1.000000
   48       -6.597095   1.000000
   49       -6.544993   1.000000
   50       -6.530962   1.000000
   51       -6.400620   1.000000
   52       -6.309262   1.000000
   53       -6.226841   1.000000
   54       -6.192181   1.000000
   55       -6.129078   1.000000
   56       -6.102856   1.000000
   57       -5.993717   1.000000
   58       -5.907005   1.000000
   59       -5.854896   1.000000
   60       -5.783969   1.000000
   61       -5.732875   1.000000
   62       -5.663246   1.000000
   63       -5.534550   1.000000
   64       -5.325366   1.000000
   65       -5.215524   1.000000
   66       -5.109064   1.000000
   67       -5.022665   1.000000
   68       -4.917147   1.000000
   69       -4.740636   1.000000
   70       -4.681924   1.000000
   71       -4.455605   1.000000
   72       -4.412674   1.000000
   73       -4.298054   1.000000
   74       -4.241265   1.000000
   75       -4.153112   1.000000
   76       -4.074248   1.000000
   77       -3.957263   0.999997
   78       -3.646949   0.990215
   79       -3.541255   0.943757
   80       -3.331772   0.542149
   81       -2.929019   0.003053
   82       -2.800433   0.000130
   83       -2.712059   0.000010
   84       -2.551242   0.000000
   85       -2.473046   0.000000
   86       -2.408406   0.000000
   87       -2.211565   0.000000
   88       -2.165045   0.000000
   89       -1.988297   0.000000
   90       -1.871776   0.000000
   91       -1.779818   0.000000
   92       -1.566659   0.000000
   93       -1.497405   0.000000
   94       -1.306288   0.000000
   95       -1.243446   0.000000
   96       -1.193573   0.000000
   97       -1.087827   0.000000
   98       -1.020911   0.000000
   99       -0.919058   0.000000
  100       -0.830762   0.000000
  101       -0.769154   0.000000
  102       -0.708349   0.000000
  103       -0.613115   0.000000
  104       -0.522431   0.000000
  105       -0.421858   0.000000
  106       -0.354943   0.000000
  107       -0.228513   0.000000
  108       -0.142368   0.000000
  109       -0.066276   0.000000
  110        0.161489   0.000000
  111        0.487006   0.000000
  112        0.591964   0.000000
  113        0.766067   0.000000
  114        1.001698   0.000000
  115        1.135660   0.000000
  116        1.213838   0.000000
  117        1.317348   0.000000
  118        1.997597   0.000000
  119        2.158412   0.000000
  120        2.458874   0.000000
 
  0.5000000E+00  0.1110223E-15  0.0000000E+00  0.1562500E-01
    1      -17.496595   1.000000
    2      -17.316221   1.000000
    3      -16.790629   1.000000
    4      -16.682299   1.000000
    5      -16.639426   1.000000
    6      -16.434836   1.000000
    7      -16.341806   1.000000
    8      -16.203683   1.000000
    9      -16.036089   1.000000
   10      -15.968849   1.000000
   11      -15.945660   1.000000
   12      -15.850623   1.000000
   13      -15.777753   1.000000
   14      -15.687968   1.000000
   15      -15.598256   1.000000
   16      -15.517830   1.000000
   17      -15.469804   1.000000
   18      -15.252268   1.000000
   19       -9.783039   1.000000
   20       -9.375940   1.000000
   21       -9.170229   1.000000
   22       -9.107826   1.000000
   23       -8.949944   1.000000
   24       -8.786307   1.000000
   25       -8.633063   1.000000
   26       -8.513232   1.000000
   27       -8.419143   1.000000
   28       -8.281507   1.000000
   29       -8.252209   1.000000
   30       -8.129905   1.000000
   31       -8.123091   1.000000
   32       -8.065529   1.000000
   33       -7.929913   1.000000
   34       -7.840260   1.000000
   35       -7.820445   1.000000
   36       -7.736018   1.000000
   37       -7.560748   1.000000
   38       -7.417097   1.000000
   39       -7.320176   1.000000
   40       -7.277978   1.000000
   41       -7.169888   1.000000
   42       -7.055210   1.000000
   43       -6.963595   1.000000
   44       -6.933605   1.000000
   45       -6.901699   1.000000
   46       -6.753583   1.000000
   47       -6.715115   1.000000
   48       -6.581947   1.000000
   49       -6.539174   1.000000
   50       -6.516252   1.000000
   51       -6.432432   1.000000
   52       -6.350029   1.000000
   53       -6.260727   1.000000
   54       -6.211924   1.000000
   55       -6.100483   1.000000
   56       -6.047125   1.000000
   57       -5.966652   1.000000
   58       -5.919668   1.000000
   59       -5.879880   1.000000
   60       -5.863898   1.000000
   61       -5.758832   1.000000
   62       -5.637652   1.000000
   63       -5.517763   1.000000
   64       -5.411013   1.000000
   65       -5.331041   1.000000
   66       -5.102222   1.000000
   67       -5.064125   1.000000
   68       -4.967161   1.000000
   69       -4.747492   1.000000
   70       -4.616597   1.000000
   71       -4.470818   1.000000
   72       -4.377818   1.000000
   73       -4.350317   1.000000
   74       -4.244569   1.000000
   75       -4.129784   1.000000
   76       -4.047351   1.000000
   77       -3.913113   0.999988
   78       -3.628281   0.986184
   79       -3.557490   0.955614
   80       -3.304268   0.464685
   81       -2.847303   0.000450
   82       -2.822170   0.000235
   83       -2.737246   0.000021
   84       -2.527296   0.000000
   85       -2.485395   0.000000
   86       -2.419661   0.000000
   87       -2.184530   0.000000
   88       -2.177087   0.000000
   89       -1.984891   0.000000
   90       -1.858256   0.000000
   91       -1.714906   0.000000
   92       -1.587105   0.000000
   93       -1.482047   0.000000
   94       -1.323367   0.000000
   95       -1.250570   0.000000
   96       -1.229476   0.000000
   97       -1.119562   0.000000
   98       -1.072198   0.000000
   99       -0.948023   0.000000
  100       -0.825782   0.000000
  101       -0.780699   0.000000
  102       -0.726851   0.000000
  103       -0.653529   0.000000
  104       -0.572785   0.000000
  105       -0.437602   0.000000
  106       -0.359790   0.000000
  107       -0.260255   0.000000
  108       -0.173245   0.000000
  109       -0.091564   0.000000
  110        0.168782   0.000000
  111        0.476497   0.000000
  112        0.587086   0.000000
  113        0.788101   0.000000
  114        1.020540   0.000000
  115        1.166831   0.000000
  116        1.231851   0.000000
  117        1.363316   0.000000
  118        2.212540   0.000000
  119        2.248388   0.000000
  120        2.380569   0.000000
 
  0.0000000E+00  0.1250000E+00  0.0000000E+00  0.3125000E-01
    1      -17.779736   1.000000
    2      -16.810641   1.000000
    3      -16.707667   1.000000
    4      -16.590961   1.000000
    5      -16.565776   1.000000
    6      -16.450700   1.000000
    7      -16.400164   1.000000
    8      -16.269349   1.000000
    9      -16.174628   1.000000
   10      -16.085270   1.000000
   11      -16.023384   1.000000
   12      -15.944058   1.000000
   13      -15.877501   1.000000
   14      -15.668272   1.000000
   15      -15.595324   1.000000
   16      -15.528157   1.000000
   17      -15.330151   1.000000
   18      -15.277276   1.000000
   19       -9.259629   1.000000
   20       -9.157445   1.000000
   21       -9.020914   1.000000
   22       -8.971719   1.000000
   23       -8.825456   1.000000
   24       -8.708693   1.000000
   25       -8.633921   1.000000
   26       -8.576508   1.000000
   27       -8.496380   1.000000
   28       -8.422486   1.000000
   29       -8.380326   1.000000
   30       -8.316759   1.000000
   31       -8.249217   1.000000
   32       -8.109301   1.000000
   33       -8.040643   1.000000
   34       -7.902232   1.000000
   35       -7.868785   1.000000
   36       -7.728438   1.000000
   37       -7.663046   1.000000
   38       -7.559699   1.000000
   39       -7.445537   1.000000
   40       -7.408009   1.000000
   41       -7.320508   1.000000
   42       -7.252901   1.000000
   43       -7.139534   1.000000
   44       -6.917846   1.000000
   45       -6.879948   1.000000
   46       -6.849715   1.000000
   47       -6.707863   1.000000
   48       -6.647000   1.000000
   49       -6.564879   1.000000
   50       -6.497837   1.000000
   51       -6.474608   1.000000
   52       -6.363287   1.000000
   53       -6.290739   1.000000
   54       -6.234664   1.000000
   55       -6.159299   1.000000
   56       -6.053060   1.000000
   57       -5.998061   1.000000
   58       -5.868881   1.000000
   59       -5.777146   1.000000
   60       -5.586163   1.000000
   61       -5.548807   1.000000
   62       -5.449774   1.000000
   63       -5.379598   1.000000
   64       -5.137896   1.000000
   65       -5.105997   1.000000
   66       -5.019496   1.000000
   67       -4.949107   1.000000
   68       -4.850335   1.000000
   69       -4.745448   1.000000
   70       -4.703640   1.000000
   71       -4.660026   1.000000
   72       -4.510447   1.000000
   73       -4.421168   1.000000
   74       -4.350579   1.000000
   75       -4.122253   1.000000
   76       -4.010444   1.000000
   77       -3.785486   0.999540
   78       -3.700936   0.996699
   79       -3.580914   0.969087
   80       -3.459520   0.843551
   81       -3.087580   0.052525
   82       -2.832888   0.000311
   83       -2.732790   0.000018
   84       -2.549815   0.000000
   85       -2.463762   0.000000
   86       -2.348902   0.000000
   87       -2.294222   0.000000
   88       -2.165060   0.000000
   89       -2.124209   0.000000
   90       -2.020993   0.000000
   91       -1.802836   0.000000
   92       -1.575410   0.000000
   93       -1.477409   0.000000
   94       -1.339722   0.000000
   95       -1.252266   0.000000
   96       -1.007740   0.000000
   97       -0.962668   0.000000
   98       -0.859344   0.000000
   99       -0.800893   0.000000
  100       -0.685394   0.000000
  101       -0.648789   0.000000
  102       -0.540055   0.000000
  103       -0.484193   0.000000
  104       -0.352437   0.000000
  105       -0.305791   0.000000
  106       -0.180639   0.000000
  107       -0.133309   0.000000
  108        0.030610   0.000000
  109        0.117731   0.000000
  110        0.175021   0.000000
  111        0.398636   0.000000
  112        0.461417   0.000000
  113        0.672878   0.000000
  114        0.811329   0.000000
  115        0.883976   0.000000
  116        1.131103   0.000000
  117        1.338541   0.000000
  118        1.689827   0.000000
  119        1.874998   0.000000
  120        2.184672   0.000000
 
  0.1250000E+00  0.1250000E+00  0.0000000E+00  0.3125000E-01
    1      -17.730118   1.000000
    2      -16.921697   1.000000
    3      -16.762542   1.000000
    4      -16.674958   1.000000
    5      -16.528352   1.000000
    6      -16.431498   1.000000
    7      -16.376042   1.000000
    8      -16.211480   1.000000
    9      -16.202626   1.000000
   10      -16.069131   1.000000
   11      -15.985084   1.000000
   12      -15.901017   1.000000
   13      -15.822309   1.000000
   14      -15.668690   1.000000
   15      -15.607512   1.000000
   16      -15.520782   1.000000
   17      -15.361998   1.000000
   18      -15.283321   1.000000
   19       -9.364659   1.000000
   20       -9.259796   1.000000
   21       -9.158981   1.000000
   22       -9.020136   1.000000
   23       -8.881506   1.000000
   24       -8.730925   1.000000
   25       -8.624335   1.000000
   26       -8.539726   1.000000
   27       -8.500128   1.000000
   28       -8.372969   1.000000
   29       -8.342520   1.000000
   30       -8.287815   1.000000
   31       -8.176491   1.000000
   32       -8.085289   1.000000
   33       -8.003866   1.000000
   34       -7.838295   1.000000
   35       -7.724069   1.000000
   36       -7.651342   1.000000
   37       -7.626044   1.000000
   38       -7.501841   1.000000
   39       -7.444431   1.000000
   40       -7.339966   1.000000
   41       -7.281529   1.000000
   42       -7.240276   1.000000
   43       -7.179731   1.000000
   44       -7.005596   1.000000
   45       -6.941236   1.000000
   46       -6.828027   1.000000
   47       -6.716489   1.000000
   48       -6.657985   1.000000
   49       -6.593855   1.000000
   50       -6.537033   1.000000
   51       -6.456248   1.000000
   52       -6.315478   1.000000
   53       -6.229701   1.000000
   54       -6.203258   1.000000
   55       -6.189332   1.000000
   56       -6.038468   1.000000
   57       -5.950587   1.000000
   58       -5.861782   1.000000
   59       -5.724928   1.000000
   60       -5.684957   1.000000
   61       -5.544370   1.000000
   62       -5.473072   1.000000
   63       -5.436455   1.000000
   64       -5.362058   1.000000
   65       -5.163571   1.000000
   66       -5.086573   1.000000
   67       -4.950920   1.000000
   68       -4.878063   1.000000
   69       -4.788589   1.000000
   70       -4.644607   1.000000
   71       -4.603400   1.000000
   72       -4.430930   1.000000
   73       -4.311310   1.000000
   74       -4.253062   1.000000
   75       -4.102614   1.000000
   76       -4.085519   1.000000
   77       -3.927384   0.999992
   78       -3.735149   0.998453
   79       -3.556100   0.954685
   80       -3.415501   0.757381
   81       -2.985347   0.009546
   82       -2.853266   0.000523
   83       -2.711619   0.000009
   84       -2.584930   0.000000
   85       -2.429699   0.000000
   86       -2.376753   0.000000
   87       -2.285225   0.000000
   88       -2.155975   0.000000
   89       -2.054528   0.000000
   90       -1.990671   0.000000
   91       -1.836810   0.000000
   92       -1.568031   0.000000
   93       -1.473842   0.000000
   94       -1.304896   0.000000
   95       -1.252717   0.000000
   96       -1.037260   0.000000
   97       -0.983561   0.000000
   98       -0.877343   0.000000
   99       -0.825121   0.000000
  100       -0.770187   0.000000
  101       -0.764004   0.000000
  102       -0.632430   0.000000
  103       -0.517516   0.000000
  104       -0.405711   0.000000
  105       -0.317727   0.000000
  106       -0.234752   0.000000
  107       -0.164161   0.000000
  108       -0.026371   0.000000
  109        0.030783   0.000000
  110        0.122510   0.000000
  111        0.474838   0.000000
  112        0.496985   0.000000
  113        0.724742   0.000000
  114        0.820135   0.000000
  115        0.964117   0.000000
  116        1.193956   0.000000
  117        1.353863   0.000000
  118        1.776228   0.000000
  119        1.947419   0.000000
  120        2.254900   0.000000
 
  0.2500000E+00  0.1250000E+00  0.0000000E+00  0.3125000E-01
    1      -17.634929   1.000000
    2      -17.088392   1.000000
    3      -16.883023   1.000000
    4      -16.657231   1.000000
    5      -16.536182   1.000000
    6      -16.410596   1.000000
    7      -16.340735   1.000000
    8      -16.224717   1.000000
    9      -16.127888   1.000000
   10      -16.029208   1.000000
   11      -15.975342   1.000000
   12      -15.889775   1.000000
   13      -15.726921   1.000000
   14      -15.699832   1.000000
   15      -15.587260   1.000000
   16      -15.523718   1.000000
   17      -15.422123   1.000000
   18      -15.272819   1.000000
   19       -9.597413   1.000000
   20       -9.398997   1.000000
   21       -9.192956   1.000000
   22       -9.061682   1.000000
   23       -8.865124   1.000000
   24       -8.755465   1.000000
   25       -8.650233   1.000000
   26       -8.487340   1.000000
   27       -8.398426   1.000000
   28       -8.347419   1.000000
   29       -8.277057   1.000000
   30       -8.208983   1.000000
   31       -8.172565   1.000000
   32       -8.092147   1.000000
   33       -7.962625   1.000000
   34       -7.905569   1.000000
   35       -7.786059   1.000000
   36       -7.602228   1.000000
   37       -7.556826   1.000000
   38       -7.425972   1.000000
   39       -7.343481   1.000000
   40       -7.273397   1.000000
   41       -7.254070   1.000000
   42       -7.190120   1.000000
   43       -7.121711   1.000000
   44       -6.993526   1.000000
   45       -6.856171   1.000000
   46       -6.810550   1.000000
   47       -6.702787   1.000000