   27   27  100    1
  0.9710400E+02  0.1002848E-08  0.1002848E-08  0.3000000E-08  0.5000000E-15
  1.000000000000000E-004
  CAR 
 unknown system                          
    159     34    120
 
  0.0000000E+00  0.0000000E+00  0.0000000E+00  0.1562500E-01
    1      -17.800104   1.000000
    2      -16.714823   1.000000
    3      -16.656611   1.000000
    4      -16.586466   1.000000
    5      -16.494527   1.000000
    6      -16.432365   1.000000
    7      -16.379371   1.000000
    8      -16.298251   1.000000
    9      -16.168711   1.000000
   10      -16.127700   1.000000
   11      -16.027311   1.000000
   12      -15.919314   1.000000
   13      -15.862815   1.000000
   14      -15.699365   1.000000
   15      -15.609666   1.000000
   16      -15.507092   1.000000
   17      -15.468081   1.000000
   18      -15.277891   1.000000
   19       -9.427851   1.000000
   20       -9.042757   1.000000
   21       -8.908576   1.000000
   22       -8.851074   1.000000
   23       -8.698971   1.000000
   24       -8.651043   1.000000
   25       -8.611143   1.000000
   26       -8.547209   1.000000
   27       -8.484122   1.000000
   28       -8.443067   1.000000
   29       -8.387359   1.000000
   30       -8.360475   1.000000
   31       -8.301137   1.000000
   32       -8.134243   1.000000
   33       -8.074229   1.000000
   34       -7.998328   1.000000
   35       -7.881380   1.000000
   36       -7.760687   1.000000
   37       -7.697797   1.000000
   38       -7.548084   1.000000
   39       -7.495460   1.000000
   40       -7.438937   1.000000
   41       -7.372024   1.000000
   42       -7.170875   1.000000
   43       -7.139752   1.000000
   44       -6.963417   1.000000
   45       -6.826025   1.000000
   46       -6.813135   1.000000
   47       -6.712977   1.000000
   48       -6.676677   1.000000
   49       -6.632100   1.000000
   50       -6.455469   1.000000
   51       -6.421411   1.000000
   52       -6.371159   1.000000
   53       -6.288412   1.000000
   54       -6.204903   1.000000
   55       -6.187741   1.000000
   56       -6.066126   1.000000
   57       -6.042343   1.000000
   58       -5.900251   1.000000
   59       -5.750348   1.000000
   60       -5.619694   1.000000
   61       -5.445189   1.000000
   62       -5.353498   1.000000
   63       -5.340322   1.000000
   64       -5.204782   1.000000
   65       -5.080040   1.000000
   66       -4.976368   1.000000
   67       -4.933940   1.000000
   68       -4.857722   1.000000
   69       -4.797371   1.000000
   70       -4.738985   1.000000
   71       -4.629925   1.000000
   72       -4.593568   1.000000
   73       -4.523773   1.000000
   74       -4.515479   1.000000
   75       -4.185831   1.000000
   76       -3.984902   0.999994
   77       -3.801206   0.998899
   78       -3.705039   0.991382
   79       -3.597300   0.947361
   80       -3.424525   0.654719
   81       -3.209013   0.130123
   82       -2.827306   0.000065
   83       -2.706842   0.000001
   84       -2.666949   0.000000
   85       -2.592277   0.000000
   86       -2.488868   0.000000
   87       -2.390367   0.000000
   88       -2.307977   0.000000
   89       -2.240157   0.000000
   90       -2.192672   0.000000
   91       -1.665248   0.000000
   92       -1.587757   0.000000
   93       -1.550682   0.000000
   94       -1.463252   0.000000
   95       -1.228980   0.000000
   96       -1.030852   0.000000
   97       -0.889191   0.000000
   98       -0.836220   0.000000
   99       -0.722947   0.000000
  100       -0.648494   0.000000
  101       -0.586299   0.000000
  102       -0.577719   0.000000
  103       -0.488842   0.000000
  104       -0.351500   0.000000
  105       -0.217035   0.000000
  106       -0.094507   0.000000
  107       -0.021631   0.000000
  108       -0.003094   0.000000
  109        0.120615   0.000000
  110        0.287399   0.000000
  111        0.390146   0.000000
  112        0.454626   0.000000
  113        0.547330   0.000000
  114        0.730708   0.000000
  115        0.841987   0.000000
  116        0.989503   0.000000
  117        1.243577   0.000000
  118        1.637297   0.000000
  119        1.833895   0.000000
  120        2.153652   0.000000
 
  0.1250000E+00  0.2775558E-16  0.0000000E+00  0.3125000E-01
    1      -17.775449   1.000000
    2      -16.763942   1.000000
    3      -16.693041   1.000000
    4      -16.653611   1.000000
    5      -16.495700   1.000000
    6      -16.406374   1.000000
    7      -16.372783   1.000000
    8      -16.269917   1.000000
    9      -16.173141   1.000000
   10      -16.102743   1.000000
   11      -15.974951   1.000000
   12      -15.926744   1.000000
   13      -15.813506   1.000000
   14      -15.700319   1.000000
   15      -15.617314   1.000000
   16      -15.512608   1.000000
   17      -15.473073   1.000000
   18      -15.293484   1.000000
   19       -9.426866   1.000000
   20       -9.118000   1.000000
   21       -9.050142   1.000000
   22       -8.949375   1.000000
   23       -8.757163   1.000000
   24       -8.654558   1.000000
   25       -8.623630   1.000000
   26       -8.585141   1.000000
   27       -8.496900   1.000000
   28       -8.425979   1.000000
   29       -8.338459   1.000000
   30       -8.279295   1.000000
   31       -8.195135   1.000000
   32       -8.054038   1.000000
   33       -8.031667   1.000000
   34       -7.903216   1.000000
   35       -7.805540   1.000000
   36       -7.743986   1.000000
   37       -7.671626   1.000000
   38       -7.580124   1.000000
   39       -7.463019   1.000000
   40       -7.419289   1.000000
   41       -7.347191   1.000000
   42       -7.177680   1.000000
   43       -7.142735   1.000000
   44       -6.970573   1.000000
   45       -6.958112   1.000000
   46       -6.856201   1.000000
   47       -6.728182   1.000000
   48       -6.636679   1.000000
   49       -6.573014   1.000000
   50       -6.495868   1.000000
   51       -6.416568   1.000000
   52       -6.330255   1.000000
   53       -6.285505   1.000000
   54       -6.206887   1.000000
   55       -6.175475   1.000000
   56       -6.134681   1.000000
   57       -5.986861   1.000000
   58       -5.871824   1.000000
   59       -5.717618   1.000000
   60       -5.611649   1.000000
   61       -5.448316   1.000000
   62       -5.402088   1.000000
   63       -5.332828   1.000000
   64       -5.267840   1.000000
   65       -5.129059   1.000000
   66       -5.089775   1.000000
   67       -4.992947   1.000000
   68       -4.890038   1.000000
   69       -4.773187   1.000000
   70       -4.733651   1.000000
   71       -4.666818   1.000000
   72       -4.530315   1.000000
   73       -4.451703   1.000000
   74       -4.410289   1.000000
   75       -4.115501   1.000000
   76       -3.960753   0.999986
   77       -3.874831   0.999830
   78       -3.792314   0.998645
   79       -3.599916   0.949320
   80       -3.448437   0.714701
   81       -3.145377   0.057537
   82       -2.829180   0.000069
   83       -2.733712   0.000004
   84       -2.665711   0.000000
   85       -2.585725   0.000000
   86       -2.482470   0.000000
   87       -2.406577   0.000000
   88       -2.269157   0.000000
   89       -2.213782   0.000000
   90       -2.169095   0.000000
   91       -1.681595   0.000000
   92       -1.586106   0.000000
   93       -1.518913   0.000000
   94       -1.450620   0.000000
   95       -1.215525   0.000000
   96       -1.041629   0.000000
   97       -0.910087   0.000000
   98       -0.855106   0.000000
   99       -0.756051   0.000000
  100       -0.671505   0.000000
  101       -0.625412   0.000000
  102       -0.596182   0.000000
  103       -0.521885   0.000000
  104       -0.390173   0.000000
  105       -0.249759   0.000000
  106       -0.137012   0.000000
  107       -0.108163   0.000000
  108       -0.005924   0.000000
  109        0.062420   0.000000
  110        0.282940   0.000000
  111        0.363047   0.000000
  112        0.495125   0.000000
  113        0.611117   0.000000
  114        0.748277   0.000000
  115        0.887261   0.000000
  116        1.026543   0.000000
  117        1.248082   0.000000
  118        1.682034   0.000000
  119        1.871146   0.000000
  120        2.188791   0.000000
 
  0.2500000E+00  0.5551115E-16  0.0000000E+00  0.3125000E-01
    1      -17.703424   1.000000
    2      -16.956717   1.000000
    3      -16.726633   1.000000
    4      -16.677816   1.000000
    5      -16.556532   1.000000
    6      -16.410169   1.000000
    7      -16.310917   1.000000
    8      -16.226672   1.000000
    9      -16.138348   1.000000
   10      -16.067459   1.000000
   11      -15.959962   1.000000
   12      -15.849588   1.000000
   13      -15.734855   1.000000
   14      -15.698240   1.000000
   15      -15.622730   1.000000
   16      -15.536575   1.000000
   17      -15.483749   1.000000
   18      -15.329564   1.000000
   19       -9.526588   1.000000
   20       -9.264100   1.000000
   21       -9.185071   1.000000
   22       -9.067336   1.000000
   23       -8.829596   1.000000
   24       -8.748606   1.000000
   25       -8.613735   1.000000
   26       -8.551373   1.000000
   27       -8.510739   1.000000
   28       -8.405760   1.000000
   29       -8.224825   1.000000
   30       -8.174380   1.000000
   31       -8.097991   1.000000
   32       -8.002552   1.000000
   33       -7.953537   1.000000
   34       -7.819583   1.000000
   35       -7.794460   1.000000
   36       -7.683373   1.000000
   37       -7.590378   1.000000
   38       -7.491406   1.000000
   39       -7.442022   1.000000
   40       -7.335136   1.000000
   41       -7.275254   1.000000
   42       -7.215383   1.000000
   43       -7.081009   1.000000
   44       -7.032432   1.000000
   45       -6.973844   1.000000
   46       -6.841914   1.000000
   47       -6.728224   1.000000
   48       -6.647285   1.000000
   49       -6.585045   1.000000
   50       -6.510602   1.000000
   51       -6.402193   1.000000
   52       -6.351871   1.000000
   53       -6.260191   1.000000
   54       -6.202063   1.000000
   55       -6.124557   1.000000
   56       -6.069408   1.000000
   57       -5.985727   1.000000
   58       -5.836922   1.000000
   59       -5.719496   1.000000
   60       -5.675455   1.000000
   61       -5.598648   1.000000
   62       -5.496659   1.000000
   63       -5.444334   1.000000
   64       -5.316212   1.000000
   65       -5.259479   1.000000
   66       -5.160785   1.000000
   67       -4.993376   1.000000
   68       -4.862843   1.000000
   69       -4.799480   1.000000
   70       -4.734213   1.000000
   71       -4.576627   1.000000
   72       -4.454952   1.000000
   73       -4.376938   1.000000
   74       -4.287396   1.000000
   75       -4.179070   1.000000
   76       -4.050564   0.999999
   77       -3.916382   0.999947
   78       -3.831937   0.999479
   79       -3.520193   0.858715
   80       -3.419006   0.640226
   81       -3.114535   0.036417
   82       -2.841642   0.000098
   83       -2.763259   0.000009
   84       -2.674030   0.000000
   85       -2.602239   0.000000
   86       -2.480137   0.000000
   87       -2.399671   0.000000
   88       -2.198924   0.000000
   89       -2.146658   0.000000
   90       -2.108373   0.000000
   91       -1.712334   0.000000
   92       -1.584857   0.000000
   93       -1.486389   0.000000
   94       -1.384441   0.000000
   95       -1.194826   0.000000
   96       -1.087334   0.000000
   97       -0.978095   0.000000
   98       -0.892260   0.000000
   99       -0.836733   0.000000
  100       -0.746668   0.000000
  101       -0.693054   0.000000
  102       -0.618458   0.000000
  103       -0.564637   0.000000
  104       -0.478858   0.000000
  105       -0.355814   0.000000
  106       -0.263146   0.000000
  107       -0.198698   0.000000
  108       -0.050633   0.000000
  109       -0.033474   0.000000
  110        0.251590   0.000000
  111        0.300069   0.000000
  112        0.548536   0.000000
  113        0.675782   0.000000
  114        0.795566   0.000000
  115        1.052965   0.000000
  116        1.104790   0.000000
  117        1.267617   0.000000
  118        1.806288   0.000000
  119        1.979415   0.000000
  120        2.292870   0.000000
 
  0.3750000E+00  0.0000000E+00  0.0000000E+00  0.3125000E-01
    1      -17.593513   1.000000
    2      -17.160541   1.000000
    3      -16.766462   1.000000
    4      -16.665434   1.000000
    5      -16.605190   1.000000
    6      -16.431326   1.000000
    7      -16.259350   1.000000
    8      -16.199480   1.000000
    9      -16.124528   1.000000
   10      -16.024205   1.000000
   11      -15.906163   1.000000
   12      -15.787199   1.000000
   13      -15.734526   1.000000
   14      -15.673508   1.000000
   15      -15.598315   1.000000
   16      -15.587291   1.000000
   17      -15.488276   1.000000
   18      -15.355034   1.000000
   19       -9.710840   1.000000
   20       -9.351475   1.000000
   21       -9.219240   1.000000
   22       -9.099428   1.000000
   23       -8.904276   1.000000
   24       -8.786669   1.000000
   25       -8.635742   1.000000
   26       -8.529126   1.000000
   27       -8.460515   1.000000
   28       -8.276744   1.000000
   29       -8.228649   1.000000
   30       -8.187824   1.000000
   31       -8.063977   1.000000
   32       -7.982398   1.000000
   33       -7.919155   1.000000
   34       -7.850294   1.000000
   35       -7.746921   1.000000
   36       -7.645557   1.000000
   37       -7.587124   1.000000
   38       -7.519442   1.000000
   39       -7.420916   1.000000
   40       -7.294112   1.000000
   41       -7.172576   1.000000
   42       -7.122020   1.000000
   43       -7.039164   1.000000
   44       -6.967689   1.000000
   45       -6.875376   1.000000
   46       -6.734676   1.000000
   47       -6.682238   1.000000
   48       -6.662836   1.000000
   49       -6.545397   1.000000
   50       -6.458608   1.000000
   51       -6.385905   1.000000
   52       -6.317142   1.000000
   53       -6.281028   1.000000
   54       -6.180118   1.000000
   55       -6.097874   1.000000
   56       -6.055163   1.000000
   57       -5.951719   1.000000
   58       -5.924506   1.000000
   59       -5.876503   1.000000
   60       -5.812213   1.000000
   61       -5.703890   1.000000
   62       -5.588384   1.000000
   63       -5.561416   1.000000
   64       -5.366617   1.000000
   65       -5.291766   1.000000
   66       -5.161693   1.000000
   67       -4.972167   1.000000
   68       -4.882360   1.000000
   69       -4.796435   1.000000
   70       -4.692417   1.000000
   71       -4.628778   1.000000
   72       -4.457031   1.000000
   73       -4.399483   1.000000
   74       -4.287538   1.000000
   75       -4.175009   1.000000
   76       -4.079374   1.000000
   77       -3.871778   0.999815
   78       -3.730656   0.994808
   79       -3.484781   0.795076
   80       -3.345859   0.437165
   81       -3.112455   0.035258
   82       -2.871277   0.000221
   83       -2.783033   0.000018
   84       -2.681043   0.000001
   85       -2.640634   0.000000
   86       -2.488128   0.000000
   87       -2.345709   0.000000
   88       -2.160336   0.000000
   89       -2.102855   0.000000
   90       -2.025942   0.000000
   91       -1.727036   0.000000
   92       -1.574510   0.000000
   93       -1.480777   0.000000
   94       -1.317318   0.000000
   95       -1.216512   0.000000
   96       -1.140079   0.000000
   97       -0.998585   0.000000
   98       -0.968515   0.000000
   99       -0.921512   0.000000
  100       -0.804106   0.000000
  101       -0.735487   0.000000
  102       -0.661475   0.000000
  103       -0.601224   0.000000
  104       -0.533151   0.000000
  105       -0.448635   0.000000
  106       -0.371199   0.000000
  107       -0.277138   0.000000
  108       -0.124452   0.000000
  109       -0.109412   0.000000
  110        0.194585   0.000000
  111        0.283665   0.000000
  112        0.594376   0.000000
  113        0.678755   0.000000
  114        0.872671   0.000000
  115        1.156347   0.000000
  116        1.197450   0.000000
  117        1.313839   0.000000
  118        1.991640   0.000000
  119        2.151649   0.000000
  120        2.457583   0.000000
 
  0.5000000E+00  0.1110223E-15  0.0000000E+00  0.1562500E-01
    1      -17.508154   1.000000
    2      -17.279498   1.000000
    3      -16.780985   1.000000
    4      -16.655561   1.000000
    5      -16.625781   1.000000
    6      -16.440746   1.000000
    7      -16.243261   1.000000
    8      -16.191072   1.000000
    9      -16.116003   1.000000
   10      -16.017564   1.000000
   11      -15.856246   1.000000
   12      -15.766894   1.000000
   13      -15.723054   1.000000
   14      -15.667300   1.000000
   15      -15.657414   1.000000
   16      -15.570945   1.000000
   17      -15.490297   1.000000
   18      -15.357068   1.000000
   19       -9.785312   1.000000
   20       -9.385141   1.000000
   21       -9.251800   1.000000
   22       -9.060478   1.000000
   23       -8.937426   1.000000
   24       -8.791578   1.000000
   25       -8.640758   1.000000
   26       -8.571872   1.000000
   27       -8.378200   1.000000
   28       -8.306594   1.000000
   29       -8.175460   1.000000
   30       -8.139062   1.000000
   31       -8.065092   1.000000
   32       -8.041585   1.000000
   33       -7.898329   1.000000
   34       -7.834573   1.000000
   35       -7.777494   1.000000
   36       -7.652750   1.000000
   37       -7.606824   1.000000
   38       -7.550897   1.000000
   39       -7.441811   1.000000
   40       -7.286457   1.000000
   41       -7.137365   1.000000
   42       -7.044628   1.000000
   43       -6.915958   1.000000
   44       -6.899252   1.000000
   45       -6.758610   1.000000
   46       -6.722932   1.000000
   47       -6.675347   1.000000
   48       -6.598338   1.000000
   49       -6.565088   1.000000
   50       -6.540763   1.000000
   51       -6.430622   1.000000
   52       -6.310581   1.000000
   53       -6.270088   1.000000
   54       -6.191581   1.000000
   55       -6.141647   1.000000
   56       -6.051810   1.000000
   57       -5.952424   1.000000
   58       -5.893037   1.000000
   59       -5.822643   1.000000
   60       -5.785093   1.000000
   61       -5.696681   1.000000
   62       -5.628912   1.000000
   63       -5.596917   1.000000
   64       -5.548162   1.000000
   65       -5.368546   1.000000
   66       -5.143999   1.000000
   67       -5.081290   1.000000
   68       -4.891001   1.000000
   69       -4.797768   1.000000
   70       -4.657642   1.000000
   71       -4.546438   1.000000
   72       -4.466440   1.000000
   73       -4.422298   1.000000
   74       -4.363640   1.000000
   75       -4.118668   1.000000
   76       -4.052754   0.999999
   77       -3.855465   0.999715
   78       -3.682361   0.986833
   79       -3.482461   0.790385
   80       -3.321991   0.371858
   81       -3.087812   0.023693
   82       -2.904642   0.000523
   83       -2.788024   0.000020
   84       -2.683238   0.000001
   85       -2.657926   0.000000
   86       -2.487727   0.000000
   87       -2.321154   0.000000
   88       -2.128277   0.000000
   89       -2.111141   0.000000
   90       -1.994243   0.000000
   91       -1.722212   0.000000
   92       -1.572922   0.000000
   93       -1.469283   0.000000
   94       -1.315338   0.000000
   95       -1.237368   0.000000
   96       -1.153541   0.000000
   97       -1.017186   0.000000
   98       -0.978494   0.000000
   99       -0.928070   0.000000
  100       -0.856226   0.000000
  101       -0.761526   0.000000
  102       -0.688560   0.000000
  103       -0.581150   0.000000
  104       -0.544341   0.000000
  105       -0.520655   0.000000
  106       -0.407731   0.000000
  107       -0.297766   0.000000
  108       -0.167318   0.000000
  109       -0.129057   0.000000
  110        0.175154   0.000000
  111        0.277823   0.000000
  112        0.607379   0.000000
  113        0.682545   0.000000
  114        0.903106   0.000000
  115        1.177443   0.000000
  116        1.237464   0.000000
  117        1.342447   0.000000
  118        2.207654   0.000000
  119        2.244759   0.000000
  120        2.370120   0.000000
 
  0.0000000E+00  0.1250000E+00  0.0000000E+00  0.3125000E-01
    1      -17.776129   1.000000
    2      -16.781718   1.000000
    3      -16.683451   1.000000
    4      -16.610616   1.000000
    5      -16.548846   1.000000
    6      -16.405935   1.000000
    7      -16.346016   1.000000
    8      -16.281501   1.000000
    9      -16.153998   1.000000
   10      -16.098995   1.000000
   11      -15.974354   1.000000
   12      -15.938065   1.000000
   13      -15.829814   1.000000
   14      -15.690220   1.000000
   15      -15.621205   1.000000
   16      -15.511727   1.000000
   17      -15.478939   1.000000
   18      -15.288255   1.000000
   19       -9.438371   1.000000
   20       -9.120584   1.000000
   21       -9.012127   1.000000
   22       -8.936396   1.000000
   23       -8.749442   1.000000
   24       -8.675317   1.000000
   25       -8.626137   1.000000
   26       -8.539639   1.000000
   27       -8.498482   1.000000
   28       -8.477414   1.000000
   29       -8.390851   1.000000
   30       -8.231824   1.000000
   31       -8.181469   1.000000
   32       -8.080576   1.000000
   33       -7.984931   1.000000
   34       -7.903055   1.000000
   35       -7.851016   1.000000
   36       -7.728822   1.000000
   37       -7.687363   1.000000
   38       -7.569126   1.000000
   39       -7.495650   1.000000
   40       -7.387081   1.000000
   41       -7.359955   1.000000
   42       -7.193149   1.000000
   43       -7.151637   1.000000
   44       -7.011097   1.000000
   45       -6.896480   1.000000
   46       -6.841096   1.000000
   47       -6.710698   1.000000
   48       -6.646768   1.000000
   49       -6.579678   1.000000
   50       -6.479250   1.000000
   51       -6.434399   1.000000
   52       -6.354251   1.000000
   53       -6.271699   1.000000
   54       -6.215308   1.000000
   55       -6.171031   1.000000
   56       -6.107370   1.000000
   57       -6.009208   1.000000
   58       -5.899921   1.000000
   59       -5.743250   1.000000
   60       -5.558930   1.000000
   61       -5.460808   1.000000
   62       -5.422422   1.000000
   63       -5.362406   1.000000
   64       -5.231592   1.000000
   65       -5.143156   1.000000
   66       -4.998905   1.000000
   67       -4.953052   1.000000
   68       -4.923761   1.000000
   69       -4.847240   1.000000
   70       -4.793727   1.000000
   71       -4.602272   1.000000
   72       -4.523391   1.000000
   73       -4.417159   1.000000
   74       -4.380915   1.000000
   75       -4.161176   1.000000
   76       -3.986673   0.999994
   77       -3.844422   0.999620
   78       -3.732023   0.994951
   79       -3.616505   0.960421
   80       -3.561170   0.913766
   81       -3.066170   0.016345
   82       -2.822402   0.000057
   83       -2.740026   0.000004
   84       -2.681806   0.000001
   85       -2.577372   0.000000
   86       -2.469886   0.000000
   87       -2.375513   0.000000
   88       -2.297137   0.000000
   89       -2.239040   0.000000
   90       -2.172392   0.000000
   91       -1.674263   0.000000
   92       -1.587774   0.000000
   93       -1.515769   0.000000
   94       -1.453276   0.000000
   95       -1.211917   0.000000
   96       -1.034145   0.000000
   97       -0.906951   0.000000
   98       -0.845785   0.000000
   99       -0.761410   0.000000
  100       -0.698340   0.000000
  101       -0.639432   0.000000
  102       -0.597331   0.000000
  103       -0.533759   0.000000
  104       -0.414745   0.000000
  105       -0.222965   0.000000
  106       -0.151166   0.000000
  107       -0.063247   0.000000
  108       -0.004831   0.000000
  109        0.112292   0.000000
  110        0.221307   0.000000
  111        0.333221   0.000000
  112        0.447807   0.000000
  113        0.583556   0.000000
  114        0.834871   0.000000
  115        0.882862   0.000000
  116        1.030116   0.000000
  117        1.272196   0.000000
  118        1.681063   0.000000
  119        1.872934   0.000000
  120        2.188701   0.000000
 
  0.1250000E+00  0.1250000E+00  0.0000000E+00  0.3125000E-01
    1      -17.728039   1.000000
    2      -16.874431   1.000000
    3      -16.777200   1.000000
    4      -16.662639   1.000000
    5      -16.499632   1.000000
    6      -16.401398   1.000000
    7      -16.349319   1.000000
    8      -16.231644   1.000000
    9      -16.132985   1.000000
   10      -16.104326   1.000000
   11      -15.981732   1.000000
   12      -15.832829   1.000000
   13      -15.780087   1.000000
   14      -15.684082   1.000000
   15      -15.632249   1.000000
   16      -15.510604   1.000000
   17      -15.492258   1.000000
   18      -15.323912   1.000000
   19       -9.481196   1.000000
   20       -9.257540   1.000000
   21       -9.131003   1.000000
   22       -9.042557   1.000000
   23       -8.814596   1.000000
   24       -8.692984   1.000000
   25       -8.595138   1.000000
   26       -8.537641   1.000000
   27       -8.466867   1.000000
   28       -8.409020   1.000000
   29       -8.362929   1.000000
   30       -8.250804   1.000000
   31       -8.110499   1.000000
   32       -8.084188   1.000000
   33       -7.974490   1.000000
   34       -7.824974   1.000000
   35       -7.707070   1.000000
   36       -7.661214   1.000000
   37       -7.601410   1.000000
   38       -7.485231   1.000000
   39       -7.394872   1.000000
   40       -7.379314   1.000000
   41       -7.331846   1.000000
   42       -7.224546   1.000000
   43       -7.124576   1.000000
   44       -7.060836   1.000000
   45       -6.979557   1.000000
   46       -6.892115   1.000000
   47       -6.735956   1.000000
   48       -6.647396   1.000000
   49       -6.559350   1.000000
   50       -6.510988   1.000000
   51       -6.414914   1.000000
   52       -6.345236   1.000000
   53       -6.258633   1.000000
   54       -6.200125   1.000000
   55       -6.138180   1.000000
   56       -6.093148   1.000000
   57       -5.950458   1.000000
   58       -5.858324   1.000000
   59       -5.710699   1.000000
   60       -5.629608   1.000000
   61       -5.537399   1.000000
   62       -5.491076   1.000000
   63       -5.401620   1.000000
   64       -5.299124   1.000000
   65       -5.211218   1.000000
   66       -5.131781   1.000000
   67       -5.024232   1.000000
   68       -4.904669   1.000000
   69       -4.806504   1.000000
   70       -4.747446   1.000000
   71       -4.608680   1.000000
   72       -4.467610   1.000000
   73       -4.340489   1.000000
   74       -4.234717   1.000000
   75       -4.152934   1.000000
   76       -4.010293   0.999997
   77       -3.957024   0.999984
   78       -3.840275   0.999578
   79       -3.575971   0.929080
   80       -3.479863   0.785058
   81       -3.055592   0.013530
   82       -2.834140   0.000080
   83       -2.764757   0.000010
   84       -2.693965   0.000001
   85       -2.585238   0.000000
   86       -2.445861   0.000000
   87       -2.397159   0.000000
   88       -2.248592   0.000000
   89       -2.193395   0.000000
   90       -2.149273   0.000000
   91       -1.706673   0.000000
   92       -1.577570   0.000000
   93       -1.475490   0.000000
   94       -1.396576   0.000000
   95       -1.185649   0.000000
   96       -1.071046   0.000000
   97       -0.963354   0.000000
   98       -0.865669   0.000000
   99       -0.820775   0.000000
  100       -0.728519   0.000000
  101       -0.656974   0.000000
  102       -0.627870   0.000000
  103       -0.579961   0.000000
  104       -0.474672   0.000000
  105       -0.298078   0.000000
  106       -0.246220   0.000000
  107       -0.150914   0.000000
  108       -0.033190   0.000000
  109        0.030392   0.000000
  110        0.165531   0.000000
  111        0.287413   0.000000
  112        0.478171   0.000000
  113        0.640715   0.000000
  114        0.874377   0.000000
  115        0.999119   0.000000
  116        1.098271   0.000000
  117        1.323767   0.000000
  118        1.767044   0.000000
  119        1.944327   0.000000
  120        2.258722   0.000000
 
  0.2500000E+00  0.1250000E+00  0.0000000E+00  0.3125000E-01
    1      -17.636356   1.000000
    2      -17.048550   1.000000
    3      -16.882437   1.000000
    4      -16.646560   1.000000
    5      -16.497744   1.000000
    6      -16.409769   1.000000
    7      -16.306992   1.000000
    8      -16.196109   1.000000
    9      -16.120361   1.000000
   10      -16.057411   1.000000
   11      -15.974206   1.000000
   12      -15.772252   1.000000
   13      -15.737761   1.000000
   14      -15.683117   1.000000
   15      -15.607825   1.000000
   16      -15.534676   1.000000
   17      -15.497172   1.000000
   18      -15.360622   1.000000
   19       -9.620592   1.000000
   20       -9.419530   1.000000
   21       -9.204619   1.000000
   22       -9.108329   1.000000
   23       -8.819629   1.000000
   24       -8.718012   1.000000
   25       -8.589270   1.000000
   26       -8.485884   1.000000
   27       -8.447987   1.000000
   28       -8.368406   1.000000
   29       -8.243234   1.000000
   30       -8.217545   1.000000
   31       -8.113443   1.000000
   32       -8.062210   1.000000
   33       -7.974619   1.000000
   34       -7.903837   1.000000
   35       -7.760853   1.000000
   36       -7.597723   1.000000
   37       -7.498420   1.000000
   38       -7.411331   1.000000
   39       -7.368532   1.000000
   40       -7.344785   1.000000
   41       -7.239463   1.000000
   42       -7.165135   1.000000
   43       -7.092394   1.000000
   44       -6.964138   1.000000
   45       -6.912454   1.000000
   46       -6.815147   1.000000
   47       -6.738368   1.000000