unknown system                          
           1
     8.858447    5.103548    0.000000
    -8.858382    5.103436    0.000000
     0.000000    0.000000   30.000000
   V    Mo   W    S 
   3   3   3  18
Direct configuration=     1
   0.66666669  0.00000000  0.00000000
   0.33333334  0.00000000  0.00000000
   1.00000000  0.33333334  0.00000000
   0.00000000  0.00000000  0.00000000
   0.00000000  0.66666669  0.00000000
   0.33333334  0.33333334  0.00000000
   0.33333334  0.66666669  0.00000000
   0.66666669  0.33333334  0.00000000
   0.66666669  0.66666669  0.00000000
   0.11068511  0.22244981  0.95539999
   0.22244981  0.11068511  0.04460000
   0.11068511  0.55578315  0.95539999
   0.22244981  0.44401845  0.04460000
   0.11068511  0.88911647  0.95539999
   0.22244981  0.77735180  0.04460000
   0.44401845  0.22244981  0.95539999
   0.55578315  0.11068511  0.04460000
   0.44401845  0.55578315  0.95539999
   0.55578315  0.44401845  0.04460000
   0.44401845  0.88911647  0.95539999
   0.55578315  0.77735180  0.04460000
   0.77735180  0.22244981  0.95539999
   0.88911647  0.11068511  0.04460000
   0.77735180  0.55578315  0.95539999
   0.88911647  0.44401845  0.04460000
   0.77735180  0.88911647  0.95539999
   0.88911647  0.77735180  0.04460000
unknown system                          
           1
     8.669621    4.997417    0.000000
    -8.669442    4.997108    0.000000
     0.000000    0.000000   30.000000
   V    Mo   W    S 
   3   3   3  18
Direct configuration=     2
   0.66776389  0.00031731  0.00002732
   0.33136963  0.00006757 -0.00016484
   1.00092329  0.33295567  0.00018953
   0.00137968  0.00017506  0.00003680
  -0.00018852  0.66795051 -0.00016679
   0.33201221  0.33198589  0.00012321
   0.33170352  0.66562898 -0.00008173
   0.66662287  0.33400930  0.00003965
   0.66834627  0.66683982 -0.00003184
   0.10856727  0.22447048  0.95200253
   0.22453762  0.10870043  0.04803560
   0.10979503  0.55153538  0.95195228
   0.21798189  0.44297957  0.04814541
   0.11561435  0.89100499  0.95186058
   0.22485154  0.78173388  0.04804951
   0.44305428  0.21791481  0.95193435
   0.55397563  0.10756649  0.04683266
   0.44494746  0.55638117  0.95081493
   0.55615726  0.44483715  0.04930911
   0.44578495  0.89229042  0.95312747
   0.55721792  0.78130014  0.04807003
   0.77941834  0.22038359  0.95305887
   0.88665852  0.11331737  0.04695185
   0.77696992  0.55511596  0.95064258
   0.89028082  0.44134278  0.04796352
   0.77475133  0.89017616  0.95202133
   0.88771748  0.77723356  0.04925596
unknown system                          
           1
     8.486868    4.898187    0.000000
    -8.486810    4.898087    0.000000
     0.000000    0.000000   30.000000
   V    Mo   W    S 
   3   3   3  18
Direct configuration=     3
   0.66803480  0.00033158  0.00003672
   0.33070611  0.00002364 -0.00018266
   1.00135100  0.33291001  0.00021279
   0.00178561 -0.00001835  0.00003364
  -0.00057634  0.66834956 -0.00014543
   0.33176488  0.33180531  0.00009936
   0.33126801  0.66514342 -0.00012971
   0.66664653  0.33475210  0.00009598
   0.66895246  0.66661768 -0.00003451
   0.10848434  0.22450547  0.95197150
   0.22460773  0.10863263  0.04813003
   0.10994197  0.55153488  0.95196977
   0.21793964  0.44310829  0.04820066
   0.11579783  0.89113349  0.95174896
   0.22506558  0.78173978  0.04800688
   0.44320981  0.21788952  0.95194640
   0.55402858  0.10774676  0.04670348
   0.44504994  0.55662631  0.95087764
   0.55638453  0.44493702  0.04932388
   0.44570258  0.89210957  0.95323651
   0.55715065  0.78112904  0.04797346
   0.77932750  0.22048946  0.95316116
   0.88665126  0.11336741  0.04691740
   0.77674526  0.55503286  0.95056131
   0.89007026  0.44118473  0.04791063
   0.77462020  0.89000734  0.95203623
   0.88750373  0.77712494  0.04933783
unknown system                          
           1
     8.281693    4.774933    0.000000
    -8.280664    4.773151    0.000000
     0.000000    0.000000   30.000000
   V    Mo   W    S 
   3   3   3  18
Direct configuration=     4
   0.66882746  0.00003369  0.00005619
   0.32814687 -0.00016659 -0.00017411
   1.00340677  0.33304882  0.00021566
   0.00308487 -0.00124185  0.00000331
  -0.00274412  0.66968240 -0.00002354
   0.33123867  0.33169803 -0.00001846
   0.32991801  0.66304352 -0.00025230
   0.66677750  0.33840236  0.00026028
   0.67118568  0.66522049 -0.00003763
   0.10771381  0.22490133  0.95043826
   0.22525319  0.10800330  0.04992965
   0.10908809  0.55033131  0.95058800
   0.21668153  0.44241530  0.04992042
   0.11719231  0.89198605  0.94983669
   0.22581175  0.78286268  0.04928087
   0.44272584  0.21672419  0.95053313
   0.55340511  0.10687077  0.04752773
   0.44518759  0.55683959  0.94952863
   0.55636031  0.44500374  0.05103868
   0.44618397  0.89302582  0.95231600
   0.55755058  0.78183142  0.04905320
   0.77976593  0.22020727  0.95223205
   0.88634352  0.11386004  0.04810932
   0.77670964  0.55503879  0.94853595
   0.89053081  0.44071757  0.04915580
   0.77430121  0.89057999  0.95065501
   0.88756754  0.77729443  0.05129113
unknown system                          
           1
     8.285657    4.770437    0.000000
    -8.285452    4.770086    0.000000
     0.000000    0.000000   30.000000
   V    Mo   W    S 
   3   3   3  18
Direct configuration=     5
   0.67004461 -0.00062158  0.00007236
   0.32366872 -0.00065543  0.00001344
   1.00780084  0.33306516  0.00004590
   0.00510079 -0.00397400 -0.00005222
  -0.00794328  0.67212755  0.00010013
   0.33024795  0.33191211 -0.00016430
   0.32756080  0.65900604 -0.00034026
   0.66734065  0.34573702  0.00036845
   0.67600918  0.66246148 -0.00000186
   0.10689053  0.22466748  0.94837867
   0.22574847  0.10750845  0.05232222
   0.10746806  0.54920240  0.94895903
   0.21531479  0.44121523  0.05237978
   0.11826453  0.89255641  0.94704941
   0.22589623  0.78368558  0.05074439
   0.44229167  0.21578497  0.94872674
   0.55266585  0.10656338  0.04841295
   0.44568729  0.55685384  0.94783722
   0.55557511  0.44523045  0.05351332
   0.44636184  0.89382073  0.95111187
   0.55793973  0.78203025  0.05029035
   0.78027193  0.22043749  0.95118287
   0.88670307  0.11417495  0.04986363
   0.77736667  0.55533602  0.94548248
   0.89119781  0.44087591  0.05070042
   0.77469545  0.89103559  0.94888063
   0.88804516  0.77817697  0.05412230
unknown system                          
           1
     8.282202    4.766906    0.000000
    -8.281333    4.765402    0.000000
     0.000000    0.000000   30.000000
   V    Mo   W    S 
   3   3   3  18
Direct configuration=     6
   0.67040840 -0.00073035  0.00007407
   0.32260418 -0.00077887  0.00001184
   1.00933461  0.33220223  0.00002516
   0.00513065 -0.00448001 -0.00002012
  -0.00935257  0.67263027  0.00000872
   0.32988286  0.33224159 -0.00011638
   0.32734120  0.65781948 -0.00036104
   0.66752757  0.34753012  0.00033675
   0.67709748  0.66212644  0.00012615
   0.10703338  0.22401783  0.94819610
   0.22560097  0.10768468  0.05246885
   0.10691503  0.54950830  0.94908447
   0.21539771  0.44088920  0.05264662
   0.11780805  0.89218161  0.94678076
   0.22499717  0.78297497  0.05063797
   0.44246958  0.21623970  0.94871594
   0.55274155  0.10746845  0.04821465
   0.44632566  0.55697704  0.94783168
   0.55513729  0.44553735  0.05381008
   0.44589627  0.89344444  0.95121123
   0.55797324  0.78118869  0.05017956
   0.78032076  0.22109524  0.95135179
   0.88735820  0.11406921  0.04993478
   0.77782245  0.55567478  0.94492417
   0.89119500  0.44152061  0.05056289
   0.77514419  0.89048918  0.94883901
   0.88810360  0.77869228  0.05452420
unknown system                          
           1
     8.291380    4.768795    0.000000
    -8.290026    4.766450    0.000000
     0.000000    0.000000   30.000000
   V    Mo   W    S 
   3   3   3  18
Direct configuration=     7
   0.67106807 -0.00082001  0.00001693
   0.32076842 -0.00107421  0.00002479
   1.01172140  0.33055178 -0.00002789
   0.00522950 -0.00530483  0.00001660
  -0.01172871  0.67382664 -0.00003170
   0.32924319  0.33279887 -0.00007686
   0.32702712  0.65572747 -0.00043967
   0.66770803  0.35074662  0.00031407
   0.67907249  0.66143502  0.00020459
   0.10724809  0.22331490  0.94790520
   0.22554075  0.10785247  0.05266564
   0.10619494  0.54960500  0.94933866
   0.21542184  0.44043204  0.05307646
   0.11735133  0.89194101  0.94640505
   0.22400964  0.78211462  0.05040166
   0.44255499  0.21671972  0.94870859
   0.55281042  0.10849366  0.04786162
   0.44711344  0.55717356  0.94783761
   0.55466541  0.44586452  0.05417105
   0.44536150  0.89300521  0.95143702
   0.55801376  0.78033334  0.05008542
   0.78048918  0.22185878  0.95166032
   0.88807595  0.11400983  0.05007279
   0.77811350  0.55618933  0.94426678
   0.89135304  0.44221138  0.05027001
   0.77553984  0.88988894  0.94879317
   0.88824735  0.77931880  0.05504198
unknown system                          
           1
     8.309144    4.771423    0.000000
    -8.306152    4.766235    0.000000
     0.000000    0.000000   30.000000
   V    Mo   W    S 
   3   3   3  18
Direct configuration=     8
   0.67152470 -0.00083003 -0.00001315
   0.31970814 -0.00122642  0.00002966
   1.01298081  0.32935725 -0.00004150
   0.00522288 -0.00558467  0.00005021
  -0.01280007  0.67459997 -0.00007976
   0.32883101  0.33310882 -0.00005860
   0.32700289  0.65444796 -0.00047643
   0.66766182  0.35232227  0.00029518
   0.67992750  0.66126804  0.00030104
   0.10743541  0.22294786  0.94776774
   0.22552538  0.10794800  0.05271093
   0.10581558  0.54958018  0.94957963
   0.21545462  0.44021864  0.05326788
   0.11710813  0.89183033  0.94626522
   0.22350246  0.78164472  0.05019288
   0.44262719  0.21696358  0.94875868
   0.55286269  0.10903665  0.04759020
   0.44757225  0.55728072  0.94786630
   0.55443262  0.44608361  0.05430624
   0.44509453  0.89273872  0.95163350
   0.55802907  0.77997044  0.04999779
   0.78062148  0.22225453  0.95189453
   0.88837952  0.11398868  0.05012158
   0.77827745  0.55647494  0.94396203
   0.89147905  0.44253041  0.05000764
   0.77568031  0.88957444  0.94880044
   0.88825703  0.77968482  0.05527004
unknown system                          
           1
     8.310015    4.771706    0.000000
    -8.306971    4.766426    0.000000
     0.000000    0.000000   30.000000
   V    Mo   W    S 
   3   3   3  18
Direct configuration=     9
   0.67288327 -0.00086414 -0.00010947
   0.31712537 -0.00148131  0.00003960
   1.01538393  0.32644314 -0.00002868
   0.00514483 -0.00593197  0.00012258
  -0.01465536  0.67655603 -0.00019951
   0.32787905  0.33371626 -0.00005364
   0.32732289  0.65132798 -0.00057225
   0.66723781  0.35542090  0.00023880
   0.68134315  0.66127801  0.00050509
   0.10791865  0.22224603  0.94743677
   0.22556124  0.10813494  0.05280532
   0.10502336  0.54927204  0.95022702
   0.21553405  0.43978793  0.05366931
   0.11668605  0.89176276  0.94598700
   0.22265958  0.78076001  0.04966379
   0.44281093  0.21734786  0.94887576
   0.55296984  0.11000963  0.04692005
   0.44847659  0.55744448  0.94789429
   0.55398803  0.44653141  0.05454915
   0.44461068  0.89213726  0.95215127
   0.55804467  0.77957200  0.04986224
   0.78101210  0.22305333  0.95246003
   0.88882337  0.11395557  0.05028217
   0.77853277  0.55715083  0.94345516
   0.89184520  0.44301136  0.04930154
   0.77580465  0.88905490  0.94881110
   0.88824779  0.78051723  0.05570541
unknown system                          
           1
     8.299702    4.765833    0.000000
    -8.298278    4.763373    0.000000
     0.000000    0.000000   30.000000
   V    Mo   W    S 
   3   3   3  18
Direct configuration=    10
   0.67296860 -0.00087617 -0.00011398
   0.31700835 -0.00147681  0.00003955
   1.01544807  0.32633115 -0.00002496
   0.00513520 -0.00593524  0.00012582
  -0.01470293  0.67663686 -0.00020409
   0.32784641  0.33372911 -0.00005474
   0.32736749  0.65119480 -0.00057523
   0.66720266  0.35551855  0.00023606
   0.68136903  0.66130430  0.00051410
   0.10794062  0.22221804  0.94742152
   0.22556246  0.10814282  0.05281102
   0.10499173  0.54925254  0.95025624
   0.21553889  0.43976855  0.05368589
   0.11667349  0.89176958  0.94597529
   0.22263824  0.78073152  0.04964008
   0.44281748  0.21735329  0.94887779
   0.55297247  0.11003653  0.04689036
   0.44850568  0.55744022  0.94788802
   0.55397103  0.44654676  0.05455734
   0.44459285  0.89211110  0.95217558
   0.55804300  0.77957705  0.04986397
   0.78103188  0.22308636  0.95248268
   0.88883353  0.11395016  0.05029421
   0.77853941  0.55718485  0.94344216
   0.89186498  0.44302136  0.04926987
   0.77580624  0.88904552  0.94880672
   0.88824760  0.78055166  0.05571865
unknown system                          
           1
     8.319578    4.774887    0.000000
    -8.315782    4.768302    0.000000
     0.000000    0.000000   30.000000
   V    Mo   W    S 
   3   3   3  18
Direct configuration=    11
   0.67288773 -0.00073160 -0.00011483
   0.31671631 -0.00161199  0.00004016
   1.01543376  0.32619851 -0.00001502
   0.00522265 -0.00611676  0.00013101
  -0.01455605  0.67689852 -0.00020797
   0.32778535  0.33357755 -0.00005861
   0.32732993  0.65121065 -0.00057022
   0.66722066  0.35556410  0.00023287
   0.68154500  0.66137573  0.00053329
   0.10794474  0.22223384  0.94736803
   0.22564132  0.10809699  0.05281975
   0.10491701  0.54915617  0.95024821
   0.21551045  0.43976901  0.05372746
   0.11677912  0.89184689  0.94595681
   0.22265864  0.78082445  0.04964374
   0.44278183  0.21724020  0.94888516
   0.55287279  0.10992949  0.04690220
   0.44854735  0.55750559  0.94787366
   0.55397232  0.44656952  0.05458102
   0.44459322  0.89218793  0.95216112
   0.55802786  0.77960773  0.04986250
   0.78112280  0.22308364  0.95245357
   0.88880761  0.11398907  0.05032764
   0.77854155  0.55718817  0.94341200
   0.89193759  0.44298898  0.04927114
   0.77573465  0.88906341  0.94878662
   0.88823827  0.78056867  0.05574858
unknown system                          
           1
     8.327079    4.777448    0.000000
    -8.322799    4.770024    0.000000
     0.000000    0.000000   30.000000
   V    Mo   W    S 
   3   3   3  18
Direct configuration=    12
   0.67407926 -0.00118609 -0.00016734
   0.31582211 -0.00128725  0.00004131
   1.01605321  0.32516834  0.00001843
   0.00496567 -0.00587141  0.00016409
  -0.01527669  0.67743790 -0.00024553
   0.32752857  0.33390763 -0.00006739
   0.32801968  0.64967197 -0.00060511
   0.66673622  0.35653570  0.00020374
   0.68149982  0.66164453  0.00062488
   0.10820800  0.22193397  0.94728429
   0.22552884  0.10824677  0.05284444
   0.10471987  0.54907588  0.95061477
   0.21560915  0.43955693  0.05383899
   0.11649401  0.89185074  0.94589355
   0.22244379  0.78038461  0.04933473
   0.44291012  0.21745861  0.94890579
   0.55307338  0.11034186  0.04652452
   0.44877357  0.55733252  0.94780388
   0.55379510  0.44669657  0.05461280
   0.44441853  0.89177036  0.95248401
   0.55801043  0.77968663  0.04989375
   0.78120191  0.22344445  0.95277436
   0.88892323  0.11386831  0.05041669
   0.77858117  0.55757092  0.94335285
   0.89203109  0.44309313  0.04889356
   0.77584542  0.88898349  0.94876088
   0.88821900  0.78089741  0.05579897
unknown system                          
           1
     8.323117    4.776963    0.000000
    -8.319370    4.770462    0.000000
     0.000000    0.000000   30.000000
   V    Mo   W    S 
   3   3   3  18
Direct configuration=    13
   0.67553924 -0.00165293 -0.00021558
   0.31430343 -0.00093826  0.00003088
   1.01669524  0.32392594  0.00007091
   0.00481902 -0.00580153  0.00018818
  -0.01581958  0.67839339 -0.00031693
   0.32717433  0.33393498 -0.00010599
   0.32897431  0.64796470 -0.00063617
   0.66616129  0.35758346  0.00016311
   0.68147838  0.66216764  0.00071389
   0.10844240  0.22164349  0.94713480
   0.22549319  0.10834769  0.05293909
   0.10442308  0.54887859  0.95101428
   0.21565988  0.43928000  0.05403275
   0.11634663  0.89198227  0.94575681
   0.22230665  0.78008097  0.04899644
   0.44295971  0.21743744  0.94889522
   0.55310633  0.11057783  0.04611034
   0.44903800  0.55711394  0.94765562
   0.55359092  0.44688377  0.05470762
   0.44420352  0.89141542  0.95284156
   0.55793872  0.77989159  0.05000387
   0.78141828  0.22385329  0.95306766
   0.88900718  0.11377779  0.05060870
   0.77859032  0.55805754  0.94325505
   0.89226033  0.44315478  0.04850277
   0.77589715  0.88895313  0.94863977
   0.88820652  0.78130755  0.05594523
unknown system                          
           1
     8.315317    4.772026    0.000000
    -8.312115    4.766475    0.000000
     0.000000    0.000000   30.000000
   V    Mo   W    S 
   3   3   3  18
Direct configuration=    14
   0.67382428 -0.00095000 -0.00018427
   0.31572715 -0.00148325  0.00004958
   1.01608934  0.32505448  0.00000374
   0.00503791 -0.00591850  0.00014453
  -0.01514180  0.67754358 -0.00026203
   0.32750805  0.33396687 -0.00007669
   0.32778610  0.64963483 -0.00062618
   0.66676643  0.35657803  0.00020013
   0.68160506  0.66152938  0.00060053
   0.10823512  0.22192293  0.94725907
   0.22561573  0.10822274  0.05283879
   0.10461737  0.54897594  0.95057908
   0.21560460  0.43958365  0.05386481
   0.11655361  0.89187532  0.94588903
   0.22241242  0.78040702  0.04938741
   0.44290283  0.21745307  0.94892577
   0.55303379  0.11034834  0.04657381
   0.44882578  0.55746850  0.94784810
   0.55377396  0.44667298  0.05464636
   0.44441453  0.89181615  0.95242925
   0.55805648  0.77965167  0.04985925
   0.78127054  0.22345541  0.95273901
   0.88891337  0.11387609  0.05041495
   0.77863949  0.55755322  0.94332339
   0.89209038  0.44307782  0.04890901
   0.77578477  0.88894986  0.94880257
   0.88826717  0.78094830  0.05586088
unknown system                          
           1
     8.318458    4.773404    0.000000
    -8.315765    4.768741    0.000000
     0.000000    0.000000   30.000000
   V    Mo   W    S 
   3   3   3  18
Direct configuration=    15
   0.67173262  0.00045946 -0.00017404
   0.31682196 -0.00257102  0.00009284
   1.01570214  0.32565525 -0.00002775
   0.00527933 -0.00618220  0.00014829
  -0.01446590  0.67703130 -0.00016515
   0.32770039  0.33422210 -0.00002842
   0.32603074  0.65094198 -0.00061198
   0.66743751  0.35592628  0.00026973
   0.68222702  0.66065142  0.00059005
   0.10820627  0.22206745  0.94733571
   0.22581653  0.10814145  0.05267147
   0.10463881  0.54887104  0.95020588
   0.21559406  0.43989422  0.05368505
   0.11680298  0.89182255  0.94599591
   0.22240071  0.78063659  0.04975714
   0.44292277  0.21756156  0.94906137
   0.55291455  0.11029602  0.04700787
   0.44881863  0.55803069  0.94812320
   0.55395481  0.44650804  0.05455638
   0.44447596  0.89206927  0.95203028
   0.55818050  0.77931960  0.04953705
   0.78130678  0.22323006  0.95243665
   0.88888080  0.11394295  0.05016268
   0.77886897  0.55713510  0.94336472
   0.89198826  0.44301915  0.04914154
   0.77560852  0.88883552  0.94908938
   0.88836874  0.78069861  0.05574404
unknown system                          
           1
     8.321808    4.771849    0.000000
    -8.319340    4.767580    0.000000
     0.000000    0.000000   30.000000
   V    Mo   W    S 
   3   3   3  18
Direct configuration=    16
   0.67030488  0.00163741 -0.00017676
   0.31758828 -0.00340207  0.00009370
   1.01546855  0.32597597 -0.00005914
   0.00547431 -0.00630249  0.00010679
  -0.01390990  0.67671813 -0.00016016
   0.32776956  0.33444080 -0.00002991
   0.32480482  0.65176940 -0.00060358
   0.66786812  0.35541845  0.00027302
   0.68259622  0.66006977  0.00053527
   0.10818724  0.22214097  0.94737798
   0.22596725  0.10811115  0.05259948
   0.10458234  0.54874535  0.94994819
   0.21554859  0.44004835  0.05361802
   0.11695703  0.89178105  0.94605467
   0.22237399  0.78077106  0.05004130
   0.44294619  0.21762779  0.94914959
   0.55281112  0.11025130  0.04732550
   0.44886808  0.55842132  0.94829925
   0.55401337  0.44637854  0.05455895
   0.44450887  0.89225214  0.95175296
   0.55827197  0.77911716  0.04931921
   0.78136988  0.22309646  0.95221662
   0.88885152  0.11397428  0.05002342
   0.77906111  0.55690499  0.94337594
   0.89200280  0.44295043  0.04931443
   0.77546783  0.88873174  0.94929083
   0.88846045  0.78058499  0.05575435
unknown system                          
           1
     8.325477    4.774187    0.000000
    -8.322773    4.769507    0.000000
     0.000000    0.000000   30.000000
   V    Mo   W    S 
   3   3   3  18
Direct configuration=    17
   0.67017696  0.00311950 -0.00019484
   0.31689367 -0.00428000  0.00004714
   1.01587414  0.32485459  0.00001469
   0.00568735 -0.00640384  0.00011206
  -0.01381468  0.67752018 -0.00021722
   0.32742206  0.33479974 -0.00006789
   0.32436466  0.65090485 -0.00056111
   0.66772631  0.35589653  0.00023790
   0.68306148  0.65990183  0.00062488
   0.10843388  0.22182799  0.94727766
   0.22604172  0.10824416  0.05258384
   0.10424098  0.54839248  0.95012612
   0.21553143  0.43984940  0.05373739
   0.11694926  0.89187705  0.94596406
   0.22218153  0.78055146  0.04996965
   0.44306876  0.21769511  0.94928229
   0.55269764  0.11045635  0.04722822
   0.44926552  0.55859137  0.94834586
   0.55389140  0.44644677  0.05460614
   0.44423121  0.89200099  0.95187593
   0.55823526  0.77913688  0.04907196
   0.78168464  0.22341755  0.95227503
   0.88891260  0.11384174  0.05004127
   0.77932768  0.55724989  0.94330074
   0.89225592  0.44291872  0.04900820
   0.77534990  0.88853776  0.94945127
   0.88852317  0.78086539  0.05585867
unknown system                          
           1
     8.332009    4.777261    0.000000
    -8.329106    4.772235    0.000000
     0.000000    0.000000   30.000000
   V    Mo   W    S 
   3   3   3  18
Direct configuration=    18
   0.67090668  0.00257885 -0.00020656
   0.31648266 -0.00387685  0.00004379
   1.01601984  0.32465026  0.00002248
   0.00556201 -0.00632125  0.00011767
  -0.01406974  0.67768484 -0.00024074
   0.32735983  0.33470898 -0.00007758
   0.32495493  0.65042057 -0.00057627
   0.66750905  0.35615600  0.00022080
   0.68286959  0.66020326  0.00063403
   0.10845010  0.22178237  0.94724520
   0.22598237  0.10826494  0.05264199
   0.10422170  0.54841658  0.95025551
   0.21554611  0.43975111  0.05379588
   0.11686783  0.89189763  0.94592060
   0.22218223  0.78047349  0.04984243
   0.44306151  0.21765932  0.94923099
   0.55273514  0.11048761  0.04707715
   0.44926354  0.55840553  0.94824944
   0.55382934  0.44650717  0.05463763
   0.44421081  0.89190484  0.95200866
   0.55820330  0.77924715  0.04919527
   0.78168734  0.22350863  0.95238103
   0.88893040  0.11382445  0.05012984
   0.77925060  0.55738862  0.94328535
   0.89229179  0.44294870  0.04892395
   0.77541252  0.88858460  0.94934729
   0.88849297  0.78095708  0.05589406
unknown system                          
           1
     8.336441    4.777712    0.000000
    -8.333395    4.772439    0.000000
     0.000000    0.000000   30.000000
   V    Mo   W    S 
   3   3   3  18
Direct configuration=    19
   0.67201669  0.00316913 -0.00026475
   0.31528052 -0.00393988  0.00003752
   1.01654371  0.32351150  0.00009324
   0.00543336 -0.00639048  0.00015281
  -0.01446675  0.67854227 -0.00028355
   0.32706308  0.33495610 -0.00008642
   0.32553366  0.64885518 -0.00058612
   0.66711732  0.35700950  0.00019887
   0.68298181  0.66041432  0.00072457
   0.10864237  0.22149133  0.94711671
   0.22596887  0.10836958  0.05268190
   0.10391551  0.54813837  0.95060862
   0.21557649  0.43940642  0.05396970
   0.11670392  0.89199536  0.94577179
   0.22201277  0.78015584  0.04958973
   0.44314948  0.21766531  0.94923740
   0.55266050  0.11070358  0.04679341
   0.44949677  0.55826234  0.94814052
   0.55366420  0.44662458  0.05468021
   0.44396256  0.89149483  0.95230384
   0.55816171  0.77946380  0.04920218
   0.78202045  0.22395516  0.95256201
   0.88900836  0.11366525  0.05028710
   0.77932427  0.55790399  0.94322790
   0.89254730  0.44298876  0.04852845
   0.77538230  0.88853370  0.94933760
   0.88851323  0.78126862  0.05597463
unknown system                          
           1
     8.336942    4.777909    0.000000
    -8.333878    4.772604    0.000000
     0.000000    0.000000   30.000000
   V    Mo   W    S 
   3   3   3  18
Direct configuration=    20
   0.67293036  0.00395578 -0.00032275
   0.31419082 -0.00399514  0.00002022
   1.01691749  0.32258873  0.00015196
   0.00540445 -0.00645234  0.00015741
  -0.01468151  0.67932394 -0.00035188
   0.32685234  0.33510281 -0.00012862
   0.32608794  0.64754980 -0.00058311
   0.66676176  0.35758685  0.00016023
   0.68295729  0.66057134  0.00080524
   0.10881661  0.22122901  0.94703272
   0.22595907  0.10841938  0.05270437
   0.10368326  0.54791272  0.95089159
   0.21559994  0.43912122  0.05412439
   0.11659657  0.89208321  0.94567482
   0.22188394  0.77991333  0.04938772
   0.44323342  0.21765732  0.94926667
   0.55254132  0.11087019  0.04658783
   0.44969777  0.55812328  0.94804947
   0.55350932  0.44671397  0.05473005
   0.44374951  0.89114666  0.95254751
   0.55813588  0.77965801  0.04918377
   0.78234060  0.22434680  0.95266974
   0.88905380  0.11349702  0.05041502
   0.77940352  0.55829695  0.94318032
   0.89275239  0.44298646  0.04821935
   0.77533104  0.88847994  0.94936574
   0.88850553  0.78152723  0.05606014
unknown system                          
           1
     8.329729    4.774827    0.000000
    -8.326304    4.768891    0.000000
     0.000000    0.000000   30.000000
   V    Mo   W    S 
   3   3   3  18
Direct configuration=    21
   0.67306842  0.00408499 -0.00033085
   0.31404810 -0.00397614  0.00001964
   1.01695136  0.32249641  0.00016218
   0.00538949 -0.00647784  0.00016222
  -0.01473298  0.67940016 -0.00035588
   0.32686241  0.33513246 -0.00012970
   0.32620201  0.64737661 -0.00057947
   0.66671793  0.35766714  0.00016065
   0.68293514  0.66057126  0.00081566
   0.10883747  0.22118731  0.94701685
   0.22595247  0.10842280  0.05271108
   0.10366224  0.54789718  0.95093131
   0.21560825  0.43907604  0.05414702
   0.11658024  0.89209575  0.94565449
   0.22186827  0.77987440  0.04935558
   0.44324245  0.21764875  0.94926402
   0.55252041  0.11088952  0.04656146
   0.44972186  0.55809436  0.94802745
   0.55348645  0.44671753  0.05473668
   0.44371815  0.89109124  0.95258297
   0.55813040  0.77969227  0.04918573
   0.78238747  0.22440872  0.95267770
   0.88905447  0.11346493  0.05043595
   0.77940793  0.55835461  0.94317394
   0.89277384  0.44299157  0.04817728
   0.77531841  0.88847489  0.94936756
   0.88850180  0.78155758  0.05606836
unknown system                          
           1
     8.342164    4.779515    0.000000
    -8.339092    4.774198    0.000000
     0.000000    0.000000   30.000000
   V    Mo   W    S 
   3   3   3  18
Direct configuration=    22
   0.67216949  0.00330731 -0.00028226
   0.31486869 -0.00411150  0.00003110
   1.01651522  0.32304226  0.00010805
   0.00544023 -0.00648179  0.00014918
  -0.01452346  0.67888676 -0.00031150
   0.32711243  0.33506705 -0.00010917
   0.32566768  0.64849601 -0.00060408
   0.66696508  0.35731817  0.00018012
   0.68308626  0.66046606  0.00075375
   0.10877845  0.22132127  0.94704670
   0.22600039  0.10841098  0.05267357
   0.10379147  0.54802472  0.95070541
   0.21565283  0.43937666  0.05405458
   0.11667517  0.89205644  0.94573588
   0.22193242  0.78006005  0.04953520
   0.44321509  0.21772425  0.94927589
   0.55268022  0.11081482  0.04668982
   0.44959640  0.55827283  0.94815367
   0.55360258  0.44669686  0.05469113
   0.44391443  0.89138100  0.95238702
   0.55815854  0.77952248  0.04916155
   0.78205967  0.22403937  0.95263128
   0.88897774  0.11351594  0.05035151
   0.77938907  0.55805951  0.94320667
   0.89258947  0.44300034  0.04839122
   0.77535484  0.88851437  0.94936985
   0.88854404  0.78143222  0.05602376
unknown system                          
           1
     8.345080    4.780337    0.000000
    -8.342071    4.775132    0.000000
     0.000000    0.000000   30.000000
   V    Mo   W    S 
   3   3   3  18
Direct configuration=    23
   0.67436791  0.00503664 -0.00040258
   0.31278660 -0.00377808  0.00000607
   1.01742078  0.32164311  0.00023931
   0.00527994 -0.00657556  0.00018654
  -0.01513037  0.68015415 -0.00041503
   0.32669687  0.33528697 -0.00016013
   0.32710720  0.64578907 -0.00055952
   0.66632136  0.35831804  0.00013991
   0.68275859  0.66071006  0.00090739
   0.10898296  0.22090964  0.94692839
   0.22588587  0.10845459  0.05276285
   0.10347541  0.54773324  0.95128131
   0.21562321  0.43868419  0.05431628
   0.11642602  0.89217813  0.94552397
   0.22175364  0.77957264  0.04907410
   0.44331125  0.21757907  0.94925549
   0.55234550  0.11104412  0.04632452
   0.44990626  0.55783111  0.94785680
   0.55330965  0.44677541  0.05478998
   0.44344980  0.89064176  0.95289502
   0.55807991  0.77995475  0.04921615
   0.78280010  0.22492497  0.95277883
   0.88911838  0.11329656  0.05059150
   0.77943400  0.55881608  0.94313079
   0.89299168  0.44301045  0.04782879
   0.77525855  0.88842680  0.94936670
   0.88845339  0.78179655  0.05613649
unknown system                          
           1
     8.333952    4.774388    0.000000
    -8.330777    4.768891    0.000000
     0.000000    0.000000   30.000000
   V    Mo   W    S 
   3   3   3  18
Direct configuration=    24
   0.67535964  0.00556504 -0.00044896
   0.31207762 -0.00349373 -0.00001076
   1.01763375  0.32113817  0.00028218
   0.00509020 -0.00662229  0.00019586
  -0.01541923  0.68056127 -0.00046720
   0.32665479  0.33533752 -0.00018698
   0.32788849  0.64487061 -0.00053351
   0.66605162  0.35865070  0.00011874
   0.68254442  0.66087115  0.00096321
   0.10907789  0.22073289  0.94687966
   0.22580980  0.10848070  0.05281697
   0.10340989  0.54769621  0.95151393
   0.21564807  0.43842056  0.05443153
   0.11629525  0.89221695  0.94543474
   0.22168468  0.77936216  0.04888038
   0.44335073  0.21752904  0.94923379
   0.55225876  0.11112136  0.04615769
   0.45001219  0.55759157  0.94771624
   0.55316645  0.44679607  0.05483633
   0.44332307  0.89036622  0.95311254