unknown system                          
           1
     8.852319    5.102974    0.000000
    -8.856282    5.109793    0.000000
     0.000000    0.000000   30.000000
   V    Mo   W    S 
   3   3   3  18
Direct configuration=     1
   0.66666669  0.66666669  0.00000000
   0.33333334  0.66666669  0.00000000
   0.00000000  0.66666669  0.00000000
   1.00000000  0.33333334  0.00000000
   0.00000000  0.00000000  0.00000000
   0.33333334  0.33333334  0.00000000
   0.33333334  0.00000000  0.00000000
   0.66666669  0.00000000  0.00000000
   0.66666669  0.33333334  0.00000000
   0.11068511  0.22244981  0.95539999
   0.22244981  0.11068511  0.04460000
   0.11068511  0.55578315  0.95539999
   0.22244981  0.44401845  0.04460000
   0.11068511  0.88911647  0.95539999
   0.22244981  0.77735180  0.04460000
   0.44401845  0.22244981  0.95539999
   0.55578315  0.11068511  0.04460000
   0.44401845  0.55578315  0.95539999
   0.55578315  0.44401845  0.04460000
   0.44401845  0.88911647  0.95539999
   0.55578315  0.77735180  0.04460000
   0.77735180  0.22244981  0.95539999
   0.88911647  0.11068511  0.04460000
   0.77735180  0.55578315  0.95539999
   0.88911647  0.44401845  0.04460000
   0.77735180  0.88911647  0.95539999
   0.88911647  0.77735180  0.04460000
unknown system                          
           1
     8.664424    4.997036    0.000000
    -8.667806    5.002851    0.000000
     0.000000    0.000000   30.000000
   V    Mo   W    S 
   3   3   3  18
Direct configuration=     2
   0.66671360  0.66676308  0.00004714
   0.33217074  0.66422799 -0.00008818
   0.00005312  0.66676511  0.00004619
   1.00150007  0.33206203 -0.00022282
   0.00120007  0.00251515  0.00027503
   0.33064009  0.33219488 -0.00021339
   0.33149150  0.00103009  0.00019037
   0.66948209  0.00090938  0.00018293
   0.66684237  0.33380209 -0.00014682
   0.11112088  0.22234892  0.95066941
   0.22249247  0.11033599  0.04931099
   0.11299716  0.55986937  0.95313369
   0.22434704  0.44887845  0.04809057
   0.10974859  0.88469281  0.95195079
   0.22060817  0.77419709  0.04686509
   0.44491910  0.22189703  0.95071187
   0.55529506  0.11079931  0.04930639
   0.44627035  0.55986332  0.95312830
   0.55808299  0.44836500  0.04800404
   0.44261755  0.88511401  0.95203881
   0.55394961  0.77420426  0.04687016
   0.77694770  0.22187980  0.95070683
   0.88770051  0.11031582  0.04930784
   0.77916629  0.55890742  0.95309052
   0.89003699  0.44834379  0.04799071
   0.77500225  0.88467447  0.95193781
   0.88681810  0.77325777  0.04681563
unknown system                          
           1
     8.482790    4.897528    0.000000
    -8.486005    4.903061    0.000000
     0.000000    0.000000   30.000000
   V    Mo   W    S 
   3   3   3  18
Direct configuration=     3
   0.66672403  0.66676599  0.00009692
   0.33181404  0.66351886 -0.00015171
   0.00005197  0.66677211  0.00009605
   1.00168687  0.33118143 -0.00024324
   0.00181866  0.00375183  0.00028815
   0.32957103  0.33130585 -0.00023184
   0.33115885  0.00171709  0.00015014
   0.67051055  0.00159746  0.00013900
   0.66668116  0.33350577 -0.00009601
   0.11110865  0.22233441  0.95044216
   0.22261097  0.11023659  0.04947228
   0.11307087  0.55993961  0.95316811
   0.22443854  0.44902782  0.04815660
   0.10989435  0.88471588  0.95199070
   0.22066180  0.77436820  0.04678619
   0.44500242  0.22179576  0.95068845
   0.55529744  0.11076292  0.04924137
   0.44631279  0.55993580  0.95315995
   0.55824142  0.44833786  0.04790650
   0.44269100  0.88530954  0.95225575
   0.55402029  0.77437083  0.04679464
   0.77673124  0.22177941  0.95068814
   0.88751011  0.11021735  0.04947316
   0.77911207  0.55875542  0.95311900
   0.88988958  0.44832006  0.04789301
   0.77484223  0.88469974  0.95197787
   0.88676155  0.77319087  0.04673855
unknown system                          
           1
     8.263434    4.770436    0.000000
    -8.277514    4.794787    0.000000
     0.000000    0.000000   30.000000
   V    Mo   W    S 
   3   3   3  18
Direct configuration=     4
   0.66676065  0.66673799  0.00026642
   0.33052897  0.66099888 -0.00034427
   0.00000006  0.66674476  0.00026575
   1.00166560  0.32703526 -0.00021018
   0.00445355  0.00905140  0.00023365
   0.32540846  0.32713897 -0.00020269
   0.33048806  0.00500291 -0.00007294
   0.67453586  0.00492130 -0.00008624
   0.66564456  0.33150933  0.00014337
   0.11101626  0.22217679  0.94793905
   0.22260236  0.11043132  0.05176233
   0.11355268  0.56073999  0.95200391
   0.22506675  0.45021364  0.04980633
   0.10909180  0.88373119  0.95070079
   0.22023245  0.77355549  0.04781381
   0.44493577  0.22192829  0.94895542
   0.55523777  0.11049683  0.05062447
   0.44683096  0.56076044  0.95198840
   0.55850526  0.44924488  0.04894111
   0.44231734  0.88472179  0.95170613
   0.55347716  0.77354393  0.04782607
   0.77684586  0.22192218  0.94897187
   0.88779635  0.11042824  0.05177265
   0.77969091  0.55975945  0.95187020
   0.89066235  0.44921787  0.04892374
   0.77454683  0.88371315  0.95068984
   0.88631983  0.77248819  0.04771090
unknown system                          
           1
     8.263750    4.771188    0.000000
    -8.291832    4.819797    0.000000
     0.000000    0.000000   30.000000
   V    Mo   W    S 
   3   3   3  18
Direct configuration=     5
   0.66675255  0.66670345  0.00049278
   0.32778441  0.65557685 -0.00058844
  -0.00000503  0.66673326  0.00049218
   1.00088452  0.31870916 -0.00006958
   0.00944854  0.01911822  0.00005173
   0.31786568  0.31878841 -0.00008301
   0.32875801  0.01198826 -0.00037010
   0.68331150  0.01192957 -0.00035774
   0.66331687  0.32703668  0.00048010
   0.11105685  0.22218984  0.94417400
   0.22195666  0.11082607  0.05515465
   0.11342687  0.56031177  0.95033228
   0.22518901  0.45045926  0.05202453
   0.10786100  0.88345181  0.94909291
   0.22008729  0.77333801  0.04910607
   0.44470286  0.22304494  0.94645711
   0.55475206  0.10947317  0.05243411
   0.44680689  0.56033905  0.95032108
   0.55755024  0.44954603  0.05014663
   0.44233214  0.88476857  0.95146525
   0.55317429  0.77332886  0.04910952
   0.77819787  0.22304723  0.94647992
   0.88881590  0.11082229  0.05516990
   0.78016230  0.56046523  0.95025697
   0.89192985  0.44950180  0.05011723
   0.77549372  0.88341725  0.94906913
   0.88660160  0.77329940  0.04904069
unknown system                          
           1
     8.258818    4.768301    0.000000
    -8.287189    4.817410    0.000000
     0.000000    0.000000   30.000000
   V    Mo   W    S 
   3   3   3  18
Direct configuration=     6
   0.66667587  0.66683510  0.00057196
   0.32647096  0.65295881 -0.00069016
   0.00020996  0.66687228  0.00057718
   1.00043410  0.31858192 -0.00024660
   0.00923222  0.01870120  0.00014942
   0.31824370  0.31864896 -0.00024504
   0.32803266  0.01357675 -0.00021893
   0.68557801  0.01349917 -0.00022548
   0.66261773  0.32568755  0.00040364
   0.11129106  0.22266824  0.94396198
   0.22137296  0.11061958  0.05541310
   0.11278579  0.55913195  0.95038953
   0.22463514  0.44933729  0.05207562
   0.10781330  0.88459051  0.94915695
   0.22063229  0.77419812  0.04886494
   0.44465121  0.22380193  0.94627360
   0.55433704  0.10867301  0.05238921
   0.44625839  0.55916437  0.95038066
   0.55657998  0.44856664  0.04993614
   0.44291324  0.88589034  0.95212537
   0.55350146  0.77418751  0.04886733
   0.77902047  0.22380254  0.94631165
   0.88920035  0.11062118  0.05543833
   0.77988329  0.55990982  0.95040379
   0.89189226  0.44851979  0.04990165
   0.77668408  0.88456464  0.94913971
   0.88726694  0.77460527  0.04889434
unknown system                          
           1
     8.264851    4.771786    0.000000
    -8.297569    4.828426    0.000000
     0.000000    0.000000   30.000000
   V    Mo   W    S 
   3   3   3  18
Direct configuration=     7
   0.66668153  0.66716659  0.00067997
   0.32484114  0.64970491 -0.00075094
   0.00054607  0.66722021  0.00068863
   1.00005247  0.31748630 -0.00023927
   0.00971983  0.01969255  0.00007754
   0.31758722  0.31755750 -0.00024445
   0.32708019  0.01566293 -0.00023609
   0.68860080  0.01557362 -0.00023547
   0.66170685  0.32396719  0.00040876
   0.11134110  0.22274494  0.94370475
   0.22108523  0.11085773  0.05579783
   0.11232997  0.55842399  0.95029752
   0.22433403  0.44873151  0.05220094
   0.10780811  0.88527930  0.94913114
   0.22106545  0.77478726  0.04867366
   0.44460864  0.22414314  0.94599628
   0.55409129  0.10819611  0.05240945
   0.44601798  0.55845867  0.95029018
   0.55614864  0.44808271  0.04977897
   0.44326140  0.88657171  0.95283605
   0.55365041  0.77477461  0.04867323
   0.77942456  0.22416210  0.94604031
   0.88971567  0.11086829  0.05581604
   0.77971678  0.55956031  0.95049886
   0.89181877  0.44802814  0.04973407
   0.77738989  0.88525422  0.94911385
   0.88759044  0.77525793  0.04885812
unknown system                          
           1
     8.265733    4.773016    0.000000
    -8.305962    4.842673    0.000000
     0.000000    0.000000   30.000000
   V    Mo   W    S 
   3   3   3  18
Direct configuration=     8
   0.66678828  0.66775594  0.00081821
   0.32287162  0.64587116 -0.00088150
   0.00111008  0.66785271  0.00083457
   0.99977541  0.31680147 -0.00028570
   0.00999095  0.02021082  0.00010281
   0.31723270  0.31685887 -0.00029270
   0.32588987  0.01748664 -0.00021610
   0.69159129  0.01743858 -0.00021410
   0.66078226  0.32221039  0.00039037
   0.11145837  0.22295019  0.94353543
   0.22071091  0.11108974  0.05613127
   0.11185546  0.55774874  0.95026061
   0.22400689  0.44806793  0.05233980
   0.10785889  0.88603064  0.94910731
   0.22158041  0.77539015  0.04836475
   0.44462511  0.22456703  0.94574686
   0.55377861  0.10758599  0.05233695
   0.44579087  0.55776621  0.95024701
   0.55584291  0.44758520  0.04954113
   0.44360168  0.88723739  0.95379234
   0.55372593  0.77539539  0.04836717
   0.77985238  0.22460594  0.94580340
   0.89031267  0.11110865  0.05614774
   0.77957359  0.55922722  0.95070002
   0.89161696  0.44755480  0.04947282
   0.77811578  0.88603955  0.94908671
   0.88787458  0.77577710  0.04876271
unknown system                          
           1
     8.279179    4.780433    0.000000
    -8.318842    4.849104    0.000000
     0.000000    0.000000   30.000000
   V    Mo   W    S 
   3   3   3  18
Direct configuration=     9
   0.66727043  0.66970923  0.00111209
   0.31904003  0.63812573 -0.00123529
   0.00265430  0.66994544  0.00114128
   0.99956833  0.31554531 -0.00035918
   0.01040413  0.02108509  0.00018643
   0.31640354  0.31565252 -0.00036492
   0.32339771  0.02050923 -0.00021473
   0.69709091  0.02042068 -0.00021739
   0.65876953  0.31861168  0.00032900
   0.11165089  0.22329320  0.94330540
   0.22006789  0.11176063  0.05673429
   0.11093504  0.55657361  0.95018176
   0.22339477  0.44681849  0.05265649
   0.10805771  0.88745799  0.94900689
   0.22270523  0.77638948  0.04767391
   0.44467877  0.22524374  0.94535521
   0.55315763  0.10640819  0.05205908
   0.44554035  0.55661983  0.95018047
   0.55574941  0.44694291  0.04894404
   0.44403343  0.88810276  0.95597992
   0.55360731  0.77636746  0.04765385
   0.78052629  0.22534246  0.94544244
   0.89163267  0.11179742  0.05674598
   0.77934577  0.55876535  0.95123863
   0.89101839  0.44686686  0.04884555
   0.77934349  0.88747956  0.94901082
   0.88817049  0.77637959  0.04860788
unknown system                          
           1
     8.277829    4.779820    0.000000
    -8.318261    4.849826    0.000000
     0.000000    0.000000   30.000000
   V    Mo   W    S 
   3   3   3  18
Direct configuration=    10
   0.66760929  0.67049328  0.00110639
   0.31910171  0.63827134 -0.00127797
   0.00315761  0.67080050  0.00114367
   0.99984094  0.31560645 -0.00032945
   0.01029944  0.02087452  0.00023653
   0.31626653  0.31573743 -0.00033503
   0.32331903  0.02001759 -0.00019019
   0.69668560  0.01995857 -0.00019224
   0.65854111  0.31829952  0.00028565
   0.11164548  0.22325641  0.94327516
   0.22004035  0.11190063  0.05677256
   0.11074459  0.55644245  0.95014733
   0.22330841  0.44664725  0.05271884
   0.10801900  0.88749053  0.94890571
   0.22283095  0.77628522  0.04764869
   0.44465332  0.22524579  0.94531506
   0.55308759  0.10626837  0.05206213
   0.44562529  0.55649430  0.95013458
   0.55593087  0.44708553  0.04887031
   0.44388541  0.88780530  0.95618594
   0.55337863  0.77626116  0.04763072
   0.78055902  0.22535499  0.94542171
   0.89179002  0.11193757  0.05678560
   0.77938889  0.55886835  0.95132411
   0.89096163  0.44699341  0.04875048
   0.77942215  0.88750050  0.94891047
   0.88812160  0.77631749  0.04869314
unknown system                          
           1
     8.281519    4.782114    0.000000
    -8.322205    4.852561    0.000000
     0.000000    0.000000   30.000000
   V    Mo   W    S 
   3   3   3  18
Direct configuration=    11
   0.66810907  0.67178048  0.00114140
   0.31827796  0.63660746 -0.00140853
   0.00402158  0.67220885  0.00119045
   1.00006297  0.31526471 -0.00032971
   0.01028144  0.02085992  0.00026680
   0.31585023  0.31543489 -0.00033716
   0.32262351  0.02042062 -0.00017699
   0.69778079  0.02035581 -0.00017967
   0.65782224  0.31713460  0.00024700
   0.11165755  0.22324450  0.94328393
   0.21993950  0.11210042  0.05685537
   0.11042889  0.55609325  0.95016748
   0.22313620  0.44629420  0.05277344
   0.10808150  0.88785401  0.94884656
   0.22312943  0.77638597  0.04748853
   0.44457575  0.22528201  0.94527974
   0.55293608  0.10597923  0.05197794
   0.44559945  0.55615476  0.95014813
   0.55605539  0.44705226  0.04862371
   0.44384556  0.88772318  0.95679348
   0.55318412  0.77635720  0.04746517
   0.78068647  0.22542198  0.94540982
   0.89208712  0.11214094  0.05686869
   0.77937655  0.55884533  0.95155227
   0.89078050  0.44694629  0.04847164
   0.77972936  0.88787124  0.94886007
   0.88815523  0.77640035  0.04872032
unknown system                          
           1
     8.281934    4.782424    0.000000
    -8.322816    4.853211    0.000000
     0.000000    0.000000   30.000000
   V    Mo   W    S 
   3   3   3  18
Direct configuration=    12
   0.66863054  0.67296183  0.00114252
   0.31787487  0.63579265 -0.00149776
   0.00476026  0.67351678  0.00120274
   1.00030144  0.31508016 -0.00031945
   0.01015516  0.02062558  0.00029669
   0.31556923  0.31528867 -0.00032877
   0.32226386  0.02048840 -0.00015894
   0.69820924  0.02041959 -0.00016224
   0.65727666  0.31630730  0.00022077
   0.11164704  0.22318805  0.94327647
   0.21987500  0.11220860  0.05690726
   0.11018874  0.55585781  0.95018726
   0.22303149  0.44607822  0.05281109
   0.10810539  0.88803625  0.94876675
   0.22330422  0.77638209  0.04743052
   0.44448515  0.22525261  0.94525343
   0.55282721  0.10577217  0.05195768
   0.44560517  0.55592546  0.95015852
   0.55616962  0.44710243  0.04844370
   0.44376532  0.88756073  0.95713606
   0.55300640  0.77635039  0.04740272
   0.78075908  0.22542290  0.94540763
   0.89225542  0.11225126  0.05692132
   0.77939275  0.55887105  0.95171050
   0.89069811  0.44699023  0.04825644
   0.77989738  0.88806581  0.94878711
   0.88815973  0.77641742  0.04878989
unknown system                          
           1
     8.276101    4.778918    0.000000
    -8.317837    4.851184    0.000000
     0.000000    0.000000   30.000000
   V    Mo   W    S 
   3   3   3  18
Direct configuration=    13
   0.66889474  0.67350871  0.00113924
   0.31773422  0.63550996 -0.00153262
   0.00508468  0.67412927  0.00120492
   1.00039140  0.31497510 -0.00031450
   0.01008673  0.02049815  0.00030876
   0.31544526  0.31520295 -0.00032468
   0.32215457  0.02051343 -0.00014987
   0.69834548  0.02044410 -0.00015348
   0.65702658  0.31593946  0.00021080
   0.11163659  0.22315000  0.94327405
   0.21984391  0.11224265  0.05692641
   0.11007989  0.55575459  0.95019902
   0.22298697  0.44598592  0.05282554
   0.10812339  0.88810470  0.94872929
   0.22336703  0.77638443  0.04741577
   0.44444482  0.22523285  0.94524239
   0.55277877  0.10568069  0.05195635
   0.44561121  0.55582463  0.95016592
   0.55621530  0.44712767  0.04836299
   0.44373872  0.88750496  0.95725968
   0.55294643  0.77635056  0.04738524
   0.78078551  0.22541765  0.94540898
   0.89231793  0.11228603  0.05694069
   0.77939478  0.55887270  0.95177851
   0.89066804  0.44701235  0.04815790
   0.77995276  0.88813991  0.94875334
   0.88815874  0.77642104  0.04882927
unknown system                          
           1
     8.287867    4.786159    0.000000
    -8.329170    4.857680    0.000000
     0.000000    0.000000   30.000000
   V    Mo   W    S 
   3   3   3  18
Direct configuration=    14
   0.66857599  0.67304461  0.00116579
   0.31779742  0.63547011 -0.00151823
   0.00474466  0.67347541  0.00121552
   1.00023628  0.31494546 -0.00032037
   0.01023560  0.02086266  0.00031169
   0.31551591  0.31516103 -0.00032782
   0.32222099  0.02074610 -0.00015774
   0.69851426  0.02056260 -0.00016746
   0.65714233  0.31606975  0.00022211
   0.11166938  0.22323779  0.94327680
   0.21986159  0.11232664  0.05693983
   0.11007108  0.55571391  0.95014644
   0.22294718  0.44591615  0.05285165
   0.10808675  0.88817780  0.94874690
   0.22343179  0.77643492  0.04738830
   0.44449788  0.22531076  0.94524772
   0.55280883  0.10575104  0.05190685
   0.44564063  0.55581168  0.95012911
   0.55622178  0.44706675  0.04838311
   0.44377468  0.88758934  0.95732107
   0.55296899  0.77635198  0.04734813
   0.78080494  0.22548164  0.94540666
   0.89238981  0.11236848  0.05695227
   0.77933027  0.55884861  0.95174842
   0.89057066  0.44686076  0.04822587
   0.78001814  0.88814207  0.94877849
   0.88813663  0.77648644  0.04877880
unknown system                          
           1
     8.289654    4.787194    0.000000
    -8.331076    4.858921    0.000000
     0.000000    0.000000   30.000000
   V    Mo   W    S 
   3   3   3  18
Direct configuration=    15
   0.66994099  0.67564292  0.00112473
   0.31714385  0.63438560 -0.00166814
   0.00639428  0.67656858  0.00121567
   1.00077674  0.31462021 -0.00029413
   0.00979502  0.01992251  0.00035526
   0.31497659  0.31492139 -0.00030828
   0.32169227  0.02054309 -0.00011430
   0.69884331  0.02051497 -0.00011663
   0.65607056  0.31453316  0.00016976
   0.11159367  0.22299500  0.94325247
   0.21971374  0.11235350  0.05700680
   0.10967839  0.55538238  0.95025243
   0.22283162  0.44566033  0.05287802
   0.10819252  0.88834230  0.94858227
   0.22359503  0.77638450  0.04736014
   0.44428403  0.22515158  0.94518859
   0.55258307  0.10530599  0.05196539
   0.44561816  0.55545113  0.95019807
   0.55637650  0.44723164  0.04806371
   0.44362934  0.88727369  0.95772362
   0.55270650  0.77636121  0.04732323
   0.78088884  0.22539400  0.94540168
   0.89254790  0.11240049  0.05702245
   0.77942761  0.55888864  0.95203725
   0.89058826  0.44713947  0.04777767
   0.78015548  0.88842508  0.94861680
   0.88817017  0.77642107  0.04898536
unknown system                          
           1
     8.276933    4.780516    0.000000
    -8.319370    4.854011    0.000000
     0.000000    0.000000   30.000000
   V    Mo   W    S 
   3   3   3  18
Direct configuration=    16
   0.67041188  0.67666604  0.00111666
   0.31695427  0.63386993 -0.00172628
   0.00687124  0.67757144  0.00120895
   1.00096288  0.31449477 -0.00028427
   0.00961627  0.01963494  0.00037671
   0.31479484  0.31481852 -0.00029972
   0.32154414  0.02059806 -0.00009403
   0.69905202  0.02047128 -0.00010327
   0.65562544  0.31391219  0.00013361
   0.11157819  0.22293316  0.94323764
   0.21966269  0.11241690  0.05705264
   0.10949633  0.55520143  0.95027296
   0.22275703  0.44550561  0.05290241
   0.10822935  0.88848144  0.94851227
   0.22372413  0.77639322  0.04734102
   0.44422576  0.22512987  0.94515468
   0.55248915  0.10513569  0.05198785
   0.44566857  0.55529807  0.95021635
   0.55648373  0.44733430  0.04791562
   0.44356694  0.88715213  0.95793070
   0.55261088  0.77632979  0.04729491
   0.78093069  0.22539568  0.94539727
   0.89266012  0.11246504  0.05706878
   0.77940080  0.55889901  0.95216180
   0.89053897  0.44717127  0.04761637
   0.78023891  0.88852017  0.94855684
   0.88811926  0.77641453  0.04905144
unknown system                          
           1
     8.266901    4.775231    0.000000
    -8.311265    4.852072    0.000000
     0.000000    0.000000   30.000000
   V    Mo   W    S 
   3   3   3  18
Direct configuration=    17
   0.66977631  0.67541231  0.00111826
   0.31703849  0.63427035 -0.00166788
   0.00659014  0.67667995  0.00121445
   1.00076346  0.31457999 -0.00029124
   0.00982892  0.01995522  0.00034569
   0.31495791  0.31493303 -0.00030670
   0.32168387  0.02062335 -0.00013199
   0.69895485  0.02067806 -0.00012805
   0.65604642  0.31444479  0.00017860
   0.11158029  0.22296749  0.94325018
   0.21972005  0.11232597  0.05698983
   0.10975687  0.55543014  0.95026099
   0.22287775  0.44576766  0.05284926
   0.10818535  0.88833040  0.94857901
   0.22365188  0.77640087  0.04737467
   0.44430961  0.22512497  0.94521895
   0.55257131  0.10530136  0.05194550
   0.44545846  0.55547549  0.95021475
   0.55629686  0.44708859  0.04809682
   0.44364709  0.88729523  0.95773399
   0.55265296  0.77640058  0.04730865
   0.78085484  0.22539276  0.94540879
   0.89252016  0.11236223  0.05700418
   0.77946555  0.55884014  0.95201687
   0.89058012  0.44711184  0.04777956
   0.78017364  0.88852385  0.94863927
   0.88827130  0.77649785  0.04899749
unknown system                          
           1
     8.282091    4.782913    0.000000
    -8.321878    4.851811    0.000000
     0.000000    0.000000   30.000000
   V    Mo   W    S 
   3   3   3  18
Direct configuration=    18
   0.66769774  0.67137871  0.00115579
   0.31754283  0.63560863 -0.00145508
   0.00506612  0.67310442  0.00123561
   1.00010800  0.31508820 -0.00031828
   0.01050202  0.02110173  0.00026792
   0.31567870  0.31546240 -0.00032414
   0.32208975  0.02061838 -0.00021822
   0.69857581  0.02096870 -0.00019435
   0.65755568  0.31646635  0.00026775
   0.11166310  0.22324182  0.94320651
   0.21988729  0.11222823  0.05693475
   0.11034078  0.55597253  0.95009694
   0.22312487  0.44632594  0.05281646
   0.10795932  0.88795880  0.94875179
   0.22351205  0.77645893  0.04746045
   0.44459943  0.22531852  0.94527192
   0.55277439  0.10570285  0.05189527
   0.44515313  0.55593999  0.95007874
   0.55586987  0.44658578  0.04867728
   0.44385701  0.88769254  0.95719360
   0.55280070  0.77652896  0.04735774
   0.78076360  0.22553576  0.94533395
   0.89227259  0.11223517  0.05694876
   0.77955606  0.55877748  0.95154965
   0.89068896  0.44689246  0.04840034
   0.78005859  0.88833300  0.94883529
   0.88851603  0.77668818  0.04877346
unknown system                          
           1
     8.282152    4.783123    0.000000
    -8.320750    4.849965    0.000000
     0.000000    0.000000   30.000000
   V    Mo   W    S 
   3   3   3  18
Direct configuration=    19
   0.66693459  0.67014818  0.00123387
   0.31745199  0.63527342 -0.00146612
   0.00474183  0.67232166  0.00129982
   0.99995252  0.31527462 -0.00034474
   0.01083532  0.02171062  0.00029440
   0.31592713  0.31574719 -0.00033725
   0.32172560  0.02058689 -0.00023226
   0.69896406  0.02098683 -0.00021606
   0.65790293  0.31691718  0.00023324
   0.11178704  0.22352401  0.94323641
   0.21994247  0.11251067  0.05696626
   0.11019875  0.55581289  0.95002654
   0.22296880  0.44609042  0.05287346
   0.10782972  0.88810303  0.94881106
   0.22356509  0.77650809  0.04734955
   0.44461491  0.22548791  0.94527175
   0.55277233  0.10574813  0.05182713
   0.44526419  0.55586578  0.95000205
   0.55602567  0.44664784  0.04869742
   0.44386292  0.88770192  0.95743426
   0.55285301  0.77644099  0.04719293
   0.78090806  0.22566655  0.94531718
   0.89249908  0.11249021  0.05698591
   0.77949558  0.55883281  0.95162496
   0.89061214  0.44688318  0.04844927
   0.78023788  0.88827375  0.94894246
   0.88834084  0.77665968  0.04852638
unknown system                          
           1
     8.294995    4.790719    0.000000
    -8.332567    4.855787    0.000000
     0.000000    0.000000   30.000000
   V    Mo   W    S 
   3   3   3  18
Direct configuration=    20
   0.66422114  0.66560462  0.00132208
   0.31745910  0.63533427 -0.00137342
   0.00369027  0.66929788  0.00139617
   0.99928352  0.31565469 -0.00039075
   0.01195922  0.02363893  0.00030305
   0.31670007  0.31641909 -0.00037733
   0.32126471  0.02068024 -0.00027465
   0.69957411  0.02135841 -0.00025192
   0.65920748  0.31856817  0.00023716
   0.11204649  0.22414206  0.94326634
   0.22018846  0.11283440  0.05694281
   0.11035998  0.55603901  0.94983811
   0.22289973  0.44611406  0.05289872
   0.10746442  0.88815018  0.94901213
   0.22354687  0.77652242  0.04723318
   0.44478922  0.22578778  0.94536126
   0.55292965  0.10605517  0.05160381
   0.44520060  0.55608492  0.94978417
   0.55593758  0.44620838  0.04910945
   0.44404327  0.88803398  0.95754797
   0.55286358  0.77634757  0.04698352
   0.78099156  0.22588650  0.94528080
   0.89258122  0.11273494  0.05696856
   0.77953055  0.55885258  0.95143946
   0.89052769  0.44673636  0.04885375
   0.78056787  0.88823989  0.94924640
   0.88838611  0.77688795  0.04803909
unknown system                          
           1
     8.291842    4.789175    0.000000
    -8.329195    4.853868    0.000000
     0.000000    0.000000   30.000000
   V    Mo   W    S 
   3   3   3  18
Direct configuration=    21
   0.66409022  0.66601921  0.00128190
   0.31701606  0.63437864 -0.00144244
   0.00453050  0.67053930  0.00139847
   0.99955990  0.31561646 -0.00037704
   0.01201153  0.02363640  0.00036477
   0.31665144  0.31659209 -0.00036588
   0.32093347  0.02063771 -0.00026704
   0.69988645  0.02137033 -0.00024281
   0.65874847  0.31792870  0.00013577
   0.11209916  0.22420507  0.94323255
   0.22016463  0.11303379  0.05704289
   0.11009746  0.55589955  0.94985607
   0.22278858  0.44591197  0.05291765
   0.10744065  0.88840950  0.94893360
   0.22371694  0.77645534  0.04719386
   0.44464450  0.22567198  0.94533342
   0.55281717  0.10578908  0.05160801
   0.44535214  0.55594931  0.94973955
   0.55611726  0.44626908  0.04898437
   0.44394458  0.88783410  0.95791129
   0.55263562  0.77621228  0.04692126
   0.78101061  0.22578973  0.94528259
   0.89277271  0.11288360  0.05707001
   0.77951535  0.55884647  0.95161482
   0.89048148  0.44688114  0.04862346
   0.78084453  0.88841182  0.94921469
   0.88834307  0.77704181  0.04803411
unknown system                          
           1
     8.292777    4.790099    0.000000
    -8.330254    4.855014    0.000000
     0.000000    0.000000   30.000000
   V    Mo   W    S 
   3   3   3  18
Direct configuration=    22
   0.66407085  0.66639583  0.00127110
   0.31680217  0.63390205 -0.00150092
   0.00516408  0.67159715  0.00142028
   0.99971071  0.31542679 -0.00037469
   0.01205851  0.02366791  0.00039326
   0.31657022  0.31658983 -0.00036504
   0.32070321  0.02064496 -0.00023114
   0.70014511  0.02138212 -0.00021186
   0.65830503  0.31735025  0.00012684
   0.11212086  0.22421196  0.94326226
   0.22020326  0.11312948  0.05703915
   0.10996649  0.55579990  0.94989488
   0.22271002  0.44577124  0.05291822
   0.10747794  0.88858347  0.94890312
   0.22378915  0.77640637  0.04716118
   0.44453065  0.22557446  0.94534071
   0.55279548  0.10572775  0.05156728
   0.44537462  0.55585543  0.94973506
   0.55623077  0.44627271  0.04887575
   0.44389098  0.88771801  0.95812088
   0.55250876  0.77611090  0.04687056
   0.78103764  0.22571505  0.94531319
   0.89281686  0.11294891  0.05706763
   0.77950890  0.55882122  0.95172811
   0.89042481  0.44695168  0.04843357
   0.78099084  0.88856302  0.94922346
   0.88830654  0.77709599  0.04801704
unknown system                          
           1
     8.289465    4.787642    0.000000
    -8.326760    4.852233    0.000000
     0.000000    0.000000   30.000000
   V    Mo   W    S 
   3   3   3  18
Direct configuration=    23
   0.66404853  0.66684770  0.00124173
   0.31659076  0.63340022 -0.00156218
   0.00593569  0.67296614  0.00143267
   0.99990002  0.31522517 -0.00037028
   0.01205476  0.02360506  0.00042123
   0.31655170  0.31664951 -0.00036268
   0.32056607  0.02066216 -0.00019812
   0.70033711  0.02138169 -0.00018632
   0.65770894  0.31662573  0.00009781
   0.11215022  0.22421147  0.94326391
   0.22022923  0.11324718  0.05707393
   0.10981105  0.55566284  0.94992405
   0.22262570  0.44562447  0.05293512
   0.10751161  0.88877494  0.94883361
   0.22393469  0.77636608  0.04715889
   0.44440256  0.22545716  0.94531960
   0.55273017  0.10558387  0.05156715
   0.44539066  0.55574081  0.94970868
   0.55635110  0.44627877  0.04877631
   0.44381874  0.88755773  0.95833797
   0.55232339  0.77598586  0.04684007
   0.78107061  0.22563293  0.94532805
   0.89289354  0.11302281  0.05710343
   0.77949424  0.55878370  0.95184228
   0.89037176  0.44702967  0.04822438
   0.78115914  0.88871293  0.94920949
   0.88825245  0.77717782  0.04803912
unknown system                          
           1
     8.298253    4.793367    0.000000
    -8.335707    4.858241    0.000000
     0.000000    0.000000   30.000000
   V    Mo   W    S 
   3   3   3  18
Direct configuration=    24
   0.66393685  0.66616776  0.00130448
   0.31685304  0.63390844 -0.00148292
   0.00479173  0.67068166  0.00141629
   0.99954475  0.31563526 -0.00038926
   0.01208459  0.02377912  0.00039040
   0.31661074  0.31661550 -0.00037739
   0.32078085  0.02074320 -0.00025023
   0.70015566  0.02146605 -0.00022590
   0.65865865  0.31761202  0.00013818
   0.11210675  0.22427048  0.94325884
   0.22020404  0.11310843  0.05704591
   0.11006703  0.55586050  0.94985728
   0.22275298  0.44584049  0.05291640
   0.10742190  0.88856305  0.94894073
   0.22378117  0.77640122  0.04713324
   0.44458590  0.22563780  0.94537129
   0.55283706  0.10582027  0.05152168
   0.44539390  0.55592533  0.94974822
   0.55621343  0.44626261  0.04890221
   0.44390238  0.88776435  0.95810866