       N       E                     dE             d eps       ncg     rms          rms(c)
DAV:   1     0.112407955887E+04    0.11241E+04   -0.35862E+04  8160   0.577E+02
DAV:   2     0.111297997437E+01   -0.11230E+04   -0.10758E+04 11160   0.173E+02
DAV:   3    -0.199791551507E+03   -0.20090E+03   -0.19260E+03 10920   0.825E+01
DAV:   4    -0.209046723466E+03   -0.92552E+01   -0.89923E+01 11920   0.264E+01
DAV:   5    -0.209404723005E+03   -0.35800E+00   -0.35710E+00 11520   0.383E+00    0.278E+01
DAV:   6    -0.241342626491E+03   -0.31938E+02   -0.11355E+02 12600   0.600E+01    0.607E+01
DAV:   7    -0.196121111622E+03    0.45222E+02   -0.18032E+02 13200   0.151E+02    0.198E+01
DAV:   8    -0.189357861299E+03    0.67633E+01   -0.18441E+01 12160   0.126E+01    0.123E+01
DAV:   9    -0.188082058585E+03    0.12758E+01   -0.30304E+00 13040   0.612E+00    0.891E+00
DAV:  10    -0.186949913866E+03    0.11321E+01   -0.15879E+00 13240   0.728E+00    0.205E+00
DAV:  11    -0.187057253762E+03   -0.10734E+00   -0.58416E-01 13400   0.342E+00    0.418E+00
DAV:  12    -0.186949062712E+03    0.10819E+00   -0.58224E-01 13000   0.417E+00    0.292E+00
DAV:  13    -0.186874075770E+03    0.74987E-01   -0.19727E-01 12520   0.236E+00    0.131E+00
DAV:  14    -0.186853472023E+03    0.20604E-01   -0.73637E-02 12720   0.125E+00    0.862E-01
DAV:  15    -0.186850632054E+03    0.28400E-02   -0.22328E-02 13040   0.737E-01    0.695E-01
DAV:  16    -0.186846619519E+03    0.40125E-02   -0.10439E-02 13000   0.449E-01    0.303E-01
DAV:  17    -0.186845420194E+03    0.11993E-02   -0.53456E-03 12720   0.330E-01    0.233E-01
DAV:  18    -0.186844816387E+03    0.60381E-03   -0.17052E-03 12640   0.201E-01    0.683E-02
DAV:  19    -0.186845204203E+03   -0.38782E-03   -0.64104E-04 10640   0.694E-02    0.888E-02
DAV:  20    -0.186845750588E+03   -0.54638E-03   -0.62688E-04  9520   0.766E-02    0.603E-02
DAV:  21    -0.186846551641E+03   -0.80105E-03   -0.22302E-04  8000   0.443E-02    0.392E-02
DAV:  22    -0.186847470889E+03   -0.91925E-03   -0.14774E-04  7440   0.440E-02    0.250E-02
DAV:  23    -0.186848550163E+03   -0.10793E-02   -0.88913E-05  7440   0.238E-02    0.118E-02
DAV:  24    -0.186849211259E+03   -0.66110E-03   -0.30347E-05  6480   0.172E-02    0.769E-03
DAV:  25    -0.186849575825E+03   -0.36457E-03   -0.14137E-05  6000   0.119E-02    0.254E-03
DAV:  26    -0.186849793232E+03   -0.21741E-03   -0.81390E-06  6800   0.617E-03    0.144E-03
DAV:  27    -0.186849867374E+03   -0.74142E-04   -0.31964E-06  7200   0.409E-03
   1 F= -.18684987E+03 E0= -.18667648E+03  d E =-.186850E+03
       N       E                     dE             d eps       ncg     rms          rms(c)
DAV:   1    -0.187532213229E+03   -0.68242E+00   -0.27394E+02  8160   0.351E+01    0.477E+00
DAV:   2    -0.190021536554E+03   -0.24893E+01   -0.21016E+01 12280   0.169E+01    0.131E+01
DAV:   3    -0.189244379081E+03    0.77716E+00   -0.59854E+00 12440   0.138E+01    0.561E+00
DAV:   4    -0.188849716491E+03    0.39466E+00   -0.63582E-01 12520   0.439E+00    0.332E+00
DAV:   5    -0.188857867571E+03   -0.81511E-02   -0.52626E-01 12000   0.412E+00    0.428E+00
DAV:   6    -0.188763088762E+03    0.94779E-01   -0.52849E-01 12240   0.330E+00    0.216E+00
DAV:   7    -0.188710503890E+03    0.52585E-01   -0.20240E-01 10600   0.133E+00    0.118E+00
DAV:   8    -0.188696169862E+03    0.14334E-01   -0.61624E-02 12440   0.103E+00    0.100E+00
DAV:   9    -0.188689861984E+03    0.63079E-02   -0.24785E-02 12480   0.850E-01    0.658E-01
DAV:  10    -0.188687245081E+03    0.26169E-02   -0.80310E-03 12080   0.426E-01    0.312E-01
DAV:  11    -0.188686396941E+03    0.84814E-03   -0.26331E-03 13040   0.222E-01    0.105E-01
DAV:  12    -0.188686399339E+03   -0.23983E-05   -0.98925E-04 11800   0.944E-02
   2 F= -.18868640E+03 E0= -.18854466E+03  d E =-.183653E+01
       N       E                     dE             d eps       ncg     rms          rms(c)
DAV:   1    -0.190635660709E+03   -0.19493E+01   -0.31710E+01  8960   0.143E+01    0.447E+00
DAV:   2    -0.190562261624E+03    0.73399E-01   -0.28062E+00 11480   0.917E+00    0.724E+00
DAV:   3    -0.190126070362E+03    0.43619E+00   -0.15278E+00 12320   0.846E+00    0.438E+00
DAV:   4    -0.189895642697E+03    0.23043E+00   -0.72892E-01 12640   0.439E+00    0.249E+00
DAV:   5    -0.189870773613E+03    0.24869E-01   -0.37571E-01 12240   0.305E+00    0.284E+00
DAV:   6    -0.189797188213E+03    0.73585E-01   -0.15883E-01 12560   0.247E+00    0.755E-01
DAV:   7    -0.189791358150E+03    0.58301E-02   -0.16031E-02 11680   0.605E-01    0.397E-01
DAV:   8    -0.189791438187E+03   -0.80037E-04   -0.66802E-03 12720   0.480E-01    0.382E-01
DAV:   9    -0.189790377942E+03    0.10602E-02   -0.26053E-03 11400   0.272E-01    0.128E-01
DAV:  10    -0.189790803110E+03   -0.42517E-03   -0.10517E-03 10720   0.111E-01    0.139E-01
DAV:  11    -0.189790491381E+03    0.31173E-03   -0.56723E-04  9760   0.864E-02    0.205E-02
DAV:  12    -0.189790514943E+03   -0.23562E-04   -0.71214E-05  7200   0.265E-02
   3 F= -.18979051E+03 E0= -.18967036E+03  d E =-.110412E+01
       N       E                     dE             d eps       ncg     rms          rms(c)
DAV:   1    -0.191368351153E+03   -0.15779E+01   -0.79178E+01  8160   0.202E+01    0.456E+00
DAV:   2    -0.191121204099E+03    0.24715E+00   -0.52621E+00 13280   0.671E+00    0.377E+00
DAV:   3    -0.191426314900E+03   -0.30511E+00   -0.14964E+00 12120   0.855E+00    0.797E+00
DAV:   4    -0.190988914050E+03    0.43740E+00   -0.20508E+00 11320   0.911E+00    0.365E+00
DAV:   5    -0.190981250353E+03    0.76637E-02   -0.71947E-01 11920   0.536E+00    0.363E+00
DAV:   6    -0.190806106954E+03    0.17514E+00   -0.22667E-01 12080   0.321E+00    0.699E-01
DAV:   7    -0.190806239550E+03   -0.13260E-03   -0.35945E-02 12440   0.831E-01    0.656E-01
DAV:   8    -0.190804424141E+03    0.18154E-02   -0.17990E-02 11800   0.849E-01    0.611E-01
DAV:   9    -0.190800848521E+03    0.35756E-02   -0.63314E-03 11520   0.513E-01    0.174E-01
DAV:  10    -0.190801156392E+03   -0.30787E-03   -0.15833E-03 11000   0.149E-01    0.125E-01
DAV:  11    -0.190800933900E+03    0.22249E-03   -0.67254E-04 10600   0.100E-01    0.418E-02
DAV:  12    -0.190800943814E+03   -0.99140E-05   -0.96085E-05  7240   0.342E-02
   4 F= -.19080094E+03 E0= -.19069773E+03  d E =-.101043E+01
       N       E                     dE             d eps       ncg     rms          rms(c)
DAV:   1    -0.192287419910E+03   -0.14865E+01   -0.17976E+02  8160   0.299E+01    0.591E+00
DAV:   2    -0.191995315632E+03    0.29210E+00   -0.98978E+00 11080   0.776E+00    0.398E+00
DAV:   3    -0.192420536158E+03   -0.42522E+00   -0.31171E+00 12120   0.109E+01    0.732E+00
DAV:   4    -0.191706031752E+03    0.71450E+00   -0.11988E+00 12200   0.855E+00    0.302E+00
DAV:   5    -0.191731452688E+03   -0.25421E-01   -0.59781E-01 12000   0.555E+00    0.464E+00
DAV:   6    -0.191543692621E+03    0.18776E+00   -0.56054E-01 12240   0.493E+00    0.117E+00
DAV:   7    -0.191542926177E+03    0.76644E-03   -0.80437E-02 11840   0.156E+00    0.119E+00
DAV:   8    -0.191530992380E+03    0.11934E-01   -0.40929E-02 11640   0.131E+00    0.535E-01
DAV:   9    -0.191527598450E+03    0.33939E-02   -0.76204E-03 11960   0.484E-01    0.161E-01
DAV:  10    -0.191527656988E+03   -0.58537E-04   -0.25617E-03 10440   0.148E-01    0.682E-02
DAV:  11    -0.191527686115E+03   -0.29128E-04   -0.34390E-04  9200   0.769E-02
   5 F= -.19152769E+03 E0= -.19143020E+03  d E =-.726742E+00
       N       E                     dE             d eps       ncg     rms          rms(c)
DAV:   1    -0.191586109289E+03   -0.58452E-01   -0.39270E+00  8160   0.424E+00    0.722E-01
DAV:   2    -0.191662788571E+03   -0.76679E-01   -0.29627E-01 12400   0.327E+00    0.256E+00
DAV:   3    -0.191593843670E+03    0.68945E-01   -0.11610E-01 12440   0.254E+00    0.370E-01
DAV:   4    -0.191597743315E+03   -0.38996E-02   -0.18710E-02 11640   0.846E-01    0.819E-01
DAV:   5    -0.191591632529E+03    0.61108E-02   -0.14802E-02 11640   0.777E-01    0.234E-01
DAV:   6    -0.191592035735E+03   -0.40321E-03   -0.48367E-03 11360   0.356E-01    0.319E-01
DAV:   7    -0.191591332227E+03    0.70351E-03   -0.40220E-03 11400   0.398E-01    0.193E-01
DAV:   8    -0.191590950194E+03    0.38203E-03   -0.87008E-04  9160   0.167E-01    0.414E-02
DAV:   9    -0.191590941940E+03    0.82542E-05   -0.97430E-05  6240   0.386E-02
   6 F= -.19159094E+03 E0= -.19149112E+03  d E =-.632558E-01
       N       E                     dE             d eps       ncg     rms          rms(c)
DAV:   1    -0.191677062473E+03   -0.86112E-01   -0.10502E+01  8160   0.682E+00    0.915E-01
DAV:   2    -0.191778149792E+03   -0.10109E+00   -0.39537E-01 12720   0.324E+00    0.292E+00
DAV:   3    -0.191688795936E+03    0.89354E-01   -0.19340E-01 12400   0.320E+00    0.707E-01
DAV:   4    -0.191693628453E+03   -0.48325E-02   -0.38227E-02 11600   0.117E+00    0.105E+00
DAV:   5    -0.191683229878E+03    0.10399E-01   -0.25818E-02 11640   0.102E+00    0.298E-01
DAV:   6    -0.191683257610E+03   -0.27732E-04   -0.56360E-03 11480   0.377E-01    0.321E-01
DAV:   7    -0.191683085706E+03    0.17190E-03   -0.60981E-03 11480   0.494E-01    0.312E-01
DAV:   8    -0.191682197392E+03    0.88831E-03   -0.22167E-03 10080   0.280E-01    0.673E-02
DAV:   9    -0.191682139568E+03    0.57824E-04   -0.20188E-04  6600   0.595E-02
   7 F= -.19168214E+03 E0= -.19158156E+03  d E =-.911976E-01
       N       E                     dE             d eps       ncg     rms          rms(c)
DAV:   1    -0.191713350294E+03   -0.31153E-01   -0.98261E-01  8160   0.215E+00    0.326E-01
DAV:   2    -0.191723413134E+03   -0.10063E-01   -0.49713E-02 12720   0.121E+00    0.967E-01
DAV:   3    -0.191714091704E+03    0.93214E-02   -0.19672E-02 12080   0.988E-01    0.242E-01
DAV:   4    -0.191715369024E+03   -0.12773E-02   -0.68655E-03 11400   0.503E-01    0.455E-01
DAV:   5    -0.191713316754E+03    0.20523E-02   -0.45785E-03 11120   0.428E-01    0.104E-01
DAV:   6    -0.191713276371E+03    0.40383E-04   -0.87488E-04  9840   0.115E-01
   8 F= -.19171328E+03 E0= -.19161275E+03  d E =-.311368E-01
       N       E                     dE             d eps       ncg     rms          rms(c)
DAV:   1    -0.191777920705E+03   -0.64604E-01   -0.46253E+00  8160   0.460E+00    0.582E-01
DAV:   2    -0.191820233844E+03   -0.42313E-01   -0.18107E-01 13440   0.233E+00    0.193E+00
DAV:   3    -0.191784418351E+03    0.35815E-01   -0.77505E-02 12360   0.195E+00    0.487E-01
DAV:   4    -0.191786948397E+03   -0.25300E-02   -0.19499E-02 11240   0.869E-01    0.702E-01
DAV:   5    -0.191781712049E+03    0.52363E-02   -0.96961E-03 11360   0.654E-01    0.149E-01
DAV:   6    -0.191782104017E+03   -0.39197E-03   -0.24675E-03 11560   0.236E-01    0.214E-01
DAV:   7    -0.191781880537E+03    0.22348E-03   -0.23594E-03 11160   0.324E-01    0.210E-01
DAV:   8    -0.191781428459E+03    0.45208E-03   -0.84303E-04  8440   0.186E-01    0.286E-02
DAV:   9    -0.191781436696E+03   -0.82369E-05   -0.69228E-05  6120   0.321E-02
   9 F= -.19178144E+03 E0= -.19168232E+03  d E =-.681603E-01
       N       E                     dE             d eps       ncg     rms          rms(c)
DAV:   1    -0.191797196795E+03   -0.15768E-01   -0.22632E-01  8160   0.102E+00    0.120E-01
DAV:   2    -0.191798581366E+03   -0.13846E-02   -0.80111E-03 12320   0.415E-01    0.338E-01
DAV:   3    -0.191797515515E+03    0.10659E-02   -0.27278E-03 11440   0.352E-01    0.107E-01
DAV:   4    -0.191797636027E+03   -0.12051E-03   -0.74408E-04  8600   0.177E-01    0.145E-01
DAV:   5    -0.191797411693E+03    0.22433E-03   -0.40902E-04  7960   0.149E-01    0.353E-02
DAV:   6    -0.191797430497E+03   -0.18804E-04   -0.10014E-04  6240   0.453E-02
  10 F= -.19179743E+03 E0= -.19169891E+03  d E =-.159938E-01
       N       E                     dE             d eps       ncg     rms          rms(c)
DAV:   1    -0.191762515144E+03    0.34897E-01   -0.11670E+00  8160   0.238E+00    0.383E-01
DAV:   2    -0.191768192328E+03   -0.56772E-02   -0.55384E-02 12520   0.103E+00    0.799E-01
DAV:   3    -0.191763164927E+03    0.50274E-02   -0.20698E-02 12400   0.951E-01    0.400E-01
DAV:   4    -0.191762881128E+03    0.28380E-03   -0.85536E-03 10800   0.561E-01    0.415E-01
DAV:   5    -0.191761448821E+03    0.14323E-02   -0.54961E-03 10240   0.517E-01    0.208E-01
DAV:   6    -0.191761082891E+03    0.36593E-03   -0.19445E-03 11520   0.245E-01    0.139E-01
DAV:   7    -0.191761029000E+03    0.53891E-04   -0.97055E-04  9200   0.209E-01
  11 F= -.19176103E+03 E0= -.19166102E+03  d E =0.364015E-01
       N       E                     dE             d eps       ncg     rms          rms(c)
DAV:   1    -0.191870005444E+03   -0.10892E+00   -0.10426E+01  8160   0.704E+00    0.902E-01
DAV:   2    -0.191931495100E+03   -0.61490E-01   -0.39976E-01 12760   0.290E+00    0.241E+00
DAV:   3    -0.191885443856E+03    0.46051E-01   -0.14239E-01 12360   0.255E+00    0.827E-01
DAV:   4    -0.191889449134E+03   -0.40053E-02   -0.42135E-02 12240   0.143E+00    0.109E+00
DAV:   5    -0.191875858572E+03    0.13591E-01   -0.24335E-02 11320   0.119E+00    0.311E-01
DAV:   6    -0.191876922472E+03   -0.10639E-02   -0.96662E-03 11680   0.546E-01    0.462E-01
DAV:   7    -0.191875114775E+03    0.18077E-02   -0.62669E-03 11600   0.565E-01    0.220E-01
DAV:   8    -0.191874551198E+03    0.56358E-03   -0.11532E-03  9960   0.202E-01    0.533E-02
DAV:   9    -0.191874504685E+03    0.46513E-04   -0.16211E-04  6760   0.483E-02
  12 F= -.19187450E+03 E0= -.19177947E+03  d E =-.113476E+00
       N       E                     dE             d eps       ncg     rms          rms(c)
DAV:   1    -0.191922085715E+03   -0.47535E-01   -0.18683E+00  8160   0.295E+00    0.339E-01
DAV:   2    -0.191929599952E+03   -0.75142E-02   -0.60534E-02 12000   0.991E-01    0.763E-01
DAV:   3    -0.191925182324E+03    0.44176E-02   -0.16330E-02 12400   0.886E-01    0.343E-01
DAV:   4    -0.191924554487E+03    0.62784E-03   -0.35882E-03 11440   0.401E-01    0.268E-01
DAV:   5    -0.191923943125E+03    0.61136E-03   -0.21454E-03 10520   0.380E-01    0.166E-01
DAV:   6    -0.191923957198E+03   -0.14073E-04   -0.13665E-03  9960   0.229E-01    0.157E-01
DAV:   7    -0.191923757543E+03    0.19966E-03   -0.82765E-04  8760   0.215E-01    0.109E-01
DAV:   8    -0.191923623601E+03    0.13394E-03   -0.24148E-04  6960   0.107E-01    0.169E-02
DAV:   9    -0.191923626467E+03   -0.28663E-05   -0.36019E-05  6600   0.234E-02
  13 F= -.19192363E+03 E0= -.19183099E+03  d E =-.491218E-01
       N       E                     dE             d eps       ncg     rms          rms(c)
DAV:   1    -0.191897469789E+03    0.26154E-01   -0.50820E-01  8160   0.156E+00    0.212E-01
DAV:   2    -0.191898514813E+03   -0.10450E-02   -0.18650E-02 11440   0.466E-01    0.289E-01
DAV:   3    -0.191898551419E+03   -0.36606E-04   -0.45609E-03 12480   0.485E-01    0.314E-01
DAV:   4    -0.191897682950E+03    0.86847E-03   -0.23998E-03  9960   0.322E-01    0.149E-01
DAV:   5    -0.191897640050E+03    0.42900E-04   -0.10513E-03 10040   0.249E-01    0.140E-01
DAV:   6    -0.191897450085E+03    0.18997E-03   -0.55840E-04  9200   0.162E-01    0.592E-02
DAV:   7    -0.191897457592E+03   -0.75064E-05   -0.19816E-04  6640   0.100E-01
  14 F= -.19189746E+03 E0= -.19180353E+03  d E =0.261689E-01
       N       E                     dE             d eps       ncg     rms          rms(c)
DAV:   1    -0.191899281672E+03   -0.18316E-02   -0.31251E-03 10200   0.143E-01    0.184E-02
DAV:   2    -0.191899340980E+03   -0.59308E-04   -0.14286E-04  6240   0.760E-02
  15 F= -.19189934E+03 E0= -.19180563E+03  d E =-.188339E-02
       N       E                     dE             d eps       ncg     rms          rms(c)
DAV:   1    -0.191872888699E+03    0.26393E-01   -0.64518E-01  8160   0.174E+00    0.202E-01
DAV:   2    -0.191875004173E+03   -0.21155E-02   -0.20128E-02 11360   0.535E-01    0.405E-01
DAV:   3    -0.191873821289E+03    0.11829E-02   -0.56015E-03 11800   0.517E-01    0.221E-01
DAV:   4    -0.191873309501E+03    0.51179E-03   -0.12231E-03 10040   0.212E-01    0.885E-02
DAV:   5    -0.191873515438E+03   -0.20594E-03   -0.88830E-04  9760   0.208E-01    0.176E-01
DAV:   6    -0.191873239741E+03    0.27570E-03   -0.80382E-04  8680   0.198E-01    0.742E-02
DAV:   7    -0.191873237868E+03    0.18732E-05   -0.25845E-04  7360   0.112E-01
  16 F= -.19187324E+03 E0= -.19177751E+03  d E =0.261031E-01
       N       E                     dE             d eps       ncg     rms          rms(c)
DAV:   1    -0.191864692059E+03    0.85477E-02   -0.13706E+00  8160   0.256E+00    0.371E-01
DAV:   2    -0.191871301072E+03   -0.66090E-02   -0.53569E-02 12320   0.962E-01    0.857E-01
DAV:   3    -0.191865860382E+03    0.54407E-02   -0.22708E-02 12240   0.983E-01    0.393E-01
DAV:   4    -0.191864653840E+03    0.12065E-02   -0.52095E-03 11480   0.408E-01    0.263E-01
DAV:   5    -0.191864734952E+03   -0.81113E-04   -0.44592E-03 11440   0.448E-01    0.315E-01
DAV:   6    -0.191863837277E+03    0.89768E-03   -0.24083E-03 11000   0.304E-01    0.866E-02
DAV:   7    -0.191863808435E+03    0.28841E-04   -0.47243E-04  9120   0.135E-01
  17 F= -.19186381E+03 E0= -.19176662E+03  d E =0.942943E-02
       N       E                     dE             d eps       ncg     rms          rms(c)
DAV:   1    -0.191931810609E+03   -0.67973E-01   -0.49560E+00  8160   0.478E+00    0.546E-01
DAV:   2    -0.191955332742E+03   -0.23522E-01   -0.16635E-01 11400   0.165E+00    0.138E+00
DAV:   3    -0.191940120877E+03    0.15212E-01   -0.52767E-02 12400   0.155E+00    0.550E-01
DAV:   4    -0.191938086820E+03    0.20341E-02   -0.83751E-03 11240   0.570E-01    0.397E-01
DAV:   5    -0.191937530403E+03    0.55642E-03   -0.67929E-03 12160   0.616E-01    0.367E-01
DAV:   6    -0.191936453629E+03    0.10768E-02   -0.35705E-03 11640   0.368E-01    0.131E-01
DAV:   7    -0.191936214831E+03    0.23880E-03   -0.10187E-03 10480   0.165E-01    0.903E-02
DAV:   8    -0.191936162786E+03    0.52045E-04   -0.31520E-04  9240   0.145E-01
  18 F= -.19193616E+03 E0= -.19184226E+03  d E =-.723544E-01
       N       E                     dE             d eps       ncg     rms          rms(c)
DAV:   1    -0.191955099732E+03   -0.18885E-01   -0.32065E-01  8160   0.123E+00    0.183E-01
DAV:   2    -0.191957058320E+03   -0.19586E-02   -0.14507E-02 11480   0.543E-01    0.447E-01
DAV:   3    -0.191955444151E+03    0.16142E-02   -0.48652E-03 11800   0.488E-01    0.171E-01
DAV:   4    -0.191955309973E+03    0.13418E-03   -0.11072E-03  9960   0.225E-01    0.147E-01
DAV:   5    -0.191955151537E+03    0.15844E-03   -0.72208E-04 10120   0.218E-01    0.996E-02
DAV:   6    -0.191955090835E+03    0.60702E-04   -0.37846E-04  7840   0.127E-01
  19 F= -.19195509E+03 E0= -.19186186E+03  d E =-.189280E-01
       N       E                     dE             d eps       ncg     rms          rms(c)
DAV:   1    -0.192040589125E+03   -0.85438E-01   -0.81867E+00  8160   0.618E+00    0.698E-01
DAV:   2    -0.192069037483E+03   -0.28448E-01   -0.26806E-01 12200   0.188E+00    0.138E+00
DAV:   3    -0.192057611164E+03    0.11426E-01   -0.62008E-02 12400   0.179E+00    0.782E-01
DAV:   4    -0.192050966593E+03    0.66446E-02   -0.10914E-02 12280   0.695E-01    0.340E-01
DAV:   5    -0.192052106220E+03   -0.11396E-02   -0.83550E-03 11920   0.716E-01    0.521E-01
DAV:   6    -0.192050171558E+03    0.19347E-02   -0.67166E-03 11600   0.600E-01    0.216E-01
DAV:   7    -0.192049277092E+03    0.89447E-03   -0.15913E-03 10600   0.186E-01    0.424E-02
DAV:   8    -0.192049293213E+03   -0.16121E-04   -0.19932E-04  8040   0.796E-02
  20 F= -.19204929E+03 E0= -.19195954E+03  d E =-.942024E-01
       N       E                     dE             d eps       ncg     rms          rms(c)
DAV:   1    -0.192122311532E+03   -0.73034E-01   -0.60648E+00  8160   0.532E+00    0.601E-01
DAV:   2    -0.192135424742E+03   -0.13113E-01   -0.18978E-01 12120   0.131E+00    0.712E-01
DAV:   3    -0.192138840504E+03   -0.34158E-02   -0.33833E-02 12360   0.144E+00    0.932E-01
DAV:   4    -0.192129259926E+03    0.95806E-02   -0.12069E-02 12320   0.871E-01    0.222E-01
DAV:   5    -0.192129805768E+03   -0.54584E-03   -0.46229E-03 11480   0.455E-01    0.333E-01
DAV:   6    -0.192129196356E+03    0.60941E-03   -0.39413E-03 12040   0.527E-01    0.243E-01
DAV:   7    -0.192128491297E+03    0.70506E-03   -0.13803E-03  9840   0.272E-01    0.963E-02
DAV:   8    -0.192128416922E+03    0.74375E-04   -0.29101E-04  8680   0.133E-01
  21 F= -.19212842E+03 E0= -.19204040E+03  d E =-.791237E-01
       N       E                     dE             d eps       ncg     rms          rms(c)
DAV:   1    -0.192168624448E+03   -0.40133E-01   -0.25668E+00  8160   0.345E+00    0.443E-01
DAV:   2    -0.192182554685E+03   -0.13930E-01   -0.90042E-02 11520   0.136E+00    0.995E-01
DAV:   3    -0.192172408041E+03    0.10147E-01   -0.20822E-02 11520   0.120E+00    0.369E-01
DAV:   4    -0.192171868542E+03    0.53950E-03   -0.45424E-03 11520   0.503E-01    0.317E-01
DAV:   5    -0.192171019483E+03    0.84906E-03   -0.29654E-03 11600   0.486E-01    0.197E-01
DAV:   6    -0.192170702423E+03    0.31706E-03   -0.13616E-03 11560   0.246E-01    0.905E-02
DAV:   7    -0.192170653145E+03    0.49277E-04   -0.51372E-04  9440   0.159E-01
  22 F= -.19217065E+03 E0= -.19208393E+03  d E =-.422362E-01
       N       E                     dE             d eps       ncg     rms          rms(c)
DAV:   1    -0.192150969570E+03    0.19733E-01   -0.33002E+00  8160   0.393E+00    0.555E-01
DAV:   2    -0.192191190161E+03   -0.40221E-01   -0.14680E-01 12000   0.211E+00    0.206E+00
DAV:   3    -0.192154969813E+03    0.36220E-01   -0.70548E-02 12320   0.197E+00    0.348E-01
DAV:   4    -0.192153260250E+03    0.17096E-02   -0.36017E-03 11480   0.271E-01    0.154E-01
DAV:   5    -0.192153299624E+03   -0.39373E-04   -0.20077E-03 11800   0.269E-01    0.207E-01
DAV:   6    -0.192153282230E+03    0.17394E-04   -0.20846E-03 11280   0.382E-01    0.208E-01
DAV:   7    -0.192152758674E+03    0.52356E-03   -0.73235E-04  9840   0.214E-01    0.505E-02
DAV:   8    -0.192152749667E+03    0.90069E-05   -0.11656E-04  6640   0.844E-02
  23 F= -.19215275E+03 E0= -.19206431E+03  d E =0.179035E-01
       N       E                     dE             d eps       ncg     rms          rms(c)
DAV:   1    -0.192149748825E+03    0.30098E-02   -0.86738E+00  8160   0.638E+00    0.886E-01
DAV:   2    -0.192243175581E+03   -0.93427E-01   -0.41167E-01 10960   0.320E+00    0.324E+00
DAV:   3    -0.192164576631E+03    0.78599E-01   -0.19115E-01 12360   0.301E+00    0.622E-01
DAV:   4    -0.192159734972E+03    0.48417E-02   -0.12793E-02 11720   0.584E-01    0.409E-01
DAV:   5    -0.192158930940E+03    0.80403E-03   -0.99279E-03 12920   0.769E-01    0.406E-01
DAV:   6    -0.192157530016E+03    0.14009E-02   -0.53915E-03 11840   0.579E-01    0.211E-01
DAV:   7    -0.192156807169E+03    0.72285E-03   -0.20948E-03 12080   0.249E-01    0.754E-02
DAV:   8    -0.192156749672E+03    0.57497E-04   -0.30319E-04  9200   0.113E-01
  24 F= -.19215675E+03 E0= -.19206533E+03  d E =-.400000E-02
       N       E                     dE             d eps       ncg     rms          rms(c)
DAV:   1    -0.192191618675E+03   -0.34812E-01   -0.57268E+00  8160   0.506E+00    0.549E-01
DAV:   2    -0.192211536429E+03   -0.19918E-01   -0.21150E-01 11840   0.155E+00    0.783E-01
DAV:   3    -0.192208060289E+03    0.34761E-02   -0.30957E-02 12320   0.139E+00    0.635E-01
DAV:   4    -0.192204506808E+03    0.35535E-02   -0.10020E-02 12280   0.771E-01    0.384E-01
DAV:   5    -0.192203666489E+03    0.84032E-03   -0.43332E-03 11200   0.547E-01    0.286E-01
DAV:   6    -0.192203095421E+03    0.57107E-03   -0.25182E-03 12680   0.330E-01    0.130E-01
DAV:   7    -0.192202923348E+03    0.17207E-03   -0.12072E-03 11520   0.193E-01    0.110E-01
DAV:   8    -0.192202802936E+03    0.12041E-03   -0.31722E-04  8840   0.145E-01    0.437E-02
DAV:   9    -0.192202785894E+03    0.17042E-04   -0.61907E-05  5920   0.524E-02
  25 F= -.19220279E+03 E0= -.19211145E+03  d E =-.460362E-01
       N       E                     dE             d eps       ncg     rms          rms(c)
DAV:   1    -0.192201905095E+03    0.89784E-03   -0.10079E+00  8160   0.213E+00    0.266E-01
DAV:   2    -0.192209280058E+03   -0.73750E-02   -0.44034E-02 11040   0.103E+00    0.717E-01
DAV:   3    -0.192204114411E+03    0.51656E-02   -0.11612E-02 12560   0.860E-01    0.220E-01
DAV:   4    -0.192203968329E+03    0.14608E-03   -0.16542E-03 10240   0.308E-01    0.198E-01
DAV:   5    -0.192203591872E+03    0.37646E-03   -0.96708E-04 10360   0.277E-01    0.112E-01
DAV:   6    -0.192203495673E+03    0.96199E-04   -0.54783E-04 10320   0.131E-01
  26 F= -.19220350E+03 E0= -.19211271E+03  d E =-.709779E-03
       N       E                     dE             d eps       ncg     rms          rms(c)
DAV:   1    -0.192242896252E+03   -0.39304E-01   -0.24532E+00  8160   0.339E+00    0.400E-01
DAV:   2    -0.192247206564E+03   -0.43103E-02   -0.72381E-02 11120   0.794E-01    0.422E-01
DAV:   3    -0.192249196188E+03   -0.19896E-02   -0.12813E-02 12080   0.911E-01    0.653E-01
DAV:   4    -0.192244877267E+03    0.43189E-02   -0.63905E-03 11960   0.635E-01    0.170E-01
DAV:   5    -0.192245216122E+03   -0.33885E-03   -0.24434E-03 10600   0.391E-01    0.251E-01
DAV:   6    -0.192244576875E+03    0.63925E-03   -0.15665E-03 10760   0.341E-01    0.970E-02
DAV:   7    -0.192244453512E+03    0.12336E-03   -0.33742E-04  8880   0.129E-01    0.610E-02
DAV:   8    -0.192244418162E+03    0.35350E-04   -0.92784E-05  6720   0.862E-02
  27 F= -.19224442E+03 E0= -.19215358E+03  d E =-.409225E-01
       N       E                     dE             d eps       ncg     rms          rms(c)
DAV:   1    -0.192273111429E+03   -0.28658E-01   -0.14554E+00  8160   0.259E+00    0.303E-01
DAV:   2    -0.192276568360E+03   -0.34569E-02   -0.46583E-02 11400   0.656E-01    0.357E-01
DAV:   3    -0.192276692917E+03   -0.12456E-03   -0.73299E-03 12080   0.701E-01    0.404E-01
DAV:   4    -0.192275128380E+03    0.15645E-02   -0.29512E-03 11400   0.438E-01    0.190E-01
DAV:   5    -0.192274995381E+03    0.13300E-03   -0.14441E-03 10320   0.330E-01    0.165E-01
DAV:   6    -0.192274749292E+03    0.24609E-03   -0.76428E-04 10200   0.193E-01    0.520E-02
DAV:   7    -0.192274687317E+03    0.61975E-04   -0.14889E-04  6640   0.587E-02
  28 F= -.19227469E+03 E0= -.19218366E+03  d E =-.302692E-01
       N       E                     dE             d eps       ncg     rms          rms(c)
DAV:   1    -0.192306601121E+03   -0.31852E-01   -0.13997E+00  8160   0.255E+00    0.335E-01
DAV:   2    -0.192313652452E+03   -0.70513E-02   -0.44059E-02 11240   0.102E+00    0.739E-01
DAV:   3    -0.192307906054E+03    0.57464E-02   -0.11368E-02 11440   0.908E-01    0.256E-01
DAV:   4    -0.192307660195E+03    0.24586E-03   -0.22602E-03 11360   0.368E-01    0.232E-01
DAV:   5    -0.192307247672E+03    0.41252E-03   -0.17482E-03 10480   0.375E-01    0.152E-01
DAV:   6    -0.192307030870E+03    0.21680E-03   -0.76641E-04 10560   0.185E-01    0.655E-02
DAV:   7    -0.192307023231E+03    0.76392E-05   -0.24318E-04  8320   0.130E-01
  29 F= -.19230702E+03 E0= -.19221617E+03  d E =-.323359E-01
       N       E                     dE             d eps       ncg     rms          rms(c)
DAV:   1    -0.192308412744E+03   -0.13819E-02   -0.25679E-02  8160   0.352E-01    0.486E-02
DAV:   2    -0.192308611853E+03   -0.19911E-03   -0.11696E-03 11800   0.167E-01    0.123E-01
DAV:   3    -0.192308451430E+03    0.16042E-03   -0.32986E-04  8720   0.153E-01    0.393E-02
DAV:   4    -0.192308441331E+03    0.10099E-04   -0.46956E-05  5880   0.481E-02
  30 F= -.19230844E+03 E0= -.19221770E+03  d E =-.141810E-02
       N       E                     dE             d eps       ncg     rms          rms(c)
DAV:   1    -0.192351310021E+03   -0.42859E-01   -0.26287E+00  8160   0.350E+00    0.445E-01
DAV:   2    -0.192361898048E+03   -0.10588E-01   -0.79676E-02 11040   0.126E+00    0.873E-01
DAV:   3    -0.192354218267E+03    0.76798E-02   -0.19090E-02 12000   0.116E+00    0.377E-01
DAV:   4    -0.192352947026E+03    0.12712E-02   -0.37702E-03 11480   0.444E-01    0.243E-01
DAV:   5    -0.192352739728E+03    0.20730E-03   -0.27036E-03 12320   0.457E-01    0.222E-01
DAV:   6    -0.192352212112E+03    0.52762E-03   -0.13238E-03 10680   0.274E-01    0.720E-02
DAV:   7    -0.192352145309E+03    0.66803E-04   -0.29897E-04  8640   0.120E-01
  31 F= -.19235215E+03 E0= -.19226117E+03  d E =-.437040E-01
       N       E                     dE             d eps       ncg     rms          rms(c)
DAV:   1    -0.192426748943E+03   -0.74537E-01   -0.40271E+01  8160   0.141E+01    0.156E+00
DAV:   2    -0.192517456091E+03   -0.90707E-01   -0.12307E+00 10960   0.352E+00    0.179E+00
DAV:   3    -0.192512669327E+03    0.47868E-02   -0.17660E-01 12240   0.352E+00    0.184E+00
DAV:   4    -0.192472101351E+03    0.40568E-01   -0.70954E-02 11960   0.223E+00    0.648E-01
DAV:   5    -0.192477638417E+03   -0.55371E-02   -0.32327E-02 11800   0.147E+00    0.961E-01
DAV:   6    -0.192467093843E+03    0.10545E-01   -0.22388E-02 12400   0.126E+00    0.310E-01
DAV:   7    -0.192465177597E+03    0.19162E-02   -0.42817E-03 11600   0.351E-01    0.824E-02
DAV:   8    -0.192465159014E+03    0.18583E-04   -0.84182E-04 11600   0.128E-01
  32 F= -.19246516E+03 E0= -.19237437E+03  d E =-.113014E+00
       N       E                     dE             d eps       ncg     rms          rms(c)
DAV:   1    -0.192471722861E+03   -0.65453E-02   -0.53529E-01  8160   0.153E+00    0.200E-01
DAV:   2    -0.192475870996E+03   -0.41481E-02   -0.33042E-02 11200   0.795E-01    0.431E-01
DAV:   3    -0.192473925640E+03    0.19454E-02   -0.53467E-03 12120   0.607E-01    0.161E-01
DAV:   4    -0.192473618900E+03    0.30674E-03   -0.73851E-04  9800   0.203E-01    0.896E-02
DAV:   5    -0.192473623918E+03   -0.50179E-05   -0.45894E-04  9800   0.170E-01
  33 F= -.19247362E+03 E0= -.19238286E+03  d E =-.846490E-02
       N       E                     dE             d eps       ncg     rms          rms(c)
DAV:   1    -0.192480653754E+03   -0.70349E-02   -0.13689E+00  8160   0.247E+00    0.344E-01
DAV:   2    -0.192484139622E+03   -0.34859E-02   -0.66856E-02 11320   0.738E-01    0.250E-01
DAV:   3    -0.192484114884E+03    0.24738E-04   -0.59327E-03 11440   0.501E-01    0.302E-01
DAV:   4    -0.192483296436E+03    0.81845E-03   -0.34441E-03 12000   0.502E-01    0.231E-01
DAV:   5    -0.192482745629E+03    0.55081E-03   -0.18271E-03 11480   0.294E-01    0.111E-01
DAV:   6    -0.192482741238E+03    0.43915E-05   -0.85531E-04 10280   0.218E-01
  34 F= -.19248274E+03 E0= -.19239274E+03  d E =-.911732E-02
       N       E                     dE             d eps       ncg     rms          rms(c)
DAV:   1    -0.192486277349E+03   -0.35317E-02   -0.53097E-01  8160   0.156E+00    0.230E-01
DAV:   2    -0.192489440931E+03   -0.31636E-02   -0.24145E-02 10480   0.771E-01    0.461E-01
DAV:   3    -0.192487000393E+03    0.24405E-02   -0.56390E-03 12040   0.643E-01    0.155E-01
DAV:   4    -0.192486706590E+03    0.29380E-03   -0.89968E-04 10200   0.208E-01    0.943E-02
DAV:   5    -0.192486802116E+03   -0.95526E-04   -0.60489E-04  9960   0.219E-01
  35 F= -.19248680E+03 E0= -.19239731E+03  d E =-.406088E-02
       N       E                     dE             d eps       ncg     rms          rms(c)
DAV:   1    -0.192488858265E+03   -0.21517E-02   -0.51657E-01  8160   0.151E+00    0.190E-01
DAV:   2    -0.192491114623E+03   -0.22564E-02   -0.22644E-02 12040   0.614E-01    0.311E-01
DAV:   3    -0.192490252685E+03    0.86194E-03   -0.33561E-03 12120   0.498E-01    0.169E-01
DAV:   4    -0.192489916759E+03    0.33593E-03   -0.74150E-04  9960   0.222E-01    0.876E-02
DAV:   5    -0.192489956237E+03   -0.39477E-04   -0.48489E-04  9320   0.176E-01
  36 F= -.19248996E+03 E0= -.19240147E+03  d E =-.315412E-02
       N       E                     dE             d eps       ncg     rms          rms(c)
DAV:   1    -0.192491423318E+03   -0.15066E-02   -0.11356E-01  8160   0.738E-01    0.101E-01
DAV:   2    -0.192492491206E+03   -0.10679E-02   -0.53343E-03 12960   0.413E-01    0.274E-01
DAV:   3    -0.192491601571E+03    0.88964E-03   -0.15418E-03 11560   0.346E-01    0.621E-02
DAV:   4    -0.192491572213E+03    0.29358E-04   -0.11205E-04  6080   0.690E-02
  37 F= -.19249157E+03 E0= -.19240346E+03  d E =-.161598E-02
       N       E                     dE             d eps       ncg     rms          rms(c)
DAV:   1    -0.192492356902E+03   -0.75533E-03   -0.23275E-02  8160   0.341E-01    0.566E-02
DAV:   2    -0.192492380937E+03   -0.24036E-04   -0.98290E-04 11400   0.916E-02
  38 F= -.19249238E+03 E0= -.19240449E+03  d E =-.808725E-03
       N       E                     dE             d eps       ncg     rms          rms(c)
DAV:   1    -0.192494046207E+03   -0.16893E-02   -0.18505E-01  8160   0.926E-01    0.127E-01
DAV:   2    -0.192494851147E+03   -0.80494E-03   -0.68905E-03 13440   0.353E-01    0.231E-01
DAV:   3    -0.192494302850E+03    0.54830E-03   -0.15443E-03 10720   0.338E-01    0.108E-01
DAV:   4    -0.192494173032E+03    0.12982E-03   -0.30667E-04  7920   0.125E-01    0.498E-02
DAV:   5    -0.192494197659E+03   -0.24627E-04   -0.22058E-04  7400   0.121E-01
  39 F= -.19249420E+03 E0= -.19240689E+03  d E =-.181672E-02
       N       E                     dE             d eps       ncg     rms          rms(c)
DAV:   1    -0.192495041682E+03   -0.86865E-03   -0.63457E-02  8160   0.541E-01    0.639E-02
DAV:   2    -0.192495349631E+03   -0.30795E-03   -0.27560E-03 13240   0.186E-01    0.111E-01
DAV:   3    -0.192495225444E+03    0.12419E-03   -0.43642E-04  8960   0.174E-01    0.600E-02
DAV:   4    -0.192495189821E+03    0.35623E-04   -0.78573E-05  6000   0.756E-02
  40 F= -.19249519E+03 E0= -.19240822E+03  d E =-.992162E-03
       N       E                     dE             d eps       ncg     rms          rms(c)
DAV:   1    -0.192496439146E+03   -0.12137E-02   -0.18713E-01  8160   0.910E-01    0.958E-02
DAV:   2    -0.192496876584E+03   -0.43744E-03   -0.59902E-03 12080   0.220E-01    0.882E-02
DAV:   3    -0.192496972018E+03   -0.95433E-04   -0.68385E-04 11200   0.217E-01
  41 F= -.19249697E+03 E0= -.19241087E+03  d E =-.178220E-02
       N       E                     dE             d eps       ncg     rms          rms(c)
DAV:   1    -0.192498085659E+03   -0.12091E-02   -0.29409E-01  8160   0.115E+00    0.136E-01
DAV:   2    -0.192498795754E+03   -0.71010E-03   -0.92825E-03 12760   0.345E-01    0.165E-01
DAV:   3    -0.192498692956E+03    0.10280E-03   -0.14830E-03 11520   0.313E-01    0.152E-01
DAV:   4    -0.192498462915E+03    0.23004E-03   -0.51763E-04  9320   0.198E-01    0.696E-02
DAV:   5    -0.192498415039E+03    0.47876E-04   -0.22352E-04  6760   0.849E-02
  42 F= -.19249842E+03 E0= -.19241322E+03  d E =-.144302E-02
       N       E                     dE             d eps       ncg     rms          rms(c)
DAV:   1    -0.192499102429E+03   -0.63951E-03   -0.66829E-01  8160   0.172E+00    0.184E-01
DAV:   2    -0.192501359589E+03   -0.22572E-02   -0.22936E-02 12240   0.572E-01    0.280E-01
DAV:   3    -0.192500669210E+03    0.69038E-03   -0.31035E-03 12400   0.468E-01    0.161E-01
DAV:   4    -0.192500318368E+03    0.35084E-03   -0.50318E-04  9640   0.173E-01    0.517E-02
DAV:   5    -0.192500477988E+03   -0.15962E-03   -0.39036E-04  9760   0.150E-01    0.117E-01
DAV:   6    -0.192500322061E+03    0.15593E-03   -0.27448E-04  8680   0.151E-01    0.295E-02
DAV:   7    -0.192500311890E+03    0.10171E-04   -0.41264E-05  6200   0.342E-02
  43 F= -.19250031E+03 E0= -.19241663E+03  d E =-.189685E-02
       N       E                     dE             d eps       ncg     rms          rms(c)
DAV:   1    -0.192500742797E+03   -0.42074E-03   -0.10487E-01  8160   0.683E-01    0.701E-02
DAV:   2    -0.192500976693E+03   -0.23390E-03   -0.34872E-03 11760   0.175E-01    0.507E-02
DAV:   3    -0.192501007128E+03   -0.30435E-04   -0.22442E-04  8160   0.117E-01
  44 F= -.19250101E+03 E0= -.19241795E+03  d E =-.695238E-03
