<?xml version="1.0" encoding="ISO-8859-1"?>
<modeling>
 <generator>
  <i name="program" type="string">vasp </i>
  <i name="version" type="string">5.4.1  </i>
  <i name="subversion" type="string">05Feb16 (build Jul 05 2020 17:13:04) complex                          parallel </i>
  <i name="platform" type="string">IFC91_ompi </i>
  <i name="date" type="string">2024 08 09 </i>
  <i name="time" type="string">10:17:52 </i>
 </generator>
 <incar>
  <i type="int" name="ISTART">     0</i>
  <i type="string" name="PREC">normal</i>
  <i type="string" name="ALGO"> Normal</i>
  <i type="int" name="ISPIN">     1</i>
  <i type="int" name="ICHARG">     2</i>
  <i type="int" name="IBRION">     1</i>
  <i type="int" name="NSW">   100</i>
  <i type="int" name="ISIF">     3</i>
  <i type="int" name="ISYM">     0</i>
  <i name="SYMPREC">      0.00000001</i>
  <i name="POTIM">      0.50000000</i>
  <i type="logical" name="LREAL"> F  </i>
  <i type="logical" name="LPLANE"> F  </i>
  <i type="int" name="ISMEAR">     0</i>
  <i type="logical" name="LWAVE"> F  </i>
  <i type="logical" name="LCHARG"> F  </i>
  <v type="int" name="KPOINT_BSE">    -1     0     0     0</v>
 </incar>
 <kpoints>
  <generation param="Gamma">
   <v type="int" name="divisions">       8        8        1 </v>
   <v name="usershift">      0.00000000       0.00000000       0.00000000 </v>
   <v name="genvec1">      0.12500000       0.00000000       0.00000000 </v>
   <v name="genvec2">     -0.00000000       0.12500000       0.00000000 </v>
   <v name="genvec3">      0.00000000       0.00000000       1.00000000 </v>
   <v name="shift">      0.00000000       0.00000000       0.00000000 </v>
  </generation>
  <varray name="kpointlist" >
   <v>       0.00000000       0.00000000       0.00000000 </v>
   <v>       0.12500000       0.00000000       0.00000000 </v>
   <v>       0.25000000       0.00000000       0.00000000 </v>
   <v>       0.37500000       0.00000000       0.00000000 </v>
   <v>       0.50000000       0.00000000       0.00000000 </v>
   <v>       0.00000000       0.12500000       0.00000000 </v>
   <v>       0.12500000       0.12500000       0.00000000 </v>
   <v>       0.25000000       0.12500000       0.00000000 </v>
   <v>       0.37500000       0.12500000       0.00000000 </v>
   <v>       0.50000000       0.12500000       0.00000000 </v>
   <v>      -0.37500000       0.12500000       0.00000000 </v>
   <v>      -0.25000000       0.12500000       0.00000000 </v>
   <v>      -0.12500000       0.12500000       0.00000000 </v>
   <v>       0.00000000       0.25000000       0.00000000 </v>
   <v>       0.12500000       0.25000000       0.00000000 </v>
   <v>       0.25000000       0.25000000       0.00000000 </v>
   <v>       0.37500000       0.25000000       0.00000000 </v>
   <v>       0.50000000       0.25000000       0.00000000 </v>
   <v>      -0.37500000       0.25000000       0.00000000 </v>
   <v>      -0.25000000       0.25000000       0.00000000 </v>
   <v>      -0.12500000       0.25000000       0.00000000 </v>
   <v>      -0.00000000       0.37500000       0.00000000 </v>
   <v>       0.12500000       0.37500000       0.00000000 </v>
   <v>       0.25000000       0.37500000       0.00000000 </v>
   <v>       0.37500000       0.37500000       0.00000000 </v>
   <v>       0.50000000       0.37500000       0.00000000 </v>
   <v>      -0.37500000       0.37500000       0.00000000 </v>
   <v>      -0.25000000       0.37500000       0.00000000 </v>
   <v>      -0.12500000       0.37500000       0.00000000 </v>
   <v>       0.00000000       0.50000000       0.00000000 </v>
   <v>       0.12500000       0.50000000       0.00000000 </v>
   <v>       0.25000000       0.50000000       0.00000000 </v>
   <v>       0.37500000       0.50000000       0.00000000 </v>
   <v>       0.50000000       0.50000000       0.00000000 </v>
  </varray>
  <varray name="weights" >
   <v>       0.01562500 </v>
   <v>       0.03125000 </v>
   <v>       0.03125000 </v>
   <v>       0.03125000 </v>
   <v>       0.01562500 </v>
   <v>       0.03125000 </v>
   <v>       0.03125000 </v>
   <v>       0.03125000 </v>
   <v>       0.03125000 </v>
   <v>       0.03125000 </v>
   <v>       0.03125000 </v>
   <v>       0.03125000 </v>
   <v>       0.03125000 </v>
   <v>       0.03125000 </v>
   <v>       0.03125000 </v>
   <v>       0.03125000 </v>
   <v>       0.03125000 </v>
   <v>       0.03125000 </v>
   <v>       0.03125000 </v>
   <v>       0.03125000 </v>
   <v>       0.03125000 </v>
   <v>       0.03125000 </v>
   <v>       0.03125000 </v>
   <v>       0.03125000 </v>
   <v>       0.03125000 </v>
   <v>       0.03125000 </v>
   <v>       0.03125000 </v>
   <v>       0.03125000 </v>
   <v>       0.03125000 </v>
   <v>       0.01562500 </v>
   <v>       0.03125000 </v>
   <v>       0.03125000 </v>
   <v>       0.03125000 </v>
   <v>       0.01562500 </v>
  </varray>
 </kpoints>
 <parameters>
  <separator name="general" >
   <i type="string" name="SYSTEM">unknown system</i>
   <i type="logical" name="LCOMPAT"> F  </i>
  </separator>
  <separator name="electronic" >
   <i type="string" name="PREC">normal</i>
   <i name="ENMAX">    280.00000000</i>
   <i name="ENAUG">    373.43800000</i>
   <i name="EDIFF">      0.00010000</i>
   <i type="int" name="IALGO">    38</i>
   <i type="int" name="IWAVPR">    11</i>
   <i type="int" name="NBANDS">   120</i>
   <i name="NELECT">    159.00000000</i>
   <i type="int" name="TURBO">     0</i>
   <i type="int" name="IRESTART">     0</i>
   <i type="int" name="NREBOOT">     0</i>
   <i type="int" name="NMIN">     0</i>
   <i name="EREF">      0.00000000</i>
   <separator name="electronic smearing" >
    <i type="int" name="ISMEAR">     0</i>
    <i name="SIGMA">      0.20000000</i>
    <i name="KSPACING">      0.50000000</i>
    <i type="logical" name="KGAMMA"> T  </i>
   </separator>
   <separator name="electronic projectors" >
    <i type="logical" name="LREAL"> F  </i>
    <v name="ROPT">      0.00000000      0.00000000      0.00000000      0.00000000</v>
    <i type="int" name="LMAXPAW">  -100</i>
    <i type="int" name="LMAXMIX">     2</i>
    <i type="logical" name="NLSPLINE"> F  </i>
   </separator>
   <separator name="electronic startup" >
    <i type="int" name="ISTART">     0</i>
    <i type="int" name="ICHARG">     2</i>
    <i type="int" name="INIWAV">     1</i>
   </separator>
   <separator name="electronic spin" >
    <i type="int" name="ISPIN">     1</i>
    <i type="logical" name="LNONCOLLINEAR"> F  </i>
    <v name="MAGMOM">      1.00000000      1.00000000      1.00000000      1.00000000      1.00000000      1.00000000      1.00000000      1.00000000      1.00000000      1.00000000      1.00000000      1.00000000      1.00000000      1.00000000      1.00000000      1.00000000      1.00000000      1.00000000      1.00000000      1.00000000
      1.00000000      1.00000000      1.00000000      1.00000000      1.00000000      1.00000000      1.00000000</v>
    <i name="NUPDOWN">     -1.00000000</i>
    <i type="logical" name="LSORBIT"> F  </i>
    <v name="SAXIS">      0.00000000      0.00000000      1.00000000</v>
    <i type="logical" name="LSPIRAL"> F  </i>
    <v name="QSPIRAL">      0.00000000      0.00000000      0.00000000</v>
    <i type="logical" name="LZEROZ"> F  </i>
   </separator>
   <separator name="electronic exchange-correlation" >
    <i type="logical" name="LASPH"> F  </i>
    <i type="logical" name="LMETAGGA"> F  </i>
   </separator>
   <separator name="electronic convergence" >
    <i type="int" name="NELM">    60</i>
    <i type="int" name="NELMDL">    -5</i>
    <i type="int" name="NELMIN">     2</i>
    <i name="ENINI">    280.00000000</i>
    <separator name="electronic convergence detail" >
     <i type="logical" name="LDIAG"> T  </i>
     <i type="logical" name="LSUBROT"> F  </i>
     <i name="WEIMIN">      0.00100000</i>
     <i name="EBREAK">      0.00000021</i>
     <i name="DEPER">      0.30000000</i>
     <i type="int" name="NRMM">     4</i>
     <i name="TIME">      0.40000000</i>
    </separator>
   </separator>
   <separator name="electronic mixer" >
    <i name="AMIX">      0.40000000</i>
    <i name="BMIX">      1.00000000</i>
    <i name="AMIN">      0.10000000</i>
    <i name="AMIX_MAG">      1.60000000</i>
    <i name="BMIX_MAG">      1.00000000</i>
    <separator name="electronic mixer details" >
     <i type="int" name="IMIX">     4</i>
     <i type="logical" name="MIXFIRST"> F  </i>
     <i type="int" name="MAXMIX">   -45</i>
     <i name="WC">    100.00000000</i>
     <i type="int" name="INIMIX">     1</i>
     <i type="int" name="MIXPRE">     1</i>
     <i type="int" name="MREMOVE">     5</i>
    </separator>
   </separator>
   <separator name="electronic dipolcorrection" >
    <i type="logical" name="LDIPOL"> F  </i>
    <i type="logical" name="LMONO"> F  </i>
    <i type="int" name="IDIPOL">     0</i>
    <i name="EPSILON">      1.00000000</i>
    <v name="DIPOL">   -100.00000000   -100.00000000   -100.00000000</v>
    <i name="EFIELD">      0.00000000</i>
   </separator>
  </separator>
  <separator name="grids" >
   <i type="int" name="NGX">    42</i>
   <i type="int" name="NGY">    42</i>
   <i type="int" name="NGZ">   126</i>
   <i type="int" name="NGXF">    84</i>
   <i type="int" name="NGYF">    84</i>
   <i type="int" name="NGZF">   252</i>
   <i type="logical" name="ADDGRID"> F  </i>
  </separator>
  <separator name="ionic" >
   <i type="int" name="NSW">   100</i>
   <i type="int" name="IBRION">     1</i>
   <i type="int" name="ISIF">     3</i>
   <i name="PSTRESS">      0.00000000</i>
   <i name="EDIFFG">      0.00100000</i>
   <i type="int" name="NFREE">     0</i>
   <i name="POTIM">      0.50000000</i>
   <i name="SMASS">     -3.00000000</i>
   <i name="SCALEE">      1.00000000</i>
  </separator>
  <separator name="ionic md" >
   <i name="TEBEG">      0.00010000</i>
   <i name="TEEND">      0.00010000</i>
   <i type="int" name="NBLOCK">     1</i>
   <i type="int" name="KBLOCK">   100</i>
   <i type="int" name="NPACO">   256</i>
   <i name="APACO">     16.00000000</i>
  </separator>
  <separator name="symmetry" >
   <i type="int" name="ISYM">     0</i>
   <i name="SYMPREC">      0.00000001</i>
  </separator>
  <separator name="dos" >
   <i type="logical" name="LORBIT"> F  </i>
   <v name="RWIGS">     -1.00000000     -1.00000000     -1.00000000     -1.00000000</v>
   <i type="int" name="NEDOS">   301</i>
   <i name="EMIN">     10.00000000</i>
   <i name="EMAX">    -10.00000000</i>
   <i name="EFERMI">      0.00000000</i>
  </separator>
  <separator name="writing" >
   <i type="int" name="NWRITE">     2</i>
   <i type="logical" name="LWAVE"> F  </i>
   <i type="logical" name="LCHARG"> F  </i>
   <i type="logical" name="LPARD"> F  </i>
   <i type="logical" name="LVTOT"> F  </i>
   <i type="logical" name="LVHAR"> F  </i>
   <i type="logical" name="LELF"> F  </i>
   <i type="logical" name="LOPTICS"> F  </i>
   <v name="STM">      0.00000000      0.00000000      0.00000000      0.00000000      0.00000000      0.00000000      0.00000000</v>
  </separator>
  <separator name="performance" >
   <i type="int" name="NPAR">    40</i>
   <i type="int" name="NSIM">     4</i>
   <i type="int" name="NBLK">    -1</i>
   <i type="logical" name="LPLANE"> F  </i>
   <i type="logical" name="LSCALAPACK"> T  </i>
   <i type="logical" name="LSCAAWARE"> F  </i>
   <i type="logical" name="LSCALU"> F  </i>
   <i type="logical" name="LASYNC"> F  </i>
   <i type="logical" name="LORBITALREAL"> F  </i>
  </separator>
  <separator name="miscellaneous" >
   <i type="int" name="IDIOT">     3</i>
   <i type="logical" name="LMUSIC"> F  </i>
   <v name="POMASS">     50.94100000     95.94000000    183.85000000     32.06600000</v>
   <v name="DARWINR">      0.00000000      0.00000000      0.00000000      0.00000000</v>
   <v name="DARWINV">      1.00000000      1.00000000      1.00000000      1.00000000</v>
   <i type="logical" name="LCORR"> T  </i>
  </separator>
  <i type="logical" name="GGA_COMPAT"> T  </i>
  <i type="logical" name="LBERRY"> F  </i>
  <i type="int" name="ICORELEVEL">     0</i>
  <i type="logical" name="LDAU"> F  </i>
  <i type="int" name="I_CONSTRAINED_M">     0</i>
  <separator name="electronic exchange-correlation" >
   <i type="string" name="GGA">--</i>
   <i type="int" name="VOSKOWN">     0</i>
   <i type="logical" name="LHFCALC"> F  </i>
   <i type="string" name="PRECFOCK"></i>
   <i type="logical" name="LSYMGRAD"> F  </i>
   <i type="logical" name="LHFONE"> F  </i>
   <i type="logical" name="LRHFCALC"> F  </i>
   <i type="logical" name="LTHOMAS"> F  </i>
   <i type="logical" name="LMODELHF"> F  </i>
   <i name="ENCUT4O">     -1.00000000</i>
   <i type="int" name="EXXOEP">     0</i>
   <i type="int" name="FOURORBIT">     0</i>
   <i name="AEXX">      0.00000000</i>
   <i name="HFALPHA">      0.00000000</i>
   <i name="MCALPHA">      0.00000000</i>
   <i name="ALDAX">      1.00000000</i>
   <i name="AGGAX">      1.00000000</i>
   <i name="ALDAC">      1.00000000</i>
   <i name="AGGAC">      1.00000000</i>
   <i type="int" name="NKREDX">     1</i>
   <i type="int" name="NKREDY">     1</i>
   <i type="int" name="NKREDZ">     1</i>
   <i type="logical" name="SHIFTRED"> F  </i>
   <i type="logical" name="ODDONLY"> F  </i>
   <i type="logical" name="EVENONLY"> F  </i>
   <i type="int" name="LMAXFOCK">     0</i>
   <i type="int" name="NMAXFOCKAE">     0</i>
   <i type="logical" name="LFOCKAEDFT"> F  </i>
   <i name="HFSCREEN">      0.00000000</i>
   <i name="HFSCREENC">      0.00000000</i>
   <i type="int" name="NBANDSGWLOW">     0</i>
  </separator>
  <separator name="vdW DFT" >
   <i type="logical" name="LUSE_VDW"> F  </i>
   <i name="Zab_VDW">     -0.84910000</i>
   <i name="PARAM1">      0.12340000</i>
   <i name="PARAM2">      1.00000000</i>
   <i name="PARAM3">      0.00000000</i>
  </separator>
  <separator name="model GW" >
   <i type="int" name="MODEL_GW">     0</i>
   <i name="MODEL_EPS0">     58.26239943</i>
   <i name="MODEL_ALPHA">      1.00000000</i>
  </separator>
  <separator name="linear response parameters" >
   <i type="logical" name="LEPSILON"> F  </i>
   <i type="logical" name="LRPA"> F  </i>
   <i type="logical" name="LNABLA"> F  </i>
   <i type="logical" name="LVEL"> F  </i>
   <i type="int" name="KINTER">     0</i>
   <i name="CSHIFT">      0.10000000</i>
   <i name="OMEGAMAX">     -1.00000000</i>
   <i name="DEG_THRESHOLD">      0.00200000</i>
  </separator>
  <separator name="orbital magnetization" >
   <i type="logical" name="NUCIND"> F  </i>
   <v name="MAGPOS">      0.00000000      0.00000000      0.00000000</v>
   <i type="logical" name="LNICSALL"> T  </i>
   <i type="logical" name="ORBITALMAG"> F  </i>
   <i type="logical" name="LMAGBLOCH"> F  </i>
   <i type="logical" name="LCHIMAG"> F  </i>
   <i type="logical" name="LGAUGE"> T  </i>
   <i type="int" name="MAGATOM">     0</i>
   <v name="MAGDIPOL">      0.00000000      0.00000000      0.00000000</v>
   <v name="AVECCONST">      0.00000000      0.00000000      0.00000000</v>
  </separator>
  <separator name="response functions" >
   <i type="logical" name="LADDER"> F  </i>
   <i type="logical" name="LFXC"> F  </i>
   <i type="logical" name="LHARTREE"> T  </i>
   <i type="int" name="IBSE">     0</i>
   <v type="int" name="KPOINT">    -1     0     0     0</v>
   <i type="logical" name="LTCTE"> F  </i>
   <i type="logical" name="LTETE"> F  </i>
   <i type="logical" name="LTRIPLET"> F  </i>
   <i type="logical" name="LFXCEPS"> F  </i>
   <i type="logical" name="LFXHEG"> F  </i>
   <i type="int" name="NATURALO">     0</i>
   <i type="logical" name="L2ORDER"> F  </i>
   <i type="logical" name="LUSEW"> F  </i>
   <i name="ENCUTGW">     -2.00000000</i>
   <i name="ENCUTGWSOFT">     -2.00000000</i>
   <i name="ENCUTLF">     -1.00000000</i>
   <i type="int" name="LMAXMP2">    -1</i>
   <i name="SCISSOR">      0.00000000</i>
   <i type="int" name="NOMEGA">     0</i>
   <i type="int" name="NOMEGAR">     0</i>
   <i type="int" name="NBANDSGW">    -1</i>
   <i type="int" name="NBANDSO">    -1</i>
   <i type="int" name="NBANDSV">    -1</i>
   <i type="int" name="NELM">     1</i>
   <i type="int" name="NELMHF">     1</i>
   <i type="int" name="DIM">     3</i>
   <i type="int" name="ANTIRES">     0</i>
   <i name="OMEGAMAX">    -30.00000000</i>
   <i name="OMEGAMIN">    -30.00000000</i>
   <i name="OMEGATL">   -200.00000000</i>
   <i type="int" name="OMEGAGRID">     0</i>
   <i name="CSHIFT">     -0.10000000</i>
   <i type="logical" name="SELFENERGY"> F  </i>
   <i type="logical" name="LSPECTRAL"> F  </i>
   <i type="logical" name="LSPECTRALGW"> F  </i>
   <i type="logical" name="LSINGLES"> F  </i>
   <i type="logical" name="LFERMIGW"> F  </i>
   <i type="logical" name="ODDONLYGW"> F  </i>
   <i type="logical" name="EVENONLYGW"> F  </i>
   <i type="int" name="NKREDLFX">     1</i>
   <i type="int" name="NKREDLFY">     1</i>
   <i type="int" name="NKREDLFZ">     1</i>
   <i type="int" name="MAXMEM">  1800</i>
   <i type="int" name="TELESCOPE">     0</i>
   <i type="int" name="TAUPAR">     1</i>
   <i type="int" name="OMEGAPAR">    -1</i>
   <i name="LAMBDA">      1.00000000</i>
  </separator>
  <separator name="External order field" >
   <i name="OFIELD_KAPPA">      0.00000000</i>
   <v name="OFIELD_K">      0.00000000      0.00000000      0.00000000</v>
   <i name="OFIELD_Q6_NEAR">      0.00000000</i>
   <i name="OFIELD_Q6_FAR">      0.00000000</i>
   <i name="OFIELD_A">      0.00000000</i>
  </separator>
 </parameters>
 <atominfo>
  <atoms>      27 </atoms>
  <types>       4 </types>
  <array name="atoms" >
   <dimension dim="1">ion</dimension>
   <field type="string">element</field>
   <field type="int">atomtype</field>
   <set>
    <rc><c>V </c><c>   1</c></rc>
    <rc><c>V </c><c>   1</c></rc>
    <rc><c>V </c><c>   1</c></rc>
    <rc><c>Mo</c><c>   2</c></rc>
    <rc><c>Mo</c><c>   2</c></rc>
    <rc><c>Mo</c><c>   2</c></rc>
    <rc><c>W </c><c>   3</c></rc>
    <rc><c>W </c><c>   3</c></rc>
    <rc><c>W </c><c>   3</c></rc>
    <rc><c>S </c><c>   4</c></rc>
    <rc><c>S </c><c>   4</c></rc>
    <rc><c>S </c><c>   4</c></rc>
    <rc><c>S </c><c>   4</c></rc>
    <rc><c>S </c><c>   4</c></rc>
    <rc><c>S </c><c>   4</c></rc>
    <rc><c>S </c><c>   4</c></rc>
    <rc><c>S </c><c>   4</c></rc>
    <rc><c>S </c><c>   4</c></rc>
    <rc><c>S </c><c>   4</c></rc>
    <rc><c>S </c><c>   4</c></rc>
    <rc><c>S </c><c>   4</c></rc>
    <rc><c>S </c><c>   4</c></rc>
    <rc><c>S </c><c>   4</c></rc>
    <rc><c>S </c><c>   4</c></rc>
    <rc><c>S </c><c>   4</c></rc>
    <rc><c>S </c><c>   4</c></rc>
    <rc><c>S </c><c>   4</c></rc>
   </set>
  </array>
  <array name="atomtypes" >
   <dimension dim="1">type</dimension>
   <field type="int">atomspertype</field>
   <field type="string">element</field>
   <field>mass</field>
   <field>valence</field>
   <field type="string">pseudopotential</field>
   <set>
    <rc><c>   3</c><c>V </c><c>     50.94100000</c><c>      5.00000000</c><c> PAW_PBE V 08Apr2002                    </c></rc>
    <rc><c>   3</c><c>Mo</c><c>     95.94000000</c><c>      6.00000000</c><c> PAW_PBE Mo 08Apr2002                   </c></rc>
    <rc><c>   3</c><c>W </c><c>    183.85000000</c><c>      6.00000000</c><c> PAW_PBE W 08Apr2002                    </c></rc>
    <rc><c>  18</c><c>S </c><c>     32.06600000</c><c>      6.00000000</c><c>  PAW_PBE S 17Jan2003                   </c></rc>
   </set>
  </array>
 </atominfo>
 <structure name="initialpos" >
  <crystal>
   <varray name="basis" >
    <v>       8.66999996       5.03999989       0.00000000 </v>
    <v>      -8.66999982       5.04000013       0.00000000 </v>
    <v>       0.00000000       0.00000000      30.00000000 </v>
   </varray>
   <i name="volume">   2621.80797419 </i>
   <varray name="rec_basis" >
    <v>       0.05767013       0.09920635       0.00000000 </v>
    <v>      -0.05767013       0.09920635       0.00000000 </v>
    <v>       0.00000000       0.00000000       0.03333333 </v>
   </varray>
  </crystal>
  <varray name="positions" >
   <v>       0.66666669       0.33333334       0.00000000 </v>
   <v>       0.00000000       0.66666669       0.00000000 </v>
   <v>       0.33333334       0.00000000       0.00000000 </v>
   <v>       0.00000000       0.00000000       0.00000000 </v>
   <v>       0.66666669       0.66666669       0.00000000 </v>
   <v>       0.33333334       0.66666669       0.00000000 </v>
   <v>       1.00000000       0.33333334       0.00000000 </v>
   <v>       0.33333334       0.33333334       0.00000000 </v>
   <v>       0.66666669       0.00000000       0.00000000 </v>
   <v>       0.11068511       0.22244981       0.95539999 </v>
   <v>       0.22244981       0.11068511       0.04460000 </v>
   <v>       0.11068511       0.55578315       0.95539999 </v>
   <v>       0.22244981       0.44401845       0.04460000 </v>
   <v>       0.11068511       0.88911647       0.95539999 </v>
   <v>       0.22244981       0.77735180       0.04460000 </v>
   <v>       0.44401845       0.22244981       0.95539999 </v>
   <v>       0.55578315       0.11068511       0.04460000 </v>
   <v>       0.44401845       0.55578315       0.95539999 </v>
   <v>       0.55578315       0.44401845       0.04460000 </v>
   <v>       0.44401845       0.88911647       0.95539999 </v>
   <v>       0.55578315       0.77735180       0.04460000 </v>
   <v>       0.77735180       0.22244981       0.95539999 </v>
   <v>       0.88911647       0.11068511       0.04460000 </v>
   <v>       0.77735180       0.55578315       0.95539999 </v>
   <v>       0.88911647       0.44401845       0.04460000 </v>
   <v>       0.77735180       0.88911647       0.95539999 </v>
   <v>       0.88911647       0.77735180       0.04460000 </v>
  </varray>
 </structure>
 <calculation>
  <scstep>
   <time name="dav">   21.83   21.89</time>
   <time name="total">   21.88   21.94</time>
   <energy>
    <i name="alphaZ">     81.65567618 </i>
    <i name="ewald">  41891.12778376 </i>
    <i name="hartreedc"> -47723.77362689 </i>
    <i name="XCdc">   -242.92539889 </i>
    <i name="pawpsdc">   3467.42045192 </i>
    <i name="pawaedc">  -2871.19716117 </i>
    <i name="eentropy">     -0.54643438 </i>
    <i name="bandstr">   -239.12425593 </i>
    <i name="atom">   6761.44252427 </i>
    <i name="e_fr_energy">   1124.07955887 </i>
    <i name="e_wo_entrp">   1124.62599325 </i>
    <i name="e_0_energy">   1124.35277606 </i>
   </energy>
  </scstep>
  <scstep>
   <time name="dav">   28.04   28.11</time>
   <time name="total">   28.04   28.12</time>
   <energy>
    <i name="e_fr_energy">      1.11297997 </i>
    <i name="e_wo_entrp">      1.33343070 </i>
    <i name="e_0_energy">      1.22320534 </i>
   </energy>
  </scstep>
  <scstep>
   <time name="dav">   27.72   27.79</time>
   <time name="total">   27.73   27.80</time>
   <energy>
    <i name="e_fr_energy">   -199.79155151 </i>
    <i name="e_wo_entrp">   -199.54054563 </i>
    <i name="e_0_energy">   -199.66604857 </i>
   </energy>
  </scstep>
  <scstep>
   <time name="dav">   29.69   29.76</time>
   <time name="total">   29.69   29.77</time>
   <energy>
    <i name="e_fr_energy">   -209.04672347 </i>
    <i name="e_wo_entrp">   -208.78886811 </i>
    <i name="e_0_energy">   -208.91779579 </i>
   </energy>
  </scstep>
  <scstep>
   <time name="dav">   28.86   28.92</time>
   <time name="total">   29.33   29.40</time>
   <energy>
    <i name="e_fr_energy">   -209.40472300 </i>
    <i name="e_wo_entrp">   -209.14984435 </i>
    <i name="e_0_energy">   -209.27728368 </i>
   </energy>
  </scstep>
  <scstep>
   <time name="dav">   30.92   30.99</time>
   <time name="total">   31.42   31.50</time>
   <energy>
    <i name="e_fr_energy">   -241.34262649 </i>
    <i name="e_wo_entrp">   -241.05720286 </i>
    <i name="e_0_energy">   -241.19991467 </i>
   </energy>
  </scstep>
  <scstep>
   <time name="dav">   32.34   32.41</time>
   <time name="total">   32.85   33.15</time>
   <energy>
    <i name="e_fr_energy">   -196.12111162 </i>
    <i name="e_wo_entrp">   -195.79426675 </i>
    <i name="e_0_energy">   -195.95768919 </i>
   </energy>
  </scstep>
  <scstep>
   <time name="dav">   30.26   30.33</time>
   <time name="total">   30.78   30.86</time>
   <energy>
    <i name="e_fr_energy">   -189.35786130 </i>
    <i name="e_wo_entrp">   -189.03073859 </i>
    <i name="e_0_energy">   -189.19429995 </i>
   </energy>
  </scstep>
  <scstep>
   <time name="dav">   32.04   32.12</time>
   <time name="total">   32.57   32.65</time>
   <energy>
    <i name="e_fr_energy">   -188.08205858 </i>
    <i name="e_wo_entrp">   -187.75147216 </i>
    <i name="e_0_energy">   -187.91676537 </i>
   </energy>
  </scstep>
  <scstep>
   <time name="dav">   32.39   32.47</time>
   <time name="total">   32.93   33.01</time>
   <energy>
    <i name="e_fr_energy">   -186.94991387 </i>
    <i name="e_wo_entrp">   -186.59439026 </i>
    <i name="e_0_energy">   -186.77215206 </i>
   </energy>
  </scstep>
  <scstep>
   <time name="dav">   32.76   32.84</time>
   <time name="total">   33.29   33.38</time>
   <energy>
    <i name="e_fr_energy">   -187.05725376 </i>
    <i name="e_wo_entrp">   -186.71883719 </i>
    <i name="e_0_energy">   -186.88804548 </i>
   </energy>
  </scstep>
  <scstep>
   <time name="dav">   31.94   32.02</time>
   <time name="total">   32.48   32.56</time>
   <energy>
    <i name="e_fr_energy">   -186.94906271 </i>
    <i name="e_wo_entrp">   -186.60588393 </i>
    <i name="e_0_energy">   -186.77747332 </i>
   </energy>
  </scstep>
  <scstep>
   <time name="dav">   30.96   31.04</time>
   <time name="total">   31.50   31.58</time>
   <energy>
    <i name="e_fr_energy">   -186.87407577 </i>
    <i name="e_wo_entrp">   -186.52997683 </i>
    <i name="e_0_energy">   -186.70202630 </i>
   </energy>
  </scstep>
  <scstep>
   <time name="dav">   31.35   31.43</time>
   <time name="total">   31.89   31.98</time>
   <energy>
    <i name="e_fr_energy">   -186.85347202 </i>
    <i name="e_wo_entrp">   -186.50483438 </i>
    <i name="e_0_energy">   -186.67915320 </i>
   </energy>
  </scstep>
  <scstep>
   <time name="dav">   32.02   32.10</time>
   <time name="total">   32.56   32.65</time>
   <energy>
    <i name="e_fr_energy">   -186.85063205 </i>
    <i name="e_wo_entrp">   -186.50248876 </i>
    <i name="e_0_energy">   -186.67656041 </i>
   </energy>
  </scstep>
  <scstep>
   <time name="dav">   31.87   31.94</time>
   <time name="total">   32.40   32.49</time>
   <energy>
    <i name="e_fr_energy">   -186.84661952 </i>
    <i name="e_wo_entrp">   -186.49879977 </i>
    <i name="e_0_energy">   -186.67270964 </i>
   </energy>
  </scstep>
  <scstep>
   <time name="dav">   31.21   31.28</time>
   <time name="total">   31.75   31.83</time>
   <energy>
    <i name="e_fr_energy">   -186.84542019 </i>
    <i name="e_wo_entrp">   -186.49887094 </i>
    <i name="e_0_energy">   -186.67214556 </i>
   </energy>
  </scstep>
  <scstep>
   <time name="dav">   31.10   31.17</time>
   <time name="total">   31.64   31.72</time>
   <energy>
    <i name="e_fr_energy">   -186.84481639 </i>
    <i name="e_wo_entrp">   -186.49765122 </i>
    <i name="e_0_energy">   -186.67123380 </i>
   </energy>
  </scstep>
  <scstep>
   <time name="dav">   26.94   27.00</time>
   <time name="total">   27.48   27.55</time>
   <energy>
    <i name="e_fr_energy">   -186.84520420 </i>
    <i name="e_wo_entrp">   -186.49826912 </i>
    <i name="e_0_energy">   -186.67173666 </i>
   </energy>
  </scstep>
  <scstep>
   <time name="dav">   24.56   24.62</time>
   <time name="total">   25.10   25.17</time>
   <energy>
    <i name="e_fr_energy">   -186.84575059 </i>
    <i name="e_wo_entrp">   -186.49904418 </i>
    <i name="e_0_energy">   -186.67239738 </i>
   </energy>
  </scstep>
  <scstep>
   <time name="dav">   21.51   21.56</time>
   <time name="total">   22.04   22.11</time>
   <energy>
    <i name="e_fr_energy">   -186.84655164 </i>
    <i name="e_wo_entrp">   -186.49985608 </i>
    <i name="e_0_energy">   -186.67320386 </i>
   </energy>
  </scstep>
  <scstep>
   <time name="dav">   20.29   20.34</time>
   <time name="total">   20.83   20.89</time>
   <energy>
    <i name="e_fr_energy">   -186.84747089 </i>
    <i name="e_wo_entrp">   -186.50070403 </i>
    <i name="e_0_energy">   -186.67408746 </i>
   </energy>
  </scstep>
  <scstep>
   <time name="dav">   20.29   20.34</time>
   <time name="total">   20.83   20.89</time>
   <energy>
    <i name="e_fr_energy">   -186.84855016 </i>
    <i name="e_wo_entrp">   -186.50177163 </i>
    <i name="e_0_energy">   -186.67516090 </i>
   </energy>
  </scstep>
  <scstep>
   <time name="dav">   18.35   18.40</time>
   <time name="total">   18.89   18.95</time>
   <energy>
    <i name="e_fr_energy">   -186.84921126 </i>
    <i name="e_wo_entrp">   -186.50245263 </i>
    <i name="e_0_energy">   -186.67583194 </i>
   </energy>
  </scstep>
  <scstep>
   <time name="dav">   17.40   17.44</time>
   <time name="total">   17.94   17.99</time>
   <energy>
    <i name="e_fr_energy">   -186.84957583 </i>
    <i name="e_wo_entrp">   -186.50280003 </i>
    <i name="e_0_energy">   -186.67618793 </i>
   </energy>
  </scstep>
  <scstep>
   <time name="dav">   19.04   19.09</time>
   <time name="total">   19.58   19.63</time>
   <energy>
    <i name="e_fr_energy">   -186.84979323 </i>
    <i name="e_wo_entrp">   -186.50302523 </i>
    <i name="e_0_energy">   -186.67640923 </i>
   </energy>
  </scstep>
  <scstep>
   <time name="dav">   19.95   20.00</time>
   <time name="total">   19.99   20.04</time>
   <energy>
    <i name="alphaZ">     81.65567618 </i>
    <i name="ewald">  41891.12778376 </i>
    <i name="hartreedc"> -47833.62256810 </i>
    <i name="XCdc">   -231.60213224 </i>
    <i name="pawpsdc">   4192.07551240 </i>
    <i name="pawaedc">  -3610.08226103 </i>
    <i name="eentropy">     -0.34676865 </i>
    <i name="bandstr">  -1437.49763398 </i>
    <i name="atom">   6761.44252427 </i>
    <i name="e_fr_energy">   -186.84986737 </i>
    <i name="e_wo_entrp">   -186.50309873 </i>
    <i name="e_0_energy">   -186.67648305 </i>
   </energy>
  </scstep>
  <structure>
   <crystal>
    <varray name="basis" >
     <v>       8.66999996       5.03999989       0.00000000 </v>
     <v>      -8.66999982       5.04000013       0.00000000 </v>
     <v>       0.00000000       0.00000000      30.00000000 </v>
    </varray>
    <i name="volume">   2621.80797419 </i>
    <varray name="rec_basis" >
     <v>       0.05767013       0.09920635       0.00000000 </v>
     <v>      -0.05767013       0.09920635       0.00000000 </v>
     <v>       0.00000000       0.00000000       0.03333333 </v>
    </varray>
   </crystal>
   <varray name="positions" >
    <v>       0.66666669       0.33333334       0.00000000 </v>
    <v>       0.00000000       0.66666669       0.00000000 </v>
    <v>       0.33333334       0.00000000       0.00000000 </v>
    <v>       0.00000000       0.00000000       0.00000000 </v>
    <v>       0.66666669       0.66666669       0.00000000 </v>
    <v>       0.33333334       0.66666669       0.00000000 </v>
    <v>       1.00000000       0.33333334       0.00000000 </v>
    <v>       0.33333334       0.33333334       0.00000000 </v>
    <v>       0.66666669       0.00000000       0.00000000 </v>
    <v>       0.11068511       0.22244981       0.95539999 </v>
    <v>       0.22244981       0.11068511       0.04460000 </v>
    <v>       0.11068511       0.55578315       0.95539999 </v>
    <v>       0.22244981       0.44401845       0.04460000 </v>
    <v>       0.11068511       0.88911647       0.95539999 </v>
    <v>       0.22244981       0.77735180       0.04460000 </v>
    <v>       0.44401845       0.22244981       0.95539999 </v>
    <v>       0.55578315       0.11068511       0.04460000 </v>
    <v>       0.44401845       0.55578315       0.95539999 </v>
    <v>       0.55578315       0.44401845       0.04460000 </v>
    <v>       0.44401845       0.88911647       0.95539999 </v>
    <v>       0.55578315       0.77735180       0.04460000 </v>
    <v>       0.77735180       0.22244981       0.95539999 </v>
    <v>       0.88911647       0.11068511       0.04460000 </v>
    <v>       0.77735180       0.55578315       0.95539999 </v>
    <v>       0.88911647       0.44401845       0.04460000 </v>
    <v>       0.77735180       0.88911647       0.95539999 </v>
    <v>       0.88911647       0.77735180       0.04460000 </v>
   </varray>
  </structure>
  <varray name="forces" >
   <v>      -0.21347769       0.13263663      -0.01064550 </v>
   <v>      -0.22833313       0.13337045      -0.01414890 </v>
   <v>       0.01320488      -0.26082017       0.02775806 </v>
   <v>       0.01962703      -0.28525696      -0.10556125 </v>
   <v>      -0.19924484       0.15196867      -0.15168621 </v>
   <v>       0.22286315       0.11836979       0.13432067 </v>
   <v>       0.16338772       0.17406726       0.13146854 </v>
   <v>      -0.15106616       0.15028332      -0.13668149 </v>
   <v>       0.43897496      -0.33827358       0.16604913 </v>
   <v>       0.09470902       0.13206859      -2.92540203 </v>
   <v>       0.66108379       0.14743111       2.07110836 </v>
   <v>      -0.66798059      -0.14733504      -2.08716753 </v>
   <v>      -0.09889867      -0.13300679       2.95048961 </v>
   <v>       0.89828257      -0.00510972      -1.47614065 </v>
   <v>      -0.89885750       0.00448399       1.45201432 </v>
   <v>       0.73328506      -0.00077165      -1.46194817 </v>
   <v>      -0.74218785       0.00135599       1.43084413 </v>
   <v>       0.24532744      -0.15087876      -2.89535140 </v>
   <v>       0.66183420      -0.14365667       2.09472929 </v>
   <v>      -0.67855759       0.15408912      -2.10614605 </v>
   <v>      -0.25210646       0.15996656       2.92829959 </v>
   <v>      -0.60349709       0.00647966      -2.07641543 </v>
   <v>      -0.32146157       0.00294822       2.89198910 </v>
   <v>       0.89349202      -0.00368439      -1.45064405 </v>
   <v>      -0.73874955      -0.00565748       1.45718957 </v>
   <v>      -0.00824345       0.00500792      -2.95368204 </v>
   <v>       0.75659032      -0.00007605       2.11536031 </v>
  </varray>
  <varray name="stress" >
   <v>       7.49145585       0.00994105      -1.53371337 </v>
   <v>       0.00994095       4.26482329       0.03591443 </v>
   <v>      -1.53371344       0.03591448      30.33401536 </v>
  </varray>
  <energy>
   <i name="e_fr_energy">   -186.84986737 </i>
   <i name="e_wo_entrp">   -186.67648305 </i>
   <i name="e_0_energy">     -0.34676865 </i>
  </energy>
  <time name="totalsc">  789.59  791.91</time>
 </calculation>
 <calculation>
  <scstep>
   <time name="dav">   21.77   21.82</time>
   <time name="total">   22.32   22.37</time>
   <energy>
    <i name="alphaZ">     78.92129448 </i>
    <i name="ewald">  39378.51616247 </i>
    <i name="hartreedc"> -45335.84242465 </i>
    <i name="XCdc">   -239.06911689 </i>
    <i name="pawpsdc">   4192.05156739 </i>
    <i name="pawaedc">  -3610.05882782 </i>
    <i name="eentropy">     -0.28094682 </i>
    <i name="bandstr">  -1413.21244567 </i>
    <i name="atom">   6761.44252427 </i>
    <i name="e_fr_energy">   -187.53221323 </i>
    <i name="e_wo_entrp">   -187.25126641 </i>
    <i name="e_0_energy">   -187.39173982 </i>
   </energy>
  </scstep>
  <scstep>
   <time name="dav">   30.45   30.52</time>
   <time name="total">   30.98   31.07</time>
   <energy>
    <i name="e_fr_energy">   -190.02153655 </i>
    <i name="e_wo_entrp">   -189.66608419 </i>
    <i name="e_0_energy">   -189.84381037 </i>
   </energy>
  </scstep>
  <scstep>
   <time name="dav">   30.57   30.64</time>
   <time name="total">   31.13   31.21</time>
   <energy>
    <i name="e_fr_energy">   -189.24437908 </i>
    <i name="e_wo_entrp">   -188.97795235 </i>
    <i name="e_0_energy">   -189.11116572 </i>
   </energy>
  </scstep>
  <scstep>
   <time name="dav">   30.73   30.81</time>
   <time name="total">   31.29   31.37</time>
   <energy>
    <i name="e_fr_energy">   -188.84971649 </i>
    <i name="e_wo_entrp">   -188.55926959 </i>
    <i name="e_0_energy">   -188.70449304 </i>
   </energy>
  </scstep>
  <scstep>
   <time name="dav">   29.72   29.79</time>
   <time name="total">   30.27   30.35</time>
   <energy>
    <i name="e_fr_energy">   -188.85786757 </i>
    <i name="e_wo_entrp">   -188.57216458 </i>
    <i name="e_0_energy">   -188.71501608 </i>
   </energy>
  </scstep>
  <scstep>
   <time name="dav">   30.20   30.27</time>
   <time name="total">   30.74   30.83</time>
   <energy>
    <i name="e_fr_energy">   -188.76308876 </i>
    <i name="e_wo_entrp">   -188.47550446 </i>
    <i name="e_0_energy">   -188.61929661 </i>
   </energy>
  </scstep>
  <scstep>
   <time name="dav">   26.92   26.99</time>
   <time name="total">   27.47   27.54</time>
   <energy>
    <i name="e_fr_energy">   -188.71050389 </i>
    <i name="e_wo_entrp">   -188.42482444 </i>
    <i name="e_0_energy">   -188.56766416 </i>
   </energy>
  </scstep>
  <scstep>
   <time name="dav">   30.67   30.74</time>
   <time name="total">   31.21   31.29</time>
   <energy>
    <i name="e_fr_energy">   -188.69616986 </i>
    <i name="e_wo_entrp">   -188.41079531 </i>
    <i name="e_0_energy">   -188.55348259 </i>
   </energy>
  </scstep>
  <scstep>
   <time name="dav">   30.78   30.85</time>
   <time name="total">   31.32   31.41</time>
   <energy>
    <i name="e_fr_energy">   -188.68986198 </i>
    <i name="e_wo_entrp">   -188.40456454 </i>
    <i name="e_0_energy">   -188.54721326 </i>
   </energy>
  </scstep>
  <scstep>
   <time name="dav">   29.89   29.96</time>
   <time name="total">   30.43   30.51</time>
   <energy>
    <i name="e_fr_energy">   -188.68724508 </i>
    <i name="e_wo_entrp">   -188.40273086 </i>
    <i name="e_0_energy">   -188.54498797 </i>
   </energy>
  </scstep>
  <scstep>
   <time name="dav">   31.90   31.98</time>
   <time name="total">   32.45   32.54</time>
   <energy>
    <i name="e_fr_energy">   -188.68639694 </i>
    <i name="e_wo_entrp">   -188.40270627 </i>
    <i name="e_0_energy">   -188.54455160 </i>
   </energy>
  </scstep>
  <scstep>
   <time name="dav">   29.43   29.50</time>
   <time name="total">   29.47   29.55</time>
   <energy>
    <i name="alphaZ">     78.92129448 </i>
    <i name="ewald">  39378.51616247 </i>
    <i name="hartreedc"> -45346.79839540 </i>
    <i name="XCdc">   -237.97855099 </i>
    <i name="pawpsdc">   3953.06831553 </i>
    <i name="pawaedc">  -3367.60464277 </i>
    <i name="eentropy">     -0.28348022 </i>
    <i name="bandstr">  -1407.96962671 </i>
    <i name="atom">   6761.44252427 </i>
    <i name="e_fr_energy">   -188.68639934 </i>
    <i name="e_wo_entrp">   -188.40291912 </i>
    <i name="e_0_energy">   -188.54465923 </i>
   </energy>
  </scstep>
  <structure>
   <crystal>
    <varray name="basis" >
     <v>       8.86005437       5.10309959       0.00000000 </v>
     <v>      -8.85976124       5.10259582       0.00000000 </v>
     <v>       0.00000000       0.00000000      30.00000000 </v>
    </varray>
    <i name="volume">   2712.64560913 </i>
    <varray name="rec_basis" >
     <v>       0.05643121       0.09798288       0.00000000 </v>
     <v>      -0.05643678       0.09798612       0.00000000 </v>
     <v>       0.00000000       0.00000000       0.03333333 </v>
    </varray>
   </crystal>
   <varray name="positions" >
    <v>       0.66670755       0.33456207      -0.00001712 </v>
    <v>       0.00000305       0.66794025      -0.00002275 </v>
    <v>       0.33212180      -0.00128502       0.00004464 </v>
    <v>      -0.00131063      -0.00141984      -0.00016975 </v>
    <v>       0.66683967       0.66794834      -0.00024392 </v>
    <v>       0.33451990       0.66661316       0.00021600 </v>
    <v>       1.00128765       0.33371185       0.00021141 </v>
    <v>       0.33363231       0.33447289      -0.00021980 </v>
    <v>       0.66626902      -0.00284027       0.00026702 </v>
    <v>       0.11158068       0.22281839       0.95069568 </v>
    <v>       0.22499465       0.10955147       0.04793052 </v>
    <v>       0.10812154       0.55693644       0.95204364 </v>
    <v>       0.22153809       0.44365704       0.04934465 </v>
    <v>       0.11315982       0.88659285       0.95302623 </v>
    <v>       0.21997050       0.77987402       0.04693497 </v>
    <v>       0.44605488       0.22040600       0.95304905 </v>
    <v>       0.55372476       0.11275649       0.04690092 </v>
    <v>       0.44397889       0.55437851       0.95074401 </v>
    <v>       0.55693694       0.44148959       0.04796851 </v>
    <v>       0.44286806       0.89174179       0.95201312 </v>
    <v>       0.55584735       0.77881879       0.04930896 </v>
    <v>       0.77570378       0.22415985       0.95206093 </v>
    <v>       0.88823622       0.11159358       0.04925057 </v>
    <v>       0.77982000       0.55327968       0.95306723 </v>
    <v>       0.88703407       0.44604670       0.04694329 </v>
    <v>       0.77735283       0.88916337       0.95065021 </v>
    <v>       0.89122106       0.77524648       0.04800169 </v>
   </varray>
  </structure>
  <varray name="forces" >
   <v>      -0.17953172       0.08663738      -0.01410282 </v>
   <v>      -0.19768395       0.09639516      -0.00488447 </v>
   <v>      -0.00026800      -0.18040850       0.09007808 </v>
   <v>      -0.24646820      -0.30248336       0.04982505 </v>
   <v>      -0.46244998       0.20384131      -0.02599873 </v>
   <v>       0.44420914       0.08910536      -0.04527837 </v>
   <v>       0.35954966       0.21754441      -0.08091040 </v>
   <v>      -0.37904847       0.10346993      -0.01908307 </v>
   <v>       0.58515695      -0.31446481       0.01293318 </v>
   <v>      -0.07078965       0.10135535      -0.02558366 </v>
   <v>      -0.02442672       0.10652226      -0.15467886 </v>
   <v>       0.02476854      -0.10300701       0.13784540 </v>
   <v>       0.08642367      -0.09396013       0.13827228 </v>
   <v>       0.04643153      -0.01094343      -0.00572317 </v>
   <v>      -0.04459557       0.00017910      -0.07911899 </v>
   <v>      -0.10298849      -0.00364265       0.14769198 </v>
   <v>       0.10757009      -0.00616002      -0.23877506 </v>
   <v>       0.05606092      -0.10058731      -0.18232956 </v>
   <v>      -0.03116937      -0.09308679      -0.06605619 </v>
   <v>       0.02338521       0.11317675       0.06042585 </v>
   <v>      -0.03296905       0.11086435       0.28078966 </v>
   <v>       0.10602362      -0.01069565       0.27486249 </v>
   <v>      -0.10949233      -0.01083981       0.04413730 </v>
   <v>       0.03131447       0.00892635       0.06641816 </v>
   <v>       0.09225060       0.00973243      -0.15004066 </v>
   <v>      -0.14654824      -0.00736017      -0.25983121 </v>
   <v>       0.06528536      -0.01011049       0.04911577 </v>
  </varray>
  <varray name="stress" >
   <v>     -20.16909952      -0.00228614       0.14640728 </v>
   <v>      -0.00228608     -19.63072543       0.02106419 </v>
   <v>       0.14640722       0.02106415      -1.83717833 </v>
  </varray>
  <energy>
   <i name="e_fr_energy">   -188.68639934 </i>
   <i name="e_wo_entrp">   -188.54465923 </i>
   <i name="e_0_energy">     -0.28348022 </i>
  </energy>
  <time name="totalsc">  401.71  402.77</time>
 </calculation>
 <calculation>
  <scstep>
   <time name="dav">   23.44   23.50</time>
   <time name="total">   23.98   24.04</time>
   <energy>
    <i name="alphaZ">     82.37066444 </i>
    <i name="ewald">  41316.01308594 </i>
    <i name="hartreedc"> -47315.04185198 </i>
    <i name="XCdc">   -233.83000807 </i>
    <i name="pawpsdc">   3950.34402119 </i>
    <i name="pawaedc">  -3364.84903962 </i>
    <i name="eentropy">     -0.23786706 </i>
    <i name="bandstr">  -1386.84718983 </i>
    <i name="atom">   6761.44252427 </i>
    <i name="e_fr_energy">   -190.63566071 </i>
    <i name="e_wo_entrp">   -190.39779365 </i>
    <i name="e_0_energy">   -190.51672718 </i>
   </energy>
  </scstep>
  <scstep>
   <time name="dav">   28.69   28.76</time>
   <time name="total">   29.22   29.30</time>
   <energy>
    <i name="e_fr_energy">   -190.56226162 </i>
    <i name="e_wo_entrp">   -190.32938766 </i>
    <i name="e_0_energy">   -190.44582464 </i>
   </energy>
  </scstep>
  <scstep>
   <time name="dav">   30.34   30.41</time>
   <time name="total">   30.87   30.95</time>
   <energy>
    <i name="e_fr_energy">   -190.12607036 </i>
    <i name="e_wo_entrp">   -189.87332093 </i>
    <i name="e_0_energy">   -189.99969565 </i>
   </energy>
  </scstep>
  <scstep>
   <time name="dav">   31.06   31.14</time>
   <time name="total">   31.60   31.69</time>
   <energy>
    <i name="e_fr_energy">   -189.89564270 </i>
    <i name="e_wo_entrp">   -189.66171133 </i>
    <i name="e_0_energy">   -189.77867701 </i>
   </energy>
  </scstep>
  <scstep>
   <time name="dav">   30.16   30.24</time>
   <time name="total">   30.70   30.78</time>
   <energy>
    <i name="e_fr_energy">   -189.87077361 </i>
    <i name="e_wo_entrp">   -189.62276365 </i>
    <i name="e_0_energy">   -189.74676863 </i>
   </energy>
  </scstep>
  <scstep>
   <time name="dav">   30.86   30.94</time>
   <time name="total">   31.40   31.48</time>
   <energy>
    <i name="e_fr_energy">   -189.79718821 </i>
    <i name="e_wo_entrp">   -189.55905506 </i>
    <i name="e_0_energy">   -189.67812163 </i>
   </energy>
  </scstep>
  <scstep>
   <time name="dav">   29.10   29.17</time>
   <time name="total">   29.64   29.83</time>
   <energy>
    <i name="e_fr_energy">   -189.79135815 </i>
    <i name="e_wo_entrp">   -189.55099526 </i>
    <i name="e_0_energy">   -189.67117671 </i>
   </energy>
  </scstep>
  <scstep>
   <time name="dav">   31.23   31.31</time>
   <time name="total">   31.77   31.85</time>
   <energy>
    <i name="e_fr_energy">   -189.79143819 </i>
    <i name="e_wo_entrp">   -189.55152731 </i>
    <i name="e_0_energy">   -189.67148275 </i>
   </energy>
  </scstep>
  <scstep>
   <time name="dav">   28.47   28.54</time>
   <time name="total">   29.01   29.08</time>
   <energy>
    <i name="e_fr_energy">   -189.79037794 </i>
    <i name="e_wo_entrp">   -189.55029770 </i>
    <i name="e_0_energy">   -189.67033782 </i>
   </energy>
  </scstep>
  <scstep>
   <time name="dav">   27.04   27.11</time>
   <time name="total">   27.57   27.65</time>
   <energy>
    <i name="e_fr_energy">   -189.79080311 </i>
    <i name="e_wo_entrp">   -189.55055572 </i>
    <i name="e_0_energy">   -189.67067942 </i>
   </energy>
  </scstep>
  <scstep>
   <time name="dav">   25.16   25.22</time>
   <time name="total">   25.69   25.76</time>
   <energy>
    <i name="e_fr_energy">   -189.79049138 </i>
    <i name="e_wo_entrp">   -189.55017307 </i>
    <i name="e_0_energy">   -189.67033223 </i>
   </energy>
  </scstep>
  <scstep>
   <time name="dav">   19.93   19.98</time>
   <time name="total">   19.97   20.02</time>
   <energy>
    <i name="alphaZ">     82.37066444 </i>
    <i name="ewald">  41316.01308594 </i>
    <i name="hartreedc"> -47288.10425990 </i>
    <i name="XCdc">   -235.23546072 </i>
    <i name="pawpsdc">   4039.04851413 </i>
    <i name="pawaedc">  -3454.75487793 </i>
    <i name="eentropy">     -0.24030007 </i>
    <i name="bandstr">  -1410.33040512 </i>
    <i name="atom">   6761.44252427 </i>
    <i name="e_fr_energy">   -189.79051494 </i>
    <i name="e_wo_entrp">   -189.55021488 </i>
    <i name="e_0_energy">   -189.67036491 </i>
   </energy>
  </scstep>
  <structure>
   <crystal>
    <varray name="basis" >
     <v>       8.67000948       4.99654721       0.00000000 </v>
     <v>      -8.66974745       4.99609704       0.00000000 </v>
     <v>       0.00000000       0.00000000      30.00000000 </v>
    </varray>
    <i name="volume">   2599.05033408 </i>
    <varray name="rec_basis" >
     <v>       0.05766834       0.10007210       0.00000000 </v>
     <v>      -0.05767353       0.10007512       0.00000000 </v>
     <v>       0.00000000       0.00000000       0.03333333 </v>
    </varray>
   </crystal>
   <varray name="positions" >
    <v>       0.66667970       0.33487786      -0.00002509 </v>
    <v>      -0.00002596       0.66828963      -0.00002551 </v>
    <v>       0.33182177      -0.00158454       0.00009556 </v>
    <v>      -0.00204911      -0.00168658      -0.00014159 </v>
    <v>       0.66673583       0.66872966      -0.00025862 </v>
    <v>       0.33509306       0.66633608       0.00019040 </v>
    <v>       1.00199322       0.33372923       0.00016568 </v>
    <v>       0.33344149       0.33500760      -0.00023058 </v>
    <v>       0.66630648      -0.00392285       0.00027433 </v>
    <v>       0.11168135       0.22305456       0.95068122 </v>
    <v>       0.22514828       0.10975186       0.04784309 </v>
    <v>       0.10797408       0.55674157       0.95212156 </v>
    <v>       0.22146467       0.44341819       0.04942281 </v>
    <v>       0.11318607       0.88653022       0.95302299 </v>
    <v>       0.21992812       0.77991700       0.04689024 </v>
    <v>       0.44595027       0.22049852       0.95313254 </v>
    <v>       0.55381746       0.11264330       0.04676595 </v>
    <v>       0.44386540       0.55415771       0.95064094 </v>
    <v>       0.55675244       0.44136474       0.04793117 </v>
    <v>       0.44307850       0.89190747       0.95204728 </v>
    <v>       0.55600001       0.77903457       0.04946769 </v>
    <v>       0.77578747       0.22404060       0.95221631 </v>
    <v>       0.88811342       0.11168036       0.04927552 </v>
    <v>       0.77986480       0.55326454       0.95310477 </v>
    <v>       0.88713852       0.44597458       0.04685847 </v>
    <v>       0.77720036       0.88929140       0.95050333 </v>
    <v>       0.89126673       0.77516719       0.04802945 </v>
   </varray>
  </structure>
  <varray name="forces" >
   <v>      -0.16923495       0.07027595      -0.01001608 </v>
   <v>      -0.18002763       0.07648882      -0.00169672 </v>
   <v>      -0.00196374      -0.14879124       0.08574040 </v>
   <v>      -0.33611300      -0.29422498       0.06688607 </v>
   <v>      -0.54475623       0.20553902       0.00882858 </v>
   <v>       0.52519331       0.06269321      -0.06380598 </v>
   <v>       0.43597283       0.22760872      -0.10343044 </v>
   <v>      -0.46668799       0.08101718       0.02030971 </v>
   <v>       0.63130760      -0.28986661      -0.02547637 </v>
   <v>      -0.02205669       0.03065764      -0.59494845 </v>
   <v>       0.07376107       0.04307637       0.31953485 </v>
   <v>      -0.08681066      -0.02371342      -0.35002573 </v>
   <v>       0.05221093      -0.02030255       0.72420899 </v>
   <v>       0.11204744      -0.00984824      -0.45832782 </v>
   <v>      -0.09950696      -0.00798020       0.36062369 </v>
   <v>       0.05044548      -0.00998504      -0.30980024 </v>
   <v>      -0.03305208      -0.00383868       0.20617330 </v>
   <v>       0.02121642      -0.02182311      -0.75259786 </v>
   <v>       0.06757454      -0.01501644       0.41795588 </v>
   <v>      -0.08254853       0.04473564      -0.42782426 </v>
   <v>       0.01867462       0.02790922       0.86569877 </v>
   <v>      -0.02404906      -0.02175692      -0.19757442 </v>
   <v>      -0.04619599      -0.00762071       0.60670809 </v>
   <v>       0.09275013       0.01625527      -0.38166436 </v>
   <v>      -0.05425932       0.01694796       0.30360783 </v>
   <v>      -0.06864454      -0.00689101      -0.84659184 </v>
   <v>       0.13475299      -0.02154586       0.53750439 </v>
  </varray>
  <varray name="stress" >
   <v>     -10.19996906      -0.01082516       0.13853682 </v>
   <v>      -0.01082520      -9.82335512       0.01051676 </v>
   <v>       0.13853664       0.01051689       6.53309625 </v>
  </varray>
  <energy>
   <i name="e_fr_energy">   -189.79051494 </i>
   <i name="e_wo_entrp">   -189.67036491 </i>
   <i name="e_0_energy">     -0.24030007 </i>
  </energy>
  <time name="totalsc">  383.39  384.52</time>
 </calculation>
 <calculation>
  <scstep>
   <time name="dav">   21.94   22.00</time>
   <time name="total">   22.47   22.52</time>
   <energy>
    <i name="alphaZ">     85.81989421 </i>
    <i name="ewald">  42832.49782808 </i>
    <i name="hartreedc"> -48848.73241794 </i>
    <i name="XCdc">   -232.97972603 </i>
    <i name="pawpsdc">   4039.08192307 </i>
    <i name="pawaedc">  -3454.78571740 </i>
    <i name="eentropy">     -0.19916073 </i>
    <i name="bandstr">  -1373.51349870 </i>
    <i name="atom">   6761.44252427 </i>
    <i name="e_fr_energy">   -191.36835115 </i>
    <i name="e_wo_entrp">   -191.16919043 </i>
    <i name="e_0_energy">   -191.26877079 </i>
   </energy>
  </scstep>
  <scstep>
   <time name="dav">   32.47   32.55</time>
   <time name="total">   32.98   33.07</time>
   <energy>
    <i name="e_fr_energy">   -191.12120410 </i>
    <i name="e_wo_entrp">   -190.91765591 </i>
    <i name="e_0_energy">   -191.01943001 </i>
   </energy>
  </scstep>
  <scstep>
   <time name="dav">   29.94   30.02</time>
   <time name="total">   30.45   30.53</time>
   <energy>
    <i name="e_fr_energy">   -191.42631490 </i>
    <i name="e_wo_entrp">   -191.20946036 </i>
    <i name="e_0_energy">   -191.31788763 </i>
   </energy>
  </scstep>
  <scstep>
   <time name="dav">   28.32   28.39</time>
   <time name="total">   28.84   28.92</time>
   <energy>
    <i name="e_fr_energy">   -190.98891405 </i>
    <i name="e_wo_entrp">   -190.77737090 </i>
    <i name="e_0_energy">   -190.88314247 </i>
   </energy>
  </scstep>
  <scstep>
   <time name="dav">   29.48   29.55</time>
   <time name="total">   30.00   30.07</time>
   <energy>
    <i name="e_fr_energy">   -190.98125035 </i>
    <i name="e_wo_entrp">   -190.78611843 </i>
    <i name="e_0_energy">   -190.88368439 </i>
   </energy>
  </scstep>
  <scstep>
   <time name="dav">   29.87   29.94</time>
   <time name="total">   30.38   30.46</time>
   <energy>
    <i name="e_fr_energy">   -190.80610695 </i>
    <i name="e_wo_entrp">   -190.59888027 </i>
    <i name="e_0_energy">   -190.70249361 </i>
   </energy>
  </scstep>
  <scstep>
   <time name="dav">   30.60   30.67</time>
   <time name="total">   31.11   31.20</time>
   <energy>
    <i name="e_fr_energy">   -190.80623955 </i>
    <i name="e_wo_entrp">   -190.60016300 </i>
    <i name="e_0_energy">   -190.70320128 </i>
   </energy>
  </scstep>
  <scstep>
   <time name="dav">   29.30   29.37</time>
   <time name="total">   29.81   29.89</time>
   <energy>
    <i name="e_fr_energy">   -190.80442414 </i>
    <i name="e_wo_entrp">   -190.59787508 </i>
    <i name="e_0_energy">   -190.70114961 </i>
   </energy>
  </scstep>
  <scstep>
   <time name="dav">   28.74   28.81</time>
   <time name="total">   29.26   29.34</time>
   <energy>
    <i name="e_fr_energy">   -190.80084852 </i>
    <i name="e_wo_entrp">   -190.59469091 </i>
    <i name="e_0_energy">   -190.69776972 </i>
   </energy>
  </scstep>
  <scstep>
   <time name="dav">   27.61   27.67</time>
   <time name="total">   28.13   28.20</time>
   <energy>
    <i name="e_fr_energy">   -190.80115639 </i>
    <i name="e_wo_entrp">   -190.59486733 </i>
    <i name="e_0_energy">   -190.69801186 </i>
   </energy>
  </scstep>
  <scstep>
   <time name="dav">   26.86   26.93</time>
   <time name="total">   27.38   27.45</time>
   <energy>
    <i name="e_fr_energy">   -190.80093390 </i>
    <i name="e_wo_entrp">   -190.59453754 </i>
    <i name="e_0_energy">   -190.69773572 </i>
   </energy>
  </scstep>
  <scstep>
   <time name="dav">   20.02   20.06</time>
   <time name="total">   20.05   20.11</time>
   <energy>
    <i name="alphaZ">     85.81989421 </i>
    <i name="ewald">  42832.49782808 </i>
    <i name="hartreedc"> -48820.21685646 </i>
    <i name="XCdc">   -234.30309959 </i>
    <i name="pawpsdc">   4063.64502484 </i>
    <i name="pawaedc">  -3479.52440506 </i>
    <i name="eentropy">     -0.20642805 </i>
    <i name="bandstr">  -1399.95542605 </i>
    <i name="atom">   6761.44252427 </i>
    <i name="e_fr_energy">   -190.80094381 </i>
    <i name="e_wo_entrp">   -190.59451576 </i>
    <i name="e_0_energy">   -190.69772979 </i>
   </energy>
  </scstep>
  <structure>
   <crystal>
    <varray name="basis" >
     <v>       8.48903502       4.89735686       0.00000000 </v>
     <v>      -8.48930603       4.89783106       0.00000000 </v>
     <v>       0.00000000       0.00000000      30.00000000 </v>
    </varray>
    <i name="volume">   2494.59061794 </i>
    <varray name="rec_basis" >
     <v>       0.05890142       0.10209258       0.00000000 </v>
     <v>      -0.05889572       0.10208932       0.00000000 </v>
     <v>       0.00000000       0.00000000       0.03333333 </v>
    </varray>
   </crystal>
   <varray name="positions" >
    <v>       0.66648382       0.33587062      -0.00004232 </v>
    <v>      -0.00022018       0.66934087      -0.00002634 </v>
    <v>       0.33096133      -0.00242607       0.00026869 </v>
    <v>      -0.00520156      -0.00216646       0.00001058 </v>
    <v>       0.66594643       0.67209352      -0.00021128 </v>
    <v>       0.33742368       0.66465802       0.00004336 </v>
    <v>       1.00511547       0.33349778      -0.00006640 </v>
    <v>       0.33208877       0.33726144      -0.00015575 </v>
    <v>       0.66689437      -0.00800861       0.00018967 </v>
    <v>       0.11168851       0.22308237       0.94897825 </v>
    <v>       0.22566557       0.10946019       0.04889864 </v>
    <v>       0.10755071       0.55725900       0.95099172 </v>
    <v>       0.22165849       0.44333323       0.05140614 </v>
    <v>       0.11362336       0.88597533       0.95169938 </v>
    <v>       0.21942246       0.78028295       0.04800166 </v>
    <v>       0.44627117       0.22002172       0.95211105 </v>
    <v>       0.55348111       0.11294318       0.04756330 </v>
    <v>       0.44394988       0.55418824       0.94861220 </v>
    <v>       0.55723371       0.44108000       0.04919783 </v>
    <v>       0.44274236       0.89246547       0.95075673 </v>
    <v>       0.55611053       0.77886439       0.05174186 </v>
    <v>       0.77535369       0.22414838       0.95141368 </v>
    <v>       0.88799723       0.11171726       0.05099705 </v>
    <v>       0.78040501       0.55296328       0.95194300 </v>
    <v>       0.88685931       0.44650090       0.04786398 </v>
    <v>       0.77702188       0.88938617       0.94826700 </v>
    <v>       0.89168734       0.77442131       0.04954624 </v>
   </varray>
  </structure>
  <varray name="forces" >
   <v>      -0.20236145       0.03110805      -0.00828855 </v>
   <v>      -0.18756537       0.02196409      -0.00098228 </v>
   <v>      -0.00146089      -0.06156124       0.05157864 </v>
   <v>      -0.39152888      -0.30872910       0.03585714 </v>
   <v>      -0.55893283       0.20988893       0.03177744 </v>
   <v>       0.59027599       0.02035674      -0.03092371 </v>
   <v>       0.47679305       0.27486173      -0.05773917 </v>
   <v>      -0.50474515       0.08654204       0.03715374 </v>
   <v>       0.61877273      -0.28161914      -0.03715897 </v>
   <v>       0.08329493      -0.01732329      -0.45196802 </v>
   <v>      -0.03840098      -0.00744728       0.15555881 </v>
   <v>       0.00006577       0.04802412      -0.20136384 </v>
   <v>      -0.00764175       0.03500346       0.57289348 </v>
   <v>      -0.01738044      -0.01959076      -0.32722901 </v>
   <v>       0.04170308      -0.02452872       0.24934369 </v>
   <v>      -0.02760875      -0.01859844      -0.22071984 </v>
   <v>       0.06298827      -0.01392244       0.13762365 </v>
   <v>       0.06019877       0.04209439      -0.57407130 </v>
   <v>      -0.05162479       0.03826507       0.23733667 </v>
   <v>       0.03530314      -0.00468613      -0.24513318 </v>
   <v>       0.01409176      -0.02059068       0.65983531 </v>
   <v>       0.06664908      -0.03790020      -0.02611120 </v>
   <v>      -0.04853295      -0.02500475       0.42012096 </v>
   <v>      -0.05135852       0.04001387      -0.29251262 </v>
   <v>       0.01735831       0.03965820       0.19097650 </v>
   <v>       0.02520807      -0.01518337      -0.67188591 </v>
   <v>      -0.00356020      -0.03109515       0.36603157 </v>
  </varray>
  <varray name="stress" >
   <v>      -5.68314539      -0.01492209      -0.18910045 </v>
   <v>      -0.01492196      -6.08477039      -0.03085934 </v>
   <v>      -0.18910043      -0.03085934       4.60012224 </v>
  </varray>
  <energy>
   <i name="e_fr_energy">   -190.80094381 </i>
   <i name="e_wo_entrp">   -190.69772979 </i>
   <i name="e_0_energy">     -0.20642805 </i>
  </energy>
  <time name="totalsc">  382.92  383.92</time>
 </calculation>
 <calculation>
  <scstep>
   <time name="dav">   21.95   22.00</time>
   <time name="total">   22.46   22.52</time>
   <energy>
    <i name="alphaZ">     90.27301606 </i>
    <i name="ewald">  44719.64328299 </i>
    <i name="hartreedc"> -50763.18696153 </i>
    <i name="XCdc">   -231.74415245 </i>
    <i name="pawpsdc">   4063.57085421 </i>
    <i name="pawaedc">  -3479.44662051 </i>
    <i name="eentropy">     -0.18008049 </i>
    <i name="bandstr">  -1352.65928246 </i>
    <i name="atom">   6761.44252427 </i>
    <i name="e_fr_energy">   -192.28741991 </i>
    <i name="e_wo_entrp">   -192.10733942 </i>
    <i name="e_0_energy">   -192.19737967 </i>
   </energy>
  </scstep>
  <scstep>
   <time name="dav">   27.85   27.92</time>
   <time name="total">   28.36   28.44</time>
   <energy>
    <i name="e_fr_energy">   -191.99531563 </i>
    <i name="e_wo_entrp">   -191.78250751 </i>
    <i name="e_0_energy">   -191.88891157 </i>
   </energy>
  </scstep>
  <scstep>
   <time name="dav">   29.90   29.97</time>
   <time name="total">   30.41   30.49</time>
   <energy>
    <i name="e_fr_energy">   -192.42053616 </i>
    <i name="e_wo_entrp">   -192.24568091 </i>
    <i name="e_0_energy">   -192.33310853 </i>
   </energy>
  </scstep>
  <scstep>
   <time name="dav">   30.08   30.15</time>
   <time name="total">   30.59   30.67</time>
   <energy>
    <i name="e_fr_energy">   -191.70603175 </i>
    <i name="e_wo_entrp">   -191.51658686 </i>
    <i name="e_0_energy">   -191.61130931 </i>
   </energy>
  </scstep>
  <scstep>
   <time name="dav">   29.70   29.77</time>
   <time name="total">   30.20   30.29</time>
   <energy>
    <i name="e_fr_energy">   -191.73145269 </i>
    <i name="e_wo_entrp">   -191.53021606 </i>
    <i name="e_0_energy">   -191.63083438 </i>
   </energy>
  </scstep>
  <scstep>
   <time name="dav">   30.22   30.30</time>
   <time name="total">   30.73   30.81</time>
   <energy>
    <i name="e_fr_energy">   -191.54369262 </i>
    <i name="e_wo_entrp">   -191.35391972 </i>
    <i name="e_0_energy">   -191.44880617 </i>
   </energy>
  </scstep>
  <scstep>
   <time name="dav">   29.43   29.50</time>
   <time name="total">   29.94   30.02</time>
   <energy>
    <i name="e_fr_energy">   -191.54292618 </i>
    <i name="e_wo_entrp">   -191.34651774 </i>
    <i name="e_0_energy">   -191.44472196 </i>
   </energy>
  </scstep>
  <scstep>
   <time name="dav">   28.98   29.05</time>
   <time name="total">   29.49   29.57</time>
   <energy>
    <i name="e_fr_energy">   -191.53099238 </i>
    <i name="e_wo_entrp">   -191.33567741 </i>
    <i name="e_0_energy">   -191.43333490 </i>
   </energy>
  </scstep>
  <scstep>
   <time name="dav">   29.58   29.65</time>
   <time name="total">   30.09   30.17</time>
   <energy>
    <i name="e_fr_energy">   -191.52759845 </i>
    <i name="e_wo_entrp">   -191.33278883 </i>
    <i name="e_0_energy">   -191.43019364 </i>
   </energy>
  </scstep>
  <scstep>
   <time name="dav">   26.53   26.59</time>
   <time name="total">   27.04   27.11</time>
   <energy>
    <i name="e_fr_energy">   -191.52765699 </i>
    <i name="e_wo_entrp">   -191.33286620 </i>
    <i name="e_0_energy">   -191.43026160 </i>
   </energy>
  </scstep>
  <scstep>
   <time name="dav">   24.03   24.09</time>
   <time name="total">   24.07   24.13</time>
   <energy>
    <i name="alphaZ">     90.27301606 </i>
    <i name="ewald">  44719.64328299 </i>
    <i name="hartreedc"> -50728.33209060 </i>
    <i name="XCdc">   -233.29102245 </i>
    <i name="pawpsdc">   4089.70611253 </i>
    <i name="pawaedc">  -3505.73675887 </i>
    <i name="eentropy">     -0.19496926 </i>
    <i name="bandstr">  -1385.03778079 </i>
    <i name="atom">   6761.44252427 </i>
    <i name="e_fr_energy">   -191.52768612 </i>
    <i name="e_wo_entrp">   -191.33271685 </i>
    <i name="e_0_energy">   -191.43020148 </i>
   </energy>
  </scstep>
  <structure>
   <crystal>
    <varray name="basis" >
     <v>       8.28675217       4.76813327       0.00000000 </v>
     <v>      -8.28813293       4.77053027       0.00000000 </v>
     <v>       0.00000000       0.00000000      30.00000000 </v>
    </varray>
    <i name="volume">   2371.53373500 </i>
    <varray name="rec_basis" >
     <v>       0.06034741       0.10484522       0.00000000 </v>
     <v>      -0.06031708       0.10482776       0.00000000 </v>
     <v>       0.00000000       0.00000000       0.03333333 </v>
    </varray>
   </crystal>
   <varray name="positions" >
    <v>       0.66550201       0.33764798      -0.00007230 </v>
    <v>      -0.00120649       0.67092905      -0.00002756 </v>
    <v>       0.33014251      -0.00321778       0.00048780 </v>
    <v>      -0.01178589      -0.00303834       0.00018606 </v>
    <v>       0.66444661       0.67872140      -0.00006313 </v>
    <v>       0.34190187       0.66066622      -0.00011485 </v>
    <v>       1.01187789       0.33336051      -0.00034196 </v>
    <v>       0.32940636       0.34191478       0.00002140 </v>
    <v>       0.66795931      -0.01584781       0.00001075 </v>
    <v>       0.11192267       0.22218031       0.94655458 </v>
    <v>       0.22547176       0.10927692       0.05006097 </v>
    <v>       0.10798249       0.55821728       0.94964178 </v>
    <v>       0.22215161       0.44393333       0.05433179 </v>
    <v>       0.11350886       0.88564865       0.94989128 </v>
    <v>       0.21919827       0.77991500       0.04947678 </v>
    <v>       0.44616876       0.21966138       0.95074442 </v>
    <v>       0.55345852       0.11267136       0.04857613 </v>
    <v>       0.44491483       0.55449084       0.94568274 </v>
    <v>       0.55774495       0.44177329       0.05070402 </v>
    <v>       0.44253710       0.89232936       0.94921431 </v>
    <v>       0.55589072       0.77826860       0.05504131 </v>
    <v>       0.77505792       0.22350727       0.95076474 </v>
    <v>       0.88749201       0.11168582       0.05331012 </v>
    <v>       0.78074971       0.55356121       0.95029945 </v>
    <v>       0.88714378       0.44715321       0.04912074 </v>
    <v>       0.77706781       0.88899860       0.94493405 </v>
    <v>       0.89150848       0.77380602       0.05156447 </v>
   </varray>
  </structure>
  <varray name="forces" >
   <v>      -0.30180341      -0.03748039      -0.04144651 </v>
   <v>      -0.23706353      -0.03489291      -0.00035867 </v>
   <v>       0.03564693       0.04583192       0.05335855 </v>
   <v>      -0.21344866      -0.16601590      -0.09179244 </v>
   <v>      -0.06392847       0.10085040      -0.07429531 </v>
   <v>       0.27428217      -0.11730285       0.09108395 </v>
   <v>       0.36261723       0.25636349       0.05140940 </v>
   <v>      -0.27040409       0.07717561      -0.09962266 </v>
   <v>       0.22297810      -0.13683957       0.04083929 </v>
   <v>       0.16281591      -0.04548659      -0.19037081 </v>
   <v>      -0.20883643      -0.05406661      -0.11463110 </v>
   <v>       0.15294250       0.10915848       0.06337117 </v>
   <v>      -0.04231197       0.06940061       0.35475383 </v>
   <v>      -0.14179649      -0.02043771       0.00327813 </v>
   <v>       0.17715991      -0.03392506      -0.07353795 </v>
   <v>      -0.15221549      -0.02422640       0.00337413 </v>
   <v>       0.20580259      -0.00490916      -0.08194587 </v>
   <v>       0.14374091       0.09652688      -0.22742022 </v>
   <v>      -0.20182502       0.07021030       0.03509495 </v>
   <v>       0.19907320      -0.05753567       0.01456863 </v>
   <v>      -0.02960780      -0.07103874       0.29345129 </v>
   <v>       0.20890532      -0.03184205       0.24944824 </v>
   <v>      -0.10118764      -0.03261453       0.11970897 </v>
   <v>      -0.19042650       0.04817870      -0.03870893 </v>
   <v>       0.12906216       0.04391035      -0.09525833 </v>
   <v>       0.06922802      -0.01406314      -0.32362272 </v>
   <v>      -0.18939947      -0.03492945       0.07927099 </v>
  </varray>
  <varray name="stress" >
   <v>       0.95491293      -0.02177352      -0.80312684 </v>
   <v>      -0.02177343      -0.28061907      -0.12247648 </v>
   <v>      -0.80312692      -0.12247645       0.02414407 </v>
  </varray>
  <energy>
   <i name="e_fr_energy">   -191.52768612 </i>
   <i name="e_wo_entrp">   -191.43020148 </i>
   <i name="e_0_energy">     -0.19496926 </i>
  </energy>
  <time name="totalsc">  355.71  356.64</time>
 </calculation>
 <calculation>
  <scstep>
   <time name="dav">   21.84   21.89</time>
   <time name="total">   22.35   22.41</time>
   <energy>
    <i name="alphaZ">     89.99451643 </i>
    <i name="ewald">  44575.56969974 </i>
    <i name="hartreedc"> -50581.87044805 </i>
    <i name="XCdc">   -233.55908281 </i>
    <i name="pawpsdc">   4089.87584430 </i>
    <i name="pawaedc">  -3505.90403736 </i>
    <i name="eentropy">     -0.19663029 </i>
    <i name="bandstr">  -1386.93849553 </i>
    <i name="atom">   6761.44252427 </i>
    <i name="e_fr_energy">   -191.58610929 </i>
    <i name="e_wo_entrp">   -191.38947900 </i>
    <i name="e_0_energy">   -191.48779414 </i>
   </energy>
  </scstep>
  <scstep>
   <time name="dav">   30.51   30.59</time>
   <time name="total">   31.02   31.10</time>
   <energy>
    <i name="e_fr_energy">   -191.66278857 </i>
    <i name="e_wo_entrp">   -191.45283018 </i>
    <i name="e_0_energy">   -191.55780937 </i>
   </energy>
  </scstep>
  <scstep>
   <time name="dav">   30.63   30.71</time>
   <time name="total">   31.14   31.23</time>
   <energy>
    <i name="e_fr_energy">   -191.59384367 </i>
    <i name="e_wo_entrp">   -191.39521124 </i>
    <i name="e_0_energy">   -191.49452745 </i>
   </energy>
  </scstep>
  <scstep>
   <time name="dav">   28.96   29.03</time>
   <time name="total">   29.47   29.55</time>
   <energy>
    <i name="e_fr_energy">   -191.59774332 </i>
    <i name="e_wo_entrp">   -191.39848113 </i>
    <i name="e_0_energy">   -191.49811222 </i>
   </energy>
  </scstep>
  <scstep>
   <time name="dav">   28.99   29.06</time>
   <time name="total">   29.50   29.58</time>
   <energy>
    <i name="e_fr_energy">   -191.59163253 </i>
    <i name="e_wo_entrp">   -191.39106423 </i>
    <i name="e_0_energy">   -191.49134838 </i>
   </energy>
  </scstep>
  <scstep>
   <time name="dav">   28.43   28.50</time>
   <time name="total">   28.94   29.02</time>
   <energy>
    <i name="e_fr_energy">   -191.59203573 </i>
    <i name="e_wo_entrp">   -191.39328582 </i>
    <i name="e_0_energy">   -191.49266078 </i>
   </energy>
  </scstep>
  <scstep>
   <time name="dav">   28.53   28.59</time>
   <time name="total">   29.04   29.11</time>
   <energy>
    <i name="e_fr_energy">   -191.59133223 </i>
    <i name="e_wo_entrp">   -191.39132662 </i>
    <i name="e_0_energy">   -191.49132942 </i>
   </energy>
  </scstep>
  <scstep>
   <time name="dav">   23.99   24.05</time>
   <time name="total">   24.50   24.56</time>
   <energy>
    <i name="e_fr_energy">   -191.59095019 </i>
    <i name="e_wo_entrp">   -191.39138985 </i>
    <i name="e_0_energy">   -191.49117002 </i>
   </energy>
  </scstep>
  <scstep>
   <time name="dav">   17.94   17.98</time>
   <time name="total">   17.97   18.03</time>
   <energy>
    <i name="alphaZ">     89.99451643 </i>
    <i name="ewald">  44575.56969974 </i>
    <i name="hartreedc"> -50585.10544720 </i>
    <i name="XCdc">   -233.44514221 </i>
    <i name="pawpsdc">   4085.02522256 </i>
    <i name="pawaedc">  -3500.98797866 </i>
    <i name="eentropy">     -0.19964812 </i>
    <i name="bandstr">  -1383.88468874 </i>
    <i name="atom">   6761.44252427 </i>
    <i name="e_fr_energy">   -191.59094194 </i>
    <i name="e_wo_entrp">   -191.39129382 </i>
    <i name="e_0_energy">   -191.49111788 </i>
   </energy>
  </scstep>
  <structure>
   <crystal>
    <varray name="basis" >
     <v>       8.31130511       4.76824574       0.00000000 </v>
     <v>      -8.31313456       4.77141549       0.00000000 </v>
     <v>       0.00000000       0.00000000      30.00000000 </v>
    </varray>
    <i name="volume">   2378.87275168 </i>
    <varray name="rec_basis" >
     <v>       0.06017239       0.10483706       0.00000000 </v>
     <v>      -0.06013242       0.10481399       0.00000000 </v>
     <v>       0.00000000       0.00000000       0.03333333 </v>
    </varray>
   </crystal>
   <varray name="positions" >
    <v>       0.66456827       0.33819311      -0.00013207 </v>
    <v>      -0.00195519       0.67132179      -0.00002812 </v>
    <v>       0.33049264      -0.00305962       0.00055527 </v>
    <v>      -0.01280000      -0.00320045       0.00004091 </v>
    <v>       0.66482192       0.67902908      -0.00018075 </v>
    <v>       0.34186708       0.65958925       0.00002848 </v>
    <v>       1.01370117       0.33359314      -0.00025103 </v>
    <v>       0.32918056       0.34276400      -0.00013527 </v>
    <v>       0.66786259      -0.01669022       0.00008084 </v>
    <v>       0.11213962       0.22158255       0.94641388 </v>
    <v>       0.22466707       0.10960469       0.04981652 </v>
    <v>       0.10888140       0.55825581       0.94982002 </v>
    <v>       0.22233235       0.44433473       0.05468960 </v>
    <v>       0.11303272       0.88595545       0.95000199 </v>
    <v>       0.21953234       0.77929530       0.04927958 </v>
    <v>       0.44564421       0.21998400       0.95083296 </v>
    <v>       0.55399640       0.11210120       0.04838987 </v>
    <v>       0.44569820       0.55453296       0.94551294 </v>
    <v>       0.55749292       0.44260823       0.05066292 </v>
    <v>       0.44282515       0.89153204       0.94933064 </v>
    <v>       0.55549508       0.77805558       0.05528936 </v>
    <v>       0.77549278       0.22282376       0.95118287 </v>
    <v>       0.88709058       0.11180844       0.05335148 </v>
    <v>       0.78044042       0.55427203       0.95033924 </v>
    <v>       0.88768896       0.44697058       0.04890177 </v>
    <v>       0.77718340       0.88876847       0.94464266 </v>
    <v>       0.89084183       0.77418857       0.05156334 </v>
   </varray>
  </structure>
  <varray name="forces" >
   <v>      -0.36875184      -0.04439482      -0.02142541 </v>
   <v>      -0.26864556      -0.03019294       0.02505229 </v>
   <v>       0.08580742       0.04530971       0.07564601 </v>
   <v>      -0.24954794      -0.21388516      -0.02262273 </v>
   <v>      -0.13696818       0.11534466       0.01778084 </v>
   <v>       0.34209336      -0.09984190       0.01799310 </v>
   <v>       0.41054997       0.29739197       0.00921807 </v>
   <v>      -0.32359867       0.11131969      -0.00585101 </v>
   <v>       0.31047672      -0.20654467      -0.02619943 </v>
   <v>       0.08981192      -0.02603304      -0.15742147 </v>
   <v>      -0.12898058      -0.02943816      -0.14969918 </v>
   <v>       0.09590979       0.06267486       0.07792313 </v>
   <v>       0.03475068       0.04120305       0.29109468 </v>
   <v>      -0.08890916      -0.00756728       0.00434539 </v>
   <v>       0.11107303      -0.02909206      -0.08088515 </v>
   <v>      -0.10032501      -0.02027054      -0.01438926 </v>
   <v>       0.12682849       0.01093513      -0.08205703 </v>
   <v>       0.07123359       0.06737895      -0.18591814 </v>
   <v>      -0.11814917       0.03579586       0.03157807 </v>
   <v>       0.12735336      -0.05764460       0.02895287 </v>
   <v>       0.03318157      -0.04535608       0.19916176 </v>
   <v>       0.12698037       0.00514945       0.27907361 </v>
   <v>      -0.05107021      -0.00707081       0.07530745 </v>
   <v>      -0.10608961       0.03232800      -0.07251409 </v>
   <v>       0.09314574       0.01982910      -0.13119126 </v>
   <v>      -0.00314569      -0.01865550      -0.24681511 </v>
   <v>      -0.11501438      -0.00867287       0.06386197 </v>
  </varray>
  <varray name="stress" >
   <v>      -0.26599477       0.02986488      -0.25358323 </v>
   <v>       0.02986469      -0.34784569      -0.05678161 </v>
   <v>      -0.25358325      -0.05678151      -0.69140923 </v>
  </varray>
  <energy>
   <i name="e_fr_energy">   -191.59094194 </i>
   <i name="e_wo_entrp">   -191.49111788 </i>
   <i name="e_0_energy">     -0.19964812 </i>
  </energy>
  <time name="totalsc">  286.30  287.06</time>
 </calculation>
 <calculation>
  <scstep>
   <time name="dav">   21.87   21.92</time>
   <time name="total">   22.38   22.44</time>
   <energy>
    <i name="alphaZ">     90.23709408 </i>
    <i name="ewald">  44667.54618035 </i>
    <i name="hartreedc"> -50680.21365436 </i>
    <i name="XCdc">   -233.35152831 </i>
    <i name="pawpsdc">   4084.64977434 </i>
    <i name="pawaedc">  -3500.60875231 </i>
    <i name="eentropy">     -0.19574928 </i>
    <i name="bandstr">  -1381.18295126 </i>
    <i name="atom">   6761.44252427 </i>
    <i name="e_fr_energy">   -191.67706247 </i>
    <i name="e_wo_entrp">   -191.48131320 </i>
    <i name="e_0_energy">   -191.57918783 </i>
   </energy>
  </scstep>
  <scstep>
   <time name="dav">   31.22   31.29</time>
   <time name="total">   31.73   31.81</time>
   <energy>
    <i name="e_fr_energy">   -191.77814979 </i>
    <i name="e_wo_entrp">   -191.56039638 </i>
    <i name="e_0_energy">   -191.66927309 </i>
   </energy>
  </scstep>
  <scstep>
   <time name="dav">   30.46   30.53</time>
   <time name="total">   30.97   31.05</time>
   <energy>
    <i name="e_fr_energy">   -191.68879594 </i>
    <i name="e_wo_entrp">   -191.49004960 </i>
    <i name="e_0_energy">   -191.58942277 </i>
   </energy>
  </scstep>
  <scstep>
   <time name="dav">   28.85   28.92</time>
   <time name="total">   29.36   29.43</time>
   <energy>
    <i name="e_fr_energy">   -191.69362845 </i>
    <i name="e_wo_entrp">   -191.49520301 </i>
    <i name="e_0_energy">   -191.59441573 </i>
   </energy>
  </scstep>
  <scstep>
   <time name="dav">   28.99   29.06</time>
   <time name="total">   29.50   29.58</time>
   <energy>
    <i name="e_fr_energy">   -191.68322988 </i>
    <i name="e_wo_entrp">   -191.48229687 </i>
    <i name="e_0_energy">   -191.58276337 </i>
   </energy>
  </scstep>
  <scstep>
   <time name="dav">   28.63   28.70</time>
   <time name="total">   29.14   29.22</time>
   <energy>
    <i name="e_fr_energy">   -191.68325761 </i>
    <i name="e_wo_entrp">   -191.48288240 </i>
    <i name="e_0_energy">   -191.58307000 </i>
   </energy>
  </scstep>
  <scstep>
   <time name="dav">   28.64   28.71</time>
   <time name="total">   29.15   29.23</time>
   <energy>
    <i name="e_fr_energy">   -191.68308571 </i>
    <i name="e_wo_entrp">   -191.48087596 </i>
    <i name="e_0_energy">   -191.58198084 </i>
   </energy>
  </scstep>
  <scstep>
   <time name="dav">   25.82   25.88</time>
   <time name="total">   26.32   26.40</time>
   <energy>
    <i name="e_fr_energy">   -191.68219739 </i>
    <i name="e_wo_entrp">   -191.48097110 </i>
    <i name="e_0_energy">   -191.58158424 </i>
   </energy>
  </scstep>
  <scstep>
   <time name="dav">   18.70   18.75</time>
   <time name="total">   18.74   18.79</time>
   <energy>
    <i name="alphaZ">     90.23709408 </i>
    <i name="ewald">  44667.54618035 </i>
    <i name="hartreedc"> -50678.78565056 </i>
    <i name="XCdc">   -233.40369177 </i>
[...]
      <set comment="kpoint 31">
       <r>  -17.4918    1.0000 </r>
       <r>  -17.2884    1.0000 </r>
       <r>  -16.9105    1.0000 </r>
       <r>  -16.6656    1.0000 </r>
       <r>  -16.5009    1.0000 </r>
       <r>  -16.4276    1.0000 </r>
       <r>  -16.2812    1.0000 </r>
       <r>  -16.2220    1.0000 </r>
       <r>  -16.1541    1.0000 </r>
       <r>  -16.1013    1.0000 </r>
       <r>  -15.9194    1.0000 </r>
       <r>  -15.8189    1.0000 </r>
       <r>  -15.7499    1.0000 </r>
       <r>  -15.6651    1.0000 </r>
       <r>  -15.6077    1.0000 </r>
       <r>  -15.4951    1.0000 </r>
       <r>  -15.3614    1.0000 </r>
       <r>  -15.2770    1.0000 </r>
       <r>   -9.7627    1.0000 </r>
       <r>   -9.5048    1.0000 </r>
       <r>   -9.3174    1.0000 </r>
       <r>   -8.9721    1.0000 </r>
       <r>   -8.7988    1.0000 </r>
       <r>   -8.6446    1.0000 </r>
       <r>   -8.6054    1.0000 </r>
       <r>   -8.5043    1.0000 </r>
       <r>   -8.4093    1.0000 </r>
       <r>   -8.3477    1.0000 </r>
       <r>   -8.2757    1.0000 </r>
       <r>   -8.1761    1.0000 </r>
       <r>   -8.1019    1.0000 </r>
       <r>   -8.0591    1.0000 </r>
       <r>   -7.9963    1.0000 </r>
       <r>   -7.8987    1.0000 </r>
       <r>   -7.7815    1.0000 </r>
       <r>   -7.6936    1.0000 </r>
       <r>   -7.5513    1.0000 </r>
       <r>   -7.4357    1.0000 </r>
       <r>   -7.3625    1.0000 </r>
       <r>   -7.2542    1.0000 </r>
       <r>   -7.1001    1.0000 </r>
       <r>   -7.0406    1.0000 </r>
       <r>   -7.0168    1.0000 </r>
       <r>   -6.9634    1.0000 </r>
       <r>   -6.8396    1.0000 </r>
       <r>   -6.8074    1.0000 </r>
       <r>   -6.6830    1.0000 </r>
       <r>   -6.6178    1.0000 </r>
       <r>   -6.5306    1.0000 </r>
       <r>   -6.4583    1.0000 </r>
       <r>   -6.4345    1.0000 </r>
       <r>   -6.3103    1.0000 </r>
       <r>   -6.2815    1.0000 </r>
       <r>   -6.2014    1.0000 </r>
       <r>   -6.1300    1.0000 </r>
       <r>   -6.1148    1.0000 </r>
       <r>   -6.0480    1.0000 </r>
       <r>   -5.9242    1.0000 </r>
       <r>   -5.8630    1.0000 </r>
       <r>   -5.8155    1.0000 </r>
       <r>   -5.7499    1.0000 </r>
       <r>   -5.6741    1.0000 </r>
       <r>   -5.5324    1.0000 </r>
       <r>   -5.3368    1.0000 </r>
       <r>   -5.2276    1.0000 </r>
       <r>   -5.1814    1.0000 </r>
       <r>   -5.0978    1.0000 </r>
       <r>   -4.9375    1.0000 </r>
       <r>   -4.7738    1.0000 </r>
       <r>   -4.6508    1.0000 </r>
       <r>   -4.4982    1.0000 </r>
       <r>   -4.4390    1.0000 </r>
       <r>   -4.2977    1.0000 </r>
       <r>   -4.2522    1.0000 </r>
       <r>   -4.1687    1.0000 </r>
       <r>   -4.1054    1.0000 </r>
       <r>   -3.9199    1.0000 </r>
       <r>   -3.7570    0.9982 </r>
       <r>   -3.6267    0.9769 </r>
       <r>   -3.3793    0.5965 </r>
       <r>   -2.9237    0.0015 </r>
       <r>   -2.7705    0.0000 </r>
       <r>   -2.6714    0.0000 </r>
       <r>   -2.5903    0.0000 </r>
       <r>   -2.5189    0.0000 </r>
       <r>   -2.4106    0.0000 </r>
       <r>   -2.3178    0.0000 </r>
       <r>   -2.2464    0.0000 </r>
       <r>   -2.1011    0.0000 </r>
       <r>   -2.0212    0.0000 </r>
       <r>   -1.7376    0.0000 </r>
       <r>   -1.4708    0.0000 </r>
       <r>   -1.3765    0.0000 </r>
       <r>   -1.3121    0.0000 </r>
       <r>   -1.2539    0.0000 </r>
       <r>   -1.1378    0.0000 </r>
       <r>   -1.1188    0.0000 </r>
       <r>   -1.0085    0.0000 </r>
       <r>   -0.9506    0.0000 </r>
       <r>   -0.8679    0.0000 </r>
       <r>   -0.7968    0.0000 </r>
       <r>   -0.7357    0.0000 </r>
       <r>   -0.6844    0.0000 </r>
       <r>   -0.5486    0.0000 </r>
       <r>   -0.4645    0.0000 </r>
       <r>   -0.2927    0.0000 </r>
       <r>   -0.2283    0.0000 </r>
       <r>   -0.1089    0.0000 </r>
       <r>    0.0188    0.0000 </r>
       <r>    0.2077    0.0000 </r>
       <r>    0.3291    0.0000 </r>
       <r>    0.5139    0.0000 </r>
       <r>    0.7656    0.0000 </r>
       <r>    0.8669    0.0000 </r>
       <r>    1.0653    0.0000 </r>
       <r>    1.2507    0.0000 </r>
       <r>    1.3984    0.0000 </r>
       <r>    2.1292    0.0000 </r>
       <r>    2.2914    0.0000 </r>
       <r>    2.3962    0.0000 </r>
      </set>
      <set comment="kpoint 32">
       <r>  -17.5264    1.0000 </r>
       <r>  -17.1670    1.0000 </r>
       <r>  -17.0513    1.0000 </r>
       <r>  -16.6718    1.0000 </r>
       <r>  -16.4192    1.0000 </r>
       <r>  -16.3310    1.0000 </r>
       <r>  -16.3058    1.0000 </r>
       <r>  -16.2559    1.0000 </r>
       <r>  -16.1932    1.0000 </r>
       <r>  -16.0847    1.0000 </r>
       <r>  -15.9421    1.0000 </r>
       <r>  -15.8408    1.0000 </r>
       <r>  -15.7552    1.0000 </r>
       <r>  -15.6743    1.0000 </r>
       <r>  -15.6110    1.0000 </r>
       <r>  -15.4813    1.0000 </r>
       <r>  -15.3555    1.0000 </r>
       <r>  -15.2749    1.0000 </r>
       <r>   -9.6465    1.0000 </r>
       <r>   -9.5847    1.0000 </r>
       <r>   -9.4011    1.0000 </r>
       <r>   -9.0118    1.0000 </r>
       <r>   -8.7487    1.0000 </r>
       <r>   -8.5683    1.0000 </r>
       <r>   -8.4954    1.0000 </r>
       <r>   -8.4611    1.0000 </r>
       <r>   -8.3909    1.0000 </r>
       <r>   -8.3534    1.0000 </r>
       <r>   -8.2913    1.0000 </r>
       <r>   -8.2058    1.0000 </r>
       <r>   -8.1396    1.0000 </r>
       <r>   -8.0945    1.0000 </r>
       <r>   -8.0489    1.0000 </r>
       <r>   -7.9698    1.0000 </r>
       <r>   -7.7990    1.0000 </r>
       <r>   -7.6489    1.0000 </r>
       <r>   -7.5046    1.0000 </r>
       <r>   -7.4204    1.0000 </r>
       <r>   -7.3887    1.0000 </r>
       <r>   -7.3229    1.0000 </r>
       <r>   -7.1245    1.0000 </r>
       <r>   -7.0499    1.0000 </r>
       <r>   -6.9869    1.0000 </r>
       <r>   -6.9495    1.0000 </r>
       <r>   -6.8546    1.0000 </r>
       <r>   -6.7841    1.0000 </r>
       <r>   -6.7257    1.0000 </r>
       <r>   -6.6150    1.0000 </r>
       <r>   -6.5205    1.0000 </r>
       <r>   -6.4680    1.0000 </r>
       <r>   -6.4283    1.0000 </r>
       <r>   -6.3413    1.0000 </r>
       <r>   -6.3239    1.0000 </r>
       <r>   -6.1748    1.0000 </r>
       <r>   -6.1350    1.0000 </r>
       <r>   -6.1024    1.0000 </r>
       <r>   -5.9718    1.0000 </r>
       <r>   -5.9019    1.0000 </r>
       <r>   -5.8644    1.0000 </r>
       <r>   -5.7726    1.0000 </r>
       <r>   -5.6708    1.0000 </r>
       <r>   -5.6389    1.0000 </r>
       <r>   -5.5214    1.0000 </r>
       <r>   -5.4257    1.0000 </r>
       <r>   -5.3069    1.0000 </r>
       <r>   -5.1689    1.0000 </r>
       <r>   -5.0689    1.0000 </r>
       <r>   -4.9610    1.0000 </r>
       <r>   -4.7760    1.0000 </r>
       <r>   -4.6564    1.0000 </r>
       <r>   -4.5240    1.0000 </r>
       <r>   -4.4188    1.0000 </r>
       <r>   -4.3143    1.0000 </r>
       <r>   -4.2511    1.0000 </r>
       <r>   -4.1625    1.0000 </r>
       <r>   -4.1004    1.0000 </r>
       <r>   -3.9920    1.0000 </r>
       <r>   -3.8012    0.9994 </r>
       <r>   -3.5228    0.8960 </r>
       <r>   -3.3724    0.5774 </r>
       <r>   -3.0260    0.0121 </r>
       <r>   -2.7369    0.0000 </r>
       <r>   -2.6142    0.0000 </r>
       <r>   -2.5574    0.0000 </r>
       <r>   -2.4701    0.0000 </r>
       <r>   -2.3833    0.0000 </r>
       <r>   -2.2825    0.0000 </r>
       <r>   -2.2174    0.0000 </r>
       <r>   -2.0837    0.0000 </r>
       <r>   -2.0104    0.0000 </r>
       <r>   -1.8228    0.0000 </r>
       <r>   -1.4970    0.0000 </r>
       <r>   -1.4159    0.0000 </r>
       <r>   -1.3256    0.0000 </r>
       <r>   -1.2542    0.0000 </r>
       <r>   -1.1509    0.0000 </r>
       <r>   -1.0806    0.0000 </r>
       <r>   -1.0401    0.0000 </r>
       <r>   -0.9770    0.0000 </r>
       <r>   -0.9045    0.0000 </r>
       <r>   -0.8126    0.0000 </r>
       <r>   -0.7510    0.0000 </r>
       <r>   -0.6619    0.0000 </r>
       <r>   -0.5563    0.0000 </r>
       <r>   -0.4503    0.0000 </r>
       <r>   -0.2681    0.0000 </r>
       <r>   -0.2279    0.0000 </r>
       <r>   -0.1409    0.0000 </r>
       <r>    0.0105    0.0000 </r>
       <r>    0.2253    0.0000 </r>
       <r>    0.3095    0.0000 </r>
       <r>    0.5310    0.0000 </r>
       <r>    0.8214    0.0000 </r>
       <r>    0.8835    0.0000 </r>
       <r>    1.0438    0.0000 </r>
       <r>    1.2385    0.0000 </r>
       <r>    1.3427    0.0000 </r>
       <r>    2.0930    0.0000 </r>
       <r>    2.2613    0.0000 </r>
       <r>    2.5561    0.0000 </r>
      </set>
      <set comment="kpoint 33">
       <r>  -17.5287    1.0000 </r>
       <r>  -17.2313    1.0000 </r>
       <r>  -16.9318    1.0000 </r>
       <r>  -16.6772    1.0000 </r>
       <r>  -16.5042    1.0000 </r>
       <r>  -16.3601    1.0000 </r>
       <r>  -16.3268    1.0000 </r>
       <r>  -16.2420    1.0000 </r>
       <r>  -16.1014    1.0000 </r>
       <r>  -16.0552    1.0000 </r>
       <r>  -15.9624    1.0000 </r>
       <r>  -15.8527    1.0000 </r>
       <r>  -15.7677    1.0000 </r>
       <r>  -15.6860    1.0000 </r>
       <r>  -15.5927    1.0000 </r>
       <r>  -15.4719    1.0000 </r>
       <r>  -15.3834    1.0000 </r>
       <r>  -15.2703    1.0000 </r>
       <r>   -9.6971    1.0000 </r>
       <r>   -9.4475    1.0000 </r>
       <r>   -9.3231    1.0000 </r>
       <r>   -9.0627    1.0000 </r>
       <r>   -8.9090    1.0000 </r>
       <r>   -8.7365    1.0000 </r>
       <r>   -8.4588    1.0000 </r>
       <r>   -8.4287    1.0000 </r>
       <r>   -8.3911    1.0000 </r>
       <r>   -8.3070    1.0000 </r>
       <r>   -8.2429    1.0000 </r>
       <r>   -8.2046    1.0000 </r>
       <r>   -8.1519    1.0000 </r>
       <r>   -8.0723    1.0000 </r>
       <r>   -8.0488    1.0000 </r>
       <r>   -7.8647    1.0000 </r>
       <r>   -7.7787    1.0000 </r>
       <r>   -7.6806    1.0000 </r>
       <r>   -7.4967    1.0000 </r>
       <r>   -7.4504    1.0000 </r>
       <r>   -7.3765    1.0000 </r>
       <r>   -7.2391    1.0000 </r>
       <r>   -7.1599    1.0000 </r>
       <r>   -7.0894    1.0000 </r>
       <r>   -7.0241    1.0000 </r>
       <r>   -6.9666    1.0000 </r>
       <r>   -6.8717    1.0000 </r>
       <r>   -6.7841    1.0000 </r>
       <r>   -6.6500    1.0000 </r>
       <r>   -6.6000    1.0000 </r>
       <r>   -6.5402    1.0000 </r>
       <r>   -6.4495    1.0000 </r>
       <r>   -6.4192    1.0000 </r>
       <r>   -6.3623    1.0000 </r>
       <r>   -6.2956    1.0000 </r>
       <r>   -6.2042    1.0000 </r>
       <r>   -6.1205    1.0000 </r>
       <r>   -6.0952    1.0000 </r>
       <r>   -6.0334    1.0000 </r>
       <r>   -5.9295    1.0000 </r>
       <r>   -5.8858    1.0000 </r>
       <r>   -5.8165    1.0000 </r>
       <r>   -5.7329    1.0000 </r>
       <r>   -5.6314    1.0000 </r>
       <r>   -5.5912    1.0000 </r>
       <r>   -5.4197    1.0000 </r>
       <r>   -5.2944    1.0000 </r>
       <r>   -5.0839    1.0000 </r>
       <r>   -5.0195    1.0000 </r>
       <r>   -4.8110    1.0000 </r>
       <r>   -4.7591    1.0000 </r>
       <r>   -4.6290    1.0000 </r>
       <r>   -4.5485    1.0000 </r>
       <r>   -4.4554    1.0000 </r>
       <r>   -4.3419    1.0000 </r>
       <r>   -4.2334    1.0000 </r>
       <r>   -4.1560    1.0000 </r>
       <r>   -4.1243    1.0000 </r>
       <r>   -4.0527    1.0000 </r>
       <r>   -3.8689    0.9999 </r>
       <r>   -3.4777    0.8263 </r>
       <r>   -3.3404    0.4877 </r>
       <r>   -3.1247    0.0599 </r>
       <r>   -2.6994    0.0000 </r>
       <r>   -2.5806    0.0000 </r>
       <r>   -2.5228    0.0000 </r>
       <r>   -2.4059    0.0000 </r>
       <r>   -2.3757    0.0000 </r>
       <r>   -2.2486    0.0000 </r>
       <r>   -2.1924    0.0000 </r>
       <r>   -2.0823    0.0000 </r>
       <r>   -1.9643    0.0000 </r>
       <r>   -1.8736    0.0000 </r>
       <r>   -1.5241    0.0000 </r>
       <r>   -1.4536    0.0000 </r>
       <r>   -1.3360    0.0000 </r>
       <r>   -1.2794    0.0000 </r>
       <r>   -1.1714    0.0000 </r>
       <r>   -1.0809    0.0000 </r>
       <r>   -1.0126    0.0000 </r>
       <r>   -0.9540    0.0000 </r>
       <r>   -0.9249    0.0000 </r>
       <r>   -0.8885    0.0000 </r>
       <r>   -0.7705    0.0000 </r>
       <r>   -0.6790    0.0000 </r>
       <r>   -0.5528    0.0000 </r>
       <r>   -0.4860    0.0000 </r>
       <r>   -0.2970    0.0000 </r>
       <r>   -0.1893    0.0000 </r>
       <r>   -0.1116    0.0000 </r>
       <r>    0.0094    0.0000 </r>
       <r>    0.1415    0.0000 </r>
       <r>    0.3732    0.0000 </r>
       <r>    0.5335    0.0000 </r>
       <r>    0.8156    0.0000 </r>
       <r>    0.9368    0.0000 </r>
       <r>    1.0273    0.0000 </r>
       <r>    1.2711    0.0000 </r>
       <r>    1.3508    0.0000 </r>
       <r>    2.1175    0.0000 </r>
       <r>    2.2869    0.0000 </r>
       <r>    2.3637    0.0000 </r>
      </set>
      <set comment="kpoint 34">
       <r>  -17.5216    1.0000 </r>
       <r>  -17.2788    1.0000 </r>
       <r>  -16.7853    1.0000 </r>
       <r>  -16.6803    1.0000 </r>
       <r>  -16.6501    1.0000 </r>
       <r>  -16.3452    1.0000 </r>
       <r>  -16.3311    1.0000 </r>
       <r>  -16.2617    1.0000 </r>
       <r>  -16.0619    1.0000 </r>
       <r>  -16.0126    1.0000 </r>
       <r>  -15.9670    1.0000 </r>
       <r>  -15.8590    1.0000 </r>
       <r>  -15.7829    1.0000 </r>
       <r>  -15.6877    1.0000 </r>
       <r>  -15.5840    1.0000 </r>
       <r>  -15.4566    1.0000 </r>
       <r>  -15.4124    1.0000 </r>
       <r>  -15.2695    1.0000 </r>
       <r>   -9.7326    1.0000 </r>
       <r>   -9.2719    1.0000 </r>
       <r>   -9.2590    1.0000 </r>
       <r>   -9.1060    1.0000 </r>
       <r>   -9.0294    1.0000 </r>
       <r>   -8.8965    1.0000 </r>
       <r>   -8.4643    1.0000 </r>
       <r>   -8.4187    1.0000 </r>
       <r>   -8.4052    1.0000 </r>
       <r>   -8.2730    1.0000 </r>
       <r>   -8.2370    1.0000 </r>
       <r>   -8.1659    1.0000 </r>
       <r>   -8.1374    1.0000 </r>
       <r>   -8.1159    1.0000 </r>
       <r>   -7.9502    1.0000 </r>
       <r>   -7.8963    1.0000 </r>
       <r>   -7.8022    1.0000 </r>
       <r>   -7.5499    1.0000 </r>
       <r>   -7.4955    1.0000 </r>
       <r>   -7.4154    1.0000 </r>
       <r>   -7.3774    1.0000 </r>
       <r>   -7.3018    1.0000 </r>
       <r>   -7.1662    1.0000 </r>
       <r>   -7.1155    1.0000 </r>
       <r>   -7.0560    1.0000 </r>
       <r>   -6.9728    1.0000 </r>
       <r>   -6.8676    1.0000 </r>
       <r>   -6.7882    1.0000 </r>
       <r>   -6.6152    1.0000 </r>
       <r>   -6.5432    1.0000 </r>
       <r>   -6.5258    1.0000 </r>
       <r>   -6.4547    1.0000 </r>
       <r>   -6.4191    1.0000 </r>
       <r>   -6.3360    1.0000 </r>
       <r>   -6.2667    1.0000 </r>
       <r>   -6.2319    1.0000 </r>
       <r>   -6.2260    1.0000 </r>
       <r>   -6.1121    1.0000 </r>
       <r>   -6.0480    1.0000 </r>
       <r>   -5.9440    1.0000 </r>
       <r>   -5.8950    1.0000 </r>
       <r>   -5.8460    1.0000 </r>
       <r>   -5.7489    1.0000 </r>
       <r>   -5.6589    1.0000 </r>
       <r>   -5.5655    1.0000 </r>
       <r>   -5.5132    1.0000 </r>
       <r>   -5.2214    1.0000 </r>
       <r>   -5.0933    1.0000 </r>
       <r>   -4.9136    1.0000 </r>
       <r>   -4.7530    1.0000 </r>
       <r>   -4.6821    1.0000 </r>
       <r>   -4.6309    1.0000 </r>
       <r>   -4.5535    1.0000 </r>
       <r>   -4.5126    1.0000 </r>
       <r>   -4.3533    1.0000 </r>
       <r>   -4.2269    1.0000 </r>
       <r>   -4.1703    1.0000 </r>
       <r>   -4.1465    1.0000 </r>
       <r>   -4.0556    1.0000 </r>
       <r>   -3.8991    1.0000 </r>
       <r>   -3.4717    0.8152 </r>
       <r>   -3.3419    0.4920 </r>
       <r>   -3.1536    0.0882 </r>
       <r>   -2.6856    0.0000 </r>
       <r>   -2.5441    0.0000 </r>
       <r>   -2.5316    0.0000 </r>
       <r>   -2.3828    0.0000 </r>
       <r>   -2.3728    0.0000 </r>
       <r>   -2.2427    0.0000 </r>
       <r>   -2.1664    0.0000 </r>
       <r>   -2.0942    0.0000 </r>
       <r>   -1.9374    0.0000 </r>
       <r>   -1.8833    0.0000 </r>
       <r>   -1.5406    0.0000 </r>
       <r>   -1.4604    0.0000 </r>
       <r>   -1.3389    0.0000 </r>
       <r>   -1.2945    0.0000 </r>
       <r>   -1.1914    0.0000 </r>
       <r>   -1.0463    0.0000 </r>
       <r>   -0.9931    0.0000 </r>
       <r>   -0.9696    0.0000 </r>
       <r>   -0.9586    0.0000 </r>
       <r>   -0.9020    0.0000 </r>
       <r>   -0.7573    0.0000 </r>
       <r>   -0.7163    0.0000 </r>
       <r>   -0.5478    0.0000 </r>
       <r>   -0.5021    0.0000 </r>
       <r>   -0.3593    0.0000 </r>
       <r>   -0.1210    0.0000 </r>
       <r>   -0.0663    0.0000 </r>
       <r>   -0.0197    0.0000 </r>
       <r>    0.0959    0.0000 </r>
       <r>    0.4121    0.0000 </r>
       <r>    0.5049    0.0000 </r>
       <r>    0.8212    0.0000 </r>
       <r>    0.9371    0.0000 </r>
       <r>    1.0494    0.0000 </r>
       <r>    1.2821    0.0000 </r>
       <r>    1.3808    0.0000 </r>
       <r>    2.1844    0.0000 </r>
       <r>    2.2250    0.0000 </r>
       <r>    2.3658    0.0000 </r>
      </set>
     </set>
    </set>
   </array>
  </eigenvalues>
  <separator name="orbital magnetization" >
   <v name="MAGDIPOLOUT">      0.00000000      0.00000000      0.00000000</v>
  </separator>
 </calculation>
 <structure name="finalpos" >
  <crystal>
   <varray name="basis" >
    <v>       8.38982271       4.82672536       0.00000000 </v>
    <v>      -8.37957071       4.80869209       0.00000000 </v>
    <v>       0.00000000       0.00000000      30.00000000 </v>
   </varray>
   <i name="volume">   2423.69881417 </i>
   <varray name="rec_basis" >
    <v>       0.05952091       0.10372045       0.00000000 </v>
    <v>      -0.05974412       0.10384734       0.00000000 </v>
    <v>       0.00000000       0.00000000       0.03333333 </v>
   </varray>
  </crystal>
  <varray name="positions" >
   <v>       0.65049206       0.35373542      -0.00172426 </v>
   <v>      -0.02256794       0.68412601      -0.00196654 </v>
   <v>       0.34845580      -0.02435506       0.00294683 </v>
   <v>      -0.03246611      -0.01086031      -0.00096645 </v>
   <v>       0.66254274       0.67452225      -0.00068613 </v>
   <v>       0.35173564       0.65797763       0.00095829 </v>
   <v>       1.03201382       0.33020894       0.00211227 </v>
   <v>       0.34324600       0.36081542      -0.00038851 </v>
   <v>       0.66026949      -0.02970651       0.00027777 </v>
   <v>       0.11714615       0.22150057       0.94669314 </v>
   <v>       0.22472500       0.10600143       0.04048904 </v>
   <v>       0.10688958       0.55894093       0.95576640 </v>
   <v>       0.22995549       0.44550810       0.05767993 </v>
   <v>       0.11613770       0.89277779       0.95201648 </v>
   <v>       0.21384452       0.76864758       0.04810659 </v>
   <v>       0.44432719       0.21857879       0.95189299 </v>
   <v>       0.56036381       0.11595670       0.04730456 </v>
   <v>       0.44837654       0.55655695       0.94308172 </v>
   <v>       0.55628622       0.44682753       0.05308160 </v>
   <v>       0.44357575       0.88303588       0.94756390 </v>
   <v>       0.55585703       0.77578591       0.05723941 </v>
   <v>       0.77822387       0.22561367       0.95915855 </v>
   <v>       0.88365756       0.11164598       0.05366182 </v>
   <v>       0.77763634       0.55876317       0.94725167 </v>
   <v>       0.89036430       0.45045733       0.04314370 </v>
   <v>       0.77150971       0.88572680       0.94250405 </v>
   <v>       0.88561619       0.77942557       0.05280106 </v>
  </varray>
 </structure>
</modeling>
