unknown system                          
           1
     8.860054    5.103100    0.000000
    -8.859761    5.102596    0.000000
     0.000000    0.000000   30.000000
   V    Mo   W    S 
   3   3   3  18
Direct configuration=     1
   0.66666669  0.33333334  0.00000000
   0.00000000  0.66666669  0.00000000
   0.33333334  0.00000000  0.00000000
   0.00000000  0.00000000  0.00000000
   0.66666669  0.66666669  0.00000000
   0.33333334  0.66666669  0.00000000
   1.00000000  0.33333334  0.00000000
   0.33333334  0.33333334  0.00000000
   0.66666669  0.00000000  0.00000000
   0.11068511  0.22244981  0.95539999
   0.22244981  0.11068511  0.04460000
   0.11068511  0.55578315  0.95539999
   0.22244981  0.44401845  0.04460000
   0.11068511  0.88911647  0.95539999
   0.22244981  0.77735180  0.04460000
   0.44401845  0.22244981  0.95539999
   0.55578315  0.11068511  0.04460000
   0.44401845  0.55578315  0.95539999
   0.55578315  0.44401845  0.04460000
   0.44401845  0.88911647  0.95539999
   0.55578315  0.77735180  0.04460000
   0.77735180  0.22244981  0.95539999
   0.88911647  0.11068511  0.04460000
   0.77735180  0.55578315  0.95539999
   0.88911647  0.44401845  0.04460000
   0.77735180  0.88911647  0.95539999
   0.88911647  0.77735180  0.04460000
unknown system                          
           1
     8.670009    4.996547    0.000000
    -8.669747    4.996097    0.000000
     0.000000    0.000000   30.000000
   V    Mo   W    S 
   3   3   3  18
Direct configuration=     2
   0.66670755  0.33456207 -0.00001712
   0.00000305  0.66794025 -0.00002275
   0.33212180 -0.00128502  0.00004464
  -0.00131063 -0.00141984 -0.00016975
   0.66683967  0.66794834 -0.00024392
   0.33451990  0.66661316  0.00021600
   1.00128765  0.33371185  0.00021141
   0.33363231  0.33447289 -0.00021980
   0.66626902 -0.00284027  0.00026702
   0.11158068  0.22281839  0.95069568
   0.22499465  0.10955147  0.04793052
   0.10812154  0.55693644  0.95204364
   0.22153809  0.44365704  0.04934465
   0.11315982  0.88659285  0.95302623
   0.21997050  0.77987402  0.04693497
   0.44605488  0.22040600  0.95304905
   0.55372476  0.11275649  0.04690092
   0.44397889  0.55437851  0.95074401
   0.55693694  0.44148959  0.04796851
   0.44286806  0.89174179  0.95201312
   0.55584735  0.77881879  0.04930896
   0.77570378  0.22415985  0.95206093
   0.88823622  0.11159358  0.04925057
   0.77982000  0.55327968  0.95306723
   0.88703407  0.44604670  0.04694329
   0.77735283  0.88916337  0.95065021
   0.89122106  0.77524648  0.04800169
unknown system                          
           1
     8.489035    4.897357    0.000000
    -8.489306    4.897831    0.000000
     0.000000    0.000000   30.000000
   V    Mo   W    S 
   3   3   3  18
Direct configuration=     3
   0.66667970  0.33487786 -0.00002509
  -0.00002596  0.66828963 -0.00002551
   0.33182177 -0.00158454  0.00009556
  -0.00204911 -0.00168658 -0.00014159
   0.66673583  0.66872966 -0.00025862
   0.33509306  0.66633608  0.00019040
   1.00199322  0.33372923  0.00016568
   0.33344149  0.33500760 -0.00023058
   0.66630648 -0.00392285  0.00027433
   0.11168135  0.22305456  0.95068122
   0.22514828  0.10975186  0.04784309
   0.10797408  0.55674157  0.95212156
   0.22146467  0.44341819  0.04942281
   0.11318607  0.88653022  0.95302299
   0.21992812  0.77991700  0.04689024
   0.44595027  0.22049852  0.95313254
   0.55381746  0.11264330  0.04676595
   0.44386540  0.55415771  0.95064094
   0.55675244  0.44136474  0.04793117
   0.44307850  0.89190747  0.95204728
   0.55600001  0.77903457  0.04946769
   0.77578747  0.22404060  0.95221631
   0.88811342  0.11168036  0.04927552
   0.77986480  0.55326454  0.95310477
   0.88713852  0.44597458  0.04685847
   0.77720036  0.88929140  0.95050333
   0.89126673  0.77516719  0.04802945
unknown system                          
           1
     8.286752    4.768133    0.000000
    -8.288133    4.770530    0.000000
     0.000000    0.000000   30.000000
   V    Mo   W    S 
   3   3   3  18
Direct configuration=     4
   0.66648382  0.33587062 -0.00004232
  -0.00022018  0.66934087 -0.00002634
   0.33096133 -0.00242607  0.00026869
  -0.00520156 -0.00216646  0.00001058
   0.66594643  0.67209352 -0.00021128
   0.33742368  0.66465802  0.00004336
   1.00511547  0.33349778 -0.00006640
   0.33208877  0.33726144 -0.00015575
   0.66689437 -0.00800861  0.00018967
   0.11168851  0.22308237  0.94897825
   0.22566557  0.10946019  0.04889864
   0.10755071  0.55725900  0.95099172
   0.22165849  0.44333323  0.05140614
   0.11362336  0.88597533  0.95169938
   0.21942246  0.78028295  0.04800166
   0.44627117  0.22002172  0.95211105
   0.55348111  0.11294318  0.04756330
   0.44394988  0.55418824  0.94861220
   0.55723371  0.44108000  0.04919783
   0.44274236  0.89246547  0.95075673
   0.55611053  0.77886439  0.05174186
   0.77535369  0.22414838  0.95141368
   0.88799723  0.11171726  0.05099705
   0.78040501  0.55296328  0.95194300
   0.88685931  0.44650090  0.04786398
   0.77702188  0.88938617  0.94826700
   0.89168734  0.77442131  0.04954624
unknown system                          
           1
     8.311305    4.768246    0.000000
    -8.313135    4.771415    0.000000
     0.000000    0.000000   30.000000
   V    Mo   W    S 
   3   3   3  18
Direct configuration=     5
   0.66550201  0.33764798 -0.00007230
  -0.00120649  0.67092905 -0.00002756
   0.33014251 -0.00321778  0.00048780
  -0.01178589 -0.00303834  0.00018606
   0.66444661  0.67872140 -0.00006313
   0.34190187  0.66066622 -0.00011485
   1.01187789  0.33336051 -0.00034196
   0.32940636  0.34191478  0.00002140
   0.66795931 -0.01584781  0.00001075
   0.11192267  0.22218031  0.94655458
   0.22547176  0.10927692  0.05006097
   0.10798249  0.55821728  0.94964178
   0.22215161  0.44393333  0.05433179
   0.11350886  0.88564865  0.94989128
   0.21919827  0.77991500  0.04947678
   0.44616876  0.21966138  0.95074442
   0.55345852  0.11267136  0.04857613
   0.44491483  0.55449084  0.94568274
   0.55774495  0.44177329  0.05070402
   0.44253710  0.89232936  0.94921431
   0.55589072  0.77826860  0.05504131
   0.77505792  0.22350727  0.95076474
   0.88749201  0.11168582  0.05331012
   0.78074971  0.55356121  0.95029945
   0.88714378  0.44715321  0.04912074
   0.77706781  0.88899860  0.94493405
   0.89150848  0.77380602  0.05156447
unknown system                          
           1
     8.302593    4.761298    0.000000
    -8.303660    4.763138    0.000000
     0.000000    0.000000   30.000000
   V    Mo   W    S 
   3   3   3  18
Direct configuration=     6
   0.66456827  0.33819311 -0.00013207
  -0.00195519  0.67132179 -0.00002812
   0.33049264 -0.00305962  0.00055527
  -0.01280000 -0.00320045  0.00004091
   0.66482192  0.67902908 -0.00018075
   0.34186708  0.65958925  0.00002848
   1.01370117  0.33359314 -0.00025103
   0.32918056  0.34276400 -0.00013527
   0.66786259 -0.01669022  0.00008084
   0.11213962  0.22158255  0.94641388
   0.22466707  0.10960469  0.04981652
   0.10888140  0.55825581  0.94982002
   0.22233235  0.44433473  0.05468960
   0.11303272  0.88595545  0.95000199
   0.21953234  0.77929530  0.04927958
   0.44564421  0.21998400  0.95083296
   0.55399640  0.11210120  0.04838987
   0.44569820  0.55453296  0.94551294
   0.55749292  0.44260823  0.05066292
   0.44282515  0.89153204  0.94933064
   0.55549508  0.77805558  0.05528936
   0.77549278  0.22282376  0.95118287
   0.88709058  0.11180844  0.05335148
   0.78044042  0.55427203  0.95033924
   0.88768896  0.44697058  0.04890177
   0.77718340  0.88876847  0.94464266
   0.89084183  0.77418857  0.05156334
unknown system                          
           1
     8.313010    4.764314    0.000000
    -8.313757    4.765594    0.000000
     0.000000    0.000000   30.000000
   V    Mo   W    S 
   3   3   3  18
Direct configuration=     7
   0.66305064  0.33922189 -0.00017471
  -0.00306255  0.67209426  0.00001622
   0.33100912 -0.00310207  0.00070174
  -0.01509450 -0.00363269 -0.00000082
   0.66499124  0.68037461 -0.00015055
   0.34256882  0.65772569  0.00006248
   1.01703129  0.33394338 -0.00024037
   0.32864905  0.34464166 -0.00014805
   0.66774163 -0.01917287  0.00003144
   0.11230017  0.22107818  0.94602185
   0.22403843  0.10985715  0.04959273
   0.10960429  0.55834531  0.94990565
   0.22270506  0.44450291  0.05535061
   0.11267905  0.88619892  0.94993743
   0.21973222  0.77873251  0.04919050
   0.44518259  0.22019002  0.95075053
   0.55448752  0.11172039  0.04828195
   0.44638546  0.55469955  0.94504958
   0.55732809  0.44325836  0.05078566
   0.44291152  0.89075454  0.94931823
   0.55531442  0.77765600  0.05579530
   0.77593562  0.22238841  0.95166522
   0.88684820  0.11193688  0.05358836
   0.78028043  0.55485032  0.95014096
   0.88813308  0.44680348  0.04871462
   0.77707965  0.88864560  0.94404882
   0.89038393  0.77450204  0.05176451
unknown system                          
           1
     8.321847    4.765370    0.000000
    -8.321762    4.765198    0.000000
     0.000000    0.000000   30.000000
   V    Mo   W    S 
   3   3   3  18
Direct configuration=     8
   0.66226087  0.33971167 -0.00022295
  -0.00356919  0.67247084  0.00002095
   0.33137718 -0.00321136  0.00078329
  -0.01569043 -0.00386649 -0.00004587
   0.66526512  0.68041967 -0.00018957
   0.34258135  0.65723696  0.00010153
   1.01805814  0.33413359 -0.00020880
   0.32874828  0.34515615 -0.00020193
   0.66749572 -0.01976202  0.00004010
   0.11241177  0.22092880  0.94599664
   0.22384507  0.10995741  0.04940726
   0.10980258  0.55831798  0.95002379
   0.22283228  0.44454009  0.05549625
   0.11259259  0.88629501  0.95002008
   0.21977108  0.77855073  0.04906500
   0.44503754  0.22027168  0.95079017
   0.55469157  0.11167809  0.04816660
   0.44663124  0.55473476  0.94500779
   0.55722178  0.44340602  0.05081335
   0.44291264  0.89045303  0.94937100
   0.55524253  0.77752082  0.05583930
   0.77614768  0.22235290  0.95196317
   0.88676622  0.11201949  0.05354510
   0.78025642  0.55497483  0.95013215
   0.88822731  0.44667572  0.04853283
   0.77702327  0.88857561  0.94397563
   0.89027386  0.77467246  0.05177705
unknown system                          
           1
     8.323415    4.765871    0.000000
    -8.323084    4.765269    0.000000
     0.000000    0.000000   30.000000
   V    Mo   W    S 
   3   3   3  18
Direct configuration=     9
   0.66061647  0.34079336 -0.00031099
  -0.00461630  0.67332360  0.00003547
   0.33213057 -0.00355527  0.00095873
  -0.01721598 -0.00442859 -0.00010443
   0.66574700  0.68083381 -0.00021925
   0.34286251  0.65616638  0.00015084
   1.02037453  0.33449583 -0.00016348
   0.32885864  0.34644096 -0.00025915
   0.66703780 -0.02132412  0.00002600
   0.11261388  0.22059992  0.94586001
   0.22346965  0.11010653  0.04907611
   0.11019434  0.55832865  0.95020457
   0.22313844  0.44461182  0.05586788
   0.11242457  0.88648245  0.95010361
   0.21981897  0.77815742  0.04889278
   0.44473188  0.22038459  0.95079445
   0.55509027  0.11159769  0.04799454
   0.44710654  0.55485184  0.94480810
   0.55704072  0.44369869  0.05093696
   0.44289004  0.88987150  0.94940340
   0.55513402  0.77720835  0.05604265
   0.77651277  0.22226477  0.95252418
   0.88660368  0.11213410  0.05354255
   0.78024750  0.55525642  0.95001863
   0.88841656  0.44646572  0.04822526
   0.77690050  0.88845824  0.94371118
   0.89008487  0.77498983  0.05187928
unknown system                          
           1
     8.309999    4.759100    0.000000
    -8.311068    4.760943    0.000000
     0.000000    0.000000   30.000000
   V    Mo   W    S 
   3   3   3  18
Direct configuration=    10
   0.66021099  0.34107085 -0.00033450
  -0.00487734  0.67353530  0.00003666
   0.33235582 -0.00368453  0.00100491
  -0.01754339 -0.00457941 -0.00011653
   0.66586489  0.68084990 -0.00022301
   0.34292497  0.65597133  0.00015944
   1.02085400  0.33457817 -0.00015045
   0.32894451  0.34673755 -0.00026791
   0.66688916 -0.02165116  0.00002000
   0.11266451  0.22054138  0.94584560
   0.22341002  0.11013169  0.04898546
   0.11025659  0.55832896  0.95025411
   0.22321257  0.44461438  0.05593349
   0.11240153  0.88652657  0.95012965
   0.21981198  0.77806778  0.04885247
   0.44466535  0.22040083  0.95079830
   0.55518475  0.11160893  0.04795341
   0.44720209  0.55488541  0.94477582
   0.55699992  0.44374040  0.05096943
   0.44287591  0.88975575  0.94940749
   0.55512653  0.77713654  0.05607059
   0.77658563  0.22227838  0.95266621
   0.88657584  0.11215682  0.05352673
   0.78025627  0.55530727  0.94998947
   0.88844127  0.44641242  0.04814216
   0.77685975  0.88843319  0.94366972
   0.89006035  0.77505977  0.05190115
unknown system                          
           1
     8.333239    4.769393    0.000000
    -8.331630    4.766559    0.000000
     0.000000    0.000000   30.000000
   V    Mo   W    S 
   3   3   3  18
Direct configuration=    11
   0.66116846  0.34046076 -0.00025648
  -0.00432992  0.67302594  0.00005799
   0.33160375 -0.00312387  0.00087938
  -0.01686573 -0.00418294 -0.00009627
   0.66554622  0.68096848 -0.00020945
   0.34271189  0.65593882  0.00014723
   1.02023058  0.33450339 -0.00018508
   0.32845123  0.34617138 -0.00024951
   0.66734006 -0.02109807  0.00003573
   0.11249415  0.22065415  0.94583474
   0.22348962  0.11012358  0.04926210
   0.11016895  0.55832618  0.95011641
   0.22300891  0.44460178  0.05582512
   0.11243633  0.88637868  0.95004872
   0.21987587  0.77830721  0.04892539
   0.44481255  0.22034048  0.95077806
   0.55493605  0.11146714  0.04803914
   0.44701942  0.55480902  0.94483485
   0.55710011  0.44369613  0.05084225
   0.44295619  0.89001997  0.94944928
   0.55509649  0.77731948  0.05602694
   0.77648813  0.22216150  0.95230122
   0.88666567  0.11216031  0.05359304
   0.78026044  0.55522025  0.95008678
   0.88846118  0.44655561  0.04836414
   0.77698744  0.88853716  0.94372092
   0.89010040  0.77487193  0.05182724
unknown system                          
           1
     8.338931    4.771783    0.000000
    -8.336347    4.767245    0.000000
     0.000000    0.000000   30.000000
   V    Mo   W    S 
   3   3   3  18
Direct configuration=    12
   0.65830606  0.34238202 -0.00045333
  -0.00611394  0.67453120  0.00003416
   0.33347853 -0.00435389  0.00122845
  -0.01907153 -0.00528913 -0.00017702
   0.66640167  0.68085851 -0.00024837
   0.34325197  0.65513937  0.00020134
   1.02300348  0.33493290 -0.00008594
   0.32941906  0.34812715 -0.00031454
   0.66615383 -0.02315257 -0.00000625
   0.11292523  0.22026787  0.94576555
   0.22315006  0.11024428  0.04855619
   0.11053791  0.55833755  0.95047748
   0.22356658  0.44463834  0.05626242
   0.11230042  0.88674261  0.95023868
   0.21976361  0.77763328  0.04868370
   0.44435270  0.22048262  0.95080877
   0.55564346  0.11169398  0.04777317
   0.44766802  0.55504652  0.94460110
   0.55681448  0.44393758  0.05114996
   0.44280003  0.88921724  0.94939516
   0.55509647  0.77679301  0.05622893
   0.77691014  0.22236753  0.95333640
   0.88643479  0.11226220  0.05346966
   0.78028724  0.55554648  0.94983199
   0.88854009  0.44615760  0.04775526
   0.77665814  0.88829011  0.94345341
   0.88993595  0.77538010  0.05203357
unknown system                          
           1
     8.332655    4.768217    0.000000
    -8.330685    4.764754    0.000000
     0.000000    0.000000   30.000000
   V    Mo   W    S 
   3   3   3  18
Direct configuration=    13
   0.65718343  0.34322140 -0.00053970
  -0.00695101  0.67519865  0.00002113
   0.33428365 -0.00492062  0.00137885
  -0.01999104 -0.00579611 -0.00021504
   0.66670104  0.68071007 -0.00026335
   0.34350525  0.65472386  0.00022731
   1.02417878  0.33512810 -0.00003573
   0.32986173  0.34904308 -0.00034153
   0.66559638 -0.02403411 -0.00002609
   0.11310351  0.22012546  0.94573329
   0.22303679  0.11027646  0.04826790
   0.11066250  0.55837204  0.95061694
   0.22380315  0.44465585  0.05645258
   0.11228520  0.88688902  0.95030700
   0.21967894  0.77734660  0.04859739
   0.44413791  0.22047992  0.95081316
   0.55593756  0.11182403  0.04768266
   0.44795309  0.55516869  0.94449369
   0.55668869  0.44404398  0.05128460
   0.44273382  0.88892024  0.94936360
   0.55510069  0.77657849  0.05631101
   0.77707796  0.22248806  0.95375393
   0.88635804  0.11230967  0.05342356
   0.78032661  0.55569406  0.94971760
   0.88857050  0.44601805  0.04750787
   0.77650575  0.88818151  0.94333966
   0.88988553  0.77556800  0.05212761
unknown system                          
           1
     8.332587    4.768160    0.000000
    -8.330580    4.764633    0.000000
     0.000000    0.000000   30.000000
   V    Mo   W    S 
   3   3   3  18
Direct configuration=    14
   0.65761648  0.34284107 -0.00048850
  -0.00648402  0.67484777  0.00004391
   0.33378456 -0.00450198  0.00129332
  -0.01955274 -0.00550935 -0.00019747
   0.66663247  0.68091097 -0.00025985
   0.34332790  0.65481917  0.00021559
   1.02374113  0.33506436 -0.00006414
   0.32949320  0.34853790 -0.00033522
   0.66595434 -0.02365000 -0.00001345
   0.11298865  0.22017552  0.94573496
   0.22306146  0.11028877  0.04845796
   0.11062230  0.55832182  0.95053043
   0.22365991  0.44463657  0.05635545
   0.11226662  0.88678727  0.95026771
   0.21977754  0.77753638  0.04862743
   0.44427119  0.22050874  0.95080272
   0.55576619  0.11168504  0.04770829
   0.44779571  0.55508160  0.94456762
   0.55676443  0.44398896  0.05120032
   0.44279343  0.88907595  0.94940244
   0.55508316  0.77669066  0.05626877
   0.77701648  0.22237672  0.95353518
   0.88640668  0.11231452  0.05345140
   0.78031404  0.55559961  0.94979539
   0.88857674  0.44606216  0.04764511
   0.77661819  0.88826394  0.94339121
   0.88991842  0.77546031  0.05206331
unknown system                          
           1
     8.332513    4.770133    0.000000
    -8.331618    4.768549    0.000000
     0.000000    0.000000   30.000000
   V    Mo   W    S 
   3   3   3  18
Direct configuration=    15
   0.65758749  0.34287067 -0.00049254
  -0.00651967  0.67487588  0.00004171
   0.33382409 -0.00454215  0.00129974
  -0.01959187 -0.00553434 -0.00019855
   0.66663904  0.68090053 -0.00025998
   0.34334247  0.65481348  0.00021642
   1.02377817  0.33506880 -0.00006206
   0.32951934  0.34858203 -0.00033551
   0.66592874 -0.02368061 -0.00001410
   0.11299690  0.22017471  0.94573766
   0.22306046  0.11028803  0.04844243
   0.11062410  0.55832474  0.95053847
   0.22366848  0.44463659  0.05635873
   0.11226684  0.88679374  0.95027201
   0.21976867  0.77752113  0.04862489
   0.44426271  0.22050705  0.95080489
   0.55577805  0.11169425  0.04770639
   0.44780343  0.55508687  0.94456467
   0.55675878  0.44399134  0.05120535
   0.44279082  0.88906603  0.94939951
   0.55508551  0.77668466  0.05626956
   0.77702006  0.22238286  0.95355075
   0.88640244  0.11231262  0.05344758
   0.78031598  0.55560719  0.94979085
   0.88857704  0.44606162  0.04763480
   0.77660956  0.88825911  0.94339025
   0.88991682  0.77546762  0.05206600
unknown system                          
           1
     8.336768    4.776194    0.000000
    -8.336792    4.776217    0.000000
     0.000000    0.000000   30.000000
   V    Mo   W    S 
   3   3   3  18
Direct configuration=    16
   0.65804941  0.34251777 -0.00042185
  -0.00604049  0.67460287  0.00008480
   0.33309330 -0.00396154  0.00118691
  -0.01899705 -0.00537695 -0.00018196
   0.66674226  0.68093273 -0.00026488
   0.34309333  0.65493966  0.00020388
   1.02317541  0.33498409 -0.00008950
   0.32933466  0.34802840 -0.00033669
   0.66631451 -0.02317792 -0.00001062
   0.11290453  0.22022735  0.94575109
   0.22310258  0.11030650  0.04864008
   0.11057012  0.55835634  0.95046762
   0.22360024  0.44463185  0.05627979
   0.11224564  0.88660794  0.95026835
   0.21973987  0.77763702  0.04861272
   0.44428389  0.22049351  0.95079409
   0.55562743  0.11158269  0.04771745
   0.44769267  0.55498512  0.94464878
   0.55676248  0.44400557  0.05111927
   0.44280842  0.88916485  0.94945768
   0.55504933  0.77670312  0.05622166
   0.77696509  0.22230274  0.95333739
   0.88644688  0.11230254  0.05345969
   0.78039848  0.55561138  0.94989284
   0.88861077  0.44621439  0.04773281
   0.77669419  0.88829139  0.94344508
   0.88994649  0.77530105  0.05198344
unknown system                          
           1
     8.338198    4.772696    0.000000
    -8.336078    4.768978    0.000000
     0.000000    0.000000   30.000000
   V    Mo   W    S 
   3   3   3  18
Direct configuration=    17
   0.65767858  0.34260273 -0.00031491
  -0.00565515  0.67475568  0.00020517
   0.33168345 -0.00258718  0.00110472
  -0.01841315 -0.00566042 -0.00019334
   0.66743920  0.68111073 -0.00030240
   0.34271857  0.65440572  0.00020513
   1.02331690  0.33526007 -0.00010959
   0.32914421  0.34746588 -0.00037773
   0.66659646 -0.02322209  0.00000247
   0.11287704  0.22014232  0.94579237
   0.22299722  0.11042527  0.04885581
   0.11057213  0.55836917  0.95049753
   0.22368092  0.44456620  0.05625196
   0.11211539  0.88621116  0.95030811
   0.21968501  0.77775121  0.04837757
   0.44412085  0.22048885  0.95073196
   0.55547293  0.11138305  0.04750125
   0.44780448  0.55487501  0.94478561
   0.55660291  0.44423829  0.05108269
   0.44277855  0.88904073  0.94969772
   0.55507492  0.77653560  0.05609446
   0.77704428  0.22225900  0.95338321
   0.88653586  0.11232391  0.05337390
   0.78075534  0.55574478  0.95001027
   0.88871467  0.44633566  0.04762449
   0.77683708  0.88823173  0.94346610
   0.89003578  0.77516136  0.05194536
unknown system                          
           1
     8.343246    4.775432    0.000000
    -8.340840    4.771216    0.000000
     0.000000    0.000000   30.000000
   V    Mo   W    S 
   3   3   3  18
Direct configuration=    18
   0.65597652  0.34385659 -0.00047926
  -0.00706621  0.67565371  0.00014986
   0.33296776 -0.00329324  0.00138139
  -0.01994974 -0.00638975 -0.00024605
   0.66757649  0.68110540 -0.00030645
   0.34333753  0.65359920  0.00023507
   1.02527138  0.33561371 -0.00003773
   0.32973073  0.34883910 -0.00040306
   0.66570847 -0.02481568 -0.00005977
   0.11316906  0.21993472  0.94577831
   0.22276136  0.11044623  0.04840332
   0.11076866  0.55832603  0.95072369
   0.22397597  0.44453211  0.05650773
   0.11210637  0.88659136  0.95029957
   0.21977253  0.77737581  0.04829726
   0.44398518  0.22056819  0.95069783
   0.55593504  0.11169250  0.04734904
   0.44825780  0.55511802  0.94459475
   0.55649696  0.44432131  0.05134134
   0.44269649  0.88862936  0.94966994
   0.55518353  0.77630238  0.05621354
   0.77722303  0.22251790  0.95411571
   0.88642545  0.11231097  0.05327564
   0.78066889  0.55578157  0.94974306
   0.88861854  0.44588259  0.04724398
   0.77665391  0.88811686  0.94331526
   0.88996275  0.77559749  0.05219591
unknown system                          
           1
     8.354221    4.780016    0.000000
    -8.349323    4.771445    0.000000
     0.000000    0.000000   30.000000
   V    Mo   W    S 
   3   3   3  18
Direct configuration=    19
   0.65551775  0.34421825 -0.00051589
  -0.00743547  0.67593392  0.00014298
   0.33319411 -0.00339711  0.00144857
  -0.02025232 -0.00666667 -0.00025861
   0.66770944  0.68100251 -0.00030561
   0.34347718  0.65343392  0.00024629
   1.02568782  0.33569666 -0.00001706
   0.32999697  0.34916161 -0.00041138
   0.66544798 -0.02516579 -0.00007462
   0.11325423  0.21987219  0.94577306
   0.22269362  0.11044737  0.04830167
   0.11081982  0.55836637  0.95078406
   0.22408871  0.44452481  0.05658533
   0.11209391  0.88664287  0.95030979
   0.21974715  0.77725412  0.04825206
   0.44391665  0.22058001  0.95067790
   0.55606527  0.11179116  0.04730014
   0.44840051  0.55517451  0.94454272
   0.55645068  0.44436557  0.05141596
   0.44264551  0.88849541  0.94966555
   0.55520003  0.77619975  0.05625029
   0.77725409  0.22260261  0.95430774
   0.88639507  0.11229596  0.05324911
   0.78069170  0.55583211  0.94967968
   0.88859365  0.44580782  0.04713060
   0.77660935  0.88806846  0.94326474
   0.88995101  0.77567603  0.05225484
unknown system                          
           1
     8.363902    4.785485    0.000000
    -8.357217    4.773793    0.000000
     0.000000    0.000000   30.000000
   V    Mo   W    S 
   3   3   3  18
Direct configuration=    20
   0.65336375  0.34590709 -0.00073905
  -0.00930555  0.67727312  0.00005313
   0.33500778 -0.00457481  0.00182141
  -0.02208659 -0.00787879 -0.00032734
   0.66805611  0.68045313 -0.00030523
   0.34433364  0.65292471  0.00030222
   1.02772238  0.33595327  0.00009018
   0.33148759  0.35114636 -0.00043578
   0.66399713 -0.02696384 -0.00013853
   0.11371777  0.21965570  0.94582905
   0.22243250  0.11041034  0.04763113
   0.11106449  0.55851844  0.95114863
   0.22463385  0.44449235  0.05687389
   0.11208255  0.88704486  0.95042867
   0.21956383  0.77657362  0.04806309
   0.44358388  0.22062682  0.95066007
   0.55675389  0.11236023  0.04711156
   0.44901645  0.55546281  0.94431684
   0.55621799  0.44448803  0.05175697
   0.44241191  0.88786274  0.94957841
   0.55532065  0.77579267  0.05639164
   0.77738983  0.22301159  0.95527202
   0.88617755  0.11215890  0.05307956
   0.78067534  0.55609480  0.94936652
   0.88846646  0.44547232  0.04655700
   0.77628370  0.88782815  0.94310334
   0.88984559  0.77611985  0.05251049
unknown system                          
           1
     8.360781    4.785144    0.000000
    -8.353420    4.772265    0.000000
     0.000000    0.000000   30.000000
   V    Mo   W    S 
   3   3   3  18
Direct configuration=    21
   0.65193476  0.34727431 -0.00094165
  -0.01095279  0.67838352 -0.00006162
   0.33678789 -0.00606652  0.00213163
  -0.02373057 -0.00902769 -0.00037723
   0.66823257  0.67978262 -0.00029653
   0.34516680  0.65282796  0.00034558
   1.02914630  0.33606254  0.00019574
   0.33305956  0.35301337 -0.00043682
   0.66267907 -0.02831731 -0.00018810
   0.11417537  0.21954730  0.94592013
   0.22229993  0.11033414  0.04697255
   0.11118631  0.55872898  0.95148756
   0.22512137  0.44448371  0.05707988
   0.11212612  0.88741562  0.95057271
   0.21921116  0.77587758  0.04793727
   0.44322380  0.22059588  0.95067762
   0.55737240  0.11294462  0.04701642
   0.44950696  0.55575391  0.94412711
   0.55599687  0.44462256  0.05204984
   0.44217840  0.88735880  0.94942989
   0.55543463  0.77544692  0.05650604
   0.77744000  0.22338191  0.95603980
   0.88594859  0.11199395  0.05293868
   0.78066897  0.55642094  0.94910442
   0.88836241  0.44535872  0.04606999
   0.77590673  0.88757016  0.94299438
   0.88973084  0.77644596  0.05270459
unknown system                          
           1
     8.364957    4.787000    0.000000
    -8.357683    4.774276    0.000000
     0.000000    0.000000   30.000000
   V    Mo   W    S 
   3   3   3  18
Direct configuration=    22
   0.65259541  0.34736914 -0.00102990
  -0.01146388  0.67832132 -0.00024514
   0.33830588 -0.00820411  0.00219245
  -0.02462671 -0.00919735 -0.00036579
   0.66742269  0.67923112 -0.00026988
   0.34565773  0.65376929  0.00036205
   1.02900848  0.33581818  0.00023757
   0.33417132  0.35398232 -0.00035682
   0.66229676 -0.02825147 -0.00015664
   0.11446318  0.21974527  0.94610780
   0.22260145  0.11014682  0.04637420
   0.11091065  0.55885832  0.95172723
   0.22531978  0.44462928  0.05702355
   0.11235135  0.88782724  0.95072348
   0.21859751  0.77525419  0.04806609
   0.44301885  0.22043840  0.95085678
   0.55768727  0.11332726  0.04717755
   0.44963533  0.55608946  0.94404171
   0.55598531  0.44474770  0.05209507
   0.44205483  0.88730016  0.94916328
   0.55553586  0.77541796  0.05650879
   0.77735310  0.22346225  0.95617320
   0.88564145  0.11181938  0.05291729
   0.78046129  0.55672492  0.94897904
   0.88840195  0.44578374  0.04593766
   0.77537306  0.88728519  0.94300644
   0.88945457  0.77651849  0.05275282
unknown system                          
           1
     8.376418    4.796523    0.000000
    -8.368978    4.783500    0.000000
     0.000000    0.000000   30.000000
   V    Mo   W    S 
   3   3   3  18
Direct configuration=    23
   0.65115036  0.34794232 -0.00101810
  -0.01169338  0.67898919 -0.00007551
   0.33710460 -0.00599952  0.00231588
  -0.02421132 -0.00961221 -0.00040591
   0.66854901  0.67964100 -0.00027772
   0.34553145  0.65237289  0.00036800
   1.02992428  0.33623708  0.00021222
   0.33347407  0.35356536 -0.00044744
   0.66201947 -0.02910005 -0.00022953
   0.11437430  0.21944889  0.94593530
   0.22209408  0.11042423  0.04682568
   0.11136544  0.55882835  0.95162690
   0.22539365  0.44440854  0.05721418
   0.11202623  0.88741201  0.95060043
   0.21917524  0.77566975  0.04777727
   0.44297866  0.22064851  0.95058635
   0.55765853  0.11322432  0.04688839
   0.44987425  0.55586318  0.94404337
   0.55577517  0.44472049  0.05220781
   0.44203438  0.88703822  0.94946160
   0.55553643  0.77520665  0.05653945
   0.77745056  0.22356004  0.95647116
   0.88590481  0.11185687  0.05282732
   0.78080553  0.55660015  0.94898519
   0.88829715  0.44519303  0.04579616
   0.77585439  0.88747054  0.94293022
   0.88976714  0.77660463  0.05284125
unknown system                          
           1
     8.380182    4.798643    0.000000
    -8.371142    4.782828    0.000000
     0.000000    0.000000   30.000000
   V    Mo   W    S 
   3   3   3  18
Direct configuration=    24
   0.64914579  0.34934031 -0.00110397
  -0.01298368  0.68016368  0.00001293
   0.33600263 -0.00326389  0.00266807
  -0.02416734 -0.01086623 -0.00050771
   0.66981536  0.67970982 -0.00026855
   0.34612060  0.65048735  0.00042850
   1.03175633  0.33692644  0.00025436
   0.33375520  0.35359308 -0.00057117
   0.66080986 -0.03090433 -0.00037163
   0.11466303  0.21904677  0.94587961
   0.22133962  0.11084071  0.04705033
   0.11199401  0.55911795  0.95180854
   0.22583662  0.44405060  0.05751873
   0.11162923  0.88700513  0.95050662
   0.21942211  0.77550763  0.04721191
   0.44257302  0.22093390  0.95021236
   0.55817428  0.11381782  0.04643580
   0.45091115  0.55589504  0.94395702
   0.55523502  0.44488881  0.05250090
   0.44154115  0.88617644  0.94983912