       N       E                     dE             d eps       ncg     rms          rms(c)
DAV:   1     0.112349038169E+04    0.11235E+04   -0.35869E+04  8160   0.577E+02
DAV:   2    -0.350061424351E+01   -0.11270E+04   -0.10857E+04 11200   0.173E+02
DAV:   3    -0.199873978541E+03   -0.19637E+03   -0.18861E+03 10920   0.819E+01
DAV:   4    -0.208959488845E+03   -0.90855E+01   -0.87912E+01 11960   0.259E+01
DAV:   5    -0.209304963943E+03   -0.34548E+00   -0.34453E+00 11800   0.375E+00    0.275E+01
DAV:   6    -0.237871168522E+03   -0.28566E+02   -0.10794E+02 12640   0.601E+01    0.595E+01
DAV:   7    -0.196571049768E+03    0.41300E+02   -0.17550E+02 13480   0.152E+02    0.200E+01
DAV:   8    -0.189486018145E+03    0.70850E+01   -0.17519E+01 11920   0.127E+01    0.125E+01
DAV:   9    -0.188132971967E+03    0.13530E+01   -0.30370E+00 13600   0.632E+00    0.915E+00
DAV:  10    -0.186933952215E+03    0.11990E+01   -0.17288E+00 13400   0.761E+00    0.217E+00
DAV:  11    -0.187024384249E+03   -0.90432E-01   -0.59103E-01 13480   0.252E+00    0.369E+00
DAV:  12    -0.186940617199E+03    0.83767E-01   -0.68929E-01 12760   0.379E+00    0.321E+00
DAV:  13    -0.186862842402E+03    0.77775E-01   -0.24237E-01 13240   0.297E+00    0.185E+00
DAV:  14    -0.186823624795E+03    0.39218E-01   -0.90714E-02 12800   0.166E+00    0.611E-01
DAV:  15    -0.186819890459E+03    0.37343E-02   -0.99950E-03 12560   0.345E-01    0.255E-01
DAV:  16    -0.186818707117E+03    0.11833E-02   -0.48253E-03 12680   0.310E-01    0.243E-01
DAV:  17    -0.186819152523E+03   -0.44541E-03   -0.42430E-03 13200   0.355E-01    0.372E-01
DAV:  18    -0.186817949064E+03    0.12035E-02   -0.24895E-03 11120   0.272E-01    0.669E-02
DAV:  19    -0.186818587099E+03   -0.63803E-03   -0.78978E-04  9960   0.873E-02    0.743E-02
DAV:  20    -0.186818980719E+03   -0.39362E-03   -0.27479E-04  7520   0.476E-02    0.601E-02
DAV:  21    -0.186820072703E+03   -0.10920E-02   -0.30109E-04  7680   0.566E-02    0.302E-02
DAV:  22    -0.186821402438E+03   -0.13297E-02   -0.15247E-04  8040   0.389E-02    0.141E-02
DAV:  23    -0.186822127022E+03   -0.72458E-03   -0.43475E-05  6760   0.190E-02    0.714E-03
DAV:  24    -0.186822474065E+03   -0.34704E-03   -0.16858E-05  5960   0.122E-02    0.573E-03
DAV:  25    -0.186822705323E+03   -0.23126E-03   -0.10545E-05  6400   0.820E-03    0.330E-03
DAV:  26    -0.186822939327E+03   -0.23400E-03   -0.77109E-06  6760   0.679E-03    0.194E-03
DAV:  27    -0.186823027375E+03   -0.88049E-04   -0.35693E-06  7240   0.458E-03
   1 F= -.18682303E+03 E0= -.18665254E+03  d E =-.186823E+03
       N       E                     dE             d eps       ncg     rms          rms(c)
DAV:   1    -0.187494573722E+03   -0.67163E+00   -0.27500E+02  8160   0.352E+01    0.464E+00
DAV:   2    -0.189357253015E+03   -0.18627E+01   -0.20092E+01 12280   0.150E+01    0.849E+00
DAV:   3    -0.189369200335E+03   -0.11947E-01   -0.38179E+00 12480   0.120E+01    0.664E+00
DAV:   4    -0.188745163470E+03    0.62404E+00   -0.62370E-01 12720   0.477E+00    0.173E+00
DAV:   5    -0.188859101878E+03   -0.11394E+00   -0.46830E-01 12600   0.339E+00    0.541E+00
DAV:   6    -0.188709458514E+03    0.14964E+00   -0.79434E-01 12920   0.435E+00    0.190E+00
DAV:   7    -0.188677657047E+03    0.31801E-01   -0.11123E-01 11840   0.128E+00    0.961E-01
DAV:   8    -0.188661190014E+03    0.16467E-01   -0.36667E-02 12240   0.598E-01    0.465E-01
DAV:   9    -0.188660040915E+03    0.11491E-02   -0.68186E-03 12160   0.344E-01    0.380E-01
DAV:  10    -0.188660044071E+03   -0.31560E-05   -0.51319E-03 13360   0.397E-01    0.365E-01
DAV:  11    -0.188658859963E+03    0.11841E-02   -0.31205E-03 12960   0.274E-01    0.114E-01
DAV:  12    -0.188658939096E+03   -0.79132E-04   -0.70293E-04 11640   0.953E-02
   2 F= -.18865894E+03 E0= -.18852084E+03  d E =-.183591E+01
       N       E                     dE             d eps       ncg     rms          rms(c)
DAV:   1    -0.190598966474E+03   -0.19401E+01   -0.31647E+01  9240   0.143E+01    0.446E+00
DAV:   2    -0.190534813739E+03    0.64153E-01   -0.27678E+00 11600   0.942E+00    0.714E+00
DAV:   3    -0.190081055496E+03    0.45376E+00   -0.13072E+00 12480   0.863E+00    0.428E+00
DAV:   4    -0.189862885877E+03    0.21817E+00   -0.68182E-01 12960   0.433E+00    0.247E+00
DAV:   5    -0.189773222898E+03    0.89663E-01   -0.29091E-01 11760   0.203E+00    0.105E+00
DAV:   6    -0.189763128549E+03    0.10094E-01   -0.54499E-02 12000   0.128E+00    0.775E-01
DAV:   7    -0.189758333112E+03    0.47954E-02   -0.12863E-02 12400   0.651E-01    0.228E-01
DAV:   8    -0.189757968370E+03    0.36474E-03   -0.20375E-03 10840   0.157E-01    0.118E-01
DAV:   9    -0.189758210669E+03   -0.24230E-03   -0.66493E-04 10000   0.983E-02    0.705E-02
DAV:  10    -0.189758265617E+03   -0.54947E-04   -0.36223E-04  9200   0.121E-01
   3 F= -.18975827E+03 E0= -.18964259E+03  d E =-.109933E+01
       N       E                     dE             d eps       ncg     rms          rms(c)
DAV:   1    -0.191358457139E+03   -0.16002E+01   -0.79140E+01  8160   0.202E+01    0.460E+00
DAV:   2    -0.191137493459E+03    0.22096E+00   -0.53963E+00 13400   0.727E+00    0.411E+00
DAV:   3    -0.191340819654E+03   -0.20333E+00   -0.14884E+00 12240   0.898E+00    0.683E+00
DAV:   4    -0.190918955834E+03    0.42186E+00   -0.13165E+00 13000   0.797E+00    0.277E+00
DAV:   5    -0.190812248523E+03    0.10671E+00   -0.29902E-01 11120   0.244E+00    0.140E+00
DAV:   6    -0.190805651151E+03    0.65974E-02   -0.12332E-01 12720   0.229E+00    0.156E+00
DAV:   7    -0.190787486040E+03    0.18165E-01   -0.55757E-02 11880   0.155E+00    0.553E-01
DAV:   8    -0.190782997460E+03    0.44886E-02   -0.79074E-03 10240   0.448E-01    0.223E-01
DAV:   9    -0.190783265481E+03   -0.26802E-03   -0.25963E-03 12920   0.330E-01    0.264E-01
DAV:  10    -0.190783131009E+03    0.13447E-03   -0.20973E-03 11000   0.259E-01    0.128E-01
DAV:  11    -0.190782899049E+03    0.23196E-03   -0.64534E-04 10280   0.977E-02    0.425E-02
DAV:  12    -0.190782893771E+03    0.52774E-05   -0.80940E-05  7080   0.339E-02
   4 F= -.19078289E+03 E0= -.19068673E+03  d E =-.102463E+01
       N       E                     dE             d eps       ncg     rms          rms(c)
DAV:   1    -0.192195624152E+03   -0.14127E+01   -0.17181E+02  8160   0.290E+01    0.552E+00
DAV:   2    -0.191913057068E+03    0.28257E+00   -0.88912E+00 10200   0.726E+00    0.300E+00
DAV:   3    -0.191739247111E+03    0.17381E+00   -0.11665E+00 10840   0.386E+00    0.247E+00
DAV:   4    -0.191786710852E+03   -0.47464E-01   -0.57590E-01 11560   0.503E+00    0.468E+00
DAV:   5    -0.191621149672E+03    0.16556E+00   -0.67492E-01 11040   0.557E+00    0.193E+00
DAV:   6    -0.191594513990E+03    0.26636E-01   -0.14112E-01 11920   0.256E+00    0.143E+00
DAV:   7    -0.191576840336E+03    0.17674E-01   -0.62919E-02 12400   0.189E+00    0.648E-01
DAV:   8    -0.191570523775E+03    0.63166E-02   -0.11332E-02 12360   0.660E-01    0.153E-01
DAV:   9    -0.191571293289E+03   -0.76951E-03   -0.27750E-03 11560   0.286E-01    0.261E-01
DAV:  10    -0.191570731779E+03    0.56151E-03   -0.16970E-03 11000   0.301E-01    0.937E-02
DAV:  11    -0.191570697830E+03    0.33949E-04   -0.18645E-04  6520   0.865E-02
   5 F= -.19157070E+03 E0= -.19148426E+03  d E =-.787804E+00
       N       E                     dE             d eps       ncg     rms          rms(c)
DAV:   1    -0.191675196198E+03   -0.10446E+00   -0.77114E+00  8160   0.588E+00    0.733E-01
DAV:   2    -0.191741736312E+03   -0.66540E-01   -0.35023E-01 13440   0.320E+00    0.214E+00
DAV:   3    -0.191690478987E+03    0.51257E-01   -0.97111E-02 12520   0.240E+00    0.369E-01
DAV:   4    -0.191690735317E+03   -0.25633E-03   -0.87692E-03 11480   0.614E-01    0.549E-01
DAV:   5    -0.191688445291E+03    0.22900E-02   -0.74244E-03 11720   0.650E-01    0.286E-01
DAV:   6    -0.191687778412E+03    0.66688E-03   -0.31555E-03 11520   0.280E-01    0.951E-02
DAV:   7    -0.191687594176E+03    0.18424E-03   -0.67887E-04 10960   0.117E-01    0.576E-02
DAV:   8    -0.191687624335E+03   -0.30159E-04   -0.25860E-04  7520   0.112E-01
   6 F= -.19168762E+03 E0= -.19160188E+03  d E =-.116927E+00
       N       E                     dE             d eps       ncg     rms          rms(c)
DAV:   1    -0.191834664728E+03   -0.14707E+00   -0.24588E+01  8160   0.105E+01    0.107E+00
DAV:   2    -0.191920351983E+03   -0.85687E-01   -0.71223E-01 12080   0.328E+00    0.210E+00
DAV:   3    -0.191877879459E+03    0.42473E-01   -0.15753E-01 12600   0.298E+00    0.957E-01
DAV:   4    -0.191872482694E+03    0.53968E-02   -0.28754E-02 11640   0.121E+00    0.866E-01
DAV:   5    -0.191866625663E+03    0.58570E-02   -0.20298E-02 12360   0.113E+00    0.500E-01
DAV:   6    -0.191864731108E+03    0.18946E-02   -0.82779E-03 12400   0.495E-01    0.199E-01
DAV:   7    -0.191864220743E+03    0.51037E-03   -0.28959E-03 11240   0.275E-01    0.172E-01
DAV:   8    -0.191864047613E+03    0.17313E-03   -0.11370E-03 10720   0.247E-01    0.118E-01
DAV:   9    -0.191863904157E+03    0.14346E-03   -0.32614E-04  7880   0.120E-01    0.334E-02
DAV:  10    -0.191863894226E+03    0.99315E-05   -0.10805E-04  6800   0.360E-02
   7 F= -.19186389E+03 E0= -.19178236E+03  d E =-.176270E+00
       N       E                     dE             d eps       ncg     rms          rms(c)
DAV:   1    -0.191903203349E+03   -0.39299E-01   -0.12403E+00  8160   0.244E+00    0.374E-01
DAV:   2    -0.191904862418E+03   -0.16591E-02   -0.54350E-02 11160   0.764E-01    0.364E-01
DAV:   3    -0.191905229518E+03   -0.36710E-03   -0.99486E-03 11880   0.768E-01    0.428E-01
DAV:   4    -0.191902849131E+03    0.23804E-02   -0.51012E-03 11800   0.552E-01    0.191E-01
DAV:   5    -0.191903020949E+03   -0.17182E-03   -0.28527E-03 11760   0.351E-01    0.265E-01
DAV:   6    -0.191902382505E+03    0.63844E-03   -0.18060E-03 10520   0.320E-01    0.990E-02
DAV:   7    -0.191902283658E+03    0.98847E-04   -0.31593E-04  8000   0.103E-01
   8 F= -.19190228E+03 E0= -.19182119E+03  d E =-.383894E-01
       N       E                     dE             d eps       ncg     rms          rms(c)
DAV:   1    -0.191973972432E+03   -0.71590E-01   -0.58292E+00  8160   0.512E+00    0.490E-01
DAV:   2    -0.191986127500E+03   -0.12155E-01   -0.17488E-01 11920   0.116E+00    0.351E-01
DAV:   3    -0.191988031884E+03   -0.19044E-02   -0.14379E-02 12640   0.812E-01    0.566E-01
DAV:   4    -0.191984057034E+03    0.39749E-02   -0.65215E-03 11560   0.689E-01    0.217E-01
DAV:   5    -0.191984286334E+03   -0.22930E-03   -0.33010E-03 11800   0.370E-01    0.273E-01
DAV:   6    -0.191984186329E+03    0.10000E-03   -0.31939E-03 12320   0.446E-01    0.245E-01
DAV:   7    -0.191983427183E+03    0.75915E-03   -0.12282E-03 10160   0.247E-01    0.339E-02
DAV:   8    -0.191983470563E+03   -0.43380E-04   -0.14172E-04  6600   0.812E-02
   9 F= -.19198347E+03 E0= -.19190374E+03  d E =-.811869E-01
       N       E                     dE             d eps       ncg     rms          rms(c)
DAV:   1    -0.192041600138E+03   -0.58173E-01   -0.42748E+00  8160   0.444E+00    0.503E-01
DAV:   2    -0.192051884656E+03   -0.10285E-01   -0.16159E-01 11640   0.119E+00    0.420E-01
DAV:   3    -0.192053565273E+03   -0.16806E-02   -0.16072E-02 12400   0.965E-01    0.583E-01
DAV:   4    -0.192049056947E+03    0.45083E-02   -0.77614E-03 12320   0.742E-01    0.229E-01
DAV:   5    -0.192049480188E+03   -0.42324E-03   -0.40525E-03 11720   0.407E-01    0.327E-01
DAV:   6    -0.192048913644E+03    0.56654E-03   -0.36338E-03 11360   0.454E-01    0.213E-01
DAV:   7    -0.192048312012E+03    0.60163E-03   -0.10668E-03 10000   0.204E-01    0.340E-02
DAV:   8    -0.192048301180E+03    0.10832E-04   -0.95266E-05  6480   0.431E-02
  10 F= -.19204830E+03 E0= -.19196833E+03  d E =-.648306E-01
       N       E                     dE             d eps       ncg     rms          rms(c)
DAV:   1    -0.192101713032E+03   -0.53401E-01   -0.54623E+00  8160   0.495E+00    0.530E-01
DAV:   2    -0.192118372597E+03   -0.16660E-01   -0.19907E-01 11400   0.148E+00    0.670E-01
DAV:   3    -0.192117482121E+03    0.89048E-03   -0.27016E-02 11840   0.125E+00    0.665E-01
DAV:   4    -0.192113649787E+03    0.38323E-02   -0.11121E-02 12120   0.803E-01    0.379E-01
DAV:   5    -0.192112729275E+03    0.92051E-03   -0.47555E-03 11240   0.553E-01    0.280E-01
DAV:   6    -0.192112221047E+03    0.50823E-03   -0.27869E-03 12720   0.360E-01    0.150E-01
DAV:   7    -0.192111998464E+03    0.22258E-03   -0.12602E-03 10800   0.212E-01    0.130E-01
DAV:   8    -0.192111828844E+03    0.16962E-03   -0.35863E-04  8760   0.151E-01    0.382E-02
DAV:   9    -0.192111821108E+03    0.77353E-05   -0.54243E-05  6320   0.421E-02
  11 F= -.19211182E+03 E0= -.19203180E+03  d E =-.635199E-01
       N       E                     dE             d eps       ncg     rms          rms(c)
DAV:   1    -0.192132323053E+03   -0.20494E-01   -0.65926E-01  8160   0.179E+00    0.279E-01
DAV:   2    -0.192133637931E+03   -0.13149E-02   -0.33203E-02 11360   0.582E-01    0.288E-01
DAV:   3    -0.192134415632E+03   -0.77770E-03   -0.67831E-03 12400   0.639E-01    0.420E-01
DAV:   4    -0.192132544976E+03    0.18707E-02   -0.35817E-03 11560   0.475E-01    0.163E-01
DAV:   5    -0.192132580820E+03   -0.35845E-04   -0.14294E-03 10040   0.289E-01    0.183E-01
DAV:   6    -0.192132189751E+03    0.39107E-03   -0.99837E-04 10280   0.235E-01    0.566E-02
DAV:   7    -0.192132145139E+03    0.44611E-04   -0.16225E-04  6280   0.686E-02
  12 F= -.19213215E+03 E0= -.19205151E+03  d E =-.203240E-01
       N       E                     dE             d eps       ncg     rms          rms(c)
DAV:   1    -0.192162679242E+03   -0.30489E-01   -0.22362E+00  8160   0.317E+00    0.368E-01
DAV:   2    -0.192172164233E+03   -0.94850E-02   -0.91833E-02 11480   0.113E+00    0.622E-01
DAV:   3    -0.192169060187E+03    0.31040E-02   -0.15341E-02 11560   0.953E-01    0.396E-01
DAV:   4    -0.192168086364E+03    0.97382E-03   -0.47306E-03 12440   0.511E-01    0.288E-01
DAV:   5    -0.192167364787E+03    0.72158E-03   -0.23255E-03 11160   0.400E-01    0.167E-01
DAV:   6    -0.192167183404E+03    0.18138E-03   -0.10802E-03 11160   0.203E-01    0.885E-02
DAV:   7    -0.192167099347E+03    0.84056E-04   -0.47546E-04  9240   0.123E-01
  13 F= -.19216710E+03 E0= -.19208631E+03  d E =-.349542E-01
       N       E                     dE             d eps       ncg     rms          rms(c)
DAV:   1    -0.192193743293E+03   -0.26560E-01   -0.20245E+00  8160   0.306E+00    0.392E-01
DAV:   2    -0.192201179645E+03   -0.74364E-02   -0.91162E-02 12400   0.949E-01    0.541E-01
DAV:   3    -0.192200977316E+03    0.20233E-03   -0.17232E-02 11880   0.990E-01    0.573E-01
DAV:   4    -0.192197598220E+03    0.33791E-02   -0.57226E-03 11880   0.568E-01    0.172E-01
DAV:   5    -0.192197504871E+03    0.93350E-04   -0.19745E-03 11680   0.318E-01    0.183E-01
DAV:   6    -0.192197311335E+03    0.19354E-03   -0.13006E-03 11360   0.293E-01    0.124E-01
DAV:   7    -0.192197086160E+03    0.22518E-03   -0.53313E-04 10160   0.142E-01    0.310E-02
DAV:   8    -0.192197075076E+03    0.11084E-04   -0.62553E-05  8000   0.454E-02
  14 F= -.19219708E+03 E0= -.19211592E+03  d E =-.299757E-01
       N       E                     dE             d eps       ncg     rms          rms(c)
DAV:   1    -0.192215221743E+03   -0.18136E-01   -0.10634E+00  8160   0.219E+00    0.305E-01
DAV:   2    -0.192222381638E+03   -0.71599E-02   -0.53129E-02 10920   0.111E+00    0.663E-01
DAV:   3    -0.192217429463E+03    0.49522E-02   -0.11359E-02 12280   0.845E-01    0.218E-01
DAV:   4    -0.192217515445E+03   -0.85982E-04   -0.25811E-03 11960   0.375E-01    0.262E-01
DAV:   5    -0.192216921551E+03    0.59389E-03   -0.17517E-03 10600   0.356E-01    0.143E-01
DAV:   6    -0.192216742021E+03    0.17953E-03   -0.75512E-04 11320   0.158E-01    0.594E-02
DAV:   7    -0.192216678193E+03    0.63828E-04   -0.23039E-04  7200   0.600E-02
  15 F= -.19221668E+03 E0= -.19213617E+03  d E =-.196031E-01
       N       E                     dE             d eps       ncg     rms          rms(c)
DAV:   1    -0.192229960175E+03   -0.13218E-01   -0.58859E-01  8160   0.165E+00    0.229E-01
DAV:   2    -0.192232500838E+03   -0.25407E-02   -0.27969E-02 11960   0.579E-01    0.365E-01
DAV:   3    -0.192231776722E+03    0.72412E-03   -0.60712E-03 11960   0.601E-01    0.287E-01
DAV:   4    -0.192230934823E+03    0.84190E-03   -0.16130E-03 11200   0.300E-01    0.114E-01
DAV:   5    -0.192230899535E+03    0.35288E-04   -0.71065E-04  9800   0.218E-01
  16 F= -.19223090E+03 E0= -.19215075E+03  d E =-.142213E-01
       N       E                     dE             d eps       ncg     rms          rms(c)
DAV:   1    -0.192246446713E+03   -0.15512E-01   -0.10025E+00  8160   0.213E+00    0.291E-01
DAV:   2    -0.192252609421E+03   -0.61627E-02   -0.44670E-02 11400   0.924E-01    0.614E-01
DAV:   3    -0.192248518338E+03    0.40911E-02   -0.97940E-03 11840   0.795E-01    0.222E-01
DAV:   4    -0.192248632022E+03   -0.11368E-03   -0.22390E-03 11600   0.375E-01    0.258E-01
DAV:   5    -0.192247929498E+03    0.70252E-03   -0.14165E-03 10520   0.328E-01    0.926E-02
DAV:   6    -0.192247900210E+03    0.29288E-04   -0.44382E-04  9640   0.100E-01
  17 F= -.19224790E+03 E0= -.19216858E+03  d E =-.170007E-01
       N       E                     dE             d eps       ncg     rms          rms(c)
DAV:   1    -0.192268704475E+03   -0.20775E-01   -0.28809E+00  8160   0.361E+00    0.471E-01
DAV:   2    -0.192281970354E+03   -0.13266E-01   -0.12712E-01 11400   0.129E+00    0.778E-01
DAV:   3    -0.192276577870E+03    0.53925E-02   -0.23539E-02 11880   0.121E+00    0.466E-01
DAV:   4    -0.192274995894E+03    0.15820E-02   -0.62561E-03 12520   0.597E-01    0.322E-01
DAV:   5    -0.192274099512E+03    0.89638E-03   -0.31770E-03 11920   0.485E-01    0.196E-01
DAV:   6    -0.192273826671E+03    0.27284E-03   -0.14704E-03 11880   0.230E-01    0.935E-02
DAV:   7    -0.192273657274E+03    0.16940E-03   -0.59487E-04 10840   0.104E-01    0.418E-02
DAV:   8    -0.192273661189E+03   -0.39155E-05   -0.10220E-04  8160   0.864E-02
  18 F= -.19227366E+03 E0= -.19219610E+03  d E =-.257610E-01
       N       E                     dE             d eps       ncg     rms          rms(c)
DAV:   1    -0.192277995258E+03   -0.43380E-02   -0.11348E-01  8160   0.744E-01    0.150E-01
DAV:   2    -0.192279131055E+03   -0.11358E-02   -0.77699E-03 10400   0.513E-01    0.333E-01
DAV:   3    -0.192277857111E+03    0.12739E-02   -0.23630E-03 12400   0.408E-01    0.921E-02
DAV:   4    -0.192277898546E+03   -0.41436E-04   -0.56736E-04  8800   0.182E-01
  19 F= -.19227790E+03 E0= -.19220106E+03  d E =-.423736E-02
       N       E                     dE             d eps       ncg     rms          rms(c)
DAV:   1    -0.192287149569E+03   -0.92925E-02   -0.60987E-01  8160   0.166E+00    0.220E-01
DAV:   2    -0.192289347035E+03   -0.21975E-02   -0.25309E-02 11400   0.552E-01    0.320E-01
DAV:   3    -0.192288741969E+03    0.60507E-03   -0.45512E-03 11680   0.537E-01    0.247E-01
DAV:   4    -0.192288205174E+03    0.53679E-03   -0.15556E-03 10520   0.301E-01    0.130E-01
DAV:   5    -0.192288106486E+03    0.98688E-04   -0.73970E-04 10280   0.231E-01
  20 F= -.19228811E+03 E0= -.19221284E+03  d E =-.102079E-01
       N       E                     dE             d eps       ncg     rms          rms(c)
DAV:   1    -0.192297080117E+03   -0.88749E-02   -0.68331E-01  8160   0.176E+00    0.257E-01
DAV:   2    -0.192301849030E+03   -0.47689E-02   -0.32719E-02 11360   0.824E-01    0.550E-01
DAV:   3    -0.192298424339E+03    0.34247E-02   -0.70958E-03 11240   0.704E-01    0.183E-01
DAV:   4    -0.192298472592E+03   -0.48252E-04   -0.15013E-03 10440   0.309E-01    0.206E-01
DAV:   5    -0.192298014275E+03    0.45832E-03   -0.97275E-04 10640   0.274E-01    0.797E-02
DAV:   6    -0.192297986637E+03    0.27639E-04   -0.29707E-04  8680   0.929E-02
  21 F= -.19229799E+03 E0= -.19222409E+03  d E =-.988015E-02
       N       E                     dE             d eps       ncg     rms          rms(c)
DAV:   1    -0.192302866267E+03   -0.48520E-02   -0.21882E-01  8160   0.100E+00    0.142E-01
DAV:   2    -0.192303396689E+03   -0.53042E-03   -0.95599E-03 10400   0.282E-01    0.139E-01
DAV:   3    -0.192303507008E+03   -0.11032E-03   -0.15824E-03 13440   0.321E-01    0.183E-01
DAV:   4    -0.192303092898E+03    0.41411E-03   -0.57292E-04  9560   0.205E-01    0.536E-02
DAV:   5    -0.192303158816E+03   -0.65918E-04   -0.26547E-04  8640   0.138E-01
  22 F= -.19230316E+03 E0= -.19222981E+03  d E =-.517218E-02
       N       E                     dE             d eps       ncg     rms          rms(c)
DAV:   1    -0.192307978295E+03   -0.48854E-02   -0.25492E-01  8160   0.107E+00    0.151E-01
DAV:   2    -0.192309539682E+03   -0.15614E-02   -0.12000E-02 10600   0.497E-01    0.301E-01
DAV:   3    -0.192308521670E+03    0.10180E-02   -0.22687E-03 12240   0.405E-01    0.104E-01
DAV:   4    -0.192308492141E+03    0.29530E-04   -0.42967E-04  8880   0.163E-01
  23 F= -.19230849E+03 E0= -.19223586E+03  d E =-.533332E-02
       N       E                     dE             d eps       ncg     rms          rms(c)
DAV:   1    -0.192315248242E+03   -0.67266E-02   -0.75569E-01  8160   0.184E+00    0.247E-01
DAV:   2    -0.192317820222E+03   -0.25720E-02   -0.31335E-02 11400   0.644E-01    0.324E-01
DAV:   3    -0.192317070160E+03    0.75006E-03   -0.43839E-03 12480   0.565E-01    0.223E-01
DAV:   4    -0.192316382100E+03    0.68806E-03   -0.11831E-03 11360   0.264E-01    0.810E-02
DAV:   5    -0.192316369434E+03    0.12666E-04   -0.53947E-04 10800   0.961E-02
  24 F= -.19231637E+03 E0= -.19224526E+03  d E =-.787729E-02
       N       E                     dE             d eps       ncg     rms          rms(c)
DAV:   1    -0.192321299166E+03   -0.49171E-02   -0.42251E+00  8160   0.435E+00    0.544E-01
DAV:   2    -0.192337873036E+03   -0.16574E-01   -0.18734E-01 11400   0.142E+00    0.709E-01
DAV:   3    -0.192334705316E+03    0.31677E-02   -0.23073E-02 12320   0.130E+00    0.534E-01
DAV:   4    -0.192330817683E+03    0.38876E-02   -0.57862E-03 12440   0.623E-01    0.188E-01
DAV:   5    -0.192331749668E+03   -0.93199E-03   -0.31792E-03 12760   0.490E-01    0.349E-01
DAV:   6    -0.192330551079E+03    0.11986E-02   -0.26661E-03 11800   0.431E-01    0.108E-01
DAV:   7    -0.192330326494E+03    0.22458E-03   -0.51158E-04 10600   0.109E-01    0.264E-02
DAV:   8    -0.192330334976E+03   -0.84820E-05   -0.81005E-05  7640   0.581E-02
  25 F= -.19233033E+03 E0= -.19226207E+03  d E =-.139655E-01
       N       E                     dE             d eps       ncg     rms          rms(c)
DAV:   1    -0.192332159566E+03   -0.18331E-02   -0.91242E-01  8160   0.201E+00    0.251E-01
DAV:   2    -0.192336714212E+03   -0.45546E-02   -0.43996E-02 10680   0.811E-01    0.406E-01
DAV:   3    -0.192335107028E+03    0.16072E-02   -0.54188E-03 12960   0.640E-01    0.207E-01
DAV:   4    -0.192334614029E+03    0.49300E-03   -0.11634E-03 10720   0.269E-01    0.122E-01
DAV:   5    -0.192334605667E+03    0.83626E-05   -0.67932E-04 10520   0.228E-01
  26 F= -.19233461E+03 E0= -.19226758E+03  d E =-.427069E-02
       N       E                     dE             d eps       ncg     rms          rms(c)
DAV:   1    -0.192335448900E+03   -0.83487E-03   -0.13973E-01  8160   0.803E-01    0.119E-01
DAV:   2    -0.192336203195E+03   -0.75429E-03   -0.72128E-03 11880   0.312E-01    0.186E-01
DAV:   3    -0.192335812670E+03    0.39053E-03   -0.12469E-03 12160   0.289E-01    0.987E-02
DAV:   4    -0.192335717312E+03    0.95357E-04   -0.27930E-04  8400   0.136E-01
  27 F= -.19233572E+03 E0= -.19226913E+03  d E =-.111165E-02
       N       E                     dE             d eps       ncg     rms          rms(c)
DAV:   1    -0.192335883081E+03   -0.70412E-04   -0.31482E-02  8160   0.396E-01    0.829E-02
DAV:   2    -0.192336837833E+03   -0.95475E-03   -0.29041E-03 11120   0.385E-01    0.280E-01
DAV:   3    -0.192335886722E+03    0.95111E-03   -0.12153E-03 10280   0.312E-01    0.397E-02
DAV:   4    -0.192335895079E+03   -0.83572E-05   -0.79387E-05  6320   0.790E-02
  28 F= -.19233590E+03 E0= -.19226916E+03  d E =-.177767E-03
