 vasp.5.4.1 05Feb16 (build Jul 05 2020 17:13:04) complex                        
  
 executed on           IFC91_ompi date 2024.08.07  14:06:49
 running on   40 total cores
 distrk:  each k-point on   40 cores,    1 groups
 distr:  one band on NCORES_PER_BAND=   1 cores,   40 groups


--------------------------------------------------------------------------------------------------------


 INCAR:
 POTCAR:   PAW_PBE V 08Apr2002                    
 POTCAR:   PAW_PBE Mo 08Apr2002                   
 POTCAR:   PAW_PBE W 08Apr2002                    
 POTCAR:    PAW_PBE S 17Jan2003                   

 ----------------------------------------------------------------------------- 
|                                                                             |
|           W    W    AA    RRRRR   N    N  II  N    N   GGGG   !!!           |
|           W    W   A  A   R    R  NN   N  II  NN   N  G    G  !!!           |
|           W    W  A    A  R    R  N N  N  II  N N  N  G       !!!           |
|           W WW W  AAAAAA  RRRRR   N  N N  II  N  N N  G  GGG   !            |
|           WW  WW  A    A  R   R   N   NN  II  N   NN  G    G                |
|           W    W  A    A  R    R  N    N  II  N    N   GGGG   !!!           |
|                                                                             |
|      For optimal performance we recommend to set                            |
|        NCORE= 4 - approx SQRT( number of cores)                             |
|      NCORE specifies how many cores store one orbital (NPAR=cpu/NCORE).     |
|      This setting can  greatly improve the performance of VASP for DFT.     |
|      The default, NPAR=number of cores might be grossly inefficient         |
|      on modern multi-core architectures or massively parallel machines.     |
|      Do your own testing !!!!                                               |
|      Unfortunately you need to use the default for GW and RPA calculations. |
|      (for HF NCORE is supported but not extensively tested yet)             |
|                                                                             |
 ----------------------------------------------------------------------------- 

 POTCAR:   PAW_PBE V 08Apr2002                    
   VRHFIN =V: p6 d4 s1                                                          
   LEXCH  = PE                                                                  
   EATOM  =   170.8679 eV,   12.5584 Ry                                         
                                                                                
   TITEL  = PAW_PBE V 08Apr2002                                                 
   LULTRA =        F    use ultrasoft PP ?                                      
   IUNSCR =        1    unscreen: 0-lin 1-nonlin 2-no                           
   RPACOR =    2.000    partial core radius                                     
   POMASS =   50.941; ZVAL   =    5.000    mass and valenz                      
   RCORE  =    2.700    outmost cutoff radius                                   
   RWIGS  =    2.500; RWIGS  =    1.323    wigner-seitz radius (au A)           
   ENMAX  =  192.543; ENMIN  =  144.408 eV                                      
   RCLOC  =    1.779    cutoff for local pot                                    
   LCOR   =        T    correct aug charges                                     
   LPAW   =        T    paw PP                                                  
   EAUG   =  358.662                                                            
   DEXC   =    -.034                                                            
   RMAX   =    3.323    core radius for proj-oper                               
   RAUG   =    1.300    factor for augmentation sphere                          
   RDEP   =    2.762    radius for radial grids                                 
   QCUT   =   -3.762; QGAM   =    7.524    optimization parameters              
                                                                                
   Description                                                                  
     l     E      TYP  RCUT    TYP  RCUT                                        
     2   .000     23  2.700                                                     
     2   .000     23  2.700                                                     
     0   .000     23  2.700                                                     
     0  2.000     23  2.700                                                     
     1   .000     23  2.700                                                     
     1  2.000     23  2.700                                                     
     3   .000      7   .000                                                     
  local pseudopotential read in
  partial core-charges read in
  atomic valenz-charges read in
  non local Contribution for L=           2  read in
    real space projection operators read in
  non local Contribution for L=           2  read in
    real space projection operators read in
  non local Contribution for L=           0  read in
    real space projection operators read in
  non local Contribution for L=           0  read in
    real space projection operators read in
  non local Contribution for L=           1  read in
    real space projection operators read in
  non local Contribution for L=           1  read in
    real space projection operators read in
    PAW grid and wavefunctions read in
 
   number of l-projection  operators is LMAX  =           6
   number of lm-projection operators is LMMAX =          18
 
 POTCAR:   PAW_PBE Mo 08Apr2002                   
   VRHFIN =Mo: 4p5s4d                                                           
   LEXCH  = PE                                                                  
   EATOM  =   217.5180 eV,   15.9871 Ry                                         
                                                                                
   TITEL  = PAW_PBE Mo 08Apr2002                                                
   LULTRA =        F    use ultrasoft PP ?                                      
   IUNSCR =        1    unscreen: 0-lin 1-nonlin 2-no                           
   RPACOR =    2.200    partial core radius                                     
   POMASS =   95.940; ZVAL   =    6.000    mass and valenz                      
   RCORE  =    2.750    outmost cutoff radius                                   
   RWIGS  =    2.750; RWIGS  =    1.455    wigner-seitz radius (au A)           
   ENMAX  =  224.584; ENMIN  =  168.438 eV                                      
   RCLOC  =    2.111    cutoff for local pot                                    
   LCOR   =        T    correct aug charges                                     
   LPAW   =        T    paw PP                                                  
   EAUG   =  345.278                                                            
   DEXC   =    -.088                                                            
   RMAX   =    3.077    core radius for proj-oper                               
   RAUG   =    1.300    factor for augmentation sphere                          
   RDEP   =    2.815    radius for radial grids                                 
   QCUT   =   -4.063; QGAM   =    8.126    optimization parameters              
                                                                                
   Description                                                                  
     l     E      TYP  RCUT    TYP  RCUT                                        
     2   .000     23  2.500                                                     
     2   .000     23  2.500                                                     
     0   .000     23  2.600                                                     
     0  1.000     23  2.600                                                     
     1   .400     23  2.750                                                     
     1  2.000     23  2.750                                                     
     3   .000      7   .000                                                     
  local pseudopotential read in
  partial core-charges read in
  atomic valenz-charges read in
  non local Contribution for L=           2  read in
    real space projection operators read in
  non local Contribution for L=           2  read in
    real space projection operators read in
  non local Contribution for L=           0  read in
    real space projection operators read in
  non local Contribution for L=           0  read in
    real space projection operators read in
  non local Contribution for L=           1  read in
    real space projection operators read in
  non local Contribution for L=           1  read in
    real space projection operators read in
    PAW grid and wavefunctions read in
 
   number of l-projection  operators is LMAX  =           6
   number of lm-projection operators is LMMAX =          18
 
 POTCAR:   PAW_PBE W 08Apr2002                    
   VRHFIN =W : 6s5d                                                             
   LEXCH  = PE                                                                  
   EATOM  =   204.6100 eV,   15.0384 Ry                                         
                                                                                
   TITEL  = PAW_PBE W 08Apr2002                                                 
   LULTRA =        F    use ultrasoft PP ?                                      
   IUNSCR =        1    unscreen: 0-lin 1-nonlin 2-no                           
   RPACOR =    2.330    partial core radius                                     
   POMASS =  183.850; ZVAL   =    6.000    mass and valenz                      
   RCORE  =    2.750    outmost cutoff radius                                   
   RWIGS  =    2.750; RWIGS  =    1.455    wigner-seitz radius (au A)           
   ENMAX  =  223.057; ENMIN  =  167.293 eV                                      
   RCLOC  =    2.147    cutoff for local pot                                    
   LCOR   =        T    correct aug charges                                     
   LPAW   =        T    paw PP                                                  
   EAUG   =  373.438                                                            
   DEXC   =    -.060                                                            
   RMAX   =    3.087    core radius for proj-oper                               
   RAUG   =    1.300    factor for augmentation sphere                          
   RDEP   =    2.886    radius for radial grids                                 
   QCUT   =   -4.049; QGAM   =    8.098    optimization parameters              
                                                                                
   Description                                                                  
     l     E      TYP  RCUT    TYP  RCUT                                        
     2   .000     23  2.500                                                     
     2   .000     23  2.500                                                     
     0   .000     23  2.500                                                     
     0   .000     23  2.500                                                     
     1   .200     23  2.750                                                     
     1  2.000     23  2.750                                                     
     3   .000      7   .000                                                     
  local pseudopotential read in
  partial core-charges read in
  atomic valenz-charges read in
  non local Contribution for L=           2  read in
    real space projection operators read in
  non local Contribution for L=           2  read in
    real space projection operators read in
  non local Contribution for L=           0  read in
    real space projection operators read in
  non local Contribution for L=           0  read in
    real space projection operators read in
  non local Contribution for L=           1  read in
    real space projection operators read in
  non local Contribution for L=           1  read in
    real space projection operators read in
    PAW grid and wavefunctions read in
 
   number of l-projection  operators is LMAX  =           6
   number of lm-projection operators is LMMAX =          18
 
 POTCAR:    PAW_PBE S 17Jan2003                   
   VRHFIN =S : s2p4                                                             
   LEXCH  = PE                                                                  
   EATOM  =   276.8230 eV,   20.3459 Ry                                         
                                                                                
   TITEL  = PAW_PBE S 17Jan2003                                                 
   LULTRA =        F    use ultrasoft PP ?                                      
   IUNSCR =        1    unscreen: 0-lin 1-nonlin 2-no                           
   RPACOR =    1.500    partial core radius                                     
   POMASS =   32.066; ZVAL   =    6.000    mass and valenz                      
   RCORE  =    1.900    outmost cutoff radius                                   
   RWIGS  =    2.200; RWIGS  =    1.164    wigner-seitz radius (au A)           
   ENMAX  =  280.000; ENMIN  =  194.016 eV                                      
   ICORE  =        2    local potential                                         
   LCOR   =        T    correct aug charges                                     
   LPAW   =        T    paw PP                                                  
   EAUG   =  335.092                                                            
   DEXC   =     .000                                                            
   RMAX   =    2.867    core radius for proj-oper                               
   RAUG   =    1.300    factor for augmentation sphere                          
   RDEP   =    1.954    radius for radial grids                                 
   QCUT   =   -4.360; QGAM   =    8.721    optimization parameters              
                                                                                
   Description                                                                  
     l     E      TYP  RCUT    TYP  RCUT                                        
     0   .000     23  1.900                                                     
     0   .000     23  1.900                                                     
     1   .000     23  1.900                                                     
     1   .000     23  1.900                                                     
     2   .000     23  1.900                                                     
  local pseudopotential read in
  partial core-charges read in
  atomic valenz-charges read in
  non local Contribution for L=           0  read in
    real space projection operators read in
  non local Contribution for L=           0  read in
    real space projection operators read in
  non local Contribution for L=           1  read in
    real space projection operators read in
  non local Contribution for L=           1  read in
    real space projection operators read in
    PAW grid and wavefunctions read in
 
   number of l-projection  operators is LMAX  =           4
   number of lm-projection operators is LMMAX =           8
 

 ----------------------------------------------------------------------------- 
|                                                                             |
|  ADVICE TO THIS USER RUNNING 'VASP/VAMP'   (HEAR YOUR MASTER'S VOICE ...):  |
|                                                                             |
|      You have a (more or less) 'large supercell' and for larger cells       |
|      it might be more efficient to use real space projection operators      |
|      So try LREAL= Auto  in the INCAR   file.                               |
|      Mind: If you want to do a very accurate calculations keep the          |
|      reciprocal projection scheme          (i.e. LREAL=.FALSE.)             |
|                                                                             |
 ----------------------------------------------------------------------------- 

 PAW_PBE V 08Apr2002                    :
 energy of atom  1       EATOM= -170.8679
 kinetic energy error for atom=    0.0047 (will be added to EATOM!!)
 PAW_PBE Mo 08Apr2002                   :
 energy of atom  2       EATOM= -217.5180
 kinetic energy error for atom=    0.0215 (will be added to EATOM!!)
 PAW_PBE W 08Apr2002                    :
 energy of atom  3       EATOM= -204.6100
 kinetic energy error for atom=    0.0205 (will be added to EATOM!!)
  PAW_PBE S 17Jan2003                   :
 energy of atom  4       EATOM= -276.8230
 kinetic energy error for atom=    0.0122 (will be added to EATOM!!)
 
 
 POSCAR: crystal structure from VMoWS2 with Hexag
  positions in cartesian coordinates
  No initial velocities read in
 exchange correlation table for  LEXCH =        8
   RHO(1)=    0.500       N(1)  =     2000
   RHO(2)=  100.500       N(2)  =     4000
 


--------------------------------------------------------------------------------------------------------


 ion  position               nearest neighbor table
   1  0.667  0.000  0.000-  17 2.34  26 2.34  23 2.36  22 2.36  21 2.36  20 2.36
   2  0.667  0.333  0.000-  19 2.34  22 2.34  25 2.36  24 2.36  17 2.36  16 2.36
   3  0.667  0.667  0.000-  21 2.34  24 2.34  27 2.36  26 2.36  19 2.36  18 2.36
   4  0.333  0.000  0.000-  11 2.34  20 2.34  17 2.36  16 2.36  15 2.36  14 2.36   5 3.34   6 3.34
                             7 3.34   9 3.36
   5  0.333  0.667  0.000-  15 2.34  18 2.34  20 2.36  21 2.36  13 2.36  12 2.36   4 3.34   6 3.34
                             9 3.34   8 3.36
   6  0.333  0.333  0.000-  13 2.34  16 2.34  19 2.36  18 2.36  11 2.36  10 2.36   5 3.34   4 3.34
                             8 3.34   7 3.36
   7  0.000  0.000  0.000-  23 2.34  14 2.34  11 2.36  10 2.36  27 2.36  26 2.36   9 3.34   8 3.34
                             4 3.34   6 3.36
   8  1.000  0.333  0.000-  25 2.34  10 2.34  13 2.36  12 2.36  22 2.36  23 2.36   9 3.34   7 3.34
                             6 3.34   5 3.36
   9  0.000  0.667  0.000-  27 2.34  12 2.34  14 2.36  15 2.36  24 2.36  25 2.36   7 3.34   8 3.34
                             5 3.34   4 3.36
  10  0.111  0.222  0.955-   8 2.34   7 2.36   6 2.36
  11  0.222  0.111  0.045-   4 2.34   7 2.36   6 2.36
  12  0.111  0.556  0.955-   9 2.34   8 2.36   5 2.36
  13  0.222  0.444  0.045-   6 2.34   8 2.36   5 2.36
  14  0.111  0.889  0.955-   7 2.34   9 2.36   4 2.36
  15  0.222  0.777  0.045-   5 2.34   9 2.36   4 2.36
  16  0.444  0.222  0.955-   6 2.34   4 2.36   2 2.36
  17  0.556  0.111  0.045-   1 2.34   4 2.36   2 2.36
  18  0.444  0.556  0.955-   5 2.34   6 2.36   3 2.36
  19  0.556  0.444  0.045-   2 2.34   6 2.36   3 2.36
  20  0.444  0.889  0.955-   4 2.34   5 2.36   1 2.36
  21  0.556  0.777  0.045-   3 2.34   5 2.36   1 2.36
  22  0.777  0.222  0.955-   2 2.34   1 2.36   8 2.36
  23  0.889  0.111  0.045-   7 2.34   1 2.36   8 2.36
  24  0.777  0.556  0.955-   3 2.34   2 2.36   9 2.36
  25  0.889  0.444  0.045-   8 2.34   2 2.36   9 2.36
  26  0.777  0.889  0.955-   1 2.34   3 2.36   7 2.36
  27  0.889  0.777  0.045-   9 2.34   3 2.36   7 2.36
 

IMPORTANT INFORMATION: All symmetrisations will be switched off!
NOSYMM: (Re-)initialisation of all symmetry stuff for point group C_1.

 
 
 KPOINTS: K-POINTS 	#supercell of CrS2 in hexagona

Automatic generation of k-mesh.
Space group operators:
 irot       det(A)        alpha          n_x          n_y          n_z        tau_x        tau_y        tau_z
    1     1.000000     0.000000     1.000000     0.000000     0.000000     0.000000     0.000000     0.000000
 
 Subroutine IBZKPT returns following result:
 ===========================================
 
 Found     34 irreducible k-points:
 
 Following reciprocal coordinates:
            Coordinates               Weight
  0.000000  0.000000  0.000000      1.000000
  0.125000  0.000000  0.000000      2.000000
  0.250000  0.000000  0.000000      2.000000
  0.375000  0.000000  0.000000      2.000000
  0.500000  0.000000  0.000000      1.000000
  0.000000  0.125000  0.000000      2.000000
  0.125000  0.125000  0.000000      2.000000
  0.250000  0.125000  0.000000      2.000000
  0.375000  0.125000  0.000000      2.000000
  0.500000  0.125000  0.000000      2.000000
 -0.375000  0.125000  0.000000      2.000000
 -0.250000  0.125000  0.000000      2.000000
 -0.125000  0.125000  0.000000      2.000000
  0.000000  0.250000  0.000000      2.000000
  0.125000  0.250000  0.000000      2.000000
  0.250000  0.250000  0.000000      2.000000
  0.375000  0.250000  0.000000      2.000000
  0.500000  0.250000  0.000000      2.000000
 -0.375000  0.250000  0.000000      2.000000
 -0.250000  0.250000  0.000000      2.000000
 -0.125000  0.250000  0.000000      2.000000
 -0.000000  0.375000  0.000000      2.000000
  0.125000  0.375000  0.000000      2.000000
  0.250000  0.375000  0.000000      2.000000
  0.375000  0.375000  0.000000      2.000000
  0.500000  0.375000  0.000000      2.000000
 -0.375000  0.375000  0.000000      2.000000
 -0.250000  0.375000  0.000000      2.000000
 -0.125000  0.375000  0.000000      2.000000
  0.000000  0.500000  0.000000      1.000000
  0.125000  0.500000  0.000000      2.000000
  0.250000  0.500000  0.000000      2.000000
  0.375000  0.500000  0.000000      2.000000
  0.500000  0.500000  0.000000      1.000000
 
 Following cartesian coordinates:
            Coordinates               Weight
  0.000000  0.000000  0.000000      1.000000
  0.007209  0.012401  0.000000      2.000000
  0.014418  0.024802  0.000000      2.000000
  0.021626  0.037202  0.000000      2.000000
  0.028835  0.049603  0.000000      1.000000
 -0.007209  0.012401  0.000000      2.000000
  0.000000  0.024802  0.000000      2.000000
  0.007209  0.037202  0.000000      2.000000
  0.014418  0.049603  0.000000      2.000000
  0.021626  0.062004  0.000000      2.000000
 -0.028835 -0.024802  0.000000      2.000000
 -0.021626 -0.012401  0.000000      2.000000
 -0.014418  0.000000  0.000000      2.000000
 -0.014418  0.024802  0.000000      2.000000
 -0.007209  0.037202  0.000000      2.000000
  0.000000  0.049603  0.000000      2.000000
  0.007209  0.062004  0.000000      2.000000
  0.014418  0.074405  0.000000      2.000000
 -0.036044 -0.012401  0.000000      2.000000
 -0.028835  0.000000  0.000000      2.000000
 -0.021626  0.012401  0.000000      2.000000
 -0.021626  0.037202  0.000000      2.000000
 -0.014418  0.049603  0.000000      2.000000
 -0.007209  0.062004  0.000000      2.000000
  0.000000  0.074405  0.000000      2.000000
  0.007209  0.086806  0.000000      2.000000
 -0.043253  0.000000  0.000000      2.000000
 -0.036044  0.012401  0.000000      2.000000
 -0.028835  0.024802  0.000000      2.000000
 -0.028835  0.049603  0.000000      1.000000
 -0.021626  0.062004  0.000000      2.000000
 -0.014418  0.074405  0.000000      2.000000
 -0.007209  0.086806  0.000000      2.000000
  0.000000  0.099206  0.000000      1.000000
 


--------------------------------------------------------------------------------------------------------




 Dimension of arrays:
   k-points           NKPTS =     34   k-points in BZ     NKDIM =     34   number of bands    NBANDS=    120
   number of dos      NEDOS =    301   number of ions     NIONS =     27
   non local maximal  LDIM  =      6   non local SUM 2l+1 LMDIM =     18
   total plane-waves  NPLWV = 222264
   max r-space proj   IRMAX =      1   max aug-charges    IRDMAX=   5642
   dimension x,y,z NGX =    42 NGY =   42 NGZ =  126
   dimension x,y,z NGXF=    84 NGYF=   84 NGZF=  252
   support grid    NGXF=    84 NGYF=   84 NGZF=  252
   ions per type =               3   3   3  18
 NGX,Y,Z   is equivalent  to a cutoff of   6.96,  6.96,  6.98 a.u.
 NGXF,Y,Z  is equivalent  to a cutoff of  13.92, 13.92, 13.96 a.u.


 I would recommend the setting:
   dimension x,y,z NGX =    41 NGY =   41 NGZ =  123
 SYSTEM =  unknown system                          
 POSCAR =  crystal structure from VMoWS2 with Hexag

 Startparameter for this run:
   NWRITE =      2    write-flag & timer
   PREC   = normal    normal or accurate (medium, high low for compatibility)
   ISTART =      0    job   : 0-new  1-cont  2-samecut
   ICHARG =      2    charge: 1-file 2-atom 10-const
   ISPIN  =      1    spin polarized calculation?
   LNONCOLLINEAR =      F non collinear calculations
   LSORBIT =      F    spin-orbit coupling
   INIWAV =      1    electr: 0-lowe 1-rand  2-diag
   LASPH  =      F    aspherical Exc in radial PAW
   METAGGA=      F    non-selfconsistent MetaGGA calc.

 Electronic Relaxation 1
   ENCUT  =  280.0 eV  20.58 Ry    4.54 a.u.  13.68 13.68 40.93*2*pi/ulx,y,z
   ENINI  =  280.0     initial cutoff
   ENAUG  =  373.4 eV  augmentation charge cutoff
   NELM   =     60;   NELMIN=  2; NELMDL= -5     # of ELM steps 
   EDIFF  = 0.1E-03   stopping-criterion for ELM
   LREAL  =      F    real-space projection
   NLSPLINE    = F    spline interpolate recip. space projectors
   LCOMPAT=      F    compatible to vasp.4.4
   GGA_COMPAT  = T    GGA compatible to vasp.4.4-vasp.4.6
   LMAXPAW     = -100 max onsite density
   LMAXMIX     =    2 max onsite mixed and CHGCAR
   VOSKOWN=      0    Vosko Wilk Nusair interpolation
   ROPT   =    0.00000   0.00000   0.00000   0.00000
 Ionic relaxation
   EDIFFG = 0.1E-02   stopping-criterion for IOM
   NSW    =    100    number of steps for IOM
   NBLOCK =      1;   KBLOCK =    100    inner block; outer block 
   IBRION =      1    ionic relax: 0-MD 1-quasi-New 2-CG
   NFREE  =      0    steps in history (QN), initial steepest desc. (CG)
   ISIF   =      3    stress and relaxation
   IWAVPR =     11    prediction:  0-non 1-charg 2-wave 3-comb
   ISYM   =      0    0-nonsym 1-usesym 2-fastsym
   LCORR  =      T    Harris-Foulkes like correction to forces

   POTIM  = 0.5000    time-step for ionic-motion
   TEIN   =    0.0    initial temperature
   TEBEG  =    0.0;   TEEND  =   0.0 temperature during run
   SMASS  =  -3.00    Nose mass-parameter (am)
   estimated Nose-frequenzy (Omega)   =  0.10E-29 period in steps =****** mass=  -0.230E-26a.u.
   SCALEE = 1.0000    scale energy and forces
   NPACO  =    256;   APACO  = 16.0  distance and # of slots for P.C.
   PSTRESS=    0.0 pullay stress

  Mass of Ions in am
   POMASS =  50.94 95.94183.85 32.07
  Ionic Valenz
   ZVAL   =   5.00  6.00  6.00  6.00
  Atomic Wigner-Seitz radii
   RWIGS  =  -1.00 -1.00 -1.00 -1.00
  virtual crystal weights 
   VCA    =   1.00  1.00  1.00  1.00
   NELECT =     159.0000    total number of electrons
   NUPDOWN=      -1.0000    fix difference up-down

 DOS related values:
   EMIN   =  10.00;   EMAX   =-10.00  energy-range for DOS
   EFERMI =   0.00
   ISMEAR =     0;   SIGMA  =   0.20  broadening in eV -4-tet -1-fermi 0-gaus

 Electronic relaxation 2 (details)
   IALGO  =     38    algorithm
   LDIAG  =      T    sub-space diagonalisation (order eigenvalues)
   LSUBROT=      F    optimize rotation matrix (better conditioning)
   TURBO    =      0    0=normal 1=particle mesh
   IRESTART =      0    0=no restart 2=restart with 2 vectors
   NREBOOT  =      0    no. of reboots
   NMIN     =      0    reboot dimension
   EREF     =   0.00    reference energy to select bands
   IMIX   =      4    mixing-type and parameters
     AMIX     =   0.40;   BMIX     =  1.00
     AMIX_MAG =   1.60;   BMIX_MAG =  1.00
     AMIN     =   0.10
     WC   =   100.;   INIMIX=   1;  MIXPRE=   1;  MAXMIX= -45

 Intra band minimization:
   WEIMIN = 0.0010     energy-eigenvalue tresh-hold
   EBREAK =  0.21E-06  absolut break condition
   DEPER  =   0.30     relativ break condition  

   TIME   =   0.40     timestep for ELM

  volume/ion in A,a.u.               =      97.10       655.29
  Fermi-wavevector in a.u.,A,eV,Ry     =   0.643191  1.215456  5.628665  0.413695
  Thomas-Fermi vector in A             =   1.710110
 
 Write flags
   LWAVE  =      F    write WAVECAR
   LCHARG =      F    write CHGCAR
   LVTOT  =      F    write LOCPOT, total local potential
   LVHAR  =      F    write LOCPOT, Hartree potential only
   LELF   =      F    write electronic localiz. function (ELF)
   LORBIT =      0    0 simple, 1 ext, 2 COOP (PROOUT)


 Dipole corrections
   LMONO  =      F    monopole corrections only (constant potential shift)
   LDIPOL =      F    correct potential (dipole corrections)
   IDIPOL =      0    1-x, 2-y, 3-z, 4-all directions 
   EPSILON=  1.0000000 bulk dielectric constant

 Exchange correlation treatment:
   GGA     =    --    GGA type
   LEXCH   =     8    internal setting for exchange type
   VOSKOWN=      0    Vosko Wilk Nusair interpolation
   LHFCALC =     F    Hartree Fock is set to
   LHFONE  =     F    Hartree Fock one center treatment
   AEXX    =    0.0000 exact exchange contribution

 Linear response parameters
   LEPSILON=     F    determine dielectric tensor
   LRPA    =     F    only Hartree local field effects (RPA)
   LNABLA  =     F    use nabla operator in PAW spheres
   LVEL    =     F    velocity operator in full k-point grid
   LINTERFAST=   F  fast interpolation
   KINTER  =     0    interpolate to denser k-point grid
   CSHIFT  =0.1000    complex shift for real part using Kramers Kronig
   OMEGAMAX=  -1.0    maximum frequency
   DEG_THRESHOLD= 0.2000000E-02 threshold for treating states as degnerate
   RTIME   =    0.100 relaxation time in fs

 Orbital magnetization related:
   ORBITALMAG=     F  switch on orbital magnetization
   LCHIMAG   =     F  perturbation theory with respect to B field
   DQ        =  0.001000  dq finite difference perturbation B field



--------------------------------------------------------------------------------------------------------


 quasi-Newton-method for relaxation of ions
 charge density and potential will be updated during run
 non-spin polarized calculation
 Variant of blocked Davidson
 Davidson routine will perform the subspace rotation
 perform sub-space diagonalisation
    after iterative eigenvector-optimisation
 modified Broyden-mixing scheme, WC =      100.0
 initial mixing is a Kerker type mixing with AMIX =  0.4000 and BMIX =      1.0000
 Hartree-type preconditioning will be used
 using additional bands           40
 reciprocal scheme for non local part
 use partial core corrections
 calculate Harris-corrections to forces 
   (improved forces if not selfconsistent)
 use gradient corrections 
 use of overlap-Matrix (Vanderbilt PP)
 Gauss-broadening in eV      SIGMA  =   0.20


--------------------------------------------------------------------------------------------------------


  energy-cutoff  :      280.00
  volume of cell :     2621.81
      direct lattice vectors                 reciprocal lattice vectors
     8.669999960  5.039999894  0.000000000     0.057670129  0.099206348  0.000000000
    -8.669999821  5.040000133  0.000000000    -0.057670126  0.099206350  0.000000000
     0.000000000  0.000000000 30.000000000     0.000000000  0.000000000  0.033333333

  length of vectors
    10.028484344 10.028484344 30.000000000     0.114750788  0.114750788  0.033333333


 
 k-points in units of 2pi/SCALE and weight: K-POINTS 	#supercell of CrS2 in hexagona
   0.00000000  0.00000000  0.00000000       0.016
   0.00720877  0.01240079  0.00000000       0.031
   0.01441753  0.02480159  0.00000000       0.031
   0.02162630  0.03720238  0.00000000       0.031
   0.02883506  0.04960317  0.00000000       0.016
  -0.00720877  0.01240079  0.00000000       0.031
   0.00000000  0.02480159  0.00000000       0.031
   0.00720877  0.03720238  0.00000000       0.031
   0.01441753  0.04960317  0.00000000       0.031
   0.02162630  0.06200397  0.00000000       0.031
  -0.02883506 -0.02480159  0.00000000       0.031
  -0.02162630 -0.01240079  0.00000000       0.031
  -0.01441753  0.00000000  0.00000000       0.031
  -0.01441753  0.02480159  0.00000000       0.031
  -0.00720877  0.03720238  0.00000000       0.031
   0.00000000  0.04960317  0.00000000       0.031
   0.00720877  0.06200397  0.00000000       0.031
   0.01441753  0.07440476  0.00000000       0.031
  -0.03604383 -0.01240079  0.00000000       0.031
  -0.02883506  0.00000000  0.00000000       0.031
  -0.02162630  0.01240079  0.00000000       0.031
  -0.02162630  0.03720238  0.00000000       0.031
  -0.01441753  0.04960317  0.00000000       0.031
  -0.00720877  0.06200397  0.00000000       0.031
   0.00000000  0.07440476  0.00000000       0.031
   0.00720877  0.08680556  0.00000000       0.031
  -0.04325260  0.00000000  0.00000000       0.031
  -0.03604383  0.01240079  0.00000000       0.031
  -0.02883506  0.02480159  0.00000000       0.031
  -0.02883506  0.04960317  0.00000000       0.016
  -0.02162630  0.06200397  0.00000000       0.031
  -0.01441753  0.07440476  0.00000000       0.031
  -0.00720876  0.08680556  0.00000000       0.031
   0.00000000  0.09920635  0.00000000       0.016
 
 k-points in reciprocal lattice and weights: K-POINTS 	#supercell of CrS2 in hexagona
   0.00000000  0.00000000  0.00000000       0.016
   0.12500000  0.00000000  0.00000000       0.031
   0.25000000  0.00000000  0.00000000       0.031
   0.37500000  0.00000000  0.00000000       0.031
   0.50000000  0.00000000  0.00000000       0.016
   0.00000000  0.12500000  0.00000000       0.031
   0.12500000  0.12500000  0.00000000       0.031
   0.25000000  0.12500000  0.00000000       0.031
   0.37500000  0.12500000  0.00000000       0.031
   0.50000000  0.12500000  0.00000000       0.031
  -0.37500000  0.12500000  0.00000000       0.031
  -0.25000000  0.12500000  0.00000000       0.031
  -0.12500000  0.12500000  0.00000000       0.031
   0.00000000  0.25000000  0.00000000       0.031
   0.12500000  0.25000000  0.00000000       0.031
   0.25000000  0.25000000  0.00000000       0.031
   0.37500000  0.25000000  0.00000000       0.031
   0.50000000  0.25000000  0.00000000       0.031
  -0.37500000  0.25000000  0.00000000       0.031
  -0.25000000  0.25000000  0.00000000       0.031
  -0.12500000  0.25000000  0.00000000       0.031
  -0.00000000  0.37500000  0.00000000       0.031
   0.12500000  0.37500000  0.00000000       0.031
   0.25000000  0.37500000  0.00000000       0.031
   0.37500000  0.37500000  0.00000000       0.031
   0.50000000  0.37500000  0.00000000       0.031
  -0.37500000  0.37500000  0.00000000       0.031
  -0.25000000  0.37500000  0.00000000       0.031
  -0.12500000  0.37500000  0.00000000       0.031
   0.00000000  0.50000000  0.00000000       0.016
   0.12500000  0.50000000  0.00000000       0.031
   0.25000000  0.50000000  0.00000000       0.031
   0.37500000  0.50000000  0.00000000       0.031
   0.50000000  0.50000000  0.00000000       0.016
 
 position of ions in fractional coordinates (direct lattice) 
   0.66666669  0.00000000  0.00000000
   0.66666669  0.33333334  0.00000000
   0.66666669  0.66666669  0.00000000
   0.33333334  0.00000000  0.00000000
   0.33333334  0.66666669  0.00000000
   0.33333334  0.33333334  0.00000000
   0.00000000  0.00000000  0.00000000
   1.00000000  0.33333334  0.00000000
   0.00000000  0.66666669  0.00000000
   0.11068511  0.22244981  0.95539999
   0.22244981  0.11068511  0.04460000
   0.11068511  0.55578315  0.95539999
   0.22244981  0.44401845  0.04460000
   0.11068511  0.88911647  0.95539999
   0.22244981  0.77735180  0.04460000
   0.44401845  0.22244981  0.95539999
   0.55578315  0.11068511  0.04460000
   0.44401845  0.55578315  0.95539999
   0.55578315  0.44401845  0.04460000
   0.44401845  0.88911647  0.95539999
   0.55578315  0.77735180  0.04460000
   0.77735180  0.22244981  0.95539999
   0.88911647  0.11068511  0.04460000
   0.77735180  0.55578315  0.95539999
   0.88911647  0.44401845  0.04460000
   0.77735180  0.88911647  0.95539999
   0.88911647  0.77735180  0.04460000
 
 position of ions in cartesian coordinates  (Angst):
   5.78000015  3.36000003  0.00000000
   2.89000012  5.04000012  0.00000000
   0.00000009  6.72000022  0.00000000
   2.89000007  1.68000002  0.00000000
  -2.88999998  5.04000020  0.00000000
   0.00000005  3.36000011  0.00000000
   0.00000000  0.00000000  0.00000000
   5.77999993  6.71999999  0.00000000
  -5.78000005  3.36000019  0.00000000
  -0.96899991  1.67900001 28.66199970
   0.96899995  1.67899998  1.33799996
  -3.85899993  3.35900011 28.66199970
  -1.92100007  3.35900008  1.33799996
  -6.74899970  5.03900005 28.66199970
  -4.81100010  5.03900017  1.33799996
   1.92100017  3.35900003 28.66199970
   3.85900003  3.35900000  1.33799996
  -0.96899986  5.03900012 28.66199970
   0.96900000  5.03900009  1.33799996
  -3.85899963  6.71900006 28.66199970
  -1.92100003  6.71900019  1.33799996
   4.81100024  5.03900004 28.66199970
   6.74899984  5.03899987  1.33799996
   1.92100021  6.71900014 28.66199970
   3.85899981  6.71899996  1.33799996
  -0.96899956  8.39900008 28.66199970
   0.96899979  8.39900005  1.33799996
 


--------------------------------------------------------------------------------------------------------


 k-point  1 :   0.0000 0.0000 0.0000  plane waves:   27959
 k-point  2 :   0.1250 0.0000 0.0000  plane waves:   27889
 k-point  3 :   0.2500 0.0000 0.0000  plane waves:   27875
 k-point  4 :   0.3750 0.0000 0.0000  plane waves:   27893
 k-point  5 :   0.5000 0.0000 0.0000  plane waves:   27932
 k-point  6 :   0.0000 0.1250 0.0000  plane waves:   27889
 k-point  7 :   0.1250 0.1250 0.0000  plane waves:   27906
 k-point  8 :   0.2500 0.1250 0.0000  plane waves:   27898
 k-point  9 :   0.3750 0.1250 0.0000  plane waves:   27888
 k-point 10 :   0.5000 0.1250 0.0000  plane waves:   27873
 k-point 11 :  -0.3750 0.1250 0.0000  plane waves:   27874
 k-point 12 :  -0.2500 0.1250 0.0000  plane waves:   27895
 k-point 13 :  -0.1250 0.1250 0.0000  plane waves:   27879
 k-point 14 :   0.0000 0.2500 0.0000  plane waves:   27875
 k-point 15 :   0.1250 0.2500 0.0000  plane waves:   27898
 k-point 16 :   0.2500 0.2500 0.0000  plane waves:   27920
 k-point 17 :   0.3750 0.2500 0.0000  plane waves:   27901
 k-point 18 :   0.5000 0.2500 0.0000  plane waves:   27875
 k-point 19 :  -0.3750 0.2500 0.0000  plane waves:   27894
 k-point 20 :  -0.2500 0.2500 0.0000  plane waves:   27870
 k-point 21 :  -0.1250 0.2500 0.0000  plane waves:   27895
 k-point 22 :  -0.0000 0.3750 0.0000  plane waves:   27893
 k-point 23 :   0.1250 0.3750 0.0000  plane waves:   27888
 k-point 24 :   0.2500 0.3750 0.0000  plane waves:   27901
 k-point 25 :   0.3750 0.3750 0.0000  plane waves:   27860
 k-point 26 :   0.5000 0.3750 0.0000  plane waves:   27895
 k-point 27 :  -0.3750 0.3750 0.0000  plane waves:   27858
 k-point 28 :  -0.2500 0.3750 0.0000  plane waves:   27894
 k-point 29 :  -0.1250 0.3750 0.0000  plane waves:   27874
 k-point 30 :   0.0000 0.5000 0.0000  plane waves:   27932
 k-point 31 :   0.1250 0.5000 0.0000  plane waves:   27873
 k-point 32 :   0.2500 0.5000 0.0000  plane waves:   27875
 k-point 33 :   0.3750 0.5000 0.0000  plane waves:   27895
 k-point 34 :   0.5000 0.5000 0.0000  plane waves:   27910

 maximum and minimum number of plane-waves per node :     27959    27858

 maximum number of plane-waves:     27959
 maximum index in each direction: 
   IXMAX=   14   IYMAX=   13   IZMAX=   40
   IXMIN=  -14   IYMIN=  -14   IZMIN=  -40

 WARNING: aliasing errors must be expected set NGX to  58 to avoid them
 WARNING: aliasing errors must be expected set NGY to  56 to avoid them
 WARNING: aliasing errors must be expected set NGZ to 162 to avoid them
 aliasing errors are usually negligible using standard VASP settings
 and one can safely disregard these warnings

 serial   3D FFT for wavefunctions

 total amount of memory used by VASP on root node   650782. kBytes
========================================================================

   base      :      30000. kBytes
   nonl-proj :     559647. kBytes
   fftplans  :       2414. kBytes
   grid      :      12150. kBytes
   one-center:        419. kBytes
   wavefun   :      46152. kBytes
 
     INWAV:  cpu time    0.0008: real time    0.0000
 Broyden mixing: mesh for mixing (old mesh)
   NGX = 27   NGY = 27   NGZ = 81
  (NGX  = 84   NGY  = 84   NGZ  =252)
  gives a total of  59049 points

 initial charge density was supplied:
 charge density of overlapping atoms calculated
 number of electron     159.0000000 magnetization 
 keeping initial charge density in first step


--------------------------------------------------------------------------------------------------------


 Maximum index for augmentation-charges          140 (set IRDMAX)


--------------------------------------------------------------------------------------------------------


 First call to EWALD:  gamma=   0.129
 Maximum number of real-space cells 4x 4x 2
 Maximum number of reciprocal cells 2x 2x 5

 FEWALD executed in parallel
    FEWALD:  cpu time    0.0016: real time    0.0016


----------------------------------------- Iteration    1(   1)  ---------------------------------------


    POTLOK:  cpu time    0.0396: real time    0.0478
    SETDIJ:  cpu time    0.0032: real time    0.0033
     EDDAV:  cpu time   21.7280: real time   21.9452
       DOS:  cpu time    0.0014: real time    0.0017
    --------------------------------------------
      LOOP:  cpu time   21.7779: real time   22.0052

 eigenvalue-minimisations  :  8160
 total energy-change (2. order) : 0.1123587E+04  (-0.3586892E+04)
 number of electron     159.0000000 magnetization 
 augmentation part      159.0000000 magnetization 

 Free energy of the ion-electron system (eV)
  ---------------------------------------------------
  alpha Z        PSCENC =        81.65567618
  Ewald energy   TEWEN  =     41891.19377233
  -Hartree energ DENC   =    -47723.83903789
  -exchange      EXHF   =         0.00000000
  -V(xc)+E(xc)   XCENC  =      -242.92449877
  PAW double counting   =      3467.42045192    -2871.19716117
  entropy T*S    EENTRO =        -0.53034278
  eigenvalues    EBANDS =      -239.63430455
  atomic energy  EATOM  =      6761.44252427
  Solvation  Ediel_sol  =         0.00000000
  ---------------------------------------------------
  free energy    TOTEN  =      1123.58707955 eV

  energy without entropy =     1124.11742233  energy(sigma->0) =     1123.85225094


--------------------------------------------------------------------------------------------------------




----------------------------------------- Iteration    1(   2)  ---------------------------------------


     EDDAV:  cpu time   27.8648: real time   27.9320
       DOS:  cpu time    0.0011: real time    0.0011
    --------------------------------------------
      LOOP:  cpu time   27.8669: real time   27.9407

 eigenvalue-minimisations  : 11120
 total energy-change (2. order) :-0.1128096E+04  (-0.1087852E+04)
 number of electron     159.0000000 magnetization 
 augmentation part      159.0000000 magnetization 

 Free energy of the ion-electron system (eV)
  ---------------------------------------------------
  alpha Z        PSCENC =        81.65567618
  Ewald energy   TEWEN  =     41891.19377233
  -Hartree energ DENC   =    -47723.83903789
  -exchange      EXHF   =         0.00000000
  -V(xc)+E(xc)   XCENC  =      -242.92449877
  PAW double counting   =      3467.42045192    -2871.19716117
  entropy T*S    EENTRO =        -0.18024345
  eigenvalues    EBANDS =     -1368.07993844
  atomic energy  EATOM  =      6761.44252427
  Solvation  Ediel_sol  =         0.00000000
  ---------------------------------------------------
  free energy    TOTEN  =        -4.50845502 eV

  energy without entropy =       -4.32821157  energy(sigma->0) =       -4.41833329


--------------------------------------------------------------------------------------------------------




----------------------------------------- Iteration    1(   3)  ---------------------------------------


     EDDAV:  cpu time   27.4767: real time   27.5432
       DOS:  cpu time    0.0010: real time    0.0010
    --------------------------------------------
      LOOP:  cpu time   27.4785: real time   27.5510

 eigenvalue-minimisations  : 10920
 total energy-change (2. order) :-0.1953545E+03  (-0.1876191E+03)
 number of electron     159.0000000 magnetization 
 augmentation part      159.0000000 magnetization 

 Free energy of the ion-electron system (eV)
  ---------------------------------------------------
  alpha Z        PSCENC =        81.65567618
  Ewald energy   TEWEN  =     41891.19377233
  -Hartree energ DENC   =    -47723.83903789
  -exchange      EXHF   =         0.00000000
  -V(xc)+E(xc)   XCENC  =      -242.92449877
  PAW double counting   =      3467.42045192    -2871.19716117
  entropy T*S    EENTRO =        -0.25052325
  eigenvalues    EBANDS =     -1563.36414168
  atomic energy  EATOM  =      6761.44252427
  Solvation  Ediel_sol  =         0.00000000
  ---------------------------------------------------
  free energy    TOTEN  =      -199.86293806 eV

  energy without entropy =     -199.61241481  energy(sigma->0) =     -199.73767644


--------------------------------------------------------------------------------------------------------




----------------------------------------- Iteration    1(   4)  ---------------------------------------


     EDDAV:  cpu time   30.1294: real time   30.2021
       DOS:  cpu time    0.0010: real time    0.0010
    --------------------------------------------
      LOOP:  cpu time   30.1312: real time   30.2094

 eigenvalue-minimisations  : 12240
 total energy-change (2. order) :-0.9230105E+01  (-0.8917800E+01)
 number of electron     159.0000000 magnetization 
 augmentation part      159.0000000 magnetization 

 Free energy of the ion-electron system (eV)
  ---------------------------------------------------
  alpha Z        PSCENC =        81.65567618
  Ewald energy   TEWEN  =     41891.19377233
  -Hartree energ DENC   =    -47723.83903789
  -exchange      EXHF   =         0.00000000
  -V(xc)+E(xc)   XCENC  =      -242.92449877
  PAW double counting   =      3467.42045192    -2871.19716117
  entropy T*S    EENTRO =        -0.26001504
  eigenvalues    EBANDS =     -1572.58475499
  atomic energy  EATOM  =      6761.44252427
  Solvation  Ediel_sol  =         0.00000000
  ---------------------------------------------------
  free energy    TOTEN  =      -209.09304316 eV

  energy without entropy =     -208.83302812  energy(sigma->0) =     -208.96303564


--------------------------------------------------------------------------------------------------------




----------------------------------------- Iteration    1(   5)  ---------------------------------------


     EDDAV:  cpu time   28.9362: real time   29.0088
       DOS:  cpu time    0.0010: real time    0.0010
    CHARGE:  cpu time    0.4663: real time    0.4676
    MIXING:  cpu time    0.0023: real time    0.0024
    --------------------------------------------
      LOOP:  cpu time   29.4066: real time   29.4862

 eigenvalue-minimisations  : 11680
 total energy-change (2. order) :-0.3133660E+00  (-0.3124651E+00)
 number of electron     159.0000110 magnetization 
 augmentation part       -9.8644413 magnetization 

 Broyden mixing:
  rms(total) = 0.27781E+01    rms(broyden)= 0.27776E+01
  rms(prec ) = 0.29679E+01
  weight for this iteration     100.00

 Free energy of the ion-electron system (eV)
  ---------------------------------------------------
  alpha Z        PSCENC =        81.65567618
  Ewald energy   TEWEN  =     41891.19377233
  -Hartree energ DENC   =    -47723.83903789
  -exchange      EXHF   =         0.00000000
  -V(xc)+E(xc)   XCENC  =      -242.92449877
  PAW double counting   =      3467.42045192    -2871.19716117
  entropy T*S    EENTRO =        -0.25684337
  eigenvalues    EBANDS =     -1572.90129270
  atomic energy  EATOM  =      6761.44252427
  Solvation  Ediel_sol  =         0.00000000
  ---------------------------------------------------
  free energy    TOTEN  =      -209.40640920 eV

  energy without entropy =     -209.14956583  energy(sigma->0) =     -209.27798751


--------------------------------------------------------------------------------------------------------




----------------------------------------- Iteration    1(   6)  ---------------------------------------


    POTLOK:  cpu time    0.0326: real time    0.0339
    SETDIJ:  cpu time    0.0026: real time    0.0026
     EDDAV:  cpu time   30.3829: real time   30.4559
       DOS:  cpu time    0.0010: real time    0.0010
    CHARGE:  cpu time    0.4586: real time    0.4598
    MIXING:  cpu time    0.0020: real time    0.0018
    --------------------------------------------
      LOOP:  cpu time   30.8819: real time   30.9624

 eigenvalue-minimisations  : 12440
 total energy-change (2. order) :-0.3247934E+02  (-0.1128584E+02)
 number of electron     159.0000107 magnetization 
 augmentation part        7.2928039 magnetization 

 Broyden mixing:
  rms(total) = 0.60865E+01    rms(broyden)= 0.60859E+01
  rms(prec ) = 0.67199E+01
  weight for this iteration     100.00

 eigenvalues of (default mixing * dielectric matrix)
  average eigenvalue GAMMA=   0.2914
  0.2914

 Free energy of the ion-electron system (eV)
  ---------------------------------------------------
  alpha Z        PSCENC =        81.65567618
  Ewald energy   TEWEN  =     41891.19377233
  -Hartree energ DENC   =    -47702.20793431
  -exchange      EXHF   =         0.00000000
  -V(xc)+E(xc)   XCENC  =      -233.57959555
  PAW double counting   =      3677.16176039    -3083.16027564
  entropy T*S    EENTRO =        -0.26181703
  eigenvalues    EBANDS =     -1634.12985924
  atomic energy  EATOM  =      6761.44252427
  Solvation  Ediel_sol  =         0.00000000
  ---------------------------------------------------
  free energy    TOTEN  =      -241.88574860 eV

  energy without entropy =     -241.62393157  energy(sigma->0) =     -241.75484008


--------------------------------------------------------------------------------------------------------




----------------------------------------- Iteration    1(   7)  ---------------------------------------


    POTLOK:  cpu time    0.0309: real time    0.0310
    SETDIJ:  cpu time    0.0024: real time    0.0024
     EDDAV:  cpu time   32.1442: real time   32.2212
       DOS:  cpu time    0.0009: real time    0.0009
    CHARGE:  cpu time    0.4688: real time    0.4699
    MIXING:  cpu time    0.0012: real time    0.0012
    --------------------------------------------
      LOOP:  cpu time   32.6492: real time   32.7343

 eigenvalue-minimisations  : 13240
 total energy-change (2. order) : 0.4583571E+02  (-0.1798961E+02)
 number of electron     159.0000087 magnetization 
 augmentation part       -6.2690267 magnetization 

 Broyden mixing:
  rms(total) = 0.19714E+01    rms(broyden)= 0.19695E+01
  rms(prec ) = 0.21921E+01
  weight for this iteration     100.00

 eigenvalues of (default mixing * dielectric matrix)
  average eigenvalue GAMMA=   0.5568
  0.9019  0.2116

 Free energy of the ion-electron system (eV)
  ---------------------------------------------------
  alpha Z        PSCENC =        81.65567618
  Ewald energy   TEWEN  =     41891.19377233
  -Hartree energ DENC   =    -47739.17527812
  -exchange      EXHF   =         0.00000000
  -V(xc)+E(xc)   XCENC  =      -234.97130256
  PAW double counting   =      3763.66743579    -3177.71345389
  entropy T*S    EENTRO =        -0.34016964
  eigenvalues    EBANDS =     -1541.80924532
  atomic energy  EATOM  =      6761.44252427
  Solvation  Ediel_sol  =         0.00000000
  ---------------------------------------------------
  free energy    TOTEN  =      -196.05004095 eV

  energy without entropy =     -195.70987131  energy(sigma->0) =     -195.87995613


--------------------------------------------------------------------------------------------------------




----------------------------------------- Iteration    1(   8)  ---------------------------------------


    POTLOK:  cpu time    0.0297: real time    0.0310
    SETDIJ:  cpu time    0.0025: real time    0.0025
     EDDAV:  cpu time   30.0451: real time   30.1178
       DOS:  cpu time    0.0002: real time    0.0011
    CHARGE:  cpu time    0.4847: real time    0.4859
    MIXING:  cpu time    0.0011: real time    0.0011
    --------------------------------------------
      LOOP:  cpu time   30.5665: real time   30.6472

 eigenvalue-minimisations  : 12160
 total energy-change (2. order) : 0.6817389E+01  (-0.1888020E+01)
 number of electron     159.0000095 magnetization 
 augmentation part       -6.3051285 magnetization 

 Broyden mixing:
  rms(total) = 0.12061E+01    rms(broyden)= 0.12059E+01
  rms(prec ) = 0.12998E+01
  weight for this iteration     100.00

 eigenvalues of (default mixing * dielectric matrix)
  average eigenvalue GAMMA=   0.5961
  1.1510  0.2291  0.4083

 Free energy of the ion-electron system (eV)
  ---------------------------------------------------
  alpha Z        PSCENC =        81.65567618
  Ewald energy   TEWEN  =     41891.19377233
  -Hartree energ DENC   =    -47762.10548885
  -exchange      EXHF   =         0.00000000
  -V(xc)+E(xc)   XCENC  =      -234.95959065
  PAW double counting   =      3908.68476347    -3324.42802330
  entropy T*S    EENTRO =        -0.33068249
  eigenvalues    EBANDS =     -1510.38560312
  atomic energy  EATOM  =      6761.44252427
  Solvation  Ediel_sol  =         0.00000000
  ---------------------------------------------------
  free energy    TOTEN  =      -189.23265215 eV

  energy without entropy =     -188.90196966  energy(sigma->0) =     -189.06731091


--------------------------------------------------------------------------------------------------------




----------------------------------------- Iteration    1(   9)  ---------------------------------------


    POTLOK:  cpu time    0.0305: real time    0.0305
    SETDIJ:  cpu time    0.0024: real time    0.0024
     EDDAV:  cpu time   32.2508: real time   32.3278
       DOS:  cpu time    0.0009: real time    0.0009
    CHARGE:  cpu time    0.4878: real time    0.4890
    MIXING:  cpu time    0.0012: real time    0.0012
    --------------------------------------------
      LOOP:  cpu time   32.7745: real time   32.8592

 eigenvalue-minimisations  : 13280
 total energy-change (2. order) : 0.1205510E+01  (-0.2866629E+00)
 number of electron     159.0000091 magnetization 
 augmentation part       -5.4571620 magnetization 

 Broyden mixing:
  rms(total) = 0.87106E+00    rms(broyden)= 0.87084E+00
  rms(prec ) = 0.94517E+00
  weight for this iteration     100.00

 eigenvalues of (default mixing * dielectric matrix)
  average eigenvalue GAMMA=   0.7443
  1.8130  0.6315  0.2197  0.3131

 Free energy of the ion-electron system (eV)
  ---------------------------------------------------
  alpha Z        PSCENC =        81.65567618
  Ewald energy   TEWEN  =     41891.19377233
  -Hartree energ DENC   =    -47766.96678539
  -exchange      EXHF   =         0.00000000
  -V(xc)+E(xc)   XCENC  =      -234.03916303
  PAW double counting   =      3980.57913141    -3397.21145209
  entropy T*S    EENTRO =        -0.33140665
  eigenvalues    EBANDS =     -1504.34943944
  atomic energy  EATOM  =      6761.44252427
  Solvation  Ediel_sol  =         0.00000000
  ---------------------------------------------------
  free energy    TOTEN  =      -188.02714241 eV

  energy without entropy =     -187.69573576  energy(sigma->0) =     -187.86143908


--------------------------------------------------------------------------------------------------------




----------------------------------------- Iteration    1(  10)  ---------------------------------------


    POTLOK:  cpu time    0.0344: real time    0.0345
    SETDIJ:  cpu time    0.0025: real time    0.0025
     EDDAV:  cpu time   32.5487: real time   32.6273
       DOS:  cpu time    0.0010: real time    0.0010
    CHARGE:  cpu time    0.4960: real time    0.4972
    MIXING:  cpu time    0.0013: real time    0.0013
    --------------------------------------------
      LOOP:  cpu time   33.0851: real time   33.1831

 eigenvalue-minimisations  : 13440
 total energy-change (2. order) : 0.1096035E+01  (-0.1536469E+00)
 number of electron     159.0000092 magnetization 
 augmentation part       -4.2743183 magnetization 

 Broyden mixing:
  rms(total) = 0.20361E+00    rms(broyden)= 0.20309E+00
  rms(prec ) = 0.21214E+00
  weight for this iteration     100.00

 eigenvalues of (default mixing * dielectric matrix)
  average eigenvalue GAMMA=   0.9730
  1.8539  1.8539  0.6458  0.2202  0.2916

 Free energy of the ion-electron system (eV)
  ---------------------------------------------------
  alpha Z        PSCENC =        81.65567618
  Ewald energy   TEWEN  =     41891.19377233
  -Hartree energ DENC   =    -47780.08604557
  -exchange      EXHF   =         0.00000000
  -V(xc)+E(xc)   XCENC  =      -232.57757666
  PAW double counting   =      4104.55531518    -3522.72866924
  entropy T*S    EENTRO =        -0.35429177
  eigenvalues    EBANDS =     -1490.03181222
  atomic energy  EATOM  =      6761.44252427
  Solvation  Ediel_sol  =         0.00000000
  ---------------------------------------------------
  free energy    TOTEN  =      -186.93110749 eV

  energy without entropy =     -186.57681572  energy(sigma->0) =     -186.75396161


--------------------------------------------------------------------------------------------------------




----------------------------------------- Iteration    1(  11)  ---------------------------------------


    POTLOK:  cpu time    0.0308: real time    0.0308
    SETDIJ:  cpu time    0.0025: real time    0.0025
     EDDAV:  cpu time   32.6652: real time   32.7440
       DOS:  cpu time    0.0010: real time    0.0010
    CHARGE:  cpu time    0.4994: real time    0.5006
    MIXING:  cpu time    0.0012: real time    0.0012
    --------------------------------------------
      LOOP:  cpu time   33.2012: real time   33.2878

 eigenvalue-minimisations  : 13480
 total energy-change (2. order) : 0.1631372E-01  (-0.3788608E-01)
 number of electron     159.0000087 magnetization 
 augmentation part       -4.6008135 magnetization 

 Broyden mixing:
  rms(total) = 0.26710E+00    rms(broyden)= 0.26706E+00
  rms(prec ) = 0.29693E+00
  weight for this iteration     100.00

 eigenvalues of (default mixing * dielectric matrix)
  average eigenvalue GAMMA=   0.9805
  2.2349  1.6630  0.8190  0.6519  0.2199  0.2945

 Free energy of the ion-electron system (eV)
  ---------------------------------------------------
  alpha Z        PSCENC =        81.65567618
  Ewald energy   TEWEN  =     41891.19377233
  -Hartree energ DENC   =    -47795.97096328
  -exchange      EXHF   =         0.00000000
  -V(xc)+E(xc)   XCENC  =      -232.07756867
  PAW double counting   =      4176.38830262    -3594.65541545
  entropy T*S    EENTRO =        -0.33995674
  eigenvalues    EBANDS =     -1474.55116504
  atomic energy  EATOM  =      6761.44252427
  Solvation  Ediel_sol  =         0.00000000
  ---------------------------------------------------
  free energy    TOTEN  =      -186.91479377 eV

  energy without entropy =     -186.57483703  energy(sigma->0) =     -186.74481540


--------------------------------------------------------------------------------------------------------




----------------------------------------- Iteration    1(  12)  ---------------------------------------


    POTLOK:  cpu time    0.0305: real time    0.0309
    SETDIJ:  cpu time    0.0025: real time    0.0025
     EDDAV:  cpu time   32.7493: real time   32.8277
       DOS:  cpu time    0.0002: real time    0.0010
    CHARGE:  cpu time    0.4946: real time    0.4958
    MIXING:  cpu time    0.0014: real time    0.0014
    --------------------------------------------
      LOOP:  cpu time   33.2806: real time   33.3670

 eigenvalue-minimisations  : 13520
 total energy-change (2. order) : 0.7150010E-01  (-0.2216750E-01)
 number of electron     159.0000089 magnetization 
 augmentation part       -4.0459127 magnetization 

 Broyden mixing:
  rms(total) = 0.12114E+00    rms(broyden)= 0.12095E+00
  rms(prec ) = 0.13482E+00
  weight for this iteration     100.00

 eigenvalues of (default mixing * dielectric matrix)
  average eigenvalue GAMMA=   0.8844
  2.2340  1.6879  0.8630  0.6443  0.2197  0.2942  0.2481

 Free energy of the ion-electron system (eV)
  ---------------------------------------------------
  alpha Z        PSCENC =        81.65567618
  Ewald energy   TEWEN  =     41891.19377233
  -Hartree energ DENC   =    -47802.19453675
  -exchange      EXHF   =         0.00000000
  -V(xc)+E(xc)   XCENC  =      -231.88817479
  PAW double counting   =      4190.43008942    -3608.60979079
  entropy T*S    EENTRO =        -0.34755783
  eigenvalues    EBANDS =     -1468.52529573
  atomic energy  EATOM  =      6761.44252427
  Solvation  Ediel_sol  =         0.00000000
  ---------------------------------------------------
  free energy    TOTEN  =      -186.84329367 eV

  energy without entropy =     -186.49573585  energy(sigma->0) =     -186.66951476


--------------------------------------------------------------------------------------------------------




----------------------------------------- Iteration    1(  13)  ---------------------------------------


    POTLOK:  cpu time    0.0302: real time    0.0305
    SETDIJ:  cpu time    0.0023: real time    0.0023
     EDDAV:  cpu time   32.4288: real time   32.5065
       DOS:  cpu time    0.0010: real time    0.0010
    CHARGE:  cpu time    0.4936: real time    0.4948
    MIXING:  cpu time    0.0014: real time    0.0014
    --------------------------------------------
      LOOP:  cpu time   32.9586: real time   33.0446

 eigenvalue-minimisations  : 13360
 total energy-change (2. order) : 0.5011081E-02  (-0.2966067E-02)
 number of electron     159.0000089 magnetization 
 augmentation part       -4.0925822 magnetization 

 Broyden mixing:
  rms(total) = 0.10044E+00    rms(broyden)= 0.10040E+00
  rms(prec ) = 0.11188E+00
  weight for this iteration     100.00

 eigenvalues of (default mixing * dielectric matrix)
  average eigenvalue GAMMA=   0.8808
  2.2052  1.8603  1.0812  0.6321  0.6321  0.2199  0.2945  0.1210

 Free energy of the ion-electron system (eV)
  ---------------------------------------------------
  alpha Z        PSCENC =        81.65567618
  Ewald energy   TEWEN  =     41891.19377233
  -Hartree energ DENC   =    -47803.60394141
  -exchange      EXHF   =         0.00000000
  -V(xc)+E(xc)   XCENC  =      -231.86945623
  PAW double counting   =      4191.07679805    -3609.23478260
  entropy T*S    EENTRO =        -0.34701173
  eigenvalues    EBANDS =     -1467.15186146
  atomic energy  EATOM  =      6761.44252427
  Solvation  Ediel_sol  =         0.00000000
  ---------------------------------------------------
  free energy    TOTEN  =      -186.83828259 eV

  energy without entropy =     -186.49127086  energy(sigma->0) =     -186.66477673


--------------------------------------------------------------------------------------------------------




----------------------------------------- Iteration    1(  14)  ---------------------------------------


    POTLOK:  cpu time    0.0306: real time    0.0309
    SETDIJ:  cpu time    0.0024: real time    0.0024
     EDDAV:  cpu time   32.0762: real time   32.1535
       DOS:  cpu time    0.0010: real time    0.0010
    CHARGE:  cpu time    0.4960: real time    0.4972
    MIXING:  cpu time    0.0015: real time    0.0015
    --------------------------------------------
      LOOP:  cpu time   32.6089: real time   32.6943

 eigenvalue-minimisations  : 13200
 total energy-change (2. order) : 0.1020301E-01  (-0.1832147E-02)
 number of electron     159.0000089 magnetization 
 augmentation part       -4.2027227 magnetization 

 Broyden mixing:
  rms(total) = 0.16534E-01    rms(broyden)= 0.16407E-01
  rms(prec ) = 0.20055E-01
  weight for this iteration     100.00

 eigenvalues of (default mixing * dielectric matrix)
  average eigenvalue GAMMA=   0.9801
  2.2925  2.2925  1.3478  0.9861  0.6350  0.6350  0.2199  0.2946  0.1176

 Free energy of the ion-electron system (eV)
  ---------------------------------------------------
  alpha Z        PSCENC =        81.65567618
  Ewald energy   TEWEN  =     41891.19377233
  -Hartree energ DENC   =    -47807.65107387
  -exchange      EXHF   =         0.00000000
  -V(xc)+E(xc)   XCENC  =      -231.81989384
  PAW double counting   =      4192.57502382    -3610.67637003
  entropy T*S    EENTRO =        -0.34536870
  eigenvalues    EBANDS =     -1463.20236975
  atomic energy  EATOM  =      6761.44252427
  Solvation  Ediel_sol  =         0.00000000
  ---------------------------------------------------
  free energy    TOTEN  =      -186.82807959 eV

  energy without entropy =     -186.48271089  energy(sigma->0) =     -186.65539524


--------------------------------------------------------------------------------------------------------




----------------------------------------- Iteration    1(  15)  ---------------------------------------


    POTLOK:  cpu time    0.0303: real time    0.0317
    SETDIJ:  cpu time    0.0026: real time    0.0026
     EDDAV:  cpu time   28.4006: real time   28.4692
       DOS:  cpu time    0.0011: real time    0.0011
    CHARGE:  cpu time    0.4946: real time    0.4959
    MIXING:  cpu time    0.0017: real time    0.0017
    --------------------------------------------
      LOOP:  cpu time   28.9332: real time   29.0102

 eigenvalue-minimisations  : 11440
 total energy-change (2. order) : 0.6918560E-03  (-0.2888008E-03)
 number of electron     159.0000089 magnetization 
 augmentation part       -4.1971435 magnetization 

 Broyden mixing:
  rms(total) = 0.15656E-01    rms(broyden)= 0.15646E-01
  rms(prec ) = 0.18680E-01
  weight for this iteration     100.00

 eigenvalues of (default mixing * dielectric matrix)
  average eigenvalue GAMMA=   0.9159
  2.3103  2.3103  1.3655  0.9954  0.6357  0.6357  0.2199  0.2946  0.2745  0.1175

 Free energy of the ion-electron system (eV)
  ---------------------------------------------------
  alpha Z        PSCENC =        81.65567618
  Ewald energy   TEWEN  =     41891.19377233
  -Hartree energ DENC   =    -47814.27846234
  -exchange      EXHF   =         0.00000000
  -V(xc)+E(xc)   XCENC  =      -231.73476892
  PAW double counting   =      4194.54863140    -3612.58238769
  entropy T*S    EENTRO =        -0.34542889
  eigenvalues    EBANDS =     -1456.72694408
  atomic energy  EATOM  =      6761.44252427
  Solvation  Ediel_sol  =         0.00000000
  ---------------------------------------------------
  free energy    TOTEN  =      -186.82738773 eV

  energy without entropy =     -186.48195884  energy(sigma->0) =     -186.65467329


--------------------------------------------------------------------------------------------------------




----------------------------------------- Iteration    1(  16)  ---------------------------------------


    POTLOK:  cpu time    0.0314: real time    0.0315
    SETDIJ:  cpu time    0.0024: real time    0.0024
     EDDAV:  cpu time   29.5428: real time   29.6140
       DOS:  cpu time    0.0010: real time    0.0010
    CHARGE:  cpu time    0.4946: real time    0.4958
    MIXING:  cpu time    0.0017: real time    0.0017
    --------------------------------------------
      LOOP:  cpu time   30.0749: real time   30.1548

 eigenvalue-minimisations  : 11920
 total energy-change (2. order) : 0.3242306E-04  (-0.1640297E-03)
 number of electron     159.0000089 magnetization 
 augmentation part       -4.1961814 magnetization 

 Broyden mixing:
  rms(total) = 0.18571E-01    rms(broyden)= 0.18558E-01
  rms(prec ) = 0.21522E-01
  weight for this iteration     100.00

 eigenvalues of (default mixing * dielectric matrix)
  average eigenvalue GAMMA=   0.9088
  2.3500  2.3500  1.4190  1.0426  0.8079  0.6314  0.6314  0.2946  0.2199  0.1175
  0.1327

 Free energy of the ion-electron system (eV)
  ---------------------------------------------------
  alpha Z        PSCENC =        81.65567618
  Ewald energy   TEWEN  =     41891.19377233
  -Hartree energ DENC   =    -47815.35867019
  -exchange      EXHF   =         0.00000000
  -V(xc)+E(xc)   XCENC  =      -231.72455195
  PAW double counting   =      4194.47599544    -3612.50453494
  entropy T*S    EENTRO =        -0.34541049
  eigenvalues    EBANDS =     -1455.66215596
  atomic energy  EATOM  =      6761.44252427
  Solvation  Ediel_sol  =         0.00000000
  ---------------------------------------------------
  free energy    TOTEN  =      -186.82735531 eV

  energy without entropy =     -186.48194482  energy(sigma->0) =     -186.65465006


--------------------------------------------------------------------------------------------------------




----------------------------------------- Iteration    1(  17)  ---------------------------------------


    POTLOK:  cpu time    0.0291: real time    0.0304
    SETDIJ:  cpu time    0.0024: real time    0.0024
     EDDAV:  cpu time   27.5642: real time   27.6301
       DOS:  cpu time    0.0010: real time    0.0010
    CHARGE:  cpu time    0.4955: real time    0.4967
    MIXING:  cpu time    0.0018: real time    0.0018
    --------------------------------------------
      LOOP:  cpu time   28.0962: real time   28.1702

 eigenvalue-minimisations  : 11040
 total energy-change (2. order) :-0.3615574E-04  (-0.1334711E-03)
 number of electron     159.0000089 magnetization 
 augmentation part       -4.1950009 magnetization 

 Broyden mixing:
  rms(total) = 0.13541E-01    rms(broyden)= 0.13529E-01
  rms(prec ) = 0.16373E-01
  weight for this iteration     100.00

 eigenvalues of (default mixing * dielectric matrix)
  average eigenvalue GAMMA=   0.9150
  2.4532  2.4532  1.5847  1.2410  0.9558  0.6335  0.6335  0.2199  0.2946  0.2699
  0.1175  0.1229

 Free energy of the ion-electron system (eV)
  ---------------------------------------------------
  alpha Z        PSCENC =        81.65567618
  Ewald energy   TEWEN  =     41891.19377233
  -Hartree energ DENC   =    -47817.89948819
  -exchange      EXHF   =         0.00000000
  -V(xc)+E(xc)   XCENC  =      -231.70242024
  PAW double counting   =      4194.12874797    -3612.14770727
  entropy T*S    EENTRO =        -0.34532410
  eigenvalues    EBANDS =     -1453.15317242
  atomic energy  EATOM  =      6761.44252427
  Solvation  Ediel_sol  =         0.00000000
  ---------------------------------------------------
  free energy    TOTEN  =      -186.82739146 eV

  energy without entropy =     -186.48206737  energy(sigma->0) =     -186.65472941


--------------------------------------------------------------------------------------------------------




----------------------------------------- Iteration    1(  18)  ---------------------------------------


    POTLOK:  cpu time    0.0318: real time    0.0319
    SETDIJ:  cpu time    0.0024: real time    0.0024
     EDDAV:  cpu time   27.4838: real time   27.5512
       DOS:  cpu time    0.0003: real time    0.0010
    --------------------------------------------
      LOOP:  cpu time   27.5201: real time   27.5947

 eigenvalue-minimisations  : 11000
 total energy-change (2. order) :-0.2286668E-04  (-0.7736542E-04)
 number of electron     159.0000089 magnetization 
 augmentation part       -4.1950009 magnetization 

 Free energy of the ion-electron system (eV)
  ---------------------------------------------------
  alpha Z        PSCENC =        81.65567618
  Ewald energy   TEWEN  =     41891.19377233
  -Hartree energ DENC   =    -47821.24675919
  -exchange      EXHF   =         0.00000000
  -V(xc)+E(xc)   XCENC  =      -231.67441437
  PAW double counting   =      4193.61909443    -3611.62714688
  entropy T*S    EENTRO =        -0.34518916
  eigenvalues    EBANDS =     -1449.84497195
  atomic energy  EATOM  =      6761.44252427
  Solvation  Ediel_sol  =         0.00000000
  ---------------------------------------------------
  free energy    TOTEN  =      -186.82741433 eV

  energy without entropy =     -186.48222517  energy(sigma->0) =     -186.65481975


--------------------------------------------------------------------------------------------------------




 average (electrostatic) potential at core
  the test charge radii are     1.2064  1.2296  1.1823  0.9698
  (the norm of the test charge is              1.0000)
       1 -50.0722       2 -50.0720       3 -50.0710       4 -47.5432       5 -47.5391
       6 -47.5388       7 -49.9802       8 -49.9780       9 -49.9811      10 -95.4202
      11 -95.3525      12 -95.4204      13 -95.3516      14 -95.4210      15 -95.3524
      16 -95.1669      17 -95.0108      18 -95.1667      19 -95.0103      20 -95.1673
      21 -95.0104      22 -95.0991      23 -95.3202      24 -95.0993      25 -95.3201
      26 -95.0992      27 -95.3207
 
 
 
 E-fermi :  -3.4016     XC(G=0):  -2.4932     alpha+bet : -2.1596


 k-point     1 :       0.0000    0.0000    0.0000
  band No.  band energies     occupation 
      1     -18.3267      2.00000
      2     -17.1852      2.00000
      3     -17.1852      2.00000
      4     -17.1297      2.00000
      5     -16.9102      2.00000
      6     -16.9099      2.00000
      7     -16.8332      2.00000
      8     -16.5494      2.00000
      9     -16.5408      2.00000
     10     -16.5406      2.00000
     11     -16.4011      2.00000
     12     -16.4010      2.00000
     13     -16.2843      2.00000
     14     -16.1552      2.00000
     15     -16.0896      2.00000
     16     -16.0894      2.00000
     17     -15.9194      2.00000
     18     -15.9192      2.00000
     19      -9.7022      2.00000
     20      -9.4880      2.00000
     21      -9.4875      2.00000
     22      -9.3521      2.00000
     23      -9.3485      2.00000
     24      -9.3481      2.00000
     25      -9.0369      2.00000
     26      -8.8674      2.00000
     27      -8.8673      2.00000
     28      -8.8537      2.00000
     29      -8.8536      2.00000
     30      -8.6572      2.00000
     31      -8.6572      2.00000
     32      -8.4820      2.00000
     33      -8.3810      2.00000
     34      -8.3292      2.00000
     35      -8.3291      2.00000
     36      -8.3174      2.00000
     37      -8.3172      2.00000
     38      -8.3166      2.00000
     39      -8.0101      2.00000
     40      -7.9726      2.00000
     41      -7.9725      2.00000
     42      -7.9094      2.00000
     43      -7.7028      2.00000
     44      -7.6579      2.00000
     45      -7.6578      2.00000
     46      -7.5240      2.00000
     47      -7.5239      2.00000
     48      -7.3222      2.00000
     49      -7.3221      2.00000
     50      -7.3178      2.00000
     51      -6.8256      2.00000
     52      -6.6598      2.00000
     53      -6.6598      2.00000
     54      -6.6233      2.00000
     55      -6.6233      2.00000
     56      -6.5606      2.00000
     57      -6.5606      2.00000
     58      -5.7997      2.00000
     59      -5.7996      2.00000
     60      -5.7707      2.00000
     61      -5.6394      2.00000
     62      -5.5934      2.00000
     63      -5.5934      2.00000
     64      -5.5293      2.00000
     65      -5.4192      2.00000
     66      -5.4192      2.00000
     67      -5.3562      2.00000
     68      -5.3043      2.00000
     69      -5.3042      2.00000
     70      -5.2313      2.00000
     71      -4.3781      2.00000
     72      -4.3650      2.00000
     73      -4.1677      2.00000
     74      -4.1667      2.00000
     75      -4.1665      2.00000
     76      -4.1156      2.00000
     77      -4.1148      2.00000
     78      -3.9605      1.99992
     79      -3.9285      1.99981
     80      -3.8163      1.99664
     81      -3.3140      0.53569
     82      -3.3138      0.53500
     83      -2.8789      0.00022
     84      -2.7805      0.00001
     85      -2.7380      0.00000
     86      -2.7377      0.00000
     87      -2.6458      0.00000
     88      -2.6453      0.00000
     89      -2.4621      0.00000
     90      -2.4073      0.00000
     91      -2.4070      0.00000
     92      -2.2995      0.00000
     93      -2.2988      0.00000
     94      -2.2861      0.00000
     95      -2.1077      0.00000
     96      -2.1076      0.00000
     97      -1.9779      0.00000
     98      -1.9778      0.00000
     99      -1.8314      0.00000
    100      -0.7253      0.00000
    101      -0.7250      0.00000
    102      -0.6412      0.00000
    103      -0.6409      0.00000
    104      -0.6349      0.00000
    105      -0.2369      0.00000
    106       0.2983      0.00000
    107       0.2992      0.00000
    108       0.4046      0.00000
    109       0.4056      0.00000
    110       0.4635      0.00000
    111       0.6346      0.00000
    112       0.8000      0.00000
    113       0.8007      0.00000
    114       0.9577      0.00000
    115       0.9686      0.00000
    116       0.9693      0.00000
    117       1.0305      0.00000
    118       1.2948      0.00000
    119       1.3688      0.00000
    120       1.9254      0.00000

 k-point     2 :       0.1250    0.0000    0.0000
  band No.  band energies     occupation 
      1     -18.3089      2.00000
      2     -17.2153      2.00000
      3     -17.2075      2.00000
      4     -17.1990      2.00000
      5     -16.8900      2.00000
      6     -16.8786      2.00000
      7     -16.8104      2.00000
      8     -16.5491      2.00000
      9     -16.5411      2.00000
     10     -16.5182      2.00000
     11     -16.3974      2.00000
     12     -16.3912      2.00000
     13     -16.2704      2.00000
     14     -16.1466      2.00000
     15     -16.0935      2.00000
     16     -16.0916      2.00000
     17     -15.9278      2.00000
     18     -15.9244      2.00000
     19      -9.7805      2.00000
     20      -9.5353      2.00000
     21      -9.5260      2.00000
     22      -9.3550      2.00000
     23      -9.3537      2.00000
     24      -9.3525      2.00000
     25      -9.0403      2.00000
     26      -8.9585      2.00000
     27      -8.9545      2.00000
     28      -8.8265      2.00000
     29      -8.8258      2.00000
     30      -8.5666      2.00000
     31      -8.5598      2.00000
     32      -8.5293      2.00000
     33      -8.3767      2.00000
     34      -8.3336      2.00000
     35      -8.3306      2.00000
     36      -8.2490      2.00000
     37      -8.2368      2.00000
     38      -8.1857      2.00000
     39      -8.0134      2.00000
     40      -7.9902      2.00000
     41      -7.9875      2.00000
     42      -7.8794      2.00000
     43      -7.7479      2.00000
     44      -7.6307      2.00000
     45      -7.6293      2.00000
     46      -7.4991      2.00000
     47      -7.4935      2.00000
     48      -7.3303      2.00000
     49      -7.3284      2.00000
     50      -7.2547      2.00000
     51      -6.8341      2.00000
     52      -6.7384      2.00000
     53      -6.7247      2.00000
     54      -6.6805      2.00000
     55      -6.6715      2.00000
     56      -6.4398      2.00000
     57      -6.4070      2.00000
     58      -5.9156      2.00000
     59      -5.9120      2.00000
     60      -5.7560      2.00000
     61      -5.7125      2.00000
     62      -5.7117      2.00000
     63      -5.6661      2.00000
     64      -5.6114      2.00000
     65      -5.4952      2.00000
     66      -5.4817      2.00000
     67      -5.3292      2.00000
     68      -5.1987      2.00000
     69      -5.1942      2.00000
     70      -5.0394      2.00000
     71      -4.5704      2.00000
     72      -4.4048      2.00000
     73      -4.3763      2.00000
     74      -4.0892      2.00000
     75      -4.0839      2.00000
     76      -4.0273      1.99999
     77      -4.0253      1.99999
     78      -4.0153      1.99999
[...]
    104      -0.6149      0.00000
    105      -0.5529      0.00000
    106      -0.3979      0.00000
    107      -0.2257      0.00000
    108      -0.1127      0.00000
    109       0.0499      0.00000
    110       0.2516      0.00000
    111       0.3679      0.00000
    112       0.4211      0.00000
    113       0.5623      0.00000
    114       1.0372      0.00000
    115       1.0592      0.00000
    116       1.0761      0.00000
    117       1.8452      0.00000
    118       2.1641      0.00000
    119       2.3119      0.00000
    120       2.4227      0.00000

 k-point    34 :       0.5000    0.5000    0.0000
  band No.  band energies     occupation 
      1     -17.4254      2.00000
      2     -17.4253      2.00000
      3     -16.7140      2.00000
      4     -16.7133      2.00000
      5     -16.5659      2.00000
      6     -16.5647      2.00000
      7     -16.2155      2.00000
      8     -16.1921      2.00000
      9     -16.1726      2.00000
     10     -16.1712      2.00000
     11     -15.7948      2.00000
     12     -15.7553      2.00000
     13     -15.7541      2.00000
     14     -15.6863      2.00000
     15     -15.4985      2.00000
     16     -15.4979      2.00000
     17     -15.4551      2.00000
     18     -15.2664      2.00000
     19      -9.8249      2.00000
     20      -9.3985      2.00000
     21      -9.1901      2.00000
     22      -9.1897      2.00000
     23      -8.7669      2.00000
     24      -8.7667      2.00000
     25      -8.7475      2.00000
     26      -8.5572      2.00000
     27      -8.5560      2.00000
     28      -8.3725      2.00000
     29      -8.1555      2.00000
     30      -8.0800      2.00000
     31      -8.0786      2.00000
     32      -8.0782      2.00000
     33      -7.7888      2.00000
     34      -7.7850      2.00000
     35      -7.7254      2.00000
     36      -7.7102      2.00000
     37      -7.7088      2.00000
     38      -7.5224      2.00000
     39      -7.5207      2.00000
     40      -7.4295      2.00000
     41      -7.0398      2.00000
     42      -7.0113      2.00000
     43      -7.0104      2.00000
     44      -6.8542      2.00000
     45      -6.7474      2.00000
     46      -6.7465      2.00000
     47      -6.6413      2.00000
     48      -6.5717      2.00000
     49      -6.5707      2.00000
     50      -6.5643      2.00000
     51      -6.3625      2.00000
     52      -6.3128      2.00000
     53      -6.3118      2.00000
     54      -6.2630      2.00000
     55      -6.0828      2.00000
     56      -6.0818      2.00000
     57      -5.9829      2.00000
     58      -5.8646      2.00000
     59      -5.8643      2.00000
     60      -5.7313      2.00000
     61      -5.7295      2.00000
     62      -5.5640      2.00000
     63      -5.5635      2.00000
     64      -5.4484      2.00000
     65      -5.2075      2.00000
     66      -5.0635      2.00000
     67      -5.0027      2.00000
     68      -5.0005      2.00000
     69      -4.7536      2.00000
     70      -4.5627      2.00000
     71      -4.5606      2.00000
     72      -4.5111      2.00000
     73      -4.2542      2.00000
     74      -4.2534      2.00000
     75      -4.0574      2.00000
     76      -4.0527      2.00000
     77      -3.8628      1.99999
     78      -3.8614      1.99999
     79      -3.4494      1.85264
     80      -3.4390      1.83096
     81      -2.9883      0.07002
     82      -2.9878      0.06947
     83      -2.6426      0.00002
     84      -2.6406      0.00002
     85      -2.5693      0.00000
     86      -2.4690      0.00000
     87      -2.1676      0.00000
     88      -2.1661      0.00000
     89      -2.0528      0.00000
     90      -1.9149      0.00000
     91      -1.9146      0.00000
     92      -1.5909      0.00000
     93      -1.1866      0.00000
     94      -1.1798      0.00000
     95      -1.1779      0.00000
     96      -1.0908      0.00000
     97      -1.0887      0.00000
     98      -1.0367      0.00000
     99      -0.8221      0.00000
    100      -0.7926      0.00000
    101      -0.7893      0.00000
    102      -0.7143      0.00000
    103      -0.6705      0.00000
    104      -0.6680      0.00000
    105      -0.5426      0.00000
    106      -0.2944      0.00000
    107      -0.2906      0.00000
    108      -0.0702      0.00000
    109      -0.0690      0.00000
    110       0.2511      0.00000
    111       0.3772      0.00000
    112       0.5246      0.00000
    113       0.5253      0.00000
    114       1.0617      0.00000
    115       1.0620      0.00000
    116       1.0700      0.00000
    117       1.8411      0.00000
    118       2.2617      0.00000
    119       2.2617      0.00000
    120       2.4129      0.00000


--------------------------------------------------------------------------------------------------------


 soft charge-density along one line, spin component           1
         0         1         2         3         4         5         6         7         8         9
 total charge-density along one line
 
 pseudopotential strength for first ion, spin component:           1
 -7.259  -0.010  -0.012  -0.005   0.001   0.686   0.002   0.004
 -0.010  -7.163  -0.005   0.010   0.005   0.002   0.657   0.001
 -0.012  -0.005  -7.125  -0.003   0.007   0.004   0.001   0.647
 -0.005   0.010  -0.003  -7.174   0.005   0.001  -0.003   0.001
  0.001   0.005   0.007   0.005  -7.259  -0.000  -0.001  -0.002
  0.686   0.002   0.004   0.001  -0.000   0.329  -0.000  -0.001
  0.002   0.657   0.001  -0.003  -0.001  -0.000   0.338  -0.000
  0.004   0.001   0.647   0.001  -0.002  -0.001  -0.000   0.340
  0.001  -0.003   0.001   0.660  -0.001  -0.000   0.001  -0.000
 -0.000  -0.001  -0.002  -0.001   0.686   0.000   0.000   0.001
 -0.004   0.002  -0.020   0.001   0.002   0.001  -0.000   0.005
 -0.001   0.001  -0.007   0.000   0.001   0.000  -0.000   0.002
 -0.003  -0.003   0.001  -0.003   0.006  -0.000   0.001   0.001
 -0.003  -0.009  -0.001  -0.005   0.002   0.000   0.000   0.000
 -0.006  -0.003   0.001   0.001  -0.003  -0.001   0.000   0.001
 -0.002  -0.002  -0.000  -0.003   0.003   0.000   0.000   0.000
 -0.003  -0.007   0.000  -0.004   0.002   0.001   0.001  -0.000
 -0.003  -0.003  -0.000   0.001  -0.002   0.000   0.001   0.000
 total augmentation occupancy for first ion, spin component:           1
  0.806   0.156  -0.027  -0.004   0.018   0.431   0.219  -0.004   0.005   0.007   0.011  -0.002   0.006  -0.073   0.012   0.001
  0.156   1.075   0.028  -0.010   0.004   0.216   0.640   0.040  -0.014  -0.005   0.008   0.003  -0.055  -0.077  -0.072  -0.002
 -0.027   0.028   0.832   0.017   0.017  -0.003   0.041   0.336   0.024   0.002   0.153   0.005  -0.072   0.005  -0.042  -0.002
 -0.004  -0.010   0.017   1.087  -0.160   0.005  -0.014   0.023   0.656  -0.210   0.005   0.002  -0.072  -0.044   0.028  -0.002
  0.018   0.004   0.017  -0.160   0.828   0.007  -0.005   0.003  -0.213   0.440  -0.006   0.001  -0.011   0.042   0.007  -0.003
  0.431   0.216  -0.003   0.005   0.007   0.368   0.221   0.005   0.004  -0.005  -0.019  -0.002  -0.021  -0.071  -0.029  -0.000
  0.219   0.640   0.041  -0.014  -0.005   0.221   0.574   0.026  -0.007  -0.005   0.033   0.005  -0.045  -0.090  -0.067  -0.004
 -0.004   0.040   0.336   0.023   0.003   0.005   0.026   0.269   0.015  -0.003   0.042   0.010  -0.016  -0.003  -0.009  -0.004
  0.005  -0.014   0.024   0.656  -0.213   0.004  -0.007   0.015   0.581  -0.215   0.019   0.003  -0.067  -0.052   0.033  -0.005
  0.007  -0.005   0.002  -0.210   0.440  -0.005  -0.005  -0.003  -0.215   0.362   0.011   0.001   0.029   0.041  -0.013  -0.000
  0.011   0.008   0.153   0.005  -0.006  -0.019   0.033   0.042   0.019   0.011   1.406   0.136  -0.045  -0.015  -0.026  -0.002
 -0.002   0.003   0.005   0.002   0.001  -0.002   0.005   0.010   0.003   0.001   0.136   0.026  -0.009  -0.000  -0.005  -0.001
  0.006  -0.055  -0.072  -0.072  -0.011  -0.021  -0.045  -0.016  -0.067   0.029  -0.045  -0.009   0.357   0.005   0.001   0.026
 -0.073  -0.077   0.005  -0.044   0.042  -0.071  -0.090  -0.003  -0.052   0.041  -0.015  -0.000   0.005   0.424   0.003  -0.000
  0.012  -0.072  -0.042   0.028   0.007  -0.029  -0.067  -0.009   0.033  -0.013  -0.026  -0.005   0.001   0.003   0.355  -0.000
  0.001  -0.002  -0.002  -0.002  -0.003  -0.000  -0.004  -0.004  -0.005  -0.000  -0.002  -0.001   0.026  -0.000  -0.000   0.003
 -0.003   0.001  -0.000   0.001   0.002  -0.005  -0.005   0.000  -0.003   0.003  -0.000  -0.000  -0.000   0.028  -0.000   0.000
  0.003  -0.002  -0.001   0.001   0.002   0.000  -0.005  -0.002   0.003   0.001  -0.001  -0.000  -0.000  -0.000   0.027  -0.000


------------------------ aborting loop because EDIFF is reached ----------------------------------------


    CHARGE:  cpu time    0.4675: real time    0.4686
    FORLOC:  cpu time    0.0064: real time    0.0064
    FORNL :  cpu time    5.5040: real time    5.5172
    STRESS:  cpu time   32.9199: real time   32.9987
    FORCOR:  cpu time    0.0335: real time    0.0336
    FORHAR:  cpu time    0.0123: real time    0.0123
    MIXING:  cpu time    0.0010: real time    0.0010
    OFIELD:  cpu time    0.0000: real time    0.0000

  FORCE on cell =-STRESS in cart. coord.  units (eV):
  Direction    XX          YY          ZZ          XY          YZ          ZX
  --------------------------------------------------------------------------------------
  Alpha Z    89.45448    89.45448    89.45448
  Ewald   49322.26272 49271.29257-54234.20074   -44.07394    19.47164    11.16795
  Hartree 50027.88257 49996.24129-49657.02697   -27.37639    11.58070     6.67058
  E(xc)    -609.61920  -610.66968  -617.69802    -0.91179    -0.95036    -0.54770
  Local  ************************101329.40229    64.25584   -39.93191   -22.96199
  n-local  1213.89589  1216.04118  1248.38191     1.89551    -2.77861    -1.61581
  augment  -213.25053  -212.91940  -214.74213     0.27689     0.51585     0.30355
  Kinetic  2008.15788  2014.97330  2054.54881     5.91655    11.86047     6.84938
  Fock        0.00000     0.00000     0.00000     0.00000     0.00000     0.00000
  -------------------------------------------------------------------------------------
  Total      -0.15527    -0.17580    -1.88037    -0.01734    -0.23220    -0.13403
  in kB      -0.10395    -0.11769    -1.25884    -0.01161    -0.15545    -0.08973
  external pressure =       -0.49 kB  Pullay stress =        0.00 kB


 VOLUME and BASIS-vectors are now :
 -----------------------------------------------------------------------------
  energy-cutoff  :      280.00
  volume of cell :     2393.23
      direct lattice vectors                 reciprocal lattice vectors
     8.311545727  4.830214452  0.000000000     0.059962775  0.103849769  0.000000000
    -8.284559565  4.783498184  0.000000000    -0.060548379  0.104188050  0.000000000
     0.000000000  0.000000000 30.000000000     0.000000000  0.000000000  0.033333333

  length of vectors
     9.613155779  9.566388141 30.000000000     0.119917926  0.120504174  0.033333333


 FORCES acting on ions
    electron-ion (+dipol)            ewald-force                    non-local-force                 convergence-correction
 -----------------------------------------------------------------------------------------------
   -.119E+02 -.205E+02 -.106E+02   0.126E+02 0.219E+02 0.104E+02   -.772E+00 -.133E+01 0.180E+00   0.440E-01 -.288E-01 0.376E-01
   -.119E+02 -.207E+02 -.106E+02   0.127E+02 0.220E+02 0.104E+02   -.764E+00 -.133E+01 0.182E+00   -.274E-01 0.776E-02 0.328E-01
   -.118E+02 -.206E+02 -.105E+02   0.126E+02 0.219E+02 0.103E+02   -.759E+00 -.132E+01 0.185E+00   -.265E-01 0.343E-02 0.383E-01
   -.727E+01 -.120E+02 -.816E+01   0.716E+01 0.119E+02 0.824E+01   0.137E+00 0.224E+00 -.933E-01   -.194E-01 -.692E-01 -.389E-02
   -.717E+01 -.121E+02 -.820E+01   0.703E+01 0.119E+02 0.828E+01   0.130E+00 0.220E+00 -.953E-01   0.115E-01 -.132E-01 0.493E-02
   -.663E+01 -.124E+02 -.821E+01   0.656E+01 0.121E+02 0.829E+01   0.121E+00 0.228E+00 -.959E-01   -.479E-01 -.143E-01 0.854E-03
   0.178E+02 0.308E+02 0.201E+02   -.182E+02 -.315E+02 -.197E+02   0.409E+00 0.705E+00 -.344E+00   0.119E-01 0.171E-02 -.127E-01
   0.176E+02 0.306E+02 0.203E+02   -.181E+02 -.313E+02 -.200E+02   0.414E+00 0.715E+00 -.344E+00   0.308E-01 0.346E-01 -.826E-02
   0.177E+02 0.306E+02 0.202E+02   -.181E+02 -.314E+02 -.199E+02   0.408E+00 0.712E+00 -.344E+00   -.314E-02 0.324E-01 -.103E-01
   0.112E+02 0.191E+02 0.627E+03   -.114E+02 -.195E+02 -.631E+03   0.265E+00 0.459E+00 0.400E+01   0.740E-02 -.673E-03 0.229E-01
   0.383E+01 0.657E+01 -.623E+03   -.434E+01 -.746E+01 0.627E+03   0.515E+00 0.887E+00 -.359E+01   -.117E-01 -.155E-01 0.125E-02
   0.110E+02 0.192E+02 0.627E+03   -.113E+02 -.196E+02 -.631E+03   0.264E+00 0.456E+00 0.400E+01   0.235E-02 0.124E-01 0.197E-01
   0.372E+01 0.637E+01 -.622E+03   -.426E+01 -.730E+01 0.626E+03   0.526E+00 0.894E+00 -.360E+01   0.614E-02 0.141E-01 -.255E-02
   0.110E+02 0.193E+02 0.627E+03   -.113E+02 -.197E+02 -.631E+03   0.264E+00 0.456E+00 0.400E+01   -.621E-02 -.565E-02 0.263E-01
   0.368E+01 0.649E+01 -.623E+03   -.420E+01 -.740E+01 0.626E+03   0.510E+00 0.901E+00 -.360E+01   0.276E-02 -.352E-02 -.166E-02
   -.938E+01 -.163E+02 0.589E+03   0.104E+02 0.181E+02 -.592E+03   -.995E+00 -.173E+01 0.307E+01   -.595E-01 -.818E-01 -.664E-01
   -.122E+02 -.208E+02 -.586E+03   0.127E+02 0.218E+02 0.589E+03   -.563E+00 -.978E+00 -.319E+01   0.268E-01 -.610E-01 0.694E-01
   -.927E+01 -.161E+02 0.588E+03   0.103E+02 0.179E+02 -.591E+03   -.101E+01 -.176E+01 0.305E+01   -.109E-01 0.292E-02 0.245E-01
   -.119E+02 -.210E+02 -.585E+03   0.125E+02 0.219E+02 0.589E+03   -.560E+00 -.982E+00 -.317E+01   -.978E-01 0.325E-01 0.314E-01
   -.938E+01 -.162E+02 0.588E+03   0.104E+02 0.180E+02 -.591E+03   -.101E+01 -.173E+01 0.308E+01   -.586E-02 -.534E-01 -.163E-01
   -.121E+02 -.208E+02 -.585E+03   0.126E+02 0.218E+02 0.589E+03   -.571E+00 -.976E+00 -.318E+01   0.401E-01 -.250E-01 -.133E-01
   -.153E+01 -.252E+01 0.489E+03   0.101E+01 0.172E+01 -.494E+03   0.434E+00 0.751E+00 0.478E+01   0.742E-01 0.381E-01 -.673E-01
   0.966E+01 0.167E+02 -.498E+03   -.988E+01 -.170E+02 0.503E+03   0.185E+00 0.330E+00 -.511E+01   0.378E-01 0.156E-01 0.230E-01
   -.136E+01 -.259E+01 0.489E+03   0.974E+00 0.174E+01 -.494E+03   0.435E+00 0.756E+00 0.477E+01   -.540E-01 0.839E-01 -.356E-01
   0.959E+01 0.166E+02 -.498E+03   -.980E+01 -.170E+02 0.503E+03   0.187E+00 0.322E+00 -.512E+01   0.281E-01 0.756E-01 0.504E-01
   -.148E+01 -.241E+01 0.489E+03   0.986E+00 0.165E+01 -.494E+03   0.437E+00 0.757E+00 0.477E+01   0.456E-01 -.769E-02 -.205E-02
   0.967E+01 0.168E+02 -.498E+03   -.984E+01 -.171E+02 0.503E+03   0.194E+00 0.330E+00 -.511E+01   -.146E-01 -.235E-02 -.428E-02
 -----------------------------------------------------------------------------------------------
   0.118E+01 0.205E+01 0.814E+00   0.604E-13 -.178E-13 -.341E-12   -.117E+01 -.203E+01 -.930E+00   -.153E-01 -.271E-01 0.139E+00
 
 
 POSITION                                       TOTAL-FORCE (eV/Angst)
 -----------------------------------------------------------------------------------
      5.39338      2.96424      0.04237        -0.007314     -0.003363      0.028985
      2.63229      4.55858      0.04256        -0.003389     -0.010976      0.031455
     -0.12949      6.15267      0.04202         0.005787      0.005211      0.035478
      2.72865      1.54133      0.02411         0.003714      0.011370     -0.012603
     -2.79351      4.73006      0.02416        -0.003668      0.002739     -0.015314
     -0.02791      3.13306      0.02425         0.008466      0.000803     -0.014586
      0.15754      0.27248     -0.06290        -0.000817     -0.003102     -0.036723
      5.70798      6.69780     -0.06349        -0.000105      0.000814     -0.037329
     -5.36497      3.46185     -0.06329        -0.001907     -0.002283     -0.036374
     -0.89720      1.63347     28.27852         0.006612      0.012157     -0.015892
      0.94302      1.63245      1.68133        -0.007761     -0.011482     -0.008880
     -3.65884      3.22868     28.27836         0.007497      0.011977     -0.015898
     -1.81784      3.22807      1.67910        -0.007452     -0.013004     -0.011300
     -6.42084      4.82262     28.27874         0.005531      0.010194     -0.017865
     -4.58031      4.82255      1.67994        -0.005952     -0.012130     -0.010855
      1.85507      3.21240     28.42619         0.013857      0.023159      0.016730
      3.70020      3.22019      1.59075        -0.010335     -0.010810      0.024546
     -0.90642      4.80655     28.42812         0.007734      0.013934      0.005786
      0.93901      4.81462      1.59011        -0.002439     -0.016789      0.032596
     -3.66861      6.40132     28.42697         0.012564      0.022080      0.018713
     -1.82267      6.40930      1.59001        -0.010729     -0.013502      0.034064
      4.61768      4.80915     28.70903        -0.008797     -0.012002      0.017594
      6.46065      4.81314      1.31144         0.003943      0.006855     -0.013186
      1.85630      6.40344     28.70925        -0.004478     -0.012684      0.015065
      3.69968      6.40775      1.31135         0.002775      0.004496     -0.015589
     -0.90558      7.99793     28.70937        -0.007030     -0.010698      0.014271
      0.93808      8.00189      1.31163         0.003692      0.007036     -0.012892
 -----------------------------------------------------------------------------------
    total drift:                               -0.000005     -0.001370      0.023434


--------------------------------------------------------------------------------------------------------



  FREE ENERGIE OF THE ION-ELECTRON SYSTEM (eV)
  ---------------------------------------------------
  free  energy   TOTEN  =      -192.43843424 eV

  energy  without entropy=     -192.29563293  energy(sigma->0) =     -192.36703359
 
 d Force = 0.5541296E-03[ 0.445E-03, 0.663E-03]  d Energy = 0.4379652E-03 0.116E-03
 d Force =-0.1989058E+01[-0.199E+01,-0.199E+01]  d Ewald  =-0.9931224E+01 0.794E+01


--------------------------------------------------------------------------------------------------------


    POTLOK:  cpu time    0.0333: real time    0.0334


--------------------------------------------------------------------------------------------------------


 Quasi-Newton relaxation of ions (Broydens 2nd method)
  g(Force)  = 0.893E-03   g(Stress)= 0.994E-04

 retain information from N=  1 steps
 eigenvalues of (default step * inverse Hessian matrix)
  average eigenvalue of G=   0.9071
 eigenvalue spectrum of G is  0.9071


--------------------------------------------------------------------------------------------------------


  
 reached required accuracy - stopping structural energy minimisation
     LOOP+:  cpu time  113.2667: real time  113.5497
    4ORBIT:  cpu time    0.0000: real time    0.0000

 total amount of memory used by VASP on root node   650782. kBytes
========================================================================

   base      :      30000. kBytes
   nonl-proj :     559647. kBytes
   fftplans  :       2414. kBytes
   grid      :      12150. kBytes
   one-center:        419. kBytes
   wavefun   :      46152. kBytes
 
  
  
 General timing and accounting informations for this job:
 ========================================================
  
                  Total CPU time used (sec):     5784.256
                            User time (sec):     5764.416
                          System time (sec):       19.841
                         Elapsed time (sec):     5800.964
  
                   Maximum memory used (kb):      743168.
                   Average memory used (kb):           0.
  
                          Minor page faults:       387846
                          Major page faults:            3
                 Voluntary context switches:         7293
