unknown system                          
           1
     8.855940    5.103865    0.000000
    -8.857042    5.105761    0.000000
     0.000000    0.000000   30.000000
   V    Mo   W    S 
   3   3   3  18
Direct configuration=     1
   0.66666669  0.00000000  0.00000000
   0.00000000  0.00000000  0.00000000
   0.33333334  0.33333334  0.00000000
   0.33333334  0.66666669  0.00000000
   0.66666669  0.33333334  0.00000000
   1.00000000  0.33333334  0.00000000
   0.00000000  0.66666669  0.00000000
   0.33333334  0.00000000  0.00000000
   0.66666669  0.66666669  0.00000000
   0.11068511  0.22244981  0.95539999
   0.22244981  0.11068511  0.04460000
   0.11068511  0.55578315  0.95539999
   0.22244981  0.44401845  0.04460000
   0.11068511  0.88911647  0.95539999
   0.22244981  0.77735180  0.04460000
   0.44401845  0.22244981  0.95539999
   0.55578315  0.11068511  0.04460000
   0.44401845  0.55578315  0.95539999
   0.55578315  0.44401845  0.04460000
   0.44401845  0.88911647  0.95539999
   0.55578315  0.77735180  0.04460000
   0.77735180  0.22244981  0.95539999
   0.88911647  0.11068511  0.04460000
   0.77735180  0.55578315  0.95539999
   0.88911647  0.44401845  0.04460000
   0.77735180  0.88911647  0.95539999
   0.88911647  0.77735180  0.04460000
unknown system                          
           1
     8.667540    4.997729    0.000000
    -8.668593    4.999542    0.000000
     0.000000    0.000000   30.000000
   V    Mo   W    S 
   3   3   3  18
Direct configuration=     2
   0.66706430  0.00119942 -0.00013630
  -0.00005031  0.00154421  0.00000775
   0.33295396  0.33421620  0.00013644
   0.33190052  0.66524474 -0.00010059
   0.66811211  0.33331587  0.00008976
   0.99994825  0.33426449 -0.00001213
   0.00008014  0.66361541  0.00000153
   0.33488495  0.00032037 -0.00000953
   0.66499330  0.66545980  0.00002100
   0.11317052  0.21995930  0.95306137
   0.22043148  0.11289442  0.04697467
   0.11068238  0.55607686  0.95064493
   0.22458854  0.44183293  0.04801534
   0.10900063  0.89074771  0.95205311
   0.22155843  0.77818336  0.04923673
   0.44143637  0.22355518  0.95207501
   0.55690577  0.10823316  0.04802594
   0.44311356  0.55153311  0.95191163
   0.55136513  0.44305372  0.04810518
   0.44845761  0.89150317  0.95187500
   0.55816599  0.78174138  0.04800690
   0.77543987  0.21750042  0.95192919
   0.88683662  0.10661629  0.04686895
   0.77828890  0.55647286  0.95075608
   0.88917994  0.44538241  0.04934693
   0.77914123  0.89239081  0.95309312
   0.89056426  0.78135686  0.04802189
unknown system                          
           1
     8.486822    4.897713    0.000000
    -8.488320    4.900299    0.000000
     0.000000    0.000000   30.000000
   V    Mo   W    S 
   3   3   3  18
Direct configuration=     3
   0.66706854  0.00151089 -0.00015353
  -0.00003995  0.00194952  0.00000944
   0.33293950  0.33452828  0.00015286
   0.33119024  0.66486774 -0.00006685
   0.66883082  0.33364774  0.00005506
   0.99995562  0.33521255 -0.00001127
   0.00008585  0.66240643 -0.00000023
   0.33532623  0.00025710 -0.00007427
   0.66452918  0.66496361  0.00008510
   0.11320099  0.21994188  0.95311242
   0.22056254  0.11283635  0.04689419
   0.11055913  0.55619423  0.95049003
   0.22462503  0.44175140  0.04807158
   0.10910009  0.89064588  0.95218934
   0.22144324  0.77828926  0.04923854
   0.44127276  0.22334966  0.95215338
   0.55674059  0.10808057  0.04806790
   0.44324738  0.55152129  0.95187773
   0.55135390  0.44320128  0.04810781
   0.44845935  0.89169984  0.95187589
   0.55835766  0.78172718  0.04791995
   0.77536931  0.21734321  0.95187828
   0.88677415  0.10656285  0.04682862
   0.77840938  0.55673545  0.95076180
   0.88930615  0.44559152  0.04950399
   0.77904744  0.89222449  0.95315962
   0.89049934  0.78117423  0.04787251
unknown system                          
           1
     8.280056    4.772751    0.000000
    -8.286441    4.783802    0.000000
     0.000000    0.000000   30.000000
   V    Mo   W    S 
   3   3   3  18
Direct configuration=     4
   0.66667184  0.00245866 -0.00015195
  -0.00002470  0.00307554  0.00000949
   0.33332359  0.33584684  0.00014658
   0.32824553  0.66365685  0.00006619
   0.67181869  0.33539775 -0.00007455
   0.99991520  0.33959868 -0.00000590
   0.00003872  0.65774679 -0.00000260
   0.33671868 -0.00035501 -0.00028808
   0.66307398  0.66294812  0.00029618
   0.11361877  0.21959517  0.95202092
   0.22031687  0.11334276  0.04792516
   0.11051286  0.55610318  0.94820411
   0.22496721  0.44098606  0.04972656
   0.10864021  0.89080376  0.95130432
   0.22133855  0.77841723  0.05086110
   0.44079161  0.22384676  0.95103049
   0.55739324  0.10764082  0.04967071
   0.44252654  0.55033623  0.95029519
   0.55016042  0.44239004  0.04958851
   0.44965101  0.89222085  0.95039837
   0.55897096  0.78282281  0.04901682
   0.77490526  0.21608931  0.95024717
   0.88625604  0.10581095  0.04795719
   0.77853498  0.55708423  0.94916727
   0.88935439  0.44546052  0.05178837
   0.77941635  0.89302579  0.95208848
   0.89107763  0.78186378  0.04871382
unknown system                          
           1
     8.284731    4.769510    0.000000
    -8.296710    4.790253    0.000000
     0.000000    0.000000   30.000000
   V    Mo   W    S 
   3   3   3  18
Direct configuration=     5
   0.66586175  0.00406579  0.00000999
  -0.00000754  0.00572435  0.00000340
   0.33409501  0.33826439 -0.00002149
   0.32214037  0.66126723  0.00020276
   0.67798731  0.33915228 -0.00020258
   0.99984701  0.34805626 -0.00001155
   0.00002960  0.64880066  0.00001002
   0.33917773 -0.00158910 -0.00053404
   0.66042330  0.65923514  0.00054821
   0.11372104  0.22010698  0.95053913
   0.22042181  0.11401840  0.04935003
   0.11073736  0.55559262  0.94476524
   0.22451540  0.44018820  0.05200805
   0.10796893  0.88996848  0.95041349
   0.22092877  0.77823963  0.05297109
   0.44116756  0.22474106  0.94975431
   0.55855937  0.10778646  0.05164647
   0.44128799  0.54915934  0.94833319
   0.54882837  0.44064553  0.05163851
   0.45101964  0.89184489  0.94834386
   0.55872812  0.78354986  0.05027622
   0.77528389  0.21555653  0.94797972
   0.88607286  0.10630749  0.04947599
   0.77897058  0.55735845  0.94706486
   0.88916082  0.44476884  0.05523212
   0.77942264  0.89355202  0.95063947
   0.89186477  0.78185265  0.04956342
unknown system                          
           1
     8.276557    4.765563    0.000000
    -8.287893    4.785192    0.000000
     0.000000    0.000000   30.000000
   V    Mo   W    S 
   3   3   3  18
Direct configuration=     6
   0.66590972  0.00465278 -0.00001520
  -0.00000084  0.00735125  0.00000973
   0.33402470  0.33880560  0.00001072
   0.32119934  0.66096777  0.00010458
   0.67895169  0.33981480 -0.00011433
   0.99983573  0.34826573 -0.00000833
   0.00005726  0.64799554  0.00000152
   0.33960518 -0.00222393 -0.00058907
   0.65992608  0.65818329  0.00059646
   0.11341112  0.22096581  0.95049923
   0.22085556  0.11410719  0.04927252
   0.11095249  0.55556927  0.94431367
   0.22373137  0.44029194  0.05208115
   0.10771645  0.88876277  0.95074306
   0.22036558  0.77791279  0.05308434
   0.44211883  0.22492186  0.94993410
   0.55884101  0.10825740  0.05167760
   0.44100269  0.54934938  0.94828944
   0.54893681  0.44011162  0.05170954
   0.45091592  0.89117751  0.94827407
   0.55777566  0.78278974  0.05011110
   0.77608300  0.21646313  0.94790018
   0.88640576  0.10747262  0.04950171
   0.77954572  0.55759566  0.94696342
   0.88895609  0.44454635  0.05569327
   0.77898516  0.89319732  0.95072256
   0.89210637  0.78090928  0.04923284
unknown system                          
           1
     8.283095    4.768622    0.000000
    -8.295174    4.789539    0.000000
     0.000000    0.000000   30.000000
   V    Mo   W    S 
   3   3   3  18
Direct configuration=     7
   0.66611398  0.00569771 -0.00005439
   0.00003582  0.00977208  0.00001266
   0.33379923  0.33967329  0.00004921
   0.31954770  0.66048395  0.00004101
   0.68066064  0.34103970 -0.00004754
   0.99983337  0.34934594 -0.00000941
   0.00008674  0.64584548  0.00001053
   0.34018373 -0.00335162 -0.00064765
   0.65920029  0.65645936  0.00065677
   0.11329452  0.22165036  0.95035056
   0.22125822  0.11425452  0.04919464
   0.11095102  0.55540353  0.94384540
   0.22323983  0.44041297  0.05224905
   0.10740950  0.88785784  0.95107573
   0.22000062  0.77767379  0.05326208
   0.44282408  0.22501405  0.95013653
   0.55913909  0.10855867  0.05179330
   0.44068968  0.54932022  0.94816047
   0.54883296  0.43949002  0.05187752
   0.45102317  0.89063646  0.94810141
   0.55706643  0.78218995  0.04992559
   0.77658699  0.21708459  0.94772999
   0.88654295  0.10828998  0.04964773
   0.77992125  0.55773170  0.94679138
   0.88897214  0.44442443  0.05615756
   0.77859722  0.89293445  0.95080268
   0.89240328  0.78032102  0.04888704
unknown system                          
           1
     8.286668    4.769544    0.000000
    -8.299925    4.792503    0.000000
     0.000000    0.000000   30.000000
   V    Mo   W    S 
   3   3   3  18
Direct configuration=     8
   0.66634961  0.00636448 -0.00007608
   0.00006074  0.01120637  0.00001545
   0.33355214  0.34012493  0.00006967
   0.31902090  0.66037982  0.00000063
   0.68123197  0.34149901 -0.00001041
   0.99983148  0.34929142 -0.00001065
   0.00011207  0.64527947  0.00000998
   0.34037355 -0.00409905 -0.00068354
   0.65891812  0.65552390  0.00069007
   0.11332859  0.22195012  0.95029914
   0.22142253  0.11430125  0.04907306
   0.11093294  0.55530346  0.94373780
   0.22307297  0.44051549  0.05225777
   0.10725301  0.88753358  0.95132138
   0.21982271  0.77755052  0.05328394
   0.44308354  0.22498129  0.95034290
   0.55920927  0.10864376  0.05177179
   0.44061315  0.54932537  0.94817114
   0.54876529  0.43919218  0.05189436
   0.45108924  0.89040037  0.94808496
   0.55680420  0.78190405  0.04973160
   0.77675719  0.21736153  0.94772456
   0.88651636  0.10855781  0.04969445
   0.78010857  0.55779842  0.94677819
   0.88899716  0.44435511  0.05626744
   0.77843972  0.89282007  0.95092685
   0.89254742  0.78014973  0.04863342
unknown system                          
           1
     8.285586    4.769024    0.000000
    -8.298562    4.791496    0.000000
     0.000000    0.000000   30.000000
   V    Mo   W    S 
   3   3   3  18
Direct configuration=     9
   0.66671752  0.00736498 -0.00009750
   0.00010356  0.01312179  0.00002023
   0.33317007  0.34079946  0.00009006
   0.31828596  0.66021726 -0.00004420
   0.68203791  0.34213709  0.00003151
   0.99982995  0.34924204 -0.00001126
   0.00014971  0.64449388  0.00001026
   0.34056886 -0.00521922 -0.00073299
   0.65857029  0.65420289  0.00073721
   0.11344102  0.22228557  0.95017014
   0.22157893  0.11435887  0.04894401
   0.11090172  0.55515047  0.94354788
   0.22292430  0.44063577  0.05233021
   0.10702771  0.88723591  0.95160532
   0.21961959  0.77739785  0.05336938
   0.44330303  0.22491655  0.95058847
   0.55927978  0.10870663  0.05179258
   0.44053061  0.54929959  0.94813468
   0.54861393  0.43876765  0.05196938
   0.45123632  0.89012246  0.94800845
   0.55658401  0.78163256  0.04950392
   0.77690747  0.21763740  0.94765653
   0.88641094  0.10878684  0.04981818
   0.78032697  0.55787183  0.94670561
   0.88903992  0.44424858  0.05645889
   0.77829663  0.89272501  0.95105803
   0.89275771  0.78007474  0.04833491
unknown system                          
           1
     8.280188    4.765187    0.000000
    -8.292908    4.787210    0.000000
     0.000000    0.000000   30.000000
   V    Mo   W    S 
   3   3   3  18
Direct configuration=    10
   0.66631598  0.00628005 -0.00008017
   0.00004513  0.01148200  0.00001439
   0.33357897  0.34005156  0.00007414
   0.31886493  0.66038358 -0.00000292
   0.68137870  0.34163663 -0.00000834
   0.99982244  0.34944206 -0.00001014
   0.00010759  0.64506431  0.00000694
   0.34050918 -0.00404560 -0.00070182
   0.65882126  0.65546213  0.00070775
   0.11326993  0.22197764  0.95030852
   0.22144821  0.11430202  0.04907461
   0.11095262  0.55530584  0.94366083
   0.22299422  0.44051431  0.05226696
   0.10722954  0.88738786  0.95137446
   0.21975883  0.77753235  0.05329274
   0.44323528  0.22503600  0.95033833
   0.55926713  0.10868658  0.05178496
   0.44055955  0.54931958  0.94815966
   0.54878371  0.43915709  0.05190697
   0.45107893  0.89034940  0.94807430
   0.55665902  0.78181529  0.04973107
   0.77683266  0.21743171  0.94771554
   0.88657084  0.10864029  0.04968356
   0.78017356  0.55784133  0.94676949
   0.88897517  0.44433374  0.05634646
   0.77840855  0.89279693  0.95092715
   0.89257250  0.78002978  0.04858444
unknown system                          
           1
     8.283684    4.765048    0.000000
    -8.298293    4.790342    0.000000
     0.000000    0.000000   30.000000
   V    Mo   W    S 
   3   3   3  18
Direct configuration=    11
   0.66476935  0.00280882 -0.00005376
  -0.00017140  0.00754501 -0.00000919
   0.33515819  0.33787462  0.00005510
   0.31996801  0.66063619  0.00008774
   0.67995789  0.34046507 -0.00008892
   0.99981074  0.35085399 -0.00000516
  -0.00006108  0.64569070  0.00000232
   0.34117403 -0.00021446 -0.00062804
   0.65885376  0.65870792  0.00064685
   0.11275220  0.22139003  0.95073655
   0.22129627  0.11422079  0.04943909
   0.11109151  0.55569910  0.94385183
   0.22305376  0.44015715  0.05201486
   0.10776828  0.88740154  0.95089797
   0.21998430  0.77794656  0.05302438
   0.44345203  0.22556390  0.94960561
   0.55945863  0.10870951  0.05174071
   0.44043680  0.54923898  0.94827975
   0.54922168  0.44014573  0.05172967
   0.45069786  0.89092071  0.94825281
   0.55646773  0.78211070  0.05037803
   0.77675109  0.21695376  0.94794121
   0.88704812  0.10854304  0.04927421
   0.77989085  0.55791890  0.94698850
   0.88878508  0.44453861  0.05615290
   0.77849613  0.89285885  0.95055474
   0.89210262  0.77952873  0.04913015
unknown system                          
           1
     8.282176    4.762009    0.000000
    -8.298746    4.790702    0.000000
     0.000000    0.000000   30.000000
   V    Mo   W    S 
   3   3   3  18
Direct configuration=    12
   0.66410233  0.00117972 -0.00004672
  -0.00034706  0.00644567 -0.00001983
   0.33581659  0.33672941  0.00005225
   0.32025160  0.66072893  0.00011290
   0.67947970  0.34000876 -0.00011659
   0.99979581  0.35165260 -0.00000567
  -0.00014735  0.64551915 -0.00000600
   0.34187381  0.00167425 -0.00060903
   0.65861523  0.66003782  0.00062740
   0.11252987  0.22129972  0.95091350
   0.22127944  0.11415072  0.04953041
   0.11122970  0.55587235  0.94375910
   0.22298439  0.44002144  0.05192504
   0.10797673  0.88732679  0.95090456
   0.22000092  0.77820382  0.05290559
   0.44378394  0.22581684  0.94933129
   0.55964703  0.10872974  0.05176436
   0.44029816  0.54913629  0.94830060
   0.54938223  0.44038941  0.05173311
   0.45057946  0.89102848  0.94825687
   0.55615430  0.78203702  0.05060284
   0.77681053  0.21686092  0.94802116
   0.88723909  0.10864897  0.04910423
   0.77984450  0.55808500  0.94708347
   0.88860927  0.44453386  0.05625104
   0.77847560  0.89281585  0.95045724
   0.89194864  0.77928093  0.04916680
unknown system                          
           1
     8.285214    4.763959    0.000000
    -8.301711    4.792525    0.000000
     0.000000    0.000000   30.000000
   V    Mo   W    S 
   3   3   3  18
Direct configuration=    13
   0.66402087  0.00097903 -0.00007477
  -0.00039919  0.00776476 -0.00002449
   0.33596257  0.33654982  0.00008005
   0.31968181  0.66043708  0.00005702
   0.67984432  0.34019283 -0.00005569
   0.99986625  0.35228386 -0.00000140
  -0.00020867  0.64428121 -0.00000356
   0.34283336  0.00219685 -0.00063367
   0.65779645  0.65952110  0.00065212
   0.11259071  0.22165378  0.95092166
   0.22145391  0.11415938  0.04941581
   0.11128977  0.55586190  0.94357457
   0.22285463  0.44005317  0.05187644
   0.10794376  0.88712133  0.95129037
   0.21986097  0.77832888  0.05283308
   0.44417258  0.22589802  0.94941094
   0.55983371  0.10872884  0.05179373
   0.44013789  0.54894038  0.94831717
   0.54932273  0.44017102  0.05177033
   0.45062934  0.89085587  0.94820453
   0.55574181  0.78169086  0.05050882
   0.77696146  0.21705131  0.94804716
   0.88720170  0.10896390  0.04911537
   0.77996370  0.55827951  0.94714084
   0.88852076  0.44444285  0.05642845
   0.77830870  0.89264902  0.95055165
   0.89202854  0.77915790  0.04880336
unknown system                          
           1
     8.289506    4.766406    0.000000
    -8.306097    4.795135    0.000000
     0.000000    0.000000   30.000000
   V    Mo   W    S 
   3   3   3  18
Direct configuration=    14
   0.66420740  0.00141412 -0.00008469
  -0.00037633  0.00840410 -0.00002297
   0.33577966  0.33682154  0.00008826
   0.31952774  0.66039776  0.00004554
   0.68002754  0.34034415 -0.00004549
   0.99986296  0.35208698 -0.00000246
  -0.00019152  0.64417640 -0.00000323
   0.34283490  0.00174001 -0.00064743
   0.65772861  0.65904911  0.00066472
   0.11266629  0.22175252  0.95085451
   0.22148701  0.11418347  0.04937658
   0.11126273  0.55579820  0.94353690
   0.22284574  0.44009796  0.05190968
   0.10785410  0.88708475  0.95136579
   0.21982211  0.77826531  0.05286607
   0.44417365  0.22585557  0.94949445
   0.55983358  0.10872709  0.05180841
   0.44012818  0.54892768  0.94829293
   0.54925745  0.44003285  0.05179904
   0.45068523  0.89078003  0.94817963
   0.55573701  0.78164616  0.05043152
   0.77697422  0.21711457  0.94801906
   0.88713383  0.10899103  0.04918077
   0.78000787  0.55826666  0.94711123
   0.88855163  0.44440937  0.05646659
   0.77828371  0.89263950  0.95059378
   0.89210915  0.77920756  0.04872074
unknown system                          
           1
     8.290299    4.766580    0.000000
    -8.307174    4.795802    0.000000
     0.000000    0.000000   30.000000
   V    Mo   W    S 
   3   3   3  18
Direct configuration=    15
   0.66442647  0.00202902 -0.00013434
  -0.00044529  0.01064315 -0.00002656
   0.33556945  0.33716023  0.00013755
   0.31896395  0.66024288 -0.00001107
   0.68052088  0.34066941  0.00001269
   0.99985859  0.35202628 -0.00000292
  -0.00020953  0.64321587 -0.00000323
   0.34371849  0.00133649 -0.00069569
   0.65698504  0.65782408  0.00071464
   0.11286384  0.22214725  0.95069850
   0.22165151  0.11423906  0.04925194
   0.11119419  0.55563816  0.94338427
   0.22278362  0.44020843  0.05193625
   0.10763553  0.88685746  0.95177001
   0.21967366  0.77818874  0.05286110
   0.44441221  0.22584070  0.94966371
   0.55997749  0.10868138  0.05185807
   0.43999177  0.54875421  0.94824499
   0.54912718  0.43968886  0.05187009
   0.45082608  0.89056693  0.94812222
   0.55549619  0.78139640  0.05024080
   0.77704595  0.21729419  0.94799903
   0.88693588  0.10919013  0.04933705
   0.78014888  0.55831205  0.94710745
   0.88860323  0.44430431  0.05661614
   0.77811925  0.89253951  0.95072056
   0.89233994  0.77921925  0.04832665
unknown system                          
           1
     8.288277    4.764733    0.000000
    -8.306318    4.795980    0.000000
     0.000000    0.000000   30.000000
   V    Mo   W    S 
   3   3   3  18
Direct configuration=    16
   0.66428713  0.00164291 -0.00012245
  -0.00041845  0.00991292 -0.00002701
   0.33573544  0.33692605  0.00012360
   0.31912952  0.66024988  0.00000505
   0.68032602  0.34053433 -0.00000328
   0.99987521  0.35217274 -0.00000250
  -0.00021725  0.64342228 -0.00000265
   0.34356845  0.00171762 -0.00068239
   0.65710885  0.65828624  0.00070048
   0.11279125  0.22205008  0.95076655
   0.22161911  0.11423126  0.04930090
   0.11123634  0.55570943  0.94340254
   0.22279008  0.44015175  0.05191784
   0.10771655  0.88689724  0.95166161
   0.21971096  0.77824806  0.05284752
   0.44439916  0.22589482  0.94958132
   0.55996859  0.10869891  0.05185374
   0.43999741  0.54876527  0.94825754
   0.54916754  0.43980764  0.05185143
   0.45076814  0.89064004  0.94813699
   0.55550066  0.78144310  0.05032650
   0.77704377  0.21724337  0.94801233
   0.88702254  0.10917295  0.04927463
   0.78010881  0.55832978  0.94711810
   0.88855971  0.44433050  0.05659750
   0.77815681  0.89255540  0.95066870
   0.89226210  0.77917990  0.04843529
unknown system                          
           1
     8.290063    4.763289    0.000000
    -8.310644    4.798937    0.000000
     0.000000    0.000000   30.000000
   V    Mo   W    S 
   3   3   3  18
Direct configuration=    17
   0.66364626  0.00016445 -0.00009401
  -0.00026026  0.00766534 -0.00002684
   0.33655155  0.33617769  0.00008378
   0.31954405  0.66006822  0.00004851
   0.67973251  0.34006251 -0.00004038
   0.99996688  0.35295696  0.00000029
  -0.00023072  0.64377168  0.00000247
   0.34344583  0.00335125 -0.00064749
   0.65707437  0.65966571  0.00066393
   0.11263367  0.22186164  0.95104442
   0.22163012  0.11428672  0.04945697
   0.11134824  0.55596172  0.94349527
   0.22281628  0.43991002  0.05179742
   0.10801044  0.88691902  0.95134311
   0.21980114  0.77844105  0.05273122
   0.44438320  0.22614071  0.94930925
   0.55996735  0.10873563  0.05179104
   0.43996158  0.54872108  0.94833352
   0.54924654  0.44022017  0.05174963
   0.45059073  0.89095043  0.94825208
   0.55547213  0.78160517  0.05059451
   0.77704076  0.21705587  0.94812409
   0.88726222  0.10917805  0.04901339
   0.78000686  0.55842250  0.94721109
   0.88843184  0.44444934  0.05649805
   0.77817502  0.89254964  0.95051747
   0.89196589  0.77892188  0.04874711
unknown system                          
           1
     8.294751    4.762987    0.000000
    -8.317770    4.802857    0.000000
     0.000000    0.000000   30.000000
   V    Mo   W    S 
   3   3   3  18
Direct configuration=    18
   0.66309961 -0.00136021 -0.00010675
  -0.00016915  0.00689166 -0.00003481
   0.33735211  0.33522127  0.00008609
   0.31969426  0.65972312  0.00007640
   0.67929863  0.33965293 -0.00005967
   1.00000828  0.35382272  0.00000249
  -0.00028783  0.64339638  0.00000477
   0.34418268  0.00542876 -0.00064455
   0.65638214  0.66063588  0.00066073
   0.11253292  0.22189270  0.95125623
   0.22173745  0.11434030  0.04953914
   0.11146986  0.55614840  0.94342371
   0.22275162  0.43971094  0.05168468
   0.10821095  0.88680080  0.95139251
   0.21982722  0.77867120  0.05253114
   0.44469496  0.22646247  0.94905992
   0.56013464  0.10874461  0.05179234
   0.43976372  0.54850448  0.94832995
   0.54932564  0.44045241  0.05173920
   0.45041801  0.89108386  0.94832518
   0.55512132  0.78151867  0.05079007
   0.77713171  0.21701817  0.94825157
   0.88744865  0.10933986  0.04881033
   0.77996481  0.55858791  0.94736755
   0.88825719  0.44446630  0.05655734
   0.77810695  0.89243397  0.95046498
   0.89175610  0.77862490  0.04869936
unknown system                          
           1
     8.289706    4.762542    0.000000
    -8.310511    4.798576    0.000000
     0.000000    0.000000   30.000000
   V    Mo   W    S 
   3   3   3  18
Direct configuration=    19
   0.66295304 -0.00198612 -0.00016586
  -0.00025682  0.00884107 -0.00005354
   0.33769280  0.33463798  0.00015095
   0.31941223  0.65922674  0.00001073
   0.67930297  0.33941552  0.00001812
   0.99994639  0.35420167  0.00000641
  -0.00037538  0.64205960 -0.00000529
   0.34591469  0.00702040 -0.00067490
   0.65496450  0.66035370  0.00069615
   0.11261543  0.22221014  0.95121321
   0.22192061  0.11434721  0.04950421
   0.11148371  0.55610531  0.94325134
   0.22263290  0.43964510  0.05164184
   0.10818041  0.88663601  0.95191362
   0.21980494  0.77887555  0.05233604
   0.44521709  0.22671456  0.94894438
   0.56042709  0.10865601  0.05187091
   0.43950077  0.54815503  0.94824415
   0.54936865  0.44037250  0.05182026
   0.45040333  0.89096558  0.94832455
   0.55461424  0.78123750  0.05080429
   0.77723667  0.21710486  0.94831238
   0.88737738  0.10955367  0.04885150
   0.77997476  0.55875185  0.94751126
   0.88815927  0.44435837  0.05672764
   0.77793749  0.89223805  0.95053916
   0.89180527  0.77851657  0.04820637
unknown system                          
           1
     8.298233    4.765909    0.000000
    -8.320249    4.804039    0.000000
     0.000000    0.000000   30.000000
   V    Mo   W    S 
   3   3   3  18
Direct configuration=    20
   0.66324942 -0.00100452 -0.00010778
  -0.00023071  0.00734868 -0.00003413
   0.33711345  0.33540094  0.00009318
   0.31953822  0.65982261  0.00004868
   0.67954476  0.33984666 -0.00003246
   0.99996004  0.35373837 -0.00000109
  -0.00027073  0.64320424  0.00000139
   0.34419395  0.00492608 -0.00064423
   0.65646117  0.66032515  0.00066378
   0.11252136  0.22193545  0.95120880
   0.22172482  0.11430527  0.04949391
   0.11147593  0.55612556  0.94337816
   0.22270918  0.43978547  0.05173041
   0.10813594  0.88678792  0.95148018
   0.21978638  0.77864831  0.05257194
   0.44474343  0.22638664  0.94912929
   0.56011707  0.10873339  0.05179466
   0.43977878  0.54854508  0.94830344
   0.54932606  0.44032279  0.05178918
   0.45045707  0.89097144  0.94828550
   0.55509205  0.78143830  0.05071123
   0.77717315  0.21710662  0.94822270
   0.88742866  0.10937869  0.04884084
   0.78001136  0.55861036  0.94733756
   0.88825146  0.44443533  0.05660419
   0.77810906  0.89241805  0.95052236
   0.89181317  0.77867158  0.04860821
unknown system                          
           1
     8.296900    4.765389    0.000000
    -8.318638    4.803039    0.000000
     0.000000    0.000000   30.000000
   V    Mo   W    S 
   3   3   3  18
Direct configuration=    21
   0.66322517 -0.00136364 -0.00017615
  -0.00030616  0.00967702 -0.00005188
   0.33734633  0.33496334  0.00016568
   0.31928451  0.65933841  0.00000492
   0.67950470  0.33961041  0.00001849
   0.99993469  0.35382680  0.00000773
  -0.00036842  0.64206731 -0.00000700
   0.34586276  0.00627701 -0.00069857
   0.65502761  0.65978360  0.00071596
   0.11268392  0.22227084  0.95109401
   0.22190250  0.11433041  0.04944592
   0.11142488  0.55599096  0.94322270
   0.22264304  0.43975338  0.05168604
   0.10804698  0.88661558  0.95200997
   0.21976758  0.77876475  0.05239681
   0.44518547  0.22660733  0.94906681
   0.56043372  0.10864641  0.05190204
   0.43952022  0.54817538  0.94822121
   0.54933043  0.44022482  0.05184608
   0.45047987  0.89085967  0.94827631
   0.55465966  0.78120338  0.05069934
   0.77721185  0.21715935  0.94826187
   0.88727255  0.10953575  0.04896873
   0.78001485  0.55868183  0.94746482
   0.88823437  0.44431818  0.05675986
   0.77794123  0.89226843  0.95058327
   0.89195013  0.77862773  0.04811494
unknown system                          
           1
     8.296919    4.764827    0.000000
    -8.319166    4.803356    0.000000
     0.000000    0.000000   30.000000
   V    Mo   W    S 
   3   3   3  18
Direct configuration=    22
   0.66333804 -0.00113432 -0.00018975
  -0.00033243  0.01031487 -0.00005387
   0.33723848  0.33504985  0.00018064
   0.31917072  0.65930159 -0.00000831
   0.67960281  0.33966392  0.00003328
   0.99992680  0.35371427  0.00000845
  -0.00038127  0.64187539 -0.00000701
   0.34606306  0.00614957 -0.00070756
   0.65487019  0.65946970  0.00072547
   0.11274196  0.22233353  0.95103634
   0.22191791  0.11432643  0.04941042
   0.11138317  0.55592521  0.94321903
   0.22264438  0.43979139  0.05168855
   0.10799050  0.88660093  0.95211151
   0.21975237  0.77873143  0.05239151
   0.44520510  0.22658345  0.94911222
   0.56045341  0.10863040  0.05191175
   0.43951058  0.54814700  0.94821743
   0.54930846  0.44015153  0.05185200
   0.45051225  0.89080918  0.94826738
   0.55464426  0.78116474  0.05065076
   0.77720566  0.21718981  0.94825535
   0.88721012  0.10953776  0.04902935
   0.78002771  0.55865866  0.94746737
   0.88827242  0.44429605  0.05676394
   0.77792330  0.89225847  0.95061479
   0.89201448  0.77867367  0.04801888
unknown system                          
           1
     8.296647    4.765210    0.000000
    -8.318302    4.802714    0.000000
     0.000000    0.000000   30.000000
   V    Mo   W    S 
   3   3   3  18
Direct configuration=    23
   0.66335582 -0.00125743 -0.00023281
  -0.00036743  0.01173823 -0.00006528
   0.33737099  0.33483906  0.00022282
   0.31902098  0.65897320 -0.00002995
   0.67956116  0.33949148  0.00006213
   0.99991146  0.35369914  0.00001241
  -0.00044579  0.64122564 -0.00000844
   0.34702686  0.00693976 -0.00073144
   0.65404038  0.65912525  0.00075090
   0.11287861  0.22252199  0.95095598
   0.22202306  0.11434988  0.04937685
   0.11132617  0.55581849  0.94316904
   0.22263054  0.43976297  0.05165366
   0.10795033  0.88653928  0.95241068
   0.21975912  0.77878206  0.05227876
   0.44540531  0.22670087  0.94908108
   0.56061109  0.10858131  0.05196360
   0.43937775  0.54793699  0.94818364
   0.54928983  0.44008929  0.05186847
   0.45052829  0.89075667  0.94827805
   0.55444430  0.78105281  0.05063965
   0.77720847  0.21720481  0.94828319
   0.88709426  0.10958532  0.04912434
   0.78001131  0.55867130  0.94754601
   0.88828947  0.44423146  0.05681299
   0.77782929  0.89217643  0.95065363
   0.89208284  0.77867819  0.04773995
unknown system                          
           1
     8.295248    4.765651    0.000000
    -8.315450    4.800634    0.000000
     0.000000    0.000000   30.000000
   V    Mo   W    S 
   3   3   3  18
Direct configuration=    24
   0.66340708 -0.00097062 -0.00022837
  -0.00036931  0.01177524 -0.00006270
   0.33726190  0.33506247  0.00022007
   0.31897060  0.65905112 -0.00003132
   0.67965620  0.33957942  0.00006089
   0.99991937  0.35359531  0.00001147
  -0.00042553  0.64131906 -0.00000810
   0.34686085  0.00650507 -0.00073497
   0.65418580  0.65892702  0.00075252
   0.11291376  0.22255253  0.95092900
   0.22201928  0.11436735  0.04936131
   0.11131941  0.55579648  0.94317220
   0.22264863  0.43980509  0.05166909
   0.10790980  0.88653295  0.95237746
   0.21973899  0.77872301  0.05232756
   0.44534200  0.22664910  0.94913824
   0.56059481  0.10858363  0.05195723
   0.43939328  0.54796499  0.94818908
   0.54924286  0.44001570  0.05187101
   0.45058465  0.89073263  0.94826164