unknown system                          
           1
     8.859797    5.103042    0.000000
    -8.859677    5.102835    0.000000
     0.000000    0.000000   30.000000
   V    Mo   W    S 
   3   3   3  18
Direct configuration=     1
   0.00000000  0.00000000  0.00000000
   0.33333334  0.00000000  0.00000000
   0.66666669  0.33333334  0.00000000
   0.33333334  0.66666669  0.00000000
   1.00000000  0.33333334  0.00000000
   0.66666669  0.00000000  0.00000000
   0.00000000  0.66666669  0.00000000
   0.33333334  0.33333334  0.00000000
   0.66666669  0.66666669  0.00000000
   0.11068511  0.22244981  0.95539999
   0.22244981  0.11068511  0.04460000
   0.11068511  0.55578315  0.95539999
   0.22244981  0.44401845  0.04460000
   0.11068511  0.88911647  0.95539999
   0.22244981  0.77735180  0.04460000
   0.44401845  0.22244981  0.95539999
   0.55578315  0.11068511  0.04460000
   0.44401845  0.55578315  0.95539999
   0.55578315  0.44401845  0.04460000
   0.44401845  0.88911647  0.95539999
   0.55578315  0.77735180  0.04460000
   0.77735180  0.22244981  0.95539999
   0.88911647  0.11068511  0.04460000
   0.77735180  0.55578315  0.95539999
   0.88911647  0.44401845  0.04460000
   0.77735180  0.88911647  0.95539999
   0.88911647  0.77735180  0.04460000
unknown system                          
           1
     8.670795    4.997010    0.000000
    -8.670621    4.996710    0.000000
     0.000000    0.000000   30.000000
   V    Mo   W    S 
   3   3   3  18
Direct configuration=     2
  -0.00079588  0.00120540 -0.00013080
   0.33444786 -0.00086109 -0.00001143
   0.66755392  0.33182296  0.00014273
   0.33338266  0.66664036 -0.00003426
   0.99988015  0.33327328  0.00018625
   0.66657414  0.00017186  0.00003335
   0.00178925  0.66562693 -0.00005741
   0.33180122  0.33404958  0.00000029
   0.66511305  0.66817462 -0.00019595
   0.10974761  0.21791862  0.95191099
   0.22062397  0.10754690  0.04684004
   0.11067327  0.55601748  0.95074867
   0.22252498  0.44390513  0.04928344
   0.11242176  0.89228551  0.95313173
   0.22336540  0.78166232  0.04809595
   0.44610849  0.22038401  0.95309589
   0.55333004  0.11329432  0.04699001
   0.44491541  0.55513205  0.95067893
   0.55755537  0.44223217  0.04798969
   0.44194132  0.89115592  0.95201265
   0.55580662  0.77723902  0.04927986
   0.77527385  0.22446008  0.95201026
   0.89121914  0.10872763  0.04798477
   0.77590068  0.55181589  0.95200168
   0.88464588  0.44298190  0.04813738
   0.78183424  0.88999119  0.95187048
   0.89058006  0.78136042  0.04800471
unknown system                          
           1
     8.487624    4.897654    0.000000
    -8.488187    4.898632    0.000000
     0.000000    0.000000   30.000000
   V    Mo   W    S 
   3   3   3  18
Direct configuration=     3
  -0.00110623  0.00152087 -0.00009178
   0.33473096 -0.00115701 -0.00006035
   0.66793769  0.33142734  0.00011279
   0.33344145  0.66632124 -0.00004120
   1.00008322  0.33358555  0.00020906
   0.66657346 -0.00008933  0.00003102
   0.00234758  0.66510170 -0.00010685
   0.33145172  0.33472060  0.00005896
   0.66436501  0.66862561 -0.00015626
   0.10988258  0.21790893  0.95187591
   0.22069202  0.10773507  0.04670713
   0.11054093  0.55614240  0.95067271
   0.22265450  0.44376584  0.04937691
   0.11236415  0.89209194  0.95324558
   0.22321136  0.78165297  0.04812770
   0.44598823  0.22047891  0.95324903
   0.55329393  0.11332407  0.04700035
   0.44500656  0.55505774  0.95058963
   0.55745484  0.44232471  0.04786677
   0.44188910  0.89124409  0.95197240
   0.55593517  0.77709882  0.04935508
   0.77521527  0.22450571  0.95198405
   0.89128260  0.10867302  0.04802911
   0.77594878  0.55197679  0.95214923
   0.88465125  0.44312009  0.04819507
   0.78184390  0.88985847  0.95181302
   0.89053445  0.78119832  0.04783483
unknown system                          
           1
     8.287002    4.773992    0.000000
    -8.288376    4.776375    0.000000
     0.000000    0.000000   30.000000
   V    Mo   W    S 
   3   3   3  18
Direct configuration=     4
  -0.00256263  0.00260385  0.00009268
   0.33558454 -0.00247547 -0.00023473
   0.66978495  0.33029932 -0.00005919
   0.33374491  0.66456481 -0.00005078
   1.00117438  0.33527253  0.00020645
   0.66666613 -0.00159670 -0.00000427
   0.00422689  0.66278096 -0.00023458
   0.33048131  0.33802744  0.00023151
   0.66108195  0.67014669  0.00004341
   0.10919804  0.21684353  0.95027156
   0.22026421  0.10691845  0.04751733
   0.11055945  0.55606887  0.94874091
   0.22264940  0.44375465  0.05139326
   0.11289230  0.89293033  0.95235643
   0.22388773  0.78273930  0.04972680
   0.44621799  0.22017896  0.95253859
   0.55280291  0.11373523  0.04837423
   0.44488494  0.55509486  0.94854530
   0.55784267  0.44197628  0.04883558
   0.44140805  0.89190942  0.95041130
   0.55591849  0.77713776  0.05128585
   0.77469298  0.22496215  0.95049902
   0.89180470  0.10813903  0.04961014
   0.77537473  0.55124884  0.95132001
   0.88355783  0.44247953  0.04992540
   0.78298976  0.89062795  0.95008004
   0.89108583  0.78184588  0.04857766
unknown system                          
           1
     8.291960    4.770617    0.000000
    -8.295180    4.776202    0.000000
     0.000000    0.000000   30.000000
   V    Mo   W    S 
   3   3   3  18
Direct configuration=     5
  -0.00535877  0.00489872  0.00041492
   0.33692725 -0.00507442 -0.00043868
   0.67399651  0.32796233 -0.00036043
   0.33434206  0.66069009 -0.00000403
   1.00343855  0.33893432  0.00009535
   0.66696219 -0.00470359 -0.00006999
   0.00840748  0.65804817 -0.00023557
   0.32866376  0.34454058  0.00030982
   0.65389563  0.67313377  0.00021518
   0.10851568  0.21633501  0.94821962
   0.22005516  0.10670374  0.04834854
   0.11132990  0.55562853  0.94597903
   0.22202077  0.44421364  0.05436559
   0.11335266  0.89347647  0.95130520
   0.22490359  0.78341801  0.05178703
   0.44612487  0.22023457  0.95185065
   0.55252219  0.11373473  0.05033480
   0.44448716  0.55541653  0.94558387
   0.55803402  0.44182134  0.04983615
   0.44121159  0.89210629  0.94832509
   0.55511611  0.77781854  0.05411901
   0.77453093  0.22485185  0.94853170
   0.89203331  0.10817055  0.05171767
   0.77480486  0.55103929  0.95068534
   0.88271165  0.44152448  0.05239726
   0.78381259  0.89141079  0.94765262
   0.89137276  0.78188011  0.04903420
unknown system                          
           1
     8.294886    4.769457    0.000000
    -8.297857    4.774606    0.000000
     0.000000    0.000000   30.000000
   V    Mo   W    S 
   3   3   3  18
Direct configuration=     6
  -0.00637638  0.00635312  0.00041511
   0.33755916 -0.00635138 -0.00048223
   0.67590220  0.32648450 -0.00029469
   0.33418590  0.66015819  0.00011451
   1.00407142  0.33984371  0.00011169
   0.66667987 -0.00541870  0.00001406
   0.01019398  0.65654240 -0.00014965
   0.32783740  0.34627047  0.00026286
   0.65192663  0.67406850  0.00005674
   0.10862468  0.21689347  0.94805911
   0.22036157  0.10763214  0.04808916
   0.11210924  0.55547308  0.94556899
   0.22153708  0.44440765  0.05476456
   0.11295023  0.89277919  0.95153796
   0.22514344  0.78288364  0.05196652
   0.44588917  0.22083994  0.95219628
   0.55282978  0.11347885  0.05042941
   0.44428990  0.55562260  0.94510862
   0.55784683  0.44229867  0.04950907
   0.44148989  0.89154870  0.94820060
   0.55429388  0.77822862  0.05455434
   0.77503148  0.22421522  0.94835334
   0.89178116  0.10877933  0.05182358
   0.77488127  0.55196726  0.95121490
   0.88305784  0.44133117  0.05267656
   0.78337155  0.89116872  0.94741317
   0.89074528  0.78071538  0.04848531
unknown system                          
           1
     8.306368    4.767828    0.000000
    -8.309956    4.774041    0.000000
     0.000000    0.000000   30.000000
   V    Mo   W    S 
   3   3   3  18
Direct configuration=     7
  -0.00748616  0.00822189  0.00042203
   0.33840665 -0.00798691 -0.00059467
   0.67795072  0.32472637 -0.00028280
   0.33401393  0.65974287  0.00016841
   1.00493449  0.34078426  0.00006136
   0.66618617 -0.00628520  0.00006771
   0.01217509  0.65481736 -0.00013494
   0.32668200  0.34813737  0.00022476
   0.64972544  0.67537019 -0.00000083
   0.10860084  0.21722248  0.94784805
   0.22055680  0.10836857  0.04770575
   0.11272878  0.55523887  0.94520291
   0.22109520  0.44458449  0.05515347
   0.11255615  0.89212572  0.95191269
   0.22537751  0.78262527  0.05225119
   0.44580380  0.22138442  0.95269304
   0.55303280  0.11333512  0.05057567
   0.44395725  0.55581514  0.94467770
   0.55779594  0.44272013  0.04906253
   0.44173391  0.89115326  0.94807457
   0.55369518  0.77852809  0.05490772
   0.77550288  0.22367259  0.94820197
   0.89155394  0.10925969  0.05195508
   0.77491224  0.55262988  0.95186456
   0.88337369  0.44111750  0.05300770
   0.78302559  0.89113961  0.94716827
   0.89032361  0.77976543  0.04780599
unknown system                          
           1
     8.319558    4.760440    0.000000
    -8.325026    4.769909    0.000000
     0.000000    0.000000   30.000000
   V    Mo   W    S 
   3   3   3  18
Direct configuration=     8
  -0.00867802  0.01048966  0.00038874
   0.33957230 -0.01007932 -0.00063748
   0.68016437  0.32274742 -0.00018676
   0.33367007  0.65955226  0.00026873
   1.00608300  0.34183485  0.00004972
   0.66530113 -0.00721759  0.00015215
   0.01411955  0.65299213  0.00001150
   0.32520777  0.35000919  0.00012698
   0.64771112  0.67673856 -0.00018321
   0.10859181  0.21748590  0.94755033
   0.22074842  0.10908628  0.04719560
   0.11347449  0.55485486  0.94472939
   0.22058848  0.44489103  0.05558080
   0.11215911  0.89143504  0.95238902
   0.22559956  0.78251229  0.05256775
   0.44577280  0.22193949  0.95332958
   0.55314898  0.11319151  0.05074889
   0.44361050  0.55603355  0.94423763
   0.55778338  0.44310682  0.04850131
   0.44204132  0.89077940  0.94784829
   0.55297631  0.77894374  0.05533253
   0.77609130  0.22302071  0.94800223
   0.89121218  0.10978315  0.05212315
   0.77489534  0.55321725  0.95264784
   0.88375381  0.44086768  0.05333808
   0.78263179  0.89114561  0.94690220
   0.88998363  0.77885297  0.04698492
unknown system                          
           1
     8.334163    4.766911    0.000000
    -8.341364    4.779403    0.000000
     0.000000    0.000000   30.000000
   V    Mo   W    S 
   3   3   3  18
Direct configuration=     9
  -0.01155484  0.01580248  0.00013473
   0.34262142 -0.01465693 -0.00060560
   0.68475162  0.31859880  0.00015427
   0.33280686  0.65939461  0.00040611
   1.00950971  0.34444072 -0.00006964
   0.66272655 -0.00987414  0.00032882
   0.01747867  0.64903213  0.00031081
   0.32130789  0.35328590 -0.00021706
   0.64428410  0.68005070 -0.00060712
   0.10846728  0.21788828  0.94687413
   0.22098234  0.11045517  0.04581097
   0.11495384  0.55395281  0.94393815
   0.21958177  0.44585699  0.05642822
   0.11124202  0.88995345  0.95372055
   0.22603945  0.78245315  0.05334466
   0.44586940  0.22322583  0.95499333
   0.55338053  0.11286611  0.05119951
   0.44268346  0.55658225  0.94344673
   0.55778443  0.44375118  0.04699873
   0.44287315  0.88988917  0.94725057
   0.55161731  0.77977569  0.05604769
   0.77758757  0.22150164  0.94771165
   0.89022082  0.11088908  0.05243296
   0.77478584  0.55407108  0.95456478
   0.88473279  0.44015657  0.05404624
   0.78181641  0.89153384  0.94640727
   0.88966407  0.77733791  0.04494844
unknown system                          
           1
     8.329069    4.769504    0.000000
    -8.337336    4.783875    0.000000
     0.000000    0.000000   30.000000
   V    Mo   W    S 
   3   3   3  18
Direct configuration=    10
  -0.01271190  0.01720307 -0.00008432
   0.34390747 -0.01595922 -0.00042131
   0.68571907  0.31746343  0.00039602
   0.33253018  0.65965120  0.00045596
   1.01110588  0.34554415 -0.00004508
   0.66114782 -0.01128213  0.00038612
   0.01810369  0.64828926  0.00054197
   0.32009655  0.35389005 -0.00041611
   0.64385416  0.68094110 -0.00082746
   0.10835956  0.21802963  0.94652184
   0.22101059  0.11062795  0.04524624
   0.11546050  0.55365186  0.94367528
   0.21931494  0.44634790  0.05668115
   0.11106912  0.88971977  0.95426408
   0.22613351  0.78254249  0.05359224
   0.44589049  0.22355999  0.95563406
   0.55333893  0.11259020  0.05142582
   0.44241037  0.55677936  0.94322379
   0.55776552  0.44378033  0.04642309
   0.44318234  0.88955093  0.94695921
   0.55117939  0.77999410  0.05626708
   0.77825848  0.22090065  0.94765889
   0.88978573  0.11139164  0.05251988
   0.77464386  0.55409154  0.95518482
   0.88523369  0.43984823  0.05429430
   0.78161920  0.89185217  0.94617707
   0.88980532  0.77721479  0.04426524
unknown system                          
           1
     8.334730    4.775004    0.000000
    -8.343155    4.789659    0.000000
     0.000000    0.000000   30.000000
   V    Mo   W    S 
   3   3   3  18
Direct configuration=    11
  -0.01361723  0.01762749 -0.00032205
   0.34491221 -0.01631209 -0.00017999
   0.68581882  0.31692189  0.00057000
   0.33246788  0.66001448  0.00043064
   1.01246486  0.34654933 -0.00003074
   0.65948392 -0.01270151  0.00037730
   0.01817354  0.64823993  0.00065537
   0.31946749  0.35382913 -0.00057737
   0.64407186  0.68134421 -0.00097278
   0.10828812  0.21824022  0.94629687
   0.22094595  0.11045644  0.04478289
   0.11556842  0.55363294  0.94372069
   0.21942454  0.44676076  0.05669834
   0.11116358  0.88986418  0.95469881
   0.22610325  0.78263373  0.05371599
   0.44591252  0.22358046  0.95609155
   0.55325197  0.11223954  0.05161626
   0.44234319  0.55691908  0.94321654
   0.55770566  0.44366642  0.04600880
   0.44332835  0.88932168  0.94679636
   0.55106751  0.77988186  0.05626966
   0.77868953  0.22060904  0.94785633
   0.88943480  0.11172670  0.05242026
   0.77454719  0.55378918  0.95553226
   0.88570315  0.43967853  0.05440036
   0.78144413  0.89211854  0.94603776
   0.89004923  0.77758231  0.04388978
unknown system                          
           1
     8.336277    4.782435    0.000000
    -8.344698    4.797103    0.000000
     0.000000    0.000000   30.000000
   V    Mo   W    S 
   3   3   3  18
Direct configuration=    12
  -0.01439095  0.01784894 -0.00051506
   0.34566352 -0.01640146  0.00003411
   0.68581030  0.31650458  0.00071992
   0.33258614  0.66041668  0.00041141
   1.01351684  0.34733205 -0.00000383
   0.65808246 -0.01393385  0.00035587
   0.01830600  0.64833245  0.00076144
   0.31903296  0.35371410 -0.00069482
   0.64425879  0.68161657 -0.00107456
   0.10824067  0.21843631  0.94612579
   0.22084018  0.11020305  0.04446542
   0.11558998  0.55376305  0.94373910
   0.21967988  0.44707268  0.05670257
   0.11129972  0.89014058  0.95496630
   0.22601896  0.78267255  0.05383358
   0.44595042  0.22345667  0.95634431
   0.55320222  0.11195223  0.05182007
   0.44239038  0.55699147  0.94318681
   0.55770757  0.44355412  0.04578117
   0.44329492  0.88916459  0.94665739
   0.55102448  0.77962389  0.05628573
   0.77893621  0.22045393  0.94806602
   0.88917363  0.11191291  0.05226229
   0.77449429  0.55347872  0.95568773
   0.88602499  0.43964921  0.05447370
   0.78126960  0.89224010  0.94588814
   0.89021028  0.77801834  0.04371929
unknown system                          
           1
     8.339870    4.787421    0.000000
    -8.347013    4.799872    0.000000
     0.000000    0.000000   30.000000
   V    Mo   W    S 
   3   3   3  18
Direct configuration=    13
  -0.01687919  0.01869966 -0.00113205
   0.34806473 -0.01683356  0.00065322
   0.68602349  0.31495987  0.00120302
   0.33302026  0.66159293  0.00034113
   1.01694955  0.35005414  0.00006045
   0.65350832 -0.01795396  0.00028201
   0.01895646  0.64854661  0.00105250
   0.31770149  0.35363328 -0.00104249
   0.64458730  0.68246563 -0.00140285
   0.10814224  0.21921969  0.94563681
   0.22049515  0.10955672  0.04341602
   0.11571774  0.55426426  0.94381276
   0.22055869  0.44802566  0.05671027
   0.11169445  0.89087174  0.95584942
   0.22577802  0.78268440  0.05420128
   0.44607657  0.22308070  0.95716704
   0.55314629  0.11098316  0.05244225
   0.44253977  0.55719769  0.94309887
   0.55766437  0.44332753  0.04501659
   0.44307850  0.88870504  0.94628111
   0.55085175  0.77875272  0.05635642
   0.77968057  0.21992759  0.94876690
   0.88826324  0.11249698  0.05171371
   0.77445329  0.55262765  0.95627942
   0.88708149  0.43964412  0.05467966
   0.78049344  0.89245624  0.94543730
   0.89056646  0.77922797  0.04311914
unknown system                          
           1
     8.339387    4.790997    0.000000
    -8.345518    4.801696    0.000000
     0.000000    0.000000   30.000000
   V    Mo   W    S 
   3   3   3  18
Direct configuration=    14
  -0.01749215  0.01871035 -0.00136669
   0.34851295 -0.01679902  0.00082886
   0.68601621  0.31445968  0.00140012
   0.33325513  0.66192188  0.00032387
   1.01765406  0.35080108  0.00007833
   0.65232674 -0.01877340  0.00025294
   0.01922644  0.64904983  0.00111433
   0.31783632  0.35366991 -0.00112739
   0.64461073  0.68226420 -0.00147862
   0.10814824  0.21971781  0.94547425
   0.22029915  0.10931680  0.04312512
   0.11584527  0.55472407  0.94378281
   0.22112521  0.44834976  0.05674525
   0.11189742  0.89121161  0.95604482
   0.22577861  0.78261375  0.05436398
   0.44619324  0.22280559  0.95731122
   0.55324447  0.11052334  0.05269825
   0.44263559  0.55718328  0.94300709
   0.55767893  0.44327058  0.04488350
   0.44264600  0.88856518  0.94615357
   0.55075064  0.77819297  0.05644167
   0.77978702  0.21971282  0.94903874
   0.88780976  0.11266095  0.05146555
   0.77454551  0.55231802  0.95641791
   0.88740810  0.43979315  0.05475838
   0.77991374  0.89229237  0.94522238
   0.89056115  0.77965788  0.04303965
unknown system                          
           1
     8.340992    4.792546    0.000000
    -8.346730    4.802562    0.000000
     0.000000    0.000000   30.000000
   V    Mo   W    S 
   3   3   3  18
Direct configuration=    15
  -0.01867719  0.01894353 -0.00177505
   0.34936830 -0.01686511  0.00115075
   0.68598123  0.31364401  0.00176291
   0.33357700  0.66237096  0.00029531
   1.01915345  0.35214599  0.00011094
   0.65035885 -0.02044854  0.00020439
   0.01975519  0.64965494  0.00125072
   0.31764727  0.35370340 -0.00129743
   0.64462944  0.68229615 -0.00162742
   0.10818429  0.22047453  0.94526840
   0.21993549  0.10895221  0.04261893
   0.11599583  0.55540818  0.94381674
   0.22189861  0.44876949  0.05671176
   0.11214808  0.89174879  0.95639039
   0.22574262  0.78249125  0.05457454
   0.44641768  0.22243532  0.95759499
   0.55329350  0.10977665  0.05308249
   0.44276570  0.55718599  0.94291994
   0.55770207  0.44311729  0.04464001
   0.44205310  0.88837101  0.94599996
   0.55069431  0.77741125  0.05646416
   0.78005185  0.21937820  0.94945487
   0.88721727  0.11289363  0.05103663
   0.77466557  0.55179399  0.95668332
   0.88803139  0.44010877  0.05486080
   0.77902694  0.89205777  0.94496796
   0.89059659  0.78039480  0.04283890
unknown system                          
           1
     8.339229    4.792256    0.000000
    -8.344797    4.801977    0.000000
     0.000000    0.000000   30.000000
   V    Mo   W    S 
   3   3   3  18
Direct configuration=    16
  -0.01876252  0.01887631 -0.00187740
   0.34920734 -0.01681222  0.00118324
   0.68590010  0.31353596  0.00185710
   0.33359726  0.66228023  0.00028261
   1.01909501  0.35216391  0.00010061
   0.65054543 -0.02027664  0.00018739
   0.01986446  0.64997790  0.00126226
   0.31788193  0.35368935 -0.00131337
   0.64460811  0.68205470 -0.00163646
   0.10822396  0.22071603  0.94524115
   0.21976244  0.10890685  0.04259500
   0.11605781  0.55568628  0.94382193
   0.22210633  0.44874650  0.05670346
   0.11217219  0.89189377  0.95636116
   0.22582664  0.78242471  0.05462274
   0.44655360  0.22233301  0.95756058
   0.55328765  0.10954669  0.05316428
   0.44277727  0.55713891  0.94287806
   0.55772110  0.44305390  0.04469863
   0.44175955  0.88838775  0.94602380
   0.55071396  0.77720665  0.05645825
   0.78001028  0.21935068  0.94951521
   0.88714199  0.11288660  0.05094305
   0.77472374  0.55167594  0.95669880
   0.88818907  0.44034084  0.05489442
   0.77869573  0.89186585  0.94491423
   0.89055401  0.78056401  0.04285918
unknown system                          
           1
     8.339610    4.792809    0.000000
    -8.345238    4.802635    0.000000
     0.000000    0.000000   30.000000
   V    Mo   W    S 
   3   3   3  18
Direct configuration=    17
  -0.01888329  0.01882377 -0.00197601
   0.34915986 -0.01674813  0.00122777
   0.68588035  0.31342646  0.00195184
   0.33363542  0.66219673  0.00027949
   1.01919930  0.35236420  0.00010449
   0.65047105 -0.02036912  0.00018144
   0.01994010  0.65013734  0.00128255
   0.31800141  0.35371835 -0.00133475
   0.64455189  0.68193141 -0.00164972
   0.10828167  0.22092706  0.94521569
   0.21962745  0.10889615  0.04256037
   0.11607440  0.55586543  0.94384149
   0.22223588  0.44871559  0.05667430
   0.11217792  0.89197557  0.95635303
   0.22586213  0.78234350  0.05464926
   0.44667348  0.22229229  0.95755965
   0.55330531  0.10939090  0.05322024
   0.44278524  0.55711195  0.94286333
   0.55772377  0.44300007  0.04471792
   0.44161168  0.88840197  0.94604214
   0.55076278  0.77708191  0.05642596
   0.77999456  0.21935432  0.94957335
   0.88708989  0.11291018  0.05087305
   0.77476651  0.55156676  0.95673045
   0.88833418  0.44050367  0.05490632
   0.77842715  0.89170836  0.94487238
   0.89052437  0.78068777  0.04285388
unknown system                          
           1
     8.338017    4.792306    0.000000
    -8.343631    4.802110    0.000000
     0.000000    0.000000   30.000000
   V    Mo   W    S 
   3   3   3  18
Direct configuration=    18
  -0.01905997  0.01881855 -0.00208912
   0.34914763 -0.01671210  0.00128300
   0.68585277  0.31326181  0.00205759
   0.33367633  0.66218558  0.00027423
   1.01925680  0.35249172  0.00009947
   0.65036069 -0.02041815  0.00016820
   0.02003966  0.65038195  0.00130906
   0.31811102  0.35368812 -0.00136852
   0.64456703  0.68178266 -0.00167564
   0.10832949  0.22115316  0.94517447
   0.21943993  0.10882648  0.04251557
   0.11611604  0.55609116  0.94384448
   0.22238788  0.44867060  0.05666354
   0.11220873  0.89212520  0.95634353
   0.22595874  0.78229912  0.05468472
   0.44682776  0.22222249  0.95756631
   0.55327105  0.10917966  0.05329137
   0.44278691  0.55706918  0.94282426
   0.55774336  0.44291162  0.04475131
   0.44139755  0.88845073  0.94607372
   0.55080284  0.77692752  0.05641515
   0.77996776  0.21939472  0.94964183
   0.88709546  0.11291434  0.05078215
   0.77477930  0.55140513  0.95676647
   0.88848954  0.44068872  0.05494678
   0.77814450  0.89153193  0.94480902
   0.89051564  0.78087258  0.04284698
unknown system                          
           1
     8.337301    4.792421    0.000000
    -8.342867    4.802141    0.000000
     0.000000    0.000000   30.000000
   V    Mo   W    S 
   3   3   3  18
Direct configuration=    19
  -0.01925570  0.01881383 -0.00221763
   0.34912209 -0.01665515  0.00134539
   0.68581604  0.31314350  0.00218124
   0.33375596  0.66215575  0.00027218
   1.01942310  0.35270470  0.00009767
   0.65024049 -0.02058915  0.00015888
   0.02015045  0.65059324  0.00132850
   0.31819705  0.35366678 -0.00139280
   0.64453926  0.68166673 -0.00169281
   0.10837640  0.22139245  0.94512734
   0.21923073  0.10878076  0.04246557
   0.11612653  0.55631135  0.94386527
   0.22252215  0.44860421  0.05663120
   0.11221052  0.89223501  0.95633776
   0.22603177  0.78221778  0.05472659
   0.44698442  0.22218955  0.95757709
   0.55324627  0.10895204  0.05337901
   0.44278701  0.55702831  0.94279530
   0.55773418  0.44283648  0.04477100
   0.44121451  0.88848369  0.94609571
   0.55088202  0.77679439  0.05638361
   0.77995184  0.21941232  0.94969813
   0.88708890  0.11292121  0.05069532
   0.77480518  0.55124865  0.95681036
   0.88869327  0.44089850  0.05498813
   0.77782705  0.89135178  0.94474312
   0.89051296  0.78105574  0.04282878
unknown system                          
           1
     8.335204    4.793050    0.000000
    -8.340434    4.802190    0.000000
     0.000000    0.000000   30.000000
   V    Mo   W    S 
   3   3   3  18
Direct configuration=    20
  -0.01941630  0.01877592 -0.00235871
   0.34914190 -0.01666301  0.00141575
   0.68580370  0.31296618  0.00230010
   0.33380045  0.66219748  0.00026231
   1.01952051  0.35293438  0.00008718
   0.64998088 -0.02068468  0.00014180
   0.02028961  0.65087181  0.00136346
   0.31832820  0.35365771 -0.00144063
   0.64452553  0.68146808 -0.00173399
   0.10844107  0.22168779  0.94505029
   0.21903495  0.10869605  0.04241398
   0.11616757  0.55653497  0.94386511
   0.22266767  0.44854608  0.05662684
   0.11226131  0.89236798  0.95632804
   0.22614524  0.78218135  0.05477224
   0.44714119  0.22212299  0.95760513
   0.55318992  0.10867460  0.05347480
   0.44278217  0.55697222  0.94275492
   0.55773434  0.44274401  0.04480091
   0.44101303  0.88854713  0.94612325
   0.55094750  0.77664860  0.05638830
   0.77991027  0.21946975  0.94977783
   0.88709410  0.11295618  0.05061670
   0.77480411  0.55106437  0.95686098
   0.88892581  0.44110447  0.05504557
   0.77745799  0.89113528  0.94464624
   0.89052175  0.78123677  0.04281152
unknown system                          
           1
     8.334317    4.793101    0.000000
    -8.339623    4.802375    0.000000
     0.000000    0.000000   30.000000
   V    Mo   W    S 
   3   3   3  18
Direct configuration=    21
  -0.01993839  0.01878075 -0.00275459
   0.34915241 -0.01658286  0.00162869
   0.68581026  0.31252298  0.00268329
   0.33394935  0.66218912  0.00026389
   1.01988019  0.35357167  0.00008439
   0.64948027 -0.02099185  0.00012690
   0.02065132  0.65153582  0.00144155
   0.31856404  0.35359659 -0.00153549
   0.64443559  0.68104477 -0.00180438
   0.10859495  0.22249739  0.94484165
   0.21843010  0.10846184  0.04224890
   0.11624791  0.55721550  0.94387624
   0.22308715  0.44837207  0.05655656
   0.11238056  0.89272274  0.95630421
   0.22644277  0.78204228  0.05492064
   0.44761969  0.22196491  0.95769044
   0.55306620  0.10793635  0.05376165
   0.44274732  0.55684109  0.94263041
   0.55772318  0.44246729  0.04486604
   0.44041400  0.88867914  0.94615713
   0.55119094  0.77622410  0.05634009
   0.77978934  0.21961934  0.94998714
   0.88714156  0.11298217  0.05034340
   0.77481302  0.55049888  0.95701214
   0.88958243  0.44168313  0.05520082
   0.77639702  0.89054540  0.94438976
   0.89056125  0.78179384  0.04273844
unknown system                          
           1
     8.334317    4.793101    0.000000
    -8.339623    4.802375    0.000000
     0.000000    0.000000   30.000000
   V    Mo   W    S 
   3   3   3  18
Direct configuration=    22
  -0.02013386  0.01880608 -0.00293786
   0.34913699 -0.01653904  0.00170189
   0.68585331  0.31237676  0.00284870
   0.33392374  0.66209658  0.00024696
   1.02000965  0.35380728  0.00006614
   0.64937847 -0.02106158  0.00010212
   0.02077695  0.65174628  0.00147094
   0.31862776  0.35356262 -0.00159106
   0.64440700  0.68087525 -0.00185129
   0.10863760  0.22278647  0.94477528
   0.21819666  0.10838108  0.04218537
   0.11627115  0.55745267  0.94389089
   0.22322182  0.44831179  0.05653902
   0.11242035  0.89282091  0.95630226
   0.22651173  0.78196762  0.05498040
   0.44780196  0.22193353  0.95773947
   0.55303842  0.10771562  0.05387805
   0.44272964  0.55679840  0.94260195
   0.55770589  0.44236587  0.04488074
   0.44020878  0.88872894  0.94617620
   0.55128559  0.77607080  0.05633214
   0.77975356  0.21970652  0.95006696
   0.88719566  0.11300281  0.05024696
   0.77481394  0.55028381  0.95707887
   0.88983951  0.44188653  0.05526272
   0.77601807  0.89034070  0.94431062
   0.89058411  0.78199015  0.04269546
