   27   27  100    1
  0.9710400E+02  0.1002848E-08  0.1002848E-08  0.3000000E-08  0.5000000E-15
  1.000000000000000E-004
  CAR 
 unknown system                          
    159     34    120
 
  0.0000000E+00  0.0000000E+00  0.0000000E+00  0.1562500E-01
    1      -17.825822   1.000000
    2      -16.774991   1.000000
    3      -16.608674   1.000000
    4      -16.594391   1.000000
    5      -16.534884   1.000000
    6      -16.523438   1.000000
    7      -16.417037   1.000000
    8      -16.256811   1.000000
    9      -16.198012   1.000000
   10      -16.150213   1.000000
   11      -16.106353   1.000000
   12      -15.938727   1.000000
   13      -15.909416   1.000000
   14      -15.643642   1.000000
   15      -15.594888   1.000000
   16      -15.493077   1.000000
   17      -15.272097   1.000000
   18      -15.218405   1.000000
   19       -9.309378   1.000000
   20       -9.044487   1.000000
   21       -8.938697   1.000000
   22       -8.851045   1.000000
   23       -8.728163   1.000000
   24       -8.710082   1.000000
   25       -8.690913   1.000000
   26       -8.668311   1.000000
   27       -8.541680   1.000000
   28       -8.479316   1.000000
   29       -8.467489   1.000000
   30       -8.415966   1.000000
   31       -8.346395   1.000000
   32       -8.159179   1.000000
   33       -8.066581   1.000000
   34       -7.999315   1.000000
   35       -7.807256   1.000000
   36       -7.742369   1.000000
   37       -7.683575   1.000000
   38       -7.519803   1.000000
   39       -7.505295   1.000000
   40       -7.378725   1.000000
   41       -7.335275   1.000000
   42       -7.208731   1.000000
   43       -7.066160   1.000000
   44       -6.940550   1.000000
   45       -6.866467   1.000000
   46       -6.799845   1.000000
   47       -6.739298   1.000000
   48       -6.665963   1.000000
   49       -6.604667   1.000000
   50       -6.525676   1.000000
   51       -6.444285   1.000000
   52       -6.262403   1.000000
   53       -6.223602   1.000000
   54       -6.173380   1.000000
   55       -6.151941   1.000000
   56       -6.063240   1.000000
   57       -6.000104   1.000000
   58       -5.898188   1.000000
   59       -5.881206   1.000000
   60       -5.635553   1.000000
   61       -5.607552   1.000000
   62       -5.348513   1.000000
   63       -5.302103   1.000000
   64       -5.077056   1.000000
   65       -5.020235   1.000000
   66       -4.922602   1.000000
   67       -4.899702   1.000000
   68       -4.831458   1.000000
   69       -4.762320   1.000000
   70       -4.706169   1.000000
   71       -4.681582   1.000000
   72       -4.667905   1.000000
   73       -4.458932   1.000000
   74       -4.373695   1.000000
   75       -4.305704   1.000000
   76       -3.973513   1.000000
   77       -3.785718   0.999968
   78       -3.607160   0.996871
   79       -3.503731   0.977388
   80       -3.190827   0.416833
   81       -3.171448   0.364284
   82       -2.854141   0.004789
   83       -2.767108   0.000673
   84       -2.631191   0.000015
   85       -2.573947   0.000002
   86       -2.492608   0.000000
   87       -2.248314   0.000000
   88       -2.229648   0.000000
   89       -2.204599   0.000000
   90       -2.069403   0.000000
   91       -1.704488   0.000000
   92       -1.625591   0.000000
   93       -1.379453   0.000000
   94       -1.203470   0.000000
   95       -1.072539   0.000000
   96       -0.994134   0.000000
   97       -0.949550   0.000000
   98       -0.902709   0.000000
   99       -0.823152   0.000000
  100       -0.634328   0.000000
  101       -0.599451   0.000000
  102       -0.529045   0.000000
  103       -0.384285   0.000000
  104       -0.286701   0.000000
  105       -0.224901   0.000000
  106       -0.157148   0.000000
  107       -0.101118   0.000000
  108       -0.054452   0.000000
  109        0.070058   0.000000
  110        0.233905   0.000000
  111        0.298576   0.000000
  112        0.416972   0.000000
  113        0.828304   0.000000
  114        0.950319   0.000000
  115        1.006475   0.000000
  116        1.144974   0.000000
  117        1.219551   0.000000
  118        1.654018   0.000000
  119        1.846032   0.000000
  120        2.162625   0.000000
 
  0.1250000E+00  0.2775558E-16  0.0000000E+00  0.3125000E-01
    1      -17.801168   1.000000
    2      -16.781747   1.000000
    3      -16.730847   1.000000
    4      -16.651802   1.000000
    5      -16.542228   1.000000
    6      -16.465872   1.000000
    7      -16.382692   1.000000
    8      -16.296413   1.000000
    9      -16.197313   1.000000
   10      -16.082645   1.000000
   11      -16.029981   1.000000
   12      -15.973360   1.000000
   13      -15.863649   1.000000
   14      -15.641311   1.000000
   15      -15.593838   1.000000
   16      -15.498497   1.000000
   17      -15.291242   1.000000
   18      -15.225242   1.000000
   19       -9.312419   1.000000
   20       -9.104330   1.000000
   21       -9.078267   1.000000
   22       -8.968934   1.000000
   23       -8.802738   1.000000
   24       -8.732215   1.000000
   25       -8.679286   1.000000
   26       -8.649216   1.000000
   27       -8.546945   1.000000
   28       -8.527002   1.000000
   29       -8.449155   1.000000
   30       -8.300515   1.000000
   31       -8.209644   1.000000
   32       -8.025339   1.000000
   33       -7.975369   1.000000
   34       -7.880129   1.000000
   35       -7.850987   1.000000
   36       -7.731610   1.000000
   37       -7.686544   1.000000
   38       -7.534632   1.000000
   39       -7.447044   1.000000
   40       -7.401637   1.000000
   41       -7.329744   1.000000
   42       -7.202496   1.000000
   43       -7.119031   1.000000
   44       -6.977810   1.000000
   45       -6.889053   1.000000
   46       -6.806937   1.000000
   47       -6.754219   1.000000
   48       -6.665368   1.000000
   49       -6.593885   1.000000
   50       -6.512893   1.000000
   51       -6.444839   1.000000
   52       -6.308400   1.000000
   53       -6.254483   1.000000
   54       -6.180623   1.000000
   55       -6.090509   1.000000
   56       -6.068214   1.000000
   57       -6.025139   1.000000
   58       -5.890082   1.000000
   59       -5.769466   1.000000
   60       -5.604236   1.000000
   61       -5.567188   1.000000
   62       -5.355591   1.000000
   63       -5.319519   1.000000
   64       -5.217475   1.000000
   65       -5.099849   1.000000
   66       -5.023796   1.000000
   67       -4.948102   1.000000
   68       -4.874907   1.000000
   69       -4.819864   1.000000
   70       -4.667113   1.000000
   71       -4.625536   1.000000
   72       -4.512783   1.000000
   73       -4.398554   1.000000
   74       -4.327263   1.000000
   75       -4.284859   1.000000
   76       -3.917420   1.000000
   77       -3.827826   0.999991
   78       -3.690158   0.999551
   79       -3.496654   0.974562
   80       -3.412172   0.912314
   81       -2.967283   0.036671
   82       -2.871464   0.006789
   83       -2.754380   0.000490
   84       -2.610998   0.000008
   85       -2.565764   0.000002
   86       -2.489155   0.000000
   87       -2.255874   0.000000
   88       -2.203331   0.000000
   89       -2.170641   0.000000
   90       -2.068651   0.000000
   91       -1.702810   0.000000
   92       -1.605141   0.000000
   93       -1.378965   0.000000
   94       -1.209552   0.000000
   95       -1.088886   0.000000
   96       -0.989614   0.000000
   97       -0.957179   0.000000
   98       -0.900104   0.000000
   99       -0.837208   0.000000
  100       -0.700813   0.000000
  101       -0.636902   0.000000
  102       -0.595033   0.000000
  103       -0.486175   0.000000
  104       -0.362188   0.000000
  105       -0.293159   0.000000
  106       -0.144609   0.000000
  107       -0.113400   0.000000
  108        0.033891   0.000000
  109        0.044815   0.000000
  110        0.230160   0.000000
  111        0.292954   0.000000
  112        0.468915   0.000000
  113        0.757113   0.000000
  114        0.899482   0.000000
  115        1.047497   0.000000
  116        1.200106   0.000000
  117        1.303680   0.000000
  118        1.698592   0.000000
  119        1.884808   0.000000
  120        2.197991   0.000000
 
  0.2500000E+00  0.5551115E-16  0.0000000E+00  0.3125000E-01
    1      -17.729289   1.000000
    2      -16.962619   1.000000
    3      -16.763557   1.000000
    4      -16.703630   1.000000
    5      -16.596068   1.000000
    6      -16.437651   1.000000
    7      -16.381960   1.000000
    8      -16.234711   1.000000
    9      -16.162428   1.000000
   10      -16.027804   1.000000
   11      -16.013117   1.000000
   12      -15.897483   1.000000
   13      -15.808535   1.000000
   14      -15.625792   1.000000
   15      -15.586551   1.000000
   16      -15.506244   1.000000
   17      -15.336775   1.000000
   18      -15.248657   1.000000
   19       -9.490860   1.000000
   20       -9.206915   1.000000
   21       -9.158079   1.000000
   22       -9.087193   1.000000
   23       -8.947374   1.000000
   24       -8.811741   1.000000
   25       -8.663114   1.000000
   26       -8.591485   1.000000
   27       -8.492892   1.000000
   28       -8.448695   1.000000
   29       -8.363293   1.000000
   30       -8.201764   1.000000
   31       -8.105874   1.000000
   32       -8.050828   1.000000
   33       -7.916441   1.000000
   34       -7.786109   1.000000
   35       -7.732922   1.000000
   36       -7.631728   1.000000
   37       -7.584343   1.000000
   38       -7.545344   1.000000
   39       -7.461046   1.000000
   40       -7.377702   1.000000
   41       -7.279664   1.000000
   42       -7.195766   1.000000
   43       -7.130839   1.000000
   44       -7.025047   1.000000
   45       -6.920815   1.000000
   46       -6.827215   1.000000
   47       -6.729147   1.000000
   48       -6.684165   1.000000
   49       -6.538621   1.000000
   50       -6.510238   1.000000
   51       -6.430437   1.000000
   52       -6.329451   1.000000
   53       -6.296112   1.000000
   54       -6.184585   1.000000
   55       -6.117244   1.000000
   56       -6.062892   1.000000
   57       -5.923884   1.000000
   58       -5.842355   1.000000
   59       -5.713467   1.000000
   60       -5.645821   1.000000
   61       -5.548038   1.000000
   62       -5.516626   1.000000
   63       -5.454283   1.000000
   64       -5.246068   1.000000
   65       -5.181875   1.000000
   66       -5.155635   1.000000
   67       -5.026607   1.000000
   68       -4.893082   1.000000
   69       -4.812087   1.000000
   70       -4.612645   1.000000
   71       -4.486235   1.000000
   72       -4.450951   1.000000
   73       -4.327325   1.000000
   74       -4.259801   1.000000
   75       -4.161413   1.000000
   76       -4.090827   1.000000
   77       -3.925807   1.000000
   78       -3.736555   0.999868
   79       -3.528282   0.985229
   80       -3.391621   0.886827
   81       -2.952853   0.029197
   82       -2.839316   0.003514
   83       -2.703823   0.000129
   84       -2.607482   0.000007
   85       -2.525060   0.000000
   86       -2.465382   0.000000
   87       -2.252259   0.000000
   88       -2.171575   0.000000
   89       -2.115171   0.000000
   90       -2.027316   0.000000
   91       -1.694754   0.000000
   92       -1.541765   0.000000
   93       -1.379170   0.000000
   94       -1.232912   0.000000
   95       -1.144996   0.000000
   96       -1.032120   0.000000
   97       -0.973132   0.000000
   98       -0.912754   0.000000
   99       -0.872779   0.000000
  100       -0.847302   0.000000
  101       -0.756963   0.000000
  102       -0.647947   0.000000
  103       -0.627195   0.000000
  104       -0.461231   0.000000
  105       -0.377175   0.000000
  106       -0.201031   0.000000
  107       -0.132031   0.000000
  108       -0.040091   0.000000
  109       -0.001115   0.000000
  110        0.177785   0.000000
  111        0.361637   0.000000
  112        0.546575   0.000000
  113        0.691582   0.000000
  114        0.895872   0.000000
  115        1.127119   0.000000
  116        1.251020   0.000000
  117        1.473762   0.000000
  118        1.822622   0.000000
  119        1.996549   0.000000
  120        2.302811   0.000000
 
  0.3750000E+00  0.0000000E+00  0.0000000E+00  0.3125000E-01
    1      -17.620493   1.000000
    2      -17.170350   1.000000
    3      -16.782469   1.000000
    4      -16.709060   1.000000
    5      -16.645799   1.000000
    6      -16.461262   1.000000
    7      -16.360748   1.000000
    8      -16.169814   1.000000
    9      -16.130268   1.000000
   10      -16.034435   1.000000
   11      -15.936994   1.000000
   12      -15.862241   1.000000
   13      -15.771070   1.000000
   14      -15.620687   1.000000
   15      -15.578945   1.000000
   16      -15.476190   1.000000
   17      -15.376238   1.000000
   18      -15.288007   1.000000
   19       -9.703528   1.000000
   20       -9.293279   1.000000
   21       -9.216425   1.000000
   22       -9.084874   1.000000
   23       -9.001225   1.000000
   24       -8.881840   1.000000
   25       -8.615564   1.000000
   26       -8.529979   1.000000
   27       -8.432385   1.000000
   28       -8.329359   1.000000
   29       -8.314509   1.000000
   30       -8.229704   1.000000
   31       -8.100279   1.000000
   32       -8.005469   1.000000
   33       -7.938155   1.000000
   34       -7.834493   1.000000
   35       -7.748924   1.000000
   36       -7.652162   1.000000
   37       -7.587342   1.000000
   38       -7.517144   1.000000
   39       -7.390238   1.000000
   40       -7.298221   1.000000
   41       -7.191231   1.000000
   42       -7.113240   1.000000
   43       -7.063656   1.000000
   44       -6.989231   1.000000
   45       -6.914002   1.000000
   46       -6.770556   1.000000
   47       -6.708723   1.000000
   48       -6.603037   1.000000
   49       -6.543486   1.000000
   50       -6.503687   1.000000
   51       -6.340895   1.000000
   52       -6.318626   1.000000
   53       -6.268765   1.000000
   54       -6.173046   1.000000
   55       -6.086003   1.000000
   56       -6.043586   1.000000
   57       -6.010812   1.000000
   58       -5.991348   1.000000
   59       -5.839839   1.000000
   60       -5.707667   1.000000
   61       -5.648922   1.000000
   62       -5.556789   1.000000
   63       -5.489296   1.000000
   64       -5.310631   1.000000
   65       -5.205529   1.000000
   66       -5.072323   1.000000
   67       -5.033640   1.000000
   68       -4.863713   1.000000
   69       -4.797697   1.000000
   70       -4.700897   1.000000
   71       -4.529640   1.000000
   72       -4.416535   1.000000
   73       -4.337393   1.000000
   74       -4.268045   1.000000
   75       -4.153918   1.000000
   76       -4.054342   1.000000
   77       -3.936242   1.000000
   78       -3.745055   0.999896
   79       -3.574311   0.993819
   80       -3.217426   0.491257
   81       -3.002134   0.061262
   82       -2.849127   0.004317
   83       -2.666821   0.000045
   84       -2.622938   0.000012
   85       -2.493833   0.000000
   86       -2.414443   0.000000
   87       -2.223319   0.000000
   88       -2.150990   0.000000
   89       -2.085968   0.000000
   90       -1.953295   0.000000
   91       -1.676754   0.000000
   92       -1.461341   0.000000
   93       -1.390261   0.000000
   94       -1.275556   0.000000
   95       -1.217496   0.000000
   96       -1.131792   0.000000
   97       -1.045074   0.000000
   98       -0.957772   0.000000
   99       -0.905327   0.000000
  100       -0.890564   0.000000
  101       -0.843347   0.000000
  102       -0.756270   0.000000
  103       -0.620570   0.000000
  104       -0.522176   0.000000
  105       -0.426987   0.000000
  106       -0.308961   0.000000
  107       -0.252663   0.000000
  108       -0.095805   0.000000
  109       -0.036277   0.000000
  110        0.111631   0.000000
  111        0.377913   0.000000
  112        0.601671   0.000000
  113        0.699990   0.000000
  114        0.952089   0.000000
  115        1.188951   0.000000
  116        1.302649   0.000000
  117        1.604591   0.000000
  118        2.007606   0.000000
  119        2.171756   0.000000
  120        2.472564   0.000000
 
  0.5000000E+00  0.1110223E-15  0.0000000E+00  0.1562500E-01
    1      -17.538635   1.000000
    2      -17.287222   1.000000
    3      -16.794197   1.000000
    4      -16.694779   1.000000
    5      -16.673157   1.000000
    6      -16.473679   1.000000
    7      -16.350224   1.000000
    8      -16.156122   1.000000
    9      -16.117499   1.000000
   10      -16.015286   1.000000
   11      -15.912508   1.000000
   12      -15.862306   1.000000
   13      -15.736022   1.000000
   14      -15.658819   1.000000
   15      -15.562615   1.000000
   16      -15.461718   1.000000
   17      -15.362181   1.000000
   18      -15.326364   1.000000
   19       -9.782450   1.000000
   20       -9.331928   1.000000
   21       -9.239086   1.000000
   22       -9.111667   1.000000
   23       -8.961843   1.000000
   24       -8.898280   1.000000
   25       -8.587841   1.000000
   26       -8.531547   1.000000
   27       -8.444001   1.000000
   28       -8.288244   1.000000
   29       -8.255758   1.000000
   30       -8.178699   1.000000
   31       -8.124259   1.000000
   32       -8.017523   1.000000
   33       -7.966760   1.000000
   34       -7.861583   1.000000
   35       -7.741999   1.000000
   36       -7.724729   1.000000
   37       -7.603156   1.000000
   38       -7.488249   1.000000
   39       -7.407284   1.000000
   40       -7.322465   1.000000
   41       -7.196822   1.000000
   42       -7.029618   1.000000
   43       -6.987605   1.000000
   44       -6.921868   1.000000
   45       -6.751323   1.000000
   46       -6.711112   1.000000
   47       -6.640182   1.000000
   48       -6.610974   1.000000
   49       -6.535253   1.000000
   50       -6.472104   1.000000
   51       -6.433674   1.000000
   52       -6.351906   1.000000
   53       -6.321909   1.000000
   54       -6.267260   1.000000
   55       -6.171495   1.000000
   56       -6.054283   1.000000
   57       -6.018165   1.000000
   58       -5.822113   1.000000
   59       -5.811807   1.000000
   60       -5.719154   1.000000
   61       -5.686398   1.000000
   62       -5.553135   1.000000
   63       -5.542630   1.000000
   64       -5.399718   1.000000
   65       -5.214098   1.000000
   66       -5.065341   1.000000
   67       -5.032451   1.000000
   68       -4.938956   1.000000
   69       -4.836581   1.000000
   70       -4.638949   1.000000
   71       -4.540568   1.000000
   72       -4.453525   1.000000
   73       -4.328220   1.000000
   74       -4.271554   1.000000
   75       -4.200393   1.000000
   76       -3.988397   1.000000
   77       -3.853784   0.999996
   78       -3.770850   0.999950
   79       -3.612803   0.997230
   80       -3.095655   0.188627
   81       -3.015323   0.073390
   82       -2.916412   0.015761
   83       -2.663747   0.000041
   84       -2.615816   0.000010
   85       -2.483123   0.000000
   86       -2.389272   0.000000
   87       -2.203866   0.000000
   88       -2.140412   0.000000
   89       -2.074847   0.000000
   90       -1.927404   0.000000
   91       -1.663652   0.000000
   92       -1.425832   0.000000
   93       -1.397778   0.000000
   94       -1.292649   0.000000
   95       -1.246936   0.000000
   96       -1.184669   0.000000
   97       -1.090823   0.000000
   98       -0.990395   0.000000
   99       -0.940297   0.000000
  100       -0.883333   0.000000
  101       -0.849552   0.000000
  102       -0.791179   0.000000
  103       -0.597620   0.000000
  104       -0.553822   0.000000
  105       -0.444780   0.000000
  106       -0.367587   0.000000
  107       -0.311272   0.000000
  108       -0.132461   0.000000
  109       -0.035390   0.000000
  110        0.086568   0.000000
  111        0.377191   0.000000
  112        0.622323   0.000000
  113        0.708521   0.000000
  114        0.980363   0.000000
  115        1.210667   0.000000
  116        1.325649   0.000000
  117        1.653122   0.000000
  118        2.227166   0.000000
  119        2.257576   0.000000
  120        2.397497   0.000000
 
  0.0000000E+00  0.1250000E+00  0.0000000E+00  0.3125000E-01
    1      -17.800012   1.000000
    2      -16.784588   1.000000
    3      -16.756877   1.000000
    4      -16.626530   1.000000
    5      -16.545903   1.000000
    6      -16.436353   1.000000
    7      -16.374530   1.000000
    8      -16.326690   1.000000
    9      -16.209819   1.000000
   10      -16.086319   1.000000
   11      -16.019138   1.000000
   12      -15.967345   1.000000
   13      -15.865137   1.000000
   14      -15.639190   1.000000
   15      -15.592751   1.000000
   16      -15.503053   1.000000
   17      -15.290565   1.000000
   18      -15.224473   1.000000
   19       -9.294124   1.000000
   20       -9.181818   1.000000
   21       -9.084546   1.000000
   22       -8.960682   1.000000
   23       -8.777422   1.000000
   24       -8.723463   1.000000
   25       -8.669764   1.000000
   26       -8.620939   1.000000
   27       -8.543908   1.000000
   28       -8.462990   1.000000
   29       -8.395599   1.000000
   30       -8.377218   1.000000
   31       -8.269071   1.000000
   32       -8.009214   1.000000
   33       -7.968381   1.000000
   34       -7.948128   1.000000
   35       -7.808805   1.000000
   36       -7.735168   1.000000
   37       -7.695823   1.000000
   38       -7.552952   1.000000
   39       -7.443017   1.000000
   40       -7.381575   1.000000
   41       -7.296130   1.000000
   42       -7.255596   1.000000
   43       -7.089529   1.000000
   44       -6.977762   1.000000
   45       -6.908536   1.000000
   46       -6.798937   1.000000
   47       -6.728736   1.000000
   48       -6.665847   1.000000
   49       -6.614686   1.000000
   50       -6.498815   1.000000
   51       -6.441461   1.000000
   52       -6.303048   1.000000
   53       -6.236386   1.000000
   54       -6.196237   1.000000
   55       -6.137769   1.000000
   56       -6.045693   1.000000
   57       -5.990963   1.000000
   58       -5.897775   1.000000
   59       -5.790850   1.000000
   60       -5.618056   1.000000
   61       -5.552335   1.000000
   62       -5.367429   1.000000
   63       -5.334491   1.000000
   64       -5.207053   1.000000
   65       -5.080392   1.000000
   66       -5.034008   1.000000
   67       -4.911358   1.000000
   68       -4.874724   1.000000
   69       -4.818994   1.000000
   70       -4.678872   1.000000
   71       -4.607285   1.000000
   72       -4.539253   1.000000
   73       -4.447896   1.000000
   74       -4.340620   1.000000
   75       -4.238849   1.000000
   76       -3.913147   1.000000
   77       -3.821278   0.999989
   78       -3.710061   0.999731
   79       -3.483409   0.968477
   80       -3.415469   0.915969
   81       -2.967017   0.036521
   82       -2.877986   0.007715
   83       -2.757925   0.000536
   84       -2.612066   0.000008
   85       -2.562064   0.000002
   86       -2.482896   0.000000
   87       -2.258811   0.000000
   88       -2.200905   0.000000
   89       -2.167471   0.000000
   90       -2.061054   0.000000
   91       -1.706968   0.000000
   92       -1.604504   0.000000
   93       -1.380306   0.000000
   94       -1.210736   0.000000
   95       -1.077727   0.000000
   96       -1.012596   0.000000
   97       -0.957117   0.000000
   98       -0.895163   0.000000
   99       -0.823250   0.000000
  100       -0.690675   0.000000
  101       -0.630954   0.000000
  102       -0.565731   0.000000
  103       -0.458938   0.000000
  104       -0.362805   0.000000
  105       -0.324433   0.000000
  106       -0.254501   0.000000
  107       -0.117320   0.000000
  108        0.020843   0.000000
  109        0.060173   0.000000
  110        0.264183   0.000000
  111        0.384543   0.000000
  112        0.477575   0.000000
  113        0.754480   0.000000
  114        0.926084   0.000000
  115        1.020774   0.000000
  116        1.156910   0.000000
  117        1.286677   0.000000
  118        1.699180   0.000000
  119        1.884041   0.000000
  120        2.198187   0.000000
 
  0.1250000E+00  0.1250000E+00  0.0000000E+00  0.3125000E-01
    1      -17.750604   1.000000
    2      -16.893161   1.000000
    3      -16.779170   1.000000
    4      -16.737549   1.000000
    5      -16.508145   1.000000
    6      -16.424284   1.000000
    7      -16.403524   1.000000
    8      -16.271184   1.000000
    9      -16.168385   1.000000
   10      -16.085346   1.000000
   11      -16.024518   1.000000
   12      -15.883147   1.000000
   13      -15.814718   1.000000
   14      -15.621356   1.000000
   15      -15.580248   1.000000
   16      -15.505371   1.000000
   17      -15.329971   1.000000
   18      -15.249122   1.000000
   19       -9.372863   1.000000
   20       -9.304014   1.000000
   21       -9.150937   1.000000
   22       -9.065431   1.000000
   23       -8.858932   1.000000
   24       -8.745466   1.000000
   25       -8.641600   1.000000
   26       -8.562746   1.000000
   27       -8.520232   1.000000
   28       -8.471265   1.000000
   29       -8.435976   1.000000
   30       -8.287792   1.000000
   31       -8.168576   1.000000
   32       -8.052644   1.000000
   33       -7.929663   1.000000
   34       -7.809683   1.000000
   35       -7.691440   1.000000
   36       -7.652669   1.000000
   37       -7.594886   1.000000
   38       -7.529650   1.000000
   39       -7.478175   1.000000
   40       -7.327216   1.000000
   41       -7.274219   1.000000
   42       -7.239819   1.000000
   43       -7.150320   1.000000
   44       -7.009145   1.000000
   45       -6.936433   1.000000
   46       -6.859948   1.000000
   47       -6.744110   1.000000
   48       -6.680903   1.000000
   49       -6.543805   1.000000
   50       -6.517789   1.000000
   51       -6.408887   1.000000
   52       -6.379568   1.000000
   53       -6.300018   1.000000
   54       -6.190243   1.000000
   55       -6.119983   1.000000
   56       -6.041295   1.000000
   57       -5.918931   1.000000
   58       -5.761934   1.000000
   59       -5.727985   1.000000
   60       -5.644175   1.000000
   61       -5.532079   1.000000
   62       -5.494024   1.000000
   63       -5.320165   1.000000
   64       -5.265912   1.000000
   65       -5.226252   1.000000
   66       -5.140881   1.000000
   67       -5.050810   1.000000
   68       -4.870851   1.000000
   69       -4.813411   1.000000
   70       -4.653453   1.000000
   71       -4.509522   1.000000
   72       -4.469103   1.000000
   73       -4.345531   1.000000
   74       -4.273868   1.000000
   75       -4.167852   1.000000
   76       -4.011228   1.000000
   77       -3.884031   0.999999
   78       -3.693854   0.999591
   79       -3.617892   0.997521
   80       -3.389079   0.883341
   81       -2.968058   0.037113
   82       -2.861068   0.005515
   83       -2.715144   0.000176
   84       -2.589106   0.000004
   85       -2.551859   0.000001
   86       -2.470259   0.000000
   87       -2.299130   0.000000
   88       -2.183847   0.000000
   89       -2.113432   0.000000
   90       -2.031456   0.000000
   91       -1.699887   0.000000
   92       -1.550539   0.000000
   93       -1.379659   0.000000
   94       -1.224852   0.000000
   95       -1.111078   0.000000
   96       -1.043228   0.000000
   97       -0.954311   0.000000
   98       -0.910569   0.000000
   99       -0.844257   0.000000
  100       -0.716983   0.000000
  101       -0.701162   0.000000
  102       -0.661515   0.000000
  103       -0.549994   0.000000
  104       -0.438262   0.000000
  105       -0.408351   0.000000
  106       -0.269100   0.000000
  107       -0.184029   0.000000
  108       -0.004786   0.000000
  109        0.022059   0.000000
  110        0.240008   0.000000
  111        0.406218   0.000000
  112        0.574271   0.000000
  113        0.620327   0.000000
  114        0.897640   0.000000
  115        1.095053   0.000000
  116        1.223248   0.000000
  117        1.465190   0.000000
  118        1.784908   0.000000
  119        1.957176   0.000000
  120        2.268744   0.000000
 
  0.2500000E+00  0.1250000E+00  0.0000000E+00  0.3125000E-01
    1      -17.657666   1.000000
    2      -17.069774   1.000000
    3      -16.891346   1.000000
    4      -16.718224   1.000000
    5      -16.517868   1.000000
    6      -16.437827   1.000000
    7      -16.369199   1.000000
    8      -16.208909   1.000000
    9      -16.133259   1.000000
   10      -16.064368   1.000000
   11      -16.008933   1.000000
   12      -15.839257   1.000000
   13      -15.781405   1.000000
   14      -15.593017   1.000000
   15      -15.555248   1.000000
   16      -15.495015   1.000000
   17      -15.370754   1.000000
   18      -15.290028   1.000000
   19       -9.593074   1.000000
   20       -9.427806   1.000000
   21       -9.244416   1.000000
   22       -9.043301   1.000000
   23       -8.878921   1.000000
   24       -8.783363   1.000000
   25       -8.595925   1.000000
   26       -8.545325   1.000000
   27       -8.433100   1.000000
   28       -8.383550   1.000000
   29       -8.348425   1.000000
   30       -8.256949   1.000000
   31       -8.132087   1.000000
   32       -8.093081   1.000000
   33       -7.954342   1.000000
   34       -7.884842   1.000000
   35       -7.796392   1.000000
   36       -7.658379   1.000000
   37       -7.484580   1.000000
   38       -7.391954   1.000000
   39       -7.350288   1.000000
   40       -7.268426   1.000000
   41       -7.229344   1.000000
   42       -7.174320   1.000000
   43       -7.142632   1.000000
   44       -7.014799   1.000000
   45       -6.908576   1.000000
   46       -6.825152   1.000000
   47       -6.702692   1.000000