unknown system                          
           1
     8.855988    5.108049    0.000000
    -8.853396    5.103593    0.000000
     0.000000    0.000000   30.000000
   V    Mo   W    S 
   3   3   3  18
Direct configuration=     1
   0.66666669  0.66666669  0.00000000
   0.66666669  0.00000000  0.00000000
   0.33333334  0.00000000  0.00000000
   0.33333334  0.33333334  0.00000000
   0.00000000  0.00000000  0.00000000
   0.00000000  0.66666669  0.00000000
   1.00000000  0.33333334  0.00000000
   0.33333334  0.66666669  0.00000000
   0.66666669  0.33333334  0.00000000
   0.11068511  0.22244981  0.95539999
   0.22244981  0.11068511  0.04460000
   0.11068511  0.55578315  0.95539999
   0.22244981  0.44401845  0.04460000
   0.11068511  0.88911647  0.95539999
   0.22244981  0.77735180  0.04460000
   0.44401845  0.22244981  0.95539999
   0.55578315  0.11068511  0.04460000
   0.44401845  0.55578315  0.95539999
   0.55578315  0.44401845  0.04460000
   0.44401845  0.88911647  0.95539999
   0.55578315  0.77735180  0.04460000
   0.77735180  0.22244981  0.95539999
   0.88911647  0.11068511  0.04460000
   0.77735180  0.55578315  0.95539999
   0.88911647  0.44401845  0.04460000
   0.77735180  0.88911647  0.95539999
   0.88911647  0.77735180  0.04460000
unknown system                          
           1
     8.668027    5.001846    0.000000
    -8.665470    4.997447    0.000000
     0.000000    0.000000   30.000000
   V    Mo   W    S 
   3   3   3  18
Direct configuration=     2
   0.66796686  0.66707035 -0.00018750
   0.66744674 -0.00036540 -0.00002358
   0.33136210  0.00010009  0.00016331
   0.33191351  0.33201694  0.00014964
   0.00115828 -0.00034636 -0.00003213
  -0.00005029  0.66805758 -0.00011339
   1.00154715  0.33312708  0.00003325
   0.33256959  0.66589329 -0.00005150
   0.66600788  0.33434525  0.00009014
   0.11044919  0.22255871  0.95073522
   0.22468040  0.10860347  0.04807556
   0.11128835  0.55500512  0.95070725
   0.22165695  0.44466256  0.04934682
   0.11540802  0.89091910  0.95189546
   0.22492924  0.78190525  0.04807938
   0.44316274  0.21808540  0.95196520
   0.55387395  0.10751082  0.04686380
   0.44852939  0.55824603  0.95196164
   0.55805438  0.44828514  0.04806684
   0.44585112  0.89223509  0.95316520
   0.55894842  0.77919729  0.04686616
   0.77602640  0.21850982  0.95193903
   0.88481233  0.10985980  0.04803719
   0.77478627  0.55703892  0.95191074
   0.88835998  0.44346096  0.04917957
   0.77315517  0.88668261  0.95311746
   0.88432035  0.77554954  0.04805912
unknown system                          
           1
     8.486651    4.901140    0.000000
    -8.485513    4.899195    0.000000
     0.000000    0.000000   30.000000
   V    Mo   W    S 
   3   3   3  18
Direct configuration=     3
   0.66843790  0.66712034 -0.00021000
   0.66771126 -0.00036382 -0.00003253
   0.33072152  0.00010825  0.00017993
   0.33112494  0.33162912  0.00012997
   0.00175843 -0.00017366 -0.00003068
  -0.00009864  0.66826838 -0.00008919
   1.00238329  0.33334999  0.00003435
   0.33183135  0.66514062 -0.00010737
   0.66605845  0.33483105  0.00014008
   0.11031362  0.22266540  0.95065728
   0.22473937  0.10850895  0.04819691
   0.11137644  0.55490057  0.95068922
   0.22155906  0.44475709  0.04943316
   0.11557320  0.89101908  0.95180917
   0.22515455  0.78193056  0.04806282
   0.44333229  0.21807404  0.95200004
   0.55391698  0.10768614  0.04675795
   0.44850776  0.55844503  0.95202286
   0.55823736  0.44828008  0.04804795
   0.44577016  0.89205431  0.95329510
   0.55876464  0.77911741  0.04677809
   0.77608029  0.21868342  0.95203375
   0.88482916  0.10999611  0.04801368
   0.77461397  0.55688018  0.95184676
   0.88825918  0.44322031  0.04911581
   0.77308944  0.88660105  0.95313882
   0.88416849  0.77548448  0.04808597
unknown system                          
           1
     8.274269    4.782783    0.000000
    -8.267766    4.771546    0.000000
     0.000000    0.000000   30.000000
   V    Mo   W    S 
   3   3   3  18
Direct configuration=     4
   0.67029370  0.66692816 -0.00021010
   0.66883406  0.00000034 -0.00005117
   0.32836417  0.00023598  0.00016356
   0.32766286  0.33033223  0.00001680
   0.00424572  0.00099588 -0.00000380
  -0.00054918  0.66840135  0.00002687
   1.00598767  0.33467406  0.00003428
   0.32831622  0.66143082 -0.00026674
   0.66674971  0.33688354  0.00026457
   0.11014473  0.22252150  0.94872844
   0.22528547  0.10780807  0.05013062
   0.11116360  0.55482113  0.94897469
   0.22165079  0.44477059  0.05145776
   0.11696961  0.89176917  0.95004367
   0.22596724  0.78310176  0.04945078
   0.44286445  0.21697364  0.95071577
   0.55331637  0.10677805  0.04767432
   0.44955642  0.55903849  0.95081857
   0.55868956  0.44946818  0.04941033
   0.44622689  0.89295307  0.95248598
   0.55953294  0.77951958  0.04773723
   0.77562403  0.21800021  0.95096887
   0.88383677  0.10932426  0.04935454
   0.77404642  0.55746698  0.95010740
   0.88829837  0.44300866  0.05044936
   0.77226780  0.88601523  0.95191972
   0.88286807  0.77499352  0.04959758
unknown system                          
           1
     8.270356    4.788885    0.000000
    -8.258052    4.767595    0.000000
     0.000000    0.000000   30.000000
   V    Mo   W    S 
   3   3   3  18
Direct configuration=     5
   0.67473068  0.66686209 -0.00003449
   0.67078255  0.00072223 -0.00006811
   0.32426596  0.00064967 -0.00003769
   0.31984964  0.32785913 -0.00010915
   0.00901410  0.00363586  0.00006536
  -0.00180894  0.66826104  0.00016795
   1.01375141  0.33742200  0.00001047
   0.32134858  0.65378034 -0.00038169
   0.66834967  0.34088294  0.00034687
   0.10976901  0.22163169  0.94583127
   0.22570464  0.10734254  0.05300740
   0.11012270  0.55460658  0.94645780
   0.22203368  0.44448514  0.05459049
   0.11820636  0.89238858  0.94761726
   0.22651802  0.78410904  0.05128209
   0.44211972  0.21617261  0.94919508
   0.55245254  0.10599025  0.04892182
   0.45030275  0.55900930  0.94925206
   0.55822957  0.45068368  0.05109355
   0.44606237  0.89329244  0.95158970
   0.55978709  0.77941383  0.04883849
   0.77578625  0.21782242  0.94969631
   0.88360979  0.10877808  0.05114777
   0.77394835  0.55862363  0.94757179
   0.88883006  0.44302154  0.05216271
   0.77238965  0.88560648  0.95009457
   0.88205825  0.77516133  0.05169022
unknown system                          
           1
     8.269740    4.789318    0.000000
    -8.255888    4.765349    0.000000
     0.000000    0.000000   30.000000
   V    Mo   W    S 
   3   3   3  18
Direct configuration=     6
   0.67727059  0.66774605 -0.00001862
   0.67130867  0.00085477 -0.00007612
   0.32324050  0.00079032 -0.00002017
   0.31781217  0.32733093 -0.00001303
   0.00958939  0.00414344  0.00002533
  -0.00250874  0.66797070  0.00012203
   1.01525943  0.33774005 -0.00013385
   0.31965926  0.65184858 -0.00034821
   0.66929929  0.34209559  0.00037585
   0.10929362  0.22107234  0.94539540
   0.22561672  0.10770703  0.05329579
   0.10935291  0.55428074  0.94613590
   0.22214591  0.44413028  0.05520271
   0.11788427  0.89221216  0.94743453
   0.22622132  0.78364717  0.05130157
   0.44191650  0.21691079  0.94928961
   0.55235382  0.10638634  0.04882834
   0.44961825  0.55833358  0.94937570
   0.55732694  0.45037937  0.05097724
   0.44518135  0.89233453  0.95179224
   0.55913713  0.77873786  0.04866492
   0.77674321  0.21871916  0.94979842
   0.88465500  0.10935772  0.05121963
   0.77438183  0.55899317  0.94728240
   0.88935962  0.44290460  0.05217005
   0.77320276  0.88573682  0.95001321
   0.88289272  0.77585038  0.05190902
unknown system                          
           1
     8.275608    4.796102    0.000000
    -8.258459    4.766425    0.000000
     0.000000    0.000000   30.000000
   V    Mo   W    S 
   3   3   3  18
Direct configuration=     7
   0.68087788  0.66926861  0.00002998
   0.67201749  0.00096654 -0.00002409
   0.32189296  0.00105514 -0.00002861
   0.31476754  0.32629852  0.00002334
   0.01027494  0.00475479 -0.00000739
  -0.00354045  0.66757215  0.00008061
   1.01748877  0.33823065 -0.00019341
   0.31705478  0.64905517 -0.00032350
   0.67080144  0.34386218  0.00044830
   0.10888134  0.22050400  0.94500810
   0.22538066  0.10792602  0.05355050
   0.10867568  0.55398730  0.94589242
   0.22187774  0.44365676  0.05570660
   0.11767408  0.89204816  0.94732121
   0.22583581  0.78318378  0.05124814
   0.44182692  0.21771789  0.94955591
   0.55228381  0.10682296  0.04858066
   0.44911482  0.55769664  0.94968915
   0.55658686  0.45028229  0.05069224
   0.44430725  0.89136863  0.95216194
   0.55857004  0.77805969  0.04833461
   0.77759585  0.21953275  0.94992114
   0.88556878  0.10993277  0.05121107
   0.77484441  0.55938498  0.94697235
   0.88986735  0.44272859  0.05208905
   0.77393280  0.88582027  0.94994092
   0.88375491  0.77649723  0.05211865
unknown system                          
           1
     8.281163    4.803882    0.000000
    -8.258948    4.765434    0.000000
     0.000000    0.000000   30.000000
   V    Mo   W    S 
   3   3   3  18
Direct configuration=     8
   0.68291945  0.67026921  0.00003964
   0.67246842  0.00102753 -0.00000442
   0.32112293  0.00118546 -0.00003276
   0.31323218  0.32564428  0.00006258
   0.01048602  0.00494408 -0.00003603
  -0.00412003  0.66738127  0.00006712
   1.01831299  0.33831713 -0.00028263
   0.31570536  0.64773749 -0.00031043
   0.67180272  0.34490692  0.00047848
   0.10858443  0.22018607  0.94479955
   0.22527430  0.10800128  0.05368826
   0.10829712  0.55379457  0.94576871
   0.22177838  0.44341845  0.05598394
   0.11760565  0.89197812  0.94725842
   0.22571222  0.78300999  0.05122278
   0.44178997  0.21807366  0.94970876
   0.55227702  0.10702336  0.04843063
   0.44899242  0.55744944  0.94989114
   0.55630680  0.45034038  0.05050945
   0.44391940  0.89094361  0.95238426
   0.55837368  0.77775544  0.04815023
   0.77789181  0.21981011  0.94997853
   0.88591142  0.11016710  0.05123002
   0.77504058  0.55957189  0.94679876
   0.89015739  0.44265206  0.05207463
   0.77417951  0.88583536  0.94988236
   0.88419235  0.77679019  0.05225795
unknown system                          
           1
     8.282418    4.804296    0.000000
    -8.260641    4.766604    0.000000
     0.000000    0.000000   30.000000
   V    Mo   W    S 
   3   3   3  18
Direct configuration=     9
   0.68635824  0.67214974  0.00003628
   0.67346231  0.00116221  0.00005159
   0.31965237  0.00136512 -0.00003761
   0.31074695  0.32439214  0.00013301
   0.01064692  0.00511129 -0.00007867
  -0.00509826  0.66710492  0.00006086
   1.01928717  0.33825835 -0.00040639
   0.31345001  0.64570615 -0.00027841
   0.67385099  0.34683245  0.00054790
   0.10807187  0.21964146  0.94452573
   0.22503781  0.10804278  0.05386377
   0.10772720  0.55348932  0.94562929
   0.22148982  0.44297628  0.05630304
   0.11751627  0.89186319  0.94719285
   0.22557954  0.78276278  0.05114367
   0.44181518  0.21862486  0.95003432
   0.55234213  0.10740023  0.04810195
   0.44890680  0.55713096  0.95033872
   0.55599400  0.45054458  0.05010357
   0.44336859  0.89031479  0.95282344
   0.55810378  0.77726729  0.04778403
   0.77818105  0.22009263  0.95006637
   0.88632725  0.11048722  0.05122894
   0.77537010  0.55985371  0.94655219
   0.89061770  0.44255442  0.05202704
   0.77448944  0.88585813  0.94977938
   0.88491924  0.77722745  0.05247304
unknown system                          
           1
     8.283570    4.804829    0.000000
    -8.261895    4.767317    0.000000
     0.000000    0.000000   30.000000
   V    Mo   W    S 
   3   3   3  18
Direct configuration=    10
   0.68589487  0.67193106  0.00003101
   0.67339492  0.00116141  0.00004365
   0.31980497  0.00132342 -0.00003663
   0.31110705  0.32453703  0.00012544
   0.01058210  0.00505858 -0.00007574
  -0.00495695  0.66715495  0.00006291
   1.01904409  0.33821104 -0.00040017
   0.31375668  0.64602388 -0.00028213
   0.67365859  0.34660506  0.00053635
   0.10812575  0.21970534  0.94456522
   0.22506444  0.10802244  0.05384202
   0.10779797  0.55352609  0.94564981
   0.22152243  0.44302690  0.05625710
   0.11752928  0.89187756  0.94719982
   0.22561473  0.78281399  0.05115746
   0.44181837  0.21853881  0.94999684
   0.55233989  0.10734886  0.04813816
   0.44895176  0.55719128  0.95028910
   0.55605081  0.45053822  0.05014891
   0.44345904  0.89041907  0.95277328
   0.55815315  0.77733459  0.04783035
   0.77810135  0.22001558  0.95004547
   0.88624292  0.11042464  0.05123861
   0.77532783  0.55981794  0.94658219
   0.89056879  0.44258242  0.05204569
   0.77443091  0.88585692  0.94978367
   0.88482870  0.77716736  0.05245153
unknown system                          
           1
     8.290995    4.810208    0.000000
    -8.267850    4.770151    0.000000
     0.000000    0.000000   30.000000
   V    Mo   W    S 
   3   3   3  18
Direct configuration=    11
   0.68594744  0.67197124  0.00002956
   0.67345810  0.00118601  0.00004544
   0.31971845  0.00130979 -0.00003690
   0.31105842  0.32447703  0.00012577
   0.01059052  0.00504147 -0.00007539
  -0.00495448  0.66716608  0.00006428
   1.01901066  0.33819535 -0.00040000
   0.31370529  0.64601127 -0.00028253
   0.67375260  0.34666278  0.00053979
   0.10811552  0.21969594  0.94456884
   0.22505306  0.10800963  0.05383879
   0.10779150  0.55351705  0.94565498
   0.22149864  0.44300942  0.05624751
   0.11753409  0.89188193  0.94720431
   0.22561984  0.78282021  0.05115259
   0.44182504  0.21853750  0.95001393
   0.55233726  0.10736209  0.04812292
   0.44895648  0.55719354  0.95030981
   0.55605650  0.45054824  0.05013070
   0.44344674  0.89041478  0.95278954
   0.55814422  0.77731405  0.04781941
   0.77809502  0.22000889  0.95004081
   0.88624902  0.11042658  0.05123773
   0.77533947  0.55982453  0.94658025
   0.89058395  0.44259114  0.05204562
   0.77443767  0.88586327  0.94977857
   0.88484342  0.77717465  0.05245358
unknown system                          
           1
     8.289565    4.811050    0.000000
    -8.264543    4.767744    0.000000
     0.000000    0.000000   30.000000
   V    Mo   W    S 
   3   3   3  18
Direct configuration=    12
   0.68748598  0.67289897  0.00001253
   0.67425370  0.00137519  0.00007835
   0.31870972  0.00128796 -0.00003923
   0.30990512  0.32373749  0.00015278
   0.01061697  0.00501676 -0.00009442
  -0.00532219  0.66711119  0.00006851
   1.01912476  0.33803343 -0.00045381
   0.31259374  0.64518751 -0.00026861
   0.67508720  0.34771611  0.00057860
   0.10786194  0.21942295  0.94447702
   0.22489494  0.10795409  0.05390900
   0.10753424  0.55336709  0.94561574
   0.22126191  0.44273906  0.05632913
   0.11750156  0.89184039  0.94718180
   0.22560844  0.78276772  0.05111638
   0.44187987  0.21874598  0.95021481
   0.55236772  0.10757250  0.04792237
   0.44898310  0.55709215  0.95057853
   0.55595934  0.45069044  0.04989018
   0.44320806  0.89017497  0.95303701
   0.55800597  0.77703372  0.04762932
   0.77812038  0.22003786  0.95003356
   0.88640236  0.11052827  0.05125527
   0.77553487  0.55997559  0.94646567
   0.89084669  0.44261997  0.05205323
   0.77458367  0.88590406  0.94969568
   0.88520440  0.77738303  0.05256047
unknown system                          
           1
     8.291433    4.813808    0.000000
    -8.264326    4.766896    0.000000
     0.000000    0.000000   30.000000
   V    Mo   W    S 
   3   3   3  18
Direct configuration=    13
   0.68850146  0.67348289  0.00000141
   0.67471670  0.00146333  0.00009797
   0.31820970  0.00129940 -0.00003903
   0.30915290  0.32340378  0.00017394
   0.01059077  0.00507805 -0.00011381
  -0.00562526  0.66701024  0.00006823
   1.01932324  0.33795069 -0.00050333
   0.31188638  0.64455491 -0.00025449
   0.67585350  0.34835083  0.00059492
   0.10769228  0.21923773  0.94439524
   0.22480964  0.10796480  0.05398268
   0.10734723  0.55328053  0.94556402
   0.22116521  0.44258715  0.05642771
   0.11743870  0.89177934  0.94713894
   0.22558610  0.78270294  0.05111084
   0.44191206  0.21892377  0.95031433
   0.55241859  0.10770225  0.04781153
   0.44897606  0.55699659  0.95071586
   0.55585742  0.45074858  0.04976294
   0.44307561  0.89000401  0.95318039
   0.55792438  0.77689856  0.04751385
   0.77813948  0.22007495  0.95004358
   0.88649540  0.11059147  0.05127785
   0.77565179  0.56006605  0.94638452
   0.89100211  0.44262680  0.05206594
   0.77467475  0.88591510  0.94964837
   0.88543826  0.77751971  0.05263552
unknown system                          
           1
     8.287822    4.810708    0.000000
    -8.261987    4.765995    0.000000
     0.000000    0.000000   30.000000
   V    Mo   W    S 
   3   3   3  18
Direct configuration=    14
   0.68986392  0.67436454 -0.00002313
   0.67576095  0.00177050  0.00012738
   0.31708758  0.00118763 -0.00003779
   0.30805521  0.32272936  0.00020820
   0.01057790  0.00508881 -0.00013641
  -0.00589013  0.66698004  0.00008004
   1.01924739  0.33768681 -0.00057175
   0.31078433  0.64375778 -0.00023518
   0.67734659  0.34938215  0.00062757
   0.10741309  0.21895066  0.94430482
   0.22464487  0.10791165  0.05406974
   0.10706619  0.55312666  0.94551522
   0.22092339  0.44230534  0.05650755
   0.11736951  0.89171659  0.94709132
   0.22560122  0.78267216  0.05109417
   0.44199328  0.21913525  0.95052606
   0.55249206  0.10793018  0.04758736
   0.44899119  0.55689057  0.95097926
   0.55575424  0.45084830  0.04951361
   0.44288661  0.88979514  0.95345148
   0.55778143  0.77665744  0.04731355
   0.77807278  0.22004165  0.95001777
   0.88660470  0.11064664  0.05132107
   0.77586493  0.56020415  0.94626758
   0.89128361  0.44271354  0.05210364
   0.77481947  0.88598599  0.94955172
   0.88581814  0.77773494  0.05274507
unknown system                          
           1
     8.300817    4.820816    0.000000
    -8.271753    4.770517    0.000000
     0.000000    0.000000   30.000000
   V    Mo   W    S 
   3   3   3  18
Direct configuration=    15
   0.68892046  0.67367214  0.00001099
   0.67438120  0.00124348  0.00011452
   0.31841459  0.00147019 -0.00004399
   0.30896280  0.32335692  0.00017558
   0.01055688  0.00508398 -0.00011518
  -0.00590380  0.66689873  0.00006465
   1.01967740  0.33805038 -0.00051410
   0.31177734  0.64435199 -0.00025442
   0.67572337  0.34849377  0.00061087
   0.10766903  0.21919721  0.94436770
   0.22480400  0.10800953  0.05398624
   0.10731703  0.55326601  0.94555631
   0.22120859  0.44258035  0.05647391
   0.11744005  0.89175916  0.94715021
   0.22553424  0.78261391  0.05108381
   0.44189265  0.21900910  0.95030195
   0.55244452  0.10773914  0.04781929
   0.44897548  0.55696214  0.95074779
   0.55584053  0.45082424  0.04975149
   0.44300835  0.88990375  0.95317642
   0.55794147  0.77685378  0.04749171
   0.77825104  0.22016612  0.95010532
   0.88655758  0.11066689  0.05124090
   0.77565353  0.56008941  0.94636118
   0.89097744  0.44253202  0.05201574
   0.77469201  0.88586859  0.94966332
   0.88549669  0.77755153  0.05265769
unknown system                          
           1
     8.299856    4.820708    0.000000
    -8.270212    4.769407    0.000000
     0.000000    0.000000   30.000000
   V    Mo   W    S 
   3   3   3  18
Direct configuration=    16
   0.69126325  0.67525551 -0.00004708
   0.67670161  0.00194888  0.00015516
   0.31615403  0.00111695 -0.00003500
   0.30708286  0.32213409  0.00024942
   0.01042270  0.00503016 -0.00015306
  -0.00624497  0.66698712  0.00008914
   1.01916811  0.33737449 -0.00063744
   0.30979062  0.64302474 -0.00021024
   0.67866995  0.35039144  0.00064926
   0.10713940  0.21865107  0.94416968
   0.22448839  0.10787000  0.05417295
   0.10678129  0.55299902  0.94543556
   0.22069886  0.44202469  0.05663921
   0.11729067  0.89163935  0.94702668
   0.22559766  0.78263118  0.05109533
   0.44203727  0.21935857  0.95068901
   0.55255202  0.10810592  0.04740478
   0.44909796  0.55681223  0.95119907
   0.55562882  0.45101124  0.04930496
   0.44272560  0.88959647  0.95368316
   0.55768300  0.77641782  0.04713966
   0.77802571  0.21999446  0.94998839
   0.88669880  0.11070718  0.05138359
   0.77605692  0.56038746  0.94612703
   0.89158663  0.44277790  0.05216530
   0.77494296  0.88601782  0.94944627
   0.88617434  0.77794867  0.05286909
unknown system                          
           1
     8.299801    4.822053    0.000000
    -8.268244    4.767442    0.000000
     0.000000    0.000000   30.000000
   V    Mo   W    S 
   3   3   3  18
Direct configuration=    17
   0.69178374  0.67556680 -0.00006070
   0.67708124  0.00199254  0.00016413
   0.31586038  0.00108687 -0.00003153
   0.30672665  0.32194721  0.00026046
   0.01030777  0.00497945 -0.00016094
  -0.00642474  0.66700808  0.00009482
   1.01915267  0.33723682 -0.00066316
   0.30944767  0.64276139 -0.00020400
   0.67914184  0.35078141  0.00066019
   0.10705543  0.21856253  0.94415057
   0.22442097  0.10785674  0.05419206
   0.10670288  0.55295345  0.94543603
   0.22060145  0.44192321  0.05665673
   0.11723643  0.89160569  0.94701726
   0.22559253  0.78260300  0.05108306
   0.44205945  0.21943955  0.95075628
   0.55259216  0.10818121  0.04732561
   0.44913906  0.55679966  0.95129366
   0.55561690  0.45107799  0.04921421
   0.44268247  0.88952619  0.95377415
   0.55765660  0.77633081  0.04706575
   0.77798951  0.21997006  0.94999077
   0.88673362  0.11072611  0.05139786
   0.77611709  0.56046246  0.94610100
   0.89168608  0.44281681  0.05217139
   0.77498092  0.88601128  0.94942309
   0.88627370  0.77800713  0.05289116
unknown system                          
           1
     8.299826    4.821786    0.000000
    -8.268424    4.767445    0.000000
     0.000000    0.000000   30.000000
   V    Mo   W    S 
   3   3   3  18
Direct configuration=    18
   0.69329254  0.67653781 -0.00010556
   0.67905809  0.00261998  0.00018673
   0.31419403  0.00069928 -0.00001775
   0.30540690  0.32120338  0.00030565
   0.01012968  0.00491144 -0.00018992
  -0.00667453  0.66710029  0.00011974
   1.01867671  0.33668620 -0.00074656
   0.30805957  0.64183242 -0.00017649
   0.68138283  0.35217614  0.00069535
   0.10671427  0.21822591  0.94406276
   0.22417329  0.10777702  0.05430596
   0.10635572  0.55275177  0.94539308
   0.22017209  0.44151318  0.05671666
   0.11705977  0.89150984  0.94692989
   0.22564821  0.78261416  0.05109716
   0.44220278  0.21969115  0.95106009
   0.55271163  0.10847755  0.04699332
   0.44919074  0.55670425  0.95162703
   0.55551491  0.45116671  0.04886496
   0.44253098  0.88932577  0.95416072
   0.55745002  0.77602296  0.04679342
   0.77775577  0.21981935  0.94988499
   0.88684458  0.11073708  0.05152305
   0.77640290  0.56068535  0.94596904
   0.89212033  0.44307598  0.05227813
   0.77515665  0.88609841  0.94926838
   0.88668400  0.77825106  0.05300006
unknown system                          
           1
     8.293870    4.816994    0.000000
    -8.264728    4.766555    0.000000
     0.000000    0.000000   30.000000
   V    Mo   W    S 
   3   3   3  18
Direct configuration=    19
   0.69306104  0.67641874 -0.00009705
   0.67862337  0.00244966  0.00018799
   0.31448095  0.00082459 -0.00002402
   0.30562637  0.32127538  0.00029542
   0.01020898  0.00493543 -0.00018408
  -0.00662111  0.66711593  0.00011504
   1.01882073  0.33678028 -0.00073395
   0.30830960  0.64198256 -0.00018620
   0.68090178  0.35191792  0.00069719
   0.10677855  0.21827611  0.94407804
   0.22422620  0.10777543  0.05427361
   0.10641903  0.55279410  0.94540570
   0.22026840  0.44159237  0.05670641
   0.11712914  0.89154171  0.94696216
   0.22563524  0.78262109  0.05107965
   0.44215815  0.21963288  0.95100126
   0.55267711  0.10841722  0.04705387
   0.44919337  0.55672481  0.95157365
   0.55553161  0.45117405  0.04893204
   0.44254404  0.88935986  0.95409142
   0.55750198  0.77607536  0.04684434
   0.77781363  0.21984913  0.94992399
   0.88680982  0.11073955  0.05148303
   0.77634711  0.56063986  0.94599356
   0.89201865  0.44299716  0.05223764
   0.77512154  0.88608655  0.94930365
   0.88662915  0.77821675  0.05298556
unknown system                          
           1
     8.293248    4.817786    0.000000
    -8.264029    4.767199    0.000000
     0.000000    0.000000   30.000000
   V    Mo   W    S 
   3   3   3  18
Direct configuration=    20
   0.68975189  0.67529539  0.00003671
   0.67242259  0.00002296  0.00022210
   0.31796398  0.00298026 -0.00012483
   0.30820222  0.32195739  0.00015288
   0.01200119  0.00600582 -0.00010622
  -0.00540884  0.66726216  0.00007926
   1.02151401  0.33803910 -0.00057505
   0.31114608  0.64329981 -0.00036090
   0.67446733  0.34854376  0.00079786
   0.10749864  0.21863308  0.94415352
   0.22497369  0.10756048  0.05398393
   0.10700126  0.55331969  0.94552920
   0.22162462  0.44242682  0.05656045
   0.11826802  0.89198702  0.94732654
   0.22560395  0.78295003  0.05073317
   0.44145470  0.21881272  0.95017080
   0.55202625  0.10755369  0.04782804
   0.44912483  0.55674695  0.95097225
   0.55551638  0.45124662  0.04978538
   0.44245389  0.88980704  0.95328504
   0.55813966  0.77676767  0.04755615
   0.77854452  0.22024763  0.95059476
   0.88624330  0.11072169  0.05089409
   0.77570085  0.55988053  0.94630279
   0.89064324  0.44174555  0.05155244
   0.77485903  0.88630098  0.94973191
   0.88647719  0.77809962  0.05291764
unknown system                          
           1
     8.299906    4.826805    0.000000
    -8.267104    4.769998    0.000000
     0.000000    0.000000   30.000000
   V    Mo   W    S 
   3   3   3  18
Direct configuration=    21
   0.68816310  0.67468218  0.00012307
   0.66725688 -0.00232710  0.00021254
   0.32103570  0.00483777 -0.00018783
   0.31025936  0.32255363  0.00007202
   0.01285144  0.00641119 -0.00004831
  -0.00517111  0.66719178  0.00004535
   1.02365236  0.33917792 -0.00051590
   0.31327310  0.64432021 -0.00045146
   0.66936029  0.34636103  0.00079842
   0.10801082  0.21890120  0.94415908
   0.22549132  0.10758926  0.05389612
   0.10740841  0.55354669  0.94559468
   0.22265067  0.44298070  0.05650154
   0.11883488  0.89218283  0.94749514
   0.22567947  0.78299377  0.05050723
   0.44104084  0.21837609  0.94952143
   0.55153623  0.10699885  0.04842698
   0.44915463  0.55676369  0.95057065
   0.55558015  0.45142525  0.05037803
   0.44226141  0.88996218  0.95267696
   0.55850820  0.77714309  0.04808668
   0.77916522  0.22065025  0.95111741
   0.88607144  0.11085017  0.05048117
   0.77524297  0.55945492  0.94661740
   0.88984670  0.44082196  0.05108140
   0.77476208  0.88639673  0.95006761
   0.88628790  0.77796819  0.05277247
unknown system                          
           1
     8.303746    4.828089    0.000000
    -8.271025    4.771437    0.000000
     0.000000    0.000000   30.000000
   V    Mo   W    S 
   3   3   3  18
Direct configuration=    22
   0.69198009  0.67657672 -0.00006354
   0.66896941 -0.00279639  0.00013284
   0.31976248  0.00470528  0.00003107
   0.30823183  0.32148893  0.00022880
   0.01193345  0.00559429 -0.00009443
  -0.00665600  0.66707414  0.00014114
   1.02286539  0.33864321 -0.00070522
   0.31113312  0.64307271 -0.00025369
   0.67259826  0.34877635  0.00064232
   0.10748655  0.21849811  0.94402111
   0.22490664  0.10777303  0.05421110
   0.10690245  0.55304634  0.94547810
   0.22177394  0.44210422  0.05668661
   0.11774896  0.89164590  0.94718562
   0.22580409  0.78258607  0.05057961
   0.44164129  0.21924072  0.94998609
   0.55183074  0.10774712  0.04784786
   0.44952990  0.55680205  0.95119077
   0.55561792  0.45175486  0.04975680
   0.44204936  0.88942949  0.95322122
   0.55804297  0.77647410  0.04761944
   0.77871103  0.22057892  0.95107183
   0.88671279  0.11117759  0.05068193
   0.77571214  0.56020115  0.94636138
   0.89092729  0.44138177  0.05134821
   0.77517702  0.88629873  0.94982343
   0.88682133  0.77833905  0.05286949
unknown system                          
           1
     8.312961    4.836158    0.000000
    -8.276301    4.772700    0.000000
     0.000000    0.000000   30.000000
   V    Mo   W    S 
   3   3   3  18
Direct configuration=    23
   0.69277726  0.67715912 -0.00008598
   0.66701678 -0.00448497  0.00016805
   0.32042290  0.00564207  0.00001923
   0.30817255  0.32113990  0.00022499
   0.01216792  0.00562601 -0.00010084
  -0.00714226  0.66693814  0.00009588
   1.02392188  0.33898868 -0.00071293
   0.31099460  0.64274854 -0.00027018
   0.67176890  0.34907204  0.00066714
   0.10752903  0.21836303  0.94398104
   0.22484371  0.10776370  0.05428772
   0.10689285  0.55305855  0.94550423
   0.22179278  0.44189883  0.05671805
   0.11783205  0.89161963  0.94724481
   0.22585161  0.78249904  0.05049719
   0.44154940  0.21930737  0.94986421
   0.55176393  0.10784259  0.04787891
   0.44976580  0.55684601  0.95134629
   0.55571169  0.45219391  0.04975956
   0.44173636  0.88927584  0.95315989
   0.55812126  0.77627184  0.04769768
   0.77884511  0.22068110  0.95130319
   0.88674234  0.11134116  0.05049505
   0.77583453  0.56037685  0.94632623
   0.89083498  0.44109873  0.05116953
   0.77539482  0.88641605  0.94981105
   0.88707167  0.77853069  0.05294989
unknown system                          
           1
     8.322979    4.843999    0.000000
    -8.284684    4.777708    0.000000
     0.000000    0.000000   30.000000
   V    Mo   W    S 
   3   3   3  18
Direct configuration=    24
   0.69532964  0.67879164 -0.00018682
   0.66524253 -0.00723255  0.00022301
   0.32018882  0.00665938  0.00007921
   0.30705133  0.32009228  0.00030006
   0.01217782  0.00544364 -0.00009864
  -0.00831098  0.66670214  0.00013322
   1.02469061  0.33894950 -0.00086181
   0.30978257  0.64178227 -0.00019262
   0.67289222  0.35101360  0.00064894
   0.10725570  0.21789107  0.94386611
   0.22446090  0.10770206  0.05446851
   0.10649946  0.55288419  0.94547709
   0.22143918  0.44120550  0.05686363
   0.11772248  0.89148744  0.94724718
   0.22589983  0.78227339  0.05038864
   0.44158802  0.21969973  0.94994600
   0.55195426  0.10838900  0.04760652
   0.45031509  0.55698488  0.95188053
   0.55588476  0.45307614  0.04948299
   0.44111552  0.88887474  0.95333027