 vasp.5.4.1 05Feb16 (build Jul 05 2020 17:13:04) complex                        
  
 executed on           IFC91_ompi date 2024.07.20  01:08:16
 running on   40 total cores
 distrk:  each k-point on   40 cores,    1 groups
 distr:  one band on NCORES_PER_BAND=   1 cores,   40 groups


--------------------------------------------------------------------------------------------------------


 INCAR:
 POTCAR:   PAW_PBE V 08Apr2002                    
 POTCAR:   PAW_PBE Mo 08Apr2002                   
 POTCAR:   PAW_PBE W 08Apr2002                    
 POTCAR:    PAW_PBE S 17Jan2003                   

 ----------------------------------------------------------------------------- 
|                                                                             |
|           W    W    AA    RRRRR   N    N  II  N    N   GGGG   !!!           |
|           W    W   A  A   R    R  NN   N  II  NN   N  G    G  !!!           |
|           W    W  A    A  R    R  N N  N  II  N N  N  G       !!!           |
|           W WW W  AAAAAA  RRRRR   N  N N  II  N  N N  G  GGG   !            |
|           WW  WW  A    A  R   R   N   NN  II  N   NN  G    G                |
|           W    W  A    A  R    R  N    N  II  N    N   GGGG   !!!           |
|                                                                             |
|      For optimal performance we recommend to set                            |
|        NCORE= 4 - approx SQRT( number of cores)                             |
|      NCORE specifies how many cores store one orbital (NPAR=cpu/NCORE).     |
|      This setting can  greatly improve the performance of VASP for DFT.     |
|      The default, NPAR=number of cores might be grossly inefficient         |
|      on modern multi-core architectures or massively parallel machines.     |
|      Do your own testing !!!!                                               |
|      Unfortunately you need to use the default for GW and RPA calculations. |
|      (for HF NCORE is supported but not extensively tested yet)             |
|                                                                             |
 ----------------------------------------------------------------------------- 

 POTCAR:   PAW_PBE V 08Apr2002                    
   VRHFIN =V: p6 d4 s1                                                          
   LEXCH  = PE                                                                  
   EATOM  =   170.8679 eV,   12.5584 Ry                                         
                                                                                
   TITEL  = PAW_PBE V 08Apr2002                                                 
   LULTRA =        F    use ultrasoft PP ?                                      
   IUNSCR =        1    unscreen: 0-lin 1-nonlin 2-no                           
   RPACOR =    2.000    partial core radius                                     
   POMASS =   50.941; ZVAL   =    5.000    mass and valenz                      
   RCORE  =    2.700    outmost cutoff radius                                   
   RWIGS  =    2.500; RWIGS  =    1.323    wigner-seitz radius (au A)           
   ENMAX  =  192.543; ENMIN  =  144.408 eV                                      
   RCLOC  =    1.779    cutoff for local pot                                    
   LCOR   =        T    correct aug charges                                     
   LPAW   =        T    paw PP                                                  
   EAUG   =  358.662                                                            
   DEXC   =    -.034                                                            
   RMAX   =    3.323    core radius for proj-oper                               
   RAUG   =    1.300    factor for augmentation sphere                          
   RDEP   =    2.762    radius for radial grids                                 
   QCUT   =   -3.762; QGAM   =    7.524    optimization parameters              
                                                                                
   Description                                                                  
     l     E      TYP  RCUT    TYP  RCUT                                        
     2   .000     23  2.700                                                     
     2   .000     23  2.700                                                     
     0   .000     23  2.700                                                     
     0  2.000     23  2.700                                                     
     1   .000     23  2.700                                                     
     1  2.000     23  2.700                                                     
     3   .000      7   .000                                                     
  local pseudopotential read in
  partial core-charges read in
  atomic valenz-charges read in
  non local Contribution for L=           2  read in
    real space projection operators read in
  non local Contribution for L=           2  read in
    real space projection operators read in
  non local Contribution for L=           0  read in
    real space projection operators read in
  non local Contribution for L=           0  read in
    real space projection operators read in
  non local Contribution for L=           1  read in
    real space projection operators read in
  non local Contribution for L=           1  read in
    real space projection operators read in
    PAW grid and wavefunctions read in
 
   number of l-projection  operators is LMAX  =           6
   number of lm-projection operators is LMMAX =          18
 
 POTCAR:   PAW_PBE Mo 08Apr2002                   
   VRHFIN =Mo: 4p5s4d                                                           
   LEXCH  = PE                                                                  
   EATOM  =   217.5180 eV,   15.9871 Ry                                         
                                                                                
   TITEL  = PAW_PBE Mo 08Apr2002                                                
   LULTRA =        F    use ultrasoft PP ?                                      
   IUNSCR =        1    unscreen: 0-lin 1-nonlin 2-no                           
   RPACOR =    2.200    partial core radius                                     
   POMASS =   95.940; ZVAL   =    6.000    mass and valenz                      
   RCORE  =    2.750    outmost cutoff radius                                   
   RWIGS  =    2.750; RWIGS  =    1.455    wigner-seitz radius (au A)           
   ENMAX  =  224.584; ENMIN  =  168.438 eV                                      
   RCLOC  =    2.111    cutoff for local pot                                    
   LCOR   =        T    correct aug charges                                     
   LPAW   =        T    paw PP                                                  
   EAUG   =  345.278                                                            
   DEXC   =    -.088                                                            
   RMAX   =    3.077    core radius for proj-oper                               
   RAUG   =    1.300    factor for augmentation sphere                          
   RDEP   =    2.815    radius for radial grids                                 
   QCUT   =   -4.063; QGAM   =    8.126    optimization parameters              
                                                                                
   Description                                                                  
     l     E      TYP  RCUT    TYP  RCUT                                        
     2   .000     23  2.500                                                     
     2   .000     23  2.500                                                     
     0   .000     23  2.600                                                     
     0  1.000     23  2.600                                                     
     1   .400     23  2.750                                                     
     1  2.000     23  2.750                                                     
     3   .000      7   .000                                                     
  local pseudopotential read in
  partial core-charges read in
  atomic valenz-charges read in
  non local Contribution for L=           2  read in
    real space projection operators read in
  non local Contribution for L=           2  read in
    real space projection operators read in
  non local Contribution for L=           0  read in
    real space projection operators read in
  non local Contribution for L=           0  read in
    real space projection operators read in
  non local Contribution for L=           1  read in
    real space projection operators read in
  non local Contribution for L=           1  read in
    real space projection operators read in
    PAW grid and wavefunctions read in
 
   number of l-projection  operators is LMAX  =           6
   number of lm-projection operators is LMMAX =          18
 
 POTCAR:   PAW_PBE W 08Apr2002                    
   VRHFIN =W : 6s5d                                                             
   LEXCH  = PE                                                                  
   EATOM  =   204.6100 eV,   15.0384 Ry                                         
                                                                                
   TITEL  = PAW_PBE W 08Apr2002                                                 
   LULTRA =        F    use ultrasoft PP ?                                      
   IUNSCR =        1    unscreen: 0-lin 1-nonlin 2-no                           
   RPACOR =    2.330    partial core radius                                     
   POMASS =  183.850; ZVAL   =    6.000    mass and valenz                      
   RCORE  =    2.750    outmost cutoff radius                                   
   RWIGS  =    2.750; RWIGS  =    1.455    wigner-seitz radius (au A)           
   ENMAX  =  223.057; ENMIN  =  167.293 eV                                      
   RCLOC  =    2.147    cutoff for local pot                                    
   LCOR   =        T    correct aug charges                                     
   LPAW   =        T    paw PP                                                  
   EAUG   =  373.438                                                            
   DEXC   =    -.060                                                            
   RMAX   =    3.087    core radius for proj-oper                               
   RAUG   =    1.300    factor for augmentation sphere                          
   RDEP   =    2.886    radius for radial grids                                 
   QCUT   =   -4.049; QGAM   =    8.098    optimization parameters              
                                                                                
   Description                                                                  
     l     E      TYP  RCUT    TYP  RCUT                                        
     2   .000     23  2.500                                                     
     2   .000     23  2.500                                                     
     0   .000     23  2.500                                                     
     0   .000     23  2.500                                                     
     1   .200     23  2.750                                                     
     1  2.000     23  2.750                                                     
     3   .000      7   .000                                                     
  local pseudopotential read in
  partial core-charges read in
  atomic valenz-charges read in
  non local Contribution for L=           2  read in
    real space projection operators read in
  non local Contribution for L=           2  read in
    real space projection operators read in
  non local Contribution for L=           0  read in
    real space projection operators read in
  non local Contribution for L=           0  read in
    real space projection operators read in
  non local Contribution for L=           1  read in
    real space projection operators read in
  non local Contribution for L=           1  read in
    real space projection operators read in
    PAW grid and wavefunctions read in
 
   number of l-projection  operators is LMAX  =           6
   number of lm-projection operators is LMMAX =          18
 
 POTCAR:    PAW_PBE S 17Jan2003                   
   VRHFIN =S : s2p4                                                             
   LEXCH  = PE                                                                  
   EATOM  =   276.8230 eV,   20.3459 Ry                                         
                                                                                
   TITEL  = PAW_PBE S 17Jan2003                                                 
   LULTRA =        F    use ultrasoft PP ?                                      
   IUNSCR =        1    unscreen: 0-lin 1-nonlin 2-no                           
   RPACOR =    1.500    partial core radius                                     
   POMASS =   32.066; ZVAL   =    6.000    mass and valenz                      
   RCORE  =    1.900    outmost cutoff radius                                   
   RWIGS  =    2.200; RWIGS  =    1.164    wigner-seitz radius (au A)           
   ENMAX  =  280.000; ENMIN  =  194.016 eV                                      
   ICORE  =        2    local potential                                         
   LCOR   =        T    correct aug charges                                     
   LPAW   =        T    paw PP                                                  
   EAUG   =  335.092                                                            
   DEXC   =     .000                                                            
   RMAX   =    2.867    core radius for proj-oper                               
   RAUG   =    1.300    factor for augmentation sphere                          
   RDEP   =    1.954    radius for radial grids                                 
   QCUT   =   -4.360; QGAM   =    8.721    optimization parameters              
                                                                                
   Description                                                                  
     l     E      TYP  RCUT    TYP  RCUT                                        
     0   .000     23  1.900                                                     
     0   .000     23  1.900                                                     
     1   .000     23  1.900                                                     
     1   .000     23  1.900                                                     
     2   .000     23  1.900                                                     
  local pseudopotential read in
  partial core-charges read in
  atomic valenz-charges read in
  non local Contribution for L=           0  read in
    real space projection operators read in
  non local Contribution for L=           0  read in
    real space projection operators read in
  non local Contribution for L=           1  read in
    real space projection operators read in
  non local Contribution for L=           1  read in
    real space projection operators read in
    PAW grid and wavefunctions read in
 
   number of l-projection  operators is LMAX  =           4
   number of lm-projection operators is LMMAX =           8
 

 ----------------------------------------------------------------------------- 
|                                                                             |
|  ADVICE TO THIS USER RUNNING 'VASP/VAMP'   (HEAR YOUR MASTER'S VOICE ...):  |
|                                                                             |
|      You have a (more or less) 'large supercell' and for larger cells       |
|      it might be more efficient to use real space projection operators      |
|      So try LREAL= Auto  in the INCAR   file.                               |
|      Mind: If you want to do a very accurate calculations keep the          |
|      reciprocal projection scheme          (i.e. LREAL=.FALSE.)             |
|                                                                             |
 ----------------------------------------------------------------------------- 

 PAW_PBE V 08Apr2002                    :
 energy of atom  1       EATOM= -170.8679
 kinetic energy error for atom=    0.0047 (will be added to EATOM!!)
 PAW_PBE Mo 08Apr2002                   :
 energy of atom  2       EATOM= -217.5180
 kinetic energy error for atom=    0.0215 (will be added to EATOM!!)
 PAW_PBE W 08Apr2002                    :
 energy of atom  3       EATOM= -204.6100
 kinetic energy error for atom=    0.0205 (will be added to EATOM!!)
  PAW_PBE S 17Jan2003                   :
 energy of atom  4       EATOM= -276.8230
 kinetic energy error for atom=    0.0122 (will be added to EATOM!!)
 
 
 POSCAR: crystal structure from VMoWS2 with Hexag
  positions in cartesian coordinates
  No initial velocities read in
 exchange correlation table for  LEXCH =        8
   RHO(1)=    0.500       N(1)  =     2000
   RHO(2)=  100.500       N(2)  =     4000
 


--------------------------------------------------------------------------------------------------------


 ion  position               nearest neighbor table
   1  0.000  0.000  0.000-  23 2.34  14 2.34  11 2.36  10 2.36  27 2.36  26 2.36
   2  0.000  0.667  0.000-  27 2.34  12 2.34  14 2.36  15 2.36  24 2.36  25 2.36
   3  0.333  0.000  0.000-  11 2.34  20 2.34  17 2.36  16 2.36  15 2.36  14 2.36
   4  1.000  0.333  0.000-  25 2.34  10 2.34  13 2.36  12 2.36  22 2.36  23 2.36   5 3.34   7 3.34
                             6 3.36   8 3.36
   5  0.667  0.333  0.000-  19 2.34  22 2.34  25 2.36  24 2.36  17 2.36  16 2.36   4 3.34   9 3.34
                             6 3.34   7 3.34
   6  0.667  0.000  0.000-  17 2.34  26 2.34  23 2.36  22 2.36  21 2.36  20 2.36   9 3.34   5 3.34
                             4 3.36   8 3.36
   7  0.333  0.333  0.000-  13 2.34  16 2.34  19 2.36  18 2.36  11 2.36  10 2.36   8 3.34   4 3.34
                             5 3.34   9 3.36
   8  0.333  0.667  0.000-  15 2.34  18 2.34  20 2.36  21 2.36  13 2.36  12 2.36   7 3.34   9 3.34
                             6 3.36   4 3.36
   9  0.667  0.667  0.000-  21 2.34  24 2.34  27 2.36  26 2.36  19 2.36  18 2.36   6 3.34   5 3.34
                             8 3.34   7 3.36
  10  0.111  0.222  0.955-   4 2.34   1 2.36   7 2.36
  11  0.222  0.111  0.045-   3 2.34   1 2.36   7 2.36
  12  0.111  0.556  0.955-   2 2.34   4 2.36   8 2.36
  13  0.222  0.444  0.045-   7 2.34   4 2.36   8 2.36
  14  0.111  0.889  0.955-   1 2.34   2 2.36   3 2.36
  15  0.222  0.777  0.045-   8 2.34   2 2.36   3 2.36
  16  0.444  0.222  0.955-   7 2.34   3 2.36   5 2.36
  17  0.556  0.111  0.045-   6 2.34   3 2.36   5 2.36
  18  0.444  0.556  0.955-   8 2.34   7 2.36   9 2.36
  19  0.556  0.444  0.045-   5 2.34   7 2.36   9 2.36
  20  0.444  0.889  0.955-   3 2.34   8 2.36   6 2.36
  21  0.556  0.777  0.045-   9 2.34   8 2.36   6 2.36
  22  0.777  0.222  0.955-   5 2.34   6 2.36   4 2.36
  23  0.889  0.111  0.045-   1 2.34   6 2.36   4 2.36
  24  0.777  0.556  0.955-   9 2.34   5 2.36   2 2.36
  25  0.889  0.444  0.045-   4 2.34   5 2.36   2 2.36
  26  0.777  0.889  0.955-   6 2.34   9 2.36   1 2.36
  27  0.889  0.777  0.045-   2 2.34   9 2.36   1 2.36
 

IMPORTANT INFORMATION: All symmetrisations will be switched off!
NOSYMM: (Re-)initialisation of all symmetry stuff for point group C_1.

 
 
 KPOINTS: K-POINTS 	#supercell of CrS2 in hexagona

Automatic generation of k-mesh.
Space group operators:
 irot       det(A)        alpha          n_x          n_y          n_z        tau_x        tau_y        tau_z
    1     1.000000     0.000000     1.000000     0.000000     0.000000     0.000000     0.000000     0.000000
 
 Subroutine IBZKPT returns following result:
 ===========================================
 
 Found     34 irreducible k-points:
 
 Following reciprocal coordinates:
            Coordinates               Weight
  0.000000  0.000000  0.000000      1.000000
  0.125000  0.000000  0.000000      2.000000
  0.250000  0.000000  0.000000      2.000000
  0.375000  0.000000  0.000000      2.000000
  0.500000  0.000000  0.000000      1.000000
  0.000000  0.125000  0.000000      2.000000
  0.125000  0.125000  0.000000      2.000000
  0.250000  0.125000  0.000000      2.000000
  0.375000  0.125000  0.000000      2.000000
  0.500000  0.125000  0.000000      2.000000
 -0.375000  0.125000  0.000000      2.000000
 -0.250000  0.125000  0.000000      2.000000
 -0.125000  0.125000  0.000000      2.000000
  0.000000  0.250000  0.000000      2.000000
  0.125000  0.250000  0.000000      2.000000
  0.250000  0.250000  0.000000      2.000000
  0.375000  0.250000  0.000000      2.000000
  0.500000  0.250000  0.000000      2.000000
 -0.375000  0.250000  0.000000      2.000000
 -0.250000  0.250000  0.000000      2.000000
 -0.125000  0.250000  0.000000      2.000000
 -0.000000  0.375000  0.000000      2.000000
  0.125000  0.375000  0.000000      2.000000
  0.250000  0.375000  0.000000      2.000000
  0.375000  0.375000  0.000000      2.000000
  0.500000  0.375000  0.000000      2.000000
 -0.375000  0.375000  0.000000      2.000000
 -0.250000  0.375000  0.000000      2.000000
 -0.125000  0.375000  0.000000      2.000000
  0.000000  0.500000  0.000000      1.000000
  0.125000  0.500000  0.000000      2.000000
  0.250000  0.500000  0.000000      2.000000
  0.375000  0.500000  0.000000      2.000000
  0.500000  0.500000  0.000000      1.000000
 
 Following cartesian coordinates:
            Coordinates               Weight
  0.000000  0.000000  0.000000      1.000000
  0.007209  0.012401  0.000000      2.000000
  0.014418  0.024802  0.000000      2.000000
  0.021626  0.037202  0.000000      2.000000
  0.028835  0.049603  0.000000      1.000000
 -0.007209  0.012401  0.000000      2.000000
  0.000000  0.024802  0.000000      2.000000
  0.007209  0.037202  0.000000      2.000000
  0.014418  0.049603  0.000000      2.000000
  0.021626  0.062004  0.000000      2.000000
 -0.028835 -0.024802  0.000000      2.000000
 -0.021626 -0.012401  0.000000      2.000000
 -0.014418  0.000000  0.000000      2.000000
 -0.014418  0.024802  0.000000      2.000000
 -0.007209  0.037202  0.000000      2.000000
  0.000000  0.049603  0.000000      2.000000
  0.007209  0.062004  0.000000      2.000000
  0.014418  0.074405  0.000000      2.000000
 -0.036044 -0.012401  0.000000      2.000000
 -0.028835  0.000000  0.000000      2.000000
 -0.021626  0.012401  0.000000      2.000000
 -0.021626  0.037202  0.000000      2.000000
 -0.014418  0.049603  0.000000      2.000000
 -0.007209  0.062004  0.000000      2.000000
  0.000000  0.074405  0.000000      2.000000
  0.007209  0.086806  0.000000      2.000000
 -0.043253  0.000000  0.000000      2.000000
 -0.036044  0.012401  0.000000      2.000000
 -0.028835  0.024802  0.000000      2.000000
 -0.028835  0.049603  0.000000      1.000000
 -0.021626  0.062004  0.000000      2.000000
 -0.014418  0.074405  0.000000      2.000000
 -0.007209  0.086806  0.000000      2.000000
  0.000000  0.099206  0.000000      1.000000
 


--------------------------------------------------------------------------------------------------------




 Dimension of arrays:
   k-points           NKPTS =     34   k-points in BZ     NKDIM =     34   number of bands    NBANDS=    120
   number of dos      NEDOS =    301   number of ions     NIONS =     27
   non local maximal  LDIM  =      6   non local SUM 2l+1 LMDIM =     18
   total plane-waves  NPLWV = 222264
   max r-space proj   IRMAX =      1   max aug-charges    IRDMAX=   5642
   dimension x,y,z NGX =    42 NGY =   42 NGZ =  126
   dimension x,y,z NGXF=    84 NGYF=   84 NGZF=  252
   support grid    NGXF=    84 NGYF=   84 NGZF=  252
   ions per type =               3   3   3  18
 NGX,Y,Z   is equivalent  to a cutoff of   6.96,  6.96,  6.98 a.u.
 NGXF,Y,Z  is equivalent  to a cutoff of  13.92, 13.92, 13.96 a.u.


 I would recommend the setting:
   dimension x,y,z NGX =    41 NGY =   41 NGZ =  123
 SYSTEM =  unknown system                          
 POSCAR =  crystal structure from VMoWS2 with Hexag

 Startparameter for this run:
   NWRITE =      2    write-flag & timer
   PREC   = normal    normal or accurate (medium, high low for compatibility)
   ISTART =      0    job   : 0-new  1-cont  2-samecut
   ICHARG =      2    charge: 1-file 2-atom 10-const
   ISPIN  =      1    spin polarized calculation?
   LNONCOLLINEAR =      F non collinear calculations
   LSORBIT =      F    spin-orbit coupling
   INIWAV =      1    electr: 0-lowe 1-rand  2-diag
   LASPH  =      F    aspherical Exc in radial PAW
   METAGGA=      F    non-selfconsistent MetaGGA calc.

 Electronic Relaxation 1
   ENCUT  =  280.0 eV  20.58 Ry    4.54 a.u.  13.68 13.68 40.93*2*pi/ulx,y,z
   ENINI  =  280.0     initial cutoff
   ENAUG  =  373.4 eV  augmentation charge cutoff
   NELM   =     60;   NELMIN=  2; NELMDL= -5     # of ELM steps 
   EDIFF  = 0.1E-03   stopping-criterion for ELM
   LREAL  =      F    real-space projection
   NLSPLINE    = F    spline interpolate recip. space projectors
   LCOMPAT=      F    compatible to vasp.4.4
   GGA_COMPAT  = T    GGA compatible to vasp.4.4-vasp.4.6
   LMAXPAW     = -100 max onsite density
   LMAXMIX     =    2 max onsite mixed and CHGCAR
   VOSKOWN=      0    Vosko Wilk Nusair interpolation
   ROPT   =    0.00000   0.00000   0.00000   0.00000
 Ionic relaxation
   EDIFFG = 0.1E-02   stopping-criterion for IOM
   NSW    =    100    number of steps for IOM
   NBLOCK =      1;   KBLOCK =    100    inner block; outer block 
   IBRION =      1    ionic relax: 0-MD 1-quasi-New 2-CG
   NFREE  =      0    steps in history (QN), initial steepest desc. (CG)
   ISIF   =      3    stress and relaxation
   IWAVPR =     11    prediction:  0-non 1-charg 2-wave 3-comb
   ISYM   =      0    0-nonsym 1-usesym 2-fastsym
   LCORR  =      T    Harris-Foulkes like correction to forces

   POTIM  = 0.5000    time-step for ionic-motion
   TEIN   =    0.0    initial temperature
   TEBEG  =    0.0;   TEEND  =   0.0 temperature during run
   SMASS  =  -3.00    Nose mass-parameter (am)
   estimated Nose-frequenzy (Omega)   =  0.10E-29 period in steps =****** mass=  -0.230E-26a.u.
   SCALEE = 1.0000    scale energy and forces
   NPACO  =    256;   APACO  = 16.0  distance and # of slots for P.C.
   PSTRESS=    0.0 pullay stress

  Mass of Ions in am
   POMASS =  50.94 95.94183.85 32.07
  Ionic Valenz
   ZVAL   =   5.00  6.00  6.00  6.00
  Atomic Wigner-Seitz radii
   RWIGS  =  -1.00 -1.00 -1.00 -1.00
  virtual crystal weights 
   VCA    =   1.00  1.00  1.00  1.00
   NELECT =     159.0000    total number of electrons
   NUPDOWN=      -1.0000    fix difference up-down

 DOS related values:
   EMIN   =  10.00;   EMAX   =-10.00  energy-range for DOS
   EFERMI =   0.00
   ISMEAR =     0;   SIGMA  =   0.20  broadening in eV -4-tet -1-fermi 0-gaus

 Electronic relaxation 2 (details)
   IALGO  =     38    algorithm
   LDIAG  =      T    sub-space diagonalisation (order eigenvalues)
   LSUBROT=      F    optimize rotation matrix (better conditioning)
   TURBO    =      0    0=normal 1=particle mesh
   IRESTART =      0    0=no restart 2=restart with 2 vectors
   NREBOOT  =      0    no. of reboots
   NMIN     =      0    reboot dimension
   EREF     =   0.00    reference energy to select bands
   IMIX   =      4    mixing-type and parameters
     AMIX     =   0.40;   BMIX     =  1.00
     AMIX_MAG =   1.60;   BMIX_MAG =  1.00
     AMIN     =   0.10
     WC   =   100.;   INIMIX=   1;  MIXPRE=   1;  MAXMIX= -45

 Intra band minimization:
   WEIMIN = 0.0010     energy-eigenvalue tresh-hold
   EBREAK =  0.21E-06  absolut break condition
   DEPER  =   0.30     relativ break condition  

   TIME   =   0.40     timestep for ELM

  volume/ion in A,a.u.               =      97.10       655.29
  Fermi-wavevector in a.u.,A,eV,Ry     =   0.643191  1.215456  5.628665  0.413695
  Thomas-Fermi vector in A             =   1.710110
 
 Write flags
   LWAVE  =      F    write WAVECAR
   LCHARG =      F    write CHGCAR
   LVTOT  =      F    write LOCPOT, total local potential
   LVHAR  =      F    write LOCPOT, Hartree potential only
   LELF   =      F    write electronic localiz. function (ELF)
   LORBIT =      0    0 simple, 1 ext, 2 COOP (PROOUT)


 Dipole corrections
   LMONO  =      F    monopole corrections only (constant potential shift)
   LDIPOL =      F    correct potential (dipole corrections)
   IDIPOL =      0    1-x, 2-y, 3-z, 4-all directions 
   EPSILON=  1.0000000 bulk dielectric constant

 Exchange correlation treatment:
   GGA     =    --    GGA type
   LEXCH   =     8    internal setting for exchange type
   VOSKOWN=      0    Vosko Wilk Nusair interpolation
   LHFCALC =     F    Hartree Fock is set to
   LHFONE  =     F    Hartree Fock one center treatment
   AEXX    =    0.0000 exact exchange contribution

 Linear response parameters
   LEPSILON=     F    determine dielectric tensor
   LRPA    =     F    only Hartree local field effects (RPA)
   LNABLA  =     F    use nabla operator in PAW spheres
   LVEL    =     F    velocity operator in full k-point grid
   LINTERFAST=   F  fast interpolation
   KINTER  =     0    interpolate to denser k-point grid
   CSHIFT  =0.1000    complex shift for real part using Kramers Kronig
   OMEGAMAX=  -1.0    maximum frequency
   DEG_THRESHOLD= 0.2000000E-02 threshold for treating states as degnerate
   RTIME   =    0.100 relaxation time in fs

 Orbital magnetization related:
   ORBITALMAG=     F  switch on orbital magnetization
   LCHIMAG   =     F  perturbation theory with respect to B field
   DQ        =  0.001000  dq finite difference perturbation B field



--------------------------------------------------------------------------------------------------------


 quasi-Newton-method for relaxation of ions
 charge density and potential will be updated during run
 non-spin polarized calculation
 Variant of blocked Davidson
 Davidson routine will perform the subspace rotation
 perform sub-space diagonalisation
    after iterative eigenvector-optimisation
 modified Broyden-mixing scheme, WC =      100.0
 initial mixing is a Kerker type mixing with AMIX =  0.4000 and BMIX =      1.0000
 Hartree-type preconditioning will be used
 using additional bands           40
 reciprocal scheme for non local part
 use partial core corrections
 calculate Harris-corrections to forces 
   (improved forces if not selfconsistent)
 use gradient corrections 
 use of overlap-Matrix (Vanderbilt PP)
 Gauss-broadening in eV      SIGMA  =   0.20


--------------------------------------------------------------------------------------------------------


  energy-cutoff  :      280.00
  volume of cell :     2621.81
      direct lattice vectors                 reciprocal lattice vectors
     8.669999960  5.039999894  0.000000000     0.057670129  0.099206348  0.000000000
    -8.669999821  5.040000133  0.000000000    -0.057670126  0.099206350  0.000000000
     0.000000000  0.000000000 30.000000000     0.000000000  0.000000000  0.033333333

  length of vectors
    10.028484344 10.028484344 30.000000000     0.114750788  0.114750788  0.033333333


 
 k-points in units of 2pi/SCALE and weight: K-POINTS 	#supercell of CrS2 in hexagona
   0.00000000  0.00000000  0.00000000       0.016
   0.00720877  0.01240079  0.00000000       0.031
   0.01441753  0.02480159  0.00000000       0.031
   0.02162630  0.03720238  0.00000000       0.031
   0.02883506  0.04960317  0.00000000       0.016
  -0.00720877  0.01240079  0.00000000       0.031
   0.00000000  0.02480159  0.00000000       0.031
   0.00720877  0.03720238  0.00000000       0.031
   0.01441753  0.04960317  0.00000000       0.031
   0.02162630  0.06200397  0.00000000       0.031
  -0.02883506 -0.02480159  0.00000000       0.031
  -0.02162630 -0.01240079  0.00000000       0.031
  -0.01441753  0.00000000  0.00000000       0.031
  -0.01441753  0.02480159  0.00000000       0.031
  -0.00720877  0.03720238  0.00000000       0.031
   0.00000000  0.04960317  0.00000000       0.031
   0.00720877  0.06200397  0.00000000       0.031
   0.01441753  0.07440476  0.00000000       0.031
  -0.03604383 -0.01240079  0.00000000       0.031
  -0.02883506  0.00000000  0.00000000       0.031
  -0.02162630  0.01240079  0.00000000       0.031
  -0.02162630  0.03720238  0.00000000       0.031
  -0.01441753  0.04960317  0.00000000       0.031
  -0.00720877  0.06200397  0.00000000       0.031
   0.00000000  0.07440476  0.00000000       0.031
   0.00720877  0.08680556  0.00000000       0.031
  -0.04325260  0.00000000  0.00000000       0.031
  -0.03604383  0.01240079  0.00000000       0.031
  -0.02883506  0.02480159  0.00000000       0.031
  -0.02883506  0.04960317  0.00000000       0.016
  -0.02162630  0.06200397  0.00000000       0.031
  -0.01441753  0.07440476  0.00000000       0.031
  -0.00720876  0.08680556  0.00000000       0.031
   0.00000000  0.09920635  0.00000000       0.016
 
 k-points in reciprocal lattice and weights: K-POINTS 	#supercell of CrS2 in hexagona
   0.00000000  0.00000000  0.00000000       0.016
   0.12500000  0.00000000  0.00000000       0.031
   0.25000000  0.00000000  0.00000000       0.031
   0.37500000  0.00000000  0.00000000       0.031
   0.50000000  0.00000000  0.00000000       0.016
   0.00000000  0.12500000  0.00000000       0.031
   0.12500000  0.12500000  0.00000000       0.031
   0.25000000  0.12500000  0.00000000       0.031
   0.37500000  0.12500000  0.00000000       0.031
   0.50000000  0.12500000  0.00000000       0.031
  -0.37500000  0.12500000  0.00000000       0.031
  -0.25000000  0.12500000  0.00000000       0.031
  -0.12500000  0.12500000  0.00000000       0.031
   0.00000000  0.25000000  0.00000000       0.031
   0.12500000  0.25000000  0.00000000       0.031
   0.25000000  0.25000000  0.00000000       0.031
   0.37500000  0.25000000  0.00000000       0.031
   0.50000000  0.25000000  0.00000000       0.031
  -0.37500000  0.25000000  0.00000000       0.031
  -0.25000000  0.25000000  0.00000000       0.031
  -0.12500000  0.25000000  0.00000000       0.031
  -0.00000000  0.37500000  0.00000000       0.031
   0.12500000  0.37500000  0.00000000       0.031
   0.25000000  0.37500000  0.00000000       0.031
   0.37500000  0.37500000  0.00000000       0.031
   0.50000000  0.37500000  0.00000000       0.031
  -0.37500000  0.37500000  0.00000000       0.031
  -0.25000000  0.37500000  0.00000000       0.031
  -0.12500000  0.37500000  0.00000000       0.031
   0.00000000  0.50000000  0.00000000       0.016
   0.12500000  0.50000000  0.00000000       0.031
   0.25000000  0.50000000  0.00000000       0.031
   0.37500000  0.50000000  0.00000000       0.031
   0.50000000  0.50000000  0.00000000       0.016
 
 position of ions in fractional coordinates (direct lattice) 
   0.00000000  0.00000000  0.00000000
   0.00000000  0.66666669  0.00000000
   0.33333334  0.00000000  0.00000000
   1.00000000  0.33333334  0.00000000
   0.66666669  0.33333334  0.00000000
   0.66666669  0.00000000  0.00000000
   0.33333334  0.33333334  0.00000000
   0.33333334  0.66666669  0.00000000
   0.66666669  0.66666669  0.00000000
   0.11068511  0.22244981  0.95539999
   0.22244981  0.11068511  0.04460000
   0.11068511  0.55578315  0.95539999
   0.22244981  0.44401845  0.04460000
   0.11068511  0.88911647  0.95539999
   0.22244981  0.77735180  0.04460000
   0.44401845  0.22244981  0.95539999
   0.55578315  0.11068511  0.04460000
   0.44401845  0.55578315  0.95539999
   0.55578315  0.44401845  0.04460000
   0.44401845  0.88911647  0.95539999
   0.55578315  0.77735180  0.04460000
   0.77735180  0.22244981  0.95539999
   0.88911647  0.11068511  0.04460000
   0.77735180  0.55578315  0.95539999
   0.88911647  0.44401845  0.04460000
   0.77735180  0.88911647  0.95539999
   0.88911647  0.77735180  0.04460000
 
 position of ions in cartesian coordinates  (Angst):
   0.00000000  0.00000000  0.00000000
  -5.78000005  3.36000019  0.00000000
   2.89000007  1.68000002  0.00000000
   5.77999993  6.71999999  0.00000000
   2.89000012  5.04000012  0.00000000
   5.78000015  3.36000003  0.00000000
   0.00000005  3.36000011  0.00000000
  -2.88999998  5.04000020  0.00000000
   0.00000009  6.72000022  0.00000000
  -0.96899991  1.67900001 28.66199970
   0.96899995  1.67899998  1.33799996
  -3.85899993  3.35900011 28.66199970
  -1.92100007  3.35900008  1.33799996
  -6.74899970  5.03900005 28.66199970
  -4.81100010  5.03900017  1.33799996
   1.92100017  3.35900003 28.66199970
   3.85900003  3.35900000  1.33799996
  -0.96899986  5.03900012 28.66199970
   0.96900000  5.03900009  1.33799996
  -3.85899963  6.71900006 28.66199970
  -1.92100003  6.71900019  1.33799996
   4.81100024  5.03900004 28.66199970
   6.74899984  5.03899987  1.33799996
   1.92100021  6.71900014 28.66199970
   3.85899981  6.71899996  1.33799996
  -0.96899956  8.39900008 28.66199970
   0.96899979  8.39900005  1.33799996
 


--------------------------------------------------------------------------------------------------------


 k-point  1 :   0.0000 0.0000 0.0000  plane waves:   27959
 k-point  2 :   0.1250 0.0000 0.0000  plane waves:   27889
 k-point  3 :   0.2500 0.0000 0.0000  plane waves:   27875
 k-point  4 :   0.3750 0.0000 0.0000  plane waves:   27893
 k-point  5 :   0.5000 0.0000 0.0000  plane waves:   27932
 k-point  6 :   0.0000 0.1250 0.0000  plane waves:   27889
 k-point  7 :   0.1250 0.1250 0.0000  plane waves:   27906
 k-point  8 :   0.2500 0.1250 0.0000  plane waves:   27898
 k-point  9 :   0.3750 0.1250 0.0000  plane waves:   27888
 k-point 10 :   0.5000 0.1250 0.0000  plane waves:   27873
 k-point 11 :  -0.3750 0.1250 0.0000  plane waves:   27874
 k-point 12 :  -0.2500 0.1250 0.0000  plane waves:   27895
 k-point 13 :  -0.1250 0.1250 0.0000  plane waves:   27879
 k-point 14 :   0.0000 0.2500 0.0000  plane waves:   27875
 k-point 15 :   0.1250 0.2500 0.0000  plane waves:   27898
 k-point 16 :   0.2500 0.2500 0.0000  plane waves:   27920
 k-point 17 :   0.3750 0.2500 0.0000  plane waves:   27901
 k-point 18 :   0.5000 0.2500 0.0000  plane waves:   27875
 k-point 19 :  -0.3750 0.2500 0.0000  plane waves:   27894
 k-point 20 :  -0.2500 0.2500 0.0000  plane waves:   27870
 k-point 21 :  -0.1250 0.2500 0.0000  plane waves:   27895
 k-point 22 :  -0.0000 0.3750 0.0000  plane waves:   27893
 k-point 23 :   0.1250 0.3750 0.0000  plane waves:   27888
 k-point 24 :   0.2500 0.3750 0.0000  plane waves:   27901
 k-point 25 :   0.3750 0.3750 0.0000  plane waves:   27860
 k-point 26 :   0.5000 0.3750 0.0000  plane waves:   27895
 k-point 27 :  -0.3750 0.3750 0.0000  plane waves:   27858
 k-point 28 :  -0.2500 0.3750 0.0000  plane waves:   27894
 k-point 29 :  -0.1250 0.3750 0.0000  plane waves:   27874
 k-point 30 :   0.0000 0.5000 0.0000  plane waves:   27932
 k-point 31 :   0.1250 0.5000 0.0000  plane waves:   27873
 k-point 32 :   0.2500 0.5000 0.0000  plane waves:   27875
 k-point 33 :   0.3750 0.5000 0.0000  plane waves:   27895
 k-point 34 :   0.5000 0.5000 0.0000  plane waves:   27910

 maximum and minimum number of plane-waves per node :     27959    27858

 maximum number of plane-waves:     27959
 maximum index in each direction: 
   IXMAX=   14   IYMAX=   13   IZMAX=   40
   IXMIN=  -14   IYMIN=  -14   IZMIN=  -40

 WARNING: aliasing errors must be expected set NGX to  58 to avoid them
 WARNING: aliasing errors must be expected set NGY to  56 to avoid them
 WARNING: aliasing errors must be expected set NGZ to 162 to avoid them
 aliasing errors are usually negligible using standard VASP settings
 and one can safely disregard these warnings

 serial   3D FFT for wavefunctions

 total amount of memory used by VASP on root node   650782. kBytes
========================================================================

   base      :      30000. kBytes
   nonl-proj :     559647. kBytes
   fftplans  :       2414. kBytes
   grid      :      12150. kBytes
   one-center:        419. kBytes
   wavefun   :      46152. kBytes
 
     INWAV:  cpu time    0.0000: real time    0.0000
 Broyden mixing: mesh for mixing (old mesh)
   NGX = 27   NGY = 27   NGZ = 81
  (NGX  = 84   NGY  = 84   NGZ  =252)
  gives a total of  59049 points

 initial charge density was supplied:
 charge density of overlapping atoms calculated
 number of electron     159.0000000 magnetization 
 keeping initial charge density in first step


--------------------------------------------------------------------------------------------------------


 Maximum index for augmentation-charges          146 (set IRDMAX)


--------------------------------------------------------------------------------------------------------


 First call to EWALD:  gamma=   0.129
 Maximum number of real-space cells 4x 4x 2
 Maximum number of reciprocal cells 2x 2x 5

 FEWALD executed in parallel
    FEWALD:  cpu time    0.0016: real time    0.0016


----------------------------------------- Iteration    1(   1)  ---------------------------------------


    POTLOK:  cpu time    0.0370: real time    0.0371
    SETDIJ:  cpu time    0.0032: real time    0.0033
     EDDAV:  cpu time   21.8494: real time   21.9053
       DOS:  cpu time    0.0005: real time    0.0015
    --------------------------------------------
      LOOP:  cpu time   21.8967: real time   21.9542

 eigenvalue-minimisations  :  8160
 total energy-change (2. order) : 0.1125621E+04  (-0.3598144E+04)
 number of electron     159.0000000 magnetization 
 augmentation part      159.0000000 magnetization 

 Free energy of the ion-electron system (eV)
  ---------------------------------------------------
  alpha Z        PSCENC =        81.65567618
  Ewald energy   TEWEN  =     41891.17177387
  -Hartree energ DENC   =    -47723.81765317
  -exchange      EXHF   =         0.00000000
  -V(xc)+E(xc)   XCENC  =      -242.92465024
  PAW double counting   =      3467.42045192    -2871.19716117
  entropy T*S    EENTRO =        -0.53902790
  eigenvalues    EBANDS =      -237.59095057
  atomic energy  EATOM  =      6761.44252427
  Solvation  Ediel_sol  =         0.00000000
  ---------------------------------------------------
  free energy    TOTEN  =      1125.62098320 eV

  energy without entropy =     1126.16001110  energy(sigma->0) =     1125.89049715


--------------------------------------------------------------------------------------------------------




----------------------------------------- Iteration    1(   2)  ---------------------------------------


     EDDAV:  cpu time   28.4721: real time   28.5405
       DOS:  cpu time    0.0000: real time    0.0009
    --------------------------------------------
      LOOP:  cpu time   28.4741: real time   28.5494

 eigenvalue-minimisations  : 11320
 total energy-change (2. order) :-0.1126175E+04  (-0.1081689E+04)
 number of electron     159.0000000 magnetization 
 augmentation part      159.0000000 magnetization 

 Free energy of the ion-electron system (eV)
  ---------------------------------------------------
  alpha Z        PSCENC =        81.65567618
  Ewald energy   TEWEN  =     41891.17177387
  -Hartree energ DENC   =    -47723.81765317
  -exchange      EXHF   =         0.00000000
  -V(xc)+E(xc)   XCENC  =      -242.92465024
  PAW double counting   =      3467.42045192    -2871.19716117
  entropy T*S    EENTRO =        -0.21834996
  eigenvalues    EBANDS =     -1364.08691030
  atomic energy  EATOM  =      6761.44252427
  Solvation  Ediel_sol  =         0.00000000
  ---------------------------------------------------
  free energy    TOTEN  =        -0.55429860 eV

  energy without entropy =       -0.33594864  energy(sigma->0) =       -0.44512362


--------------------------------------------------------------------------------------------------------




----------------------------------------- Iteration    1(   3)  ---------------------------------------


     EDDAV:  cpu time   27.5709: real time   27.6376
       DOS:  cpu time    0.0011: real time    0.0011
    --------------------------------------------
      LOOP:  cpu time   27.5731: real time   27.6460

 eigenvalue-minimisations  : 10880
 total energy-change (2. order) :-0.1991506E+03  (-0.1913124E+03)
 number of electron     159.0000000 magnetization 
 augmentation part      159.0000000 magnetization 

 Free energy of the ion-electron system (eV)
  ---------------------------------------------------
  alpha Z        PSCENC =        81.65567618
  Ewald energy   TEWEN  =     41891.17177387
  -Hartree energ DENC   =    -47723.81765317
  -exchange      EXHF   =         0.00000000
  -V(xc)+E(xc)   XCENC  =      -242.92465024
  PAW double counting   =      3467.42045192    -2871.19716117
  entropy T*S    EENTRO =        -0.26102503
  eigenvalues    EBANDS =     -1563.19486669
  atomic energy  EATOM  =      6761.44252427
  Solvation  Ediel_sol  =         0.00000000
  ---------------------------------------------------
  free energy    TOTEN  =      -199.70493005 eV

  energy without entropy =     -199.44390502  energy(sigma->0) =     -199.57441754


--------------------------------------------------------------------------------------------------------




----------------------------------------- Iteration    1(   4)  ---------------------------------------


     EDDAV:  cpu time   29.8810: real time   29.9533
       DOS:  cpu time    0.0011: real time    0.0011
    --------------------------------------------
      LOOP:  cpu time   29.8832: real time   29.9610

 eigenvalue-minimisations  : 12000
 total energy-change (2. order) :-0.9247831E+01  (-0.8976880E+01)
 number of electron     159.0000000 magnetization 
 augmentation part      159.0000000 magnetization 

 Free energy of the ion-electron system (eV)
  ---------------------------------------------------
  alpha Z        PSCENC =        81.65567618
  Ewald energy   TEWEN  =     41891.17177387
  -Hartree energ DENC   =    -47723.81765317
  -exchange      EXHF   =         0.00000000
  -V(xc)+E(xc)   XCENC  =      -242.92465024
  PAW double counting   =      3467.42045192    -2871.19716117
  entropy T*S    EENTRO =        -0.28806531
  eigenvalues    EBANDS =     -1572.41565787
  atomic energy  EATOM  =      6761.44252427
  Solvation  Ediel_sol  =         0.00000000
  ---------------------------------------------------
  free energy    TOTEN  =      -208.95276151 eV

  energy without entropy =     -208.66469620  energy(sigma->0) =     -208.80872886


--------------------------------------------------------------------------------------------------------




----------------------------------------- Iteration    1(   5)  ---------------------------------------


     EDDAV:  cpu time   28.6416: real time   28.7118
       DOS:  cpu time    0.0010: real time    0.0010
    CHARGE:  cpu time    0.4604: real time    0.4615
    MIXING:  cpu time    0.0016: real time    0.0017
    --------------------------------------------
      LOOP:  cpu time   29.1068: real time   29.1832

 eigenvalue-minimisations  : 11440
 total energy-change (2. order) :-0.3454015E+00  (-0.3445008E+00)
 number of electron     159.0000110 magnetization 
 augmentation part       -9.8115263 magnetization 

 Broyden mixing:
  rms(total) = 0.27499E+01    rms(broyden)= 0.27494E+01
  rms(prec ) = 0.29350E+01
  weight for this iteration     100.00

 Free energy of the ion-electron system (eV)
  ---------------------------------------------------
  alpha Z        PSCENC =        81.65567618
  Ewald energy   TEWEN  =     41891.17177387
  -Hartree energ DENC   =    -47723.81765317
  -exchange      EXHF   =         0.00000000
  -V(xc)+E(xc)   XCENC  =      -242.92465024
  PAW double counting   =      3467.42045192    -2871.19716117
  entropy T*S    EENTRO =        -0.28466602
  eigenvalues    EBANDS =     -1572.76445866
  atomic energy  EATOM  =      6761.44252427
  Solvation  Ediel_sol  =         0.00000000
  ---------------------------------------------------
  free energy    TOTEN  =      -209.29816302 eV

  energy without entropy =     -209.01349700  energy(sigma->0) =     -209.15583001


--------------------------------------------------------------------------------------------------------




----------------------------------------- Iteration    1(   6)  ---------------------------------------


    POTLOK:  cpu time    0.0337: real time    0.0341
    SETDIJ:  cpu time    0.0026: real time    0.0026
     EDDAV:  cpu time   31.0373: real time   31.1121
       DOS:  cpu time    0.0011: real time    0.0011
    CHARGE:  cpu time    0.4584: real time    0.4595
    MIXING:  cpu time    0.0022: real time    0.0022
    --------------------------------------------
      LOOP:  cpu time   31.5365: real time   31.6203

 eigenvalue-minimisations  : 12600
 total energy-change (2. order) :-0.2830372E+02  (-0.1054589E+02)
 number of electron     159.0000106 magnetization 
 augmentation part        7.0823382 magnetization 

 Broyden mixing:
  rms(total) = 0.59361E+01    rms(broyden)= 0.59354E+01
  rms(prec ) = 0.65450E+01
  weight for this iteration     100.00

 eigenvalues of (default mixing * dielectric matrix)
  average eigenvalue GAMMA=   0.2942
  0.2942

 Free energy of the ion-electron system (eV)
  ---------------------------------------------------
  alpha Z        PSCENC =        81.65567618
  Ewald energy   TEWEN  =     41891.17177387
  -Hartree energ DENC   =    -47702.08368663
  -exchange      EXHF   =         0.00000000
  -V(xc)+E(xc)   XCENC  =      -233.61968886
  PAW double counting   =      3676.23196918    -3082.31295096
  entropy T*S    EENTRO =        -0.25131193
  eigenvalues    EBANDS =     -1629.83618635
  atomic energy  EATOM  =      6761.44252427
  Solvation  Ediel_sol  =         0.00000000
  ---------------------------------------------------
  free energy    TOTEN  =      -237.60188123 eV

  energy without entropy =     -237.35056930  energy(sigma->0) =     -237.47622527


--------------------------------------------------------------------------------------------------------




----------------------------------------- Iteration    1(   7)  ---------------------------------------


    POTLOK:  cpu time    0.0304: real time    0.0305
    SETDIJ:  cpu time    0.0024: real time    0.0024
     EDDAV:  cpu time   32.3426: real time   32.4200
       DOS:  cpu time    0.0010: real time    0.0010
    CHARGE:  cpu time    0.4681: real time    0.4692
    MIXING:  cpu time    0.0012: real time    0.0012
    --------------------------------------------
      LOOP:  cpu time   32.8467: real time   32.9335

 eigenvalue-minimisations  : 13200
 total energy-change (2. order) : 0.4097267E+02  (-0.1758899E+02)
 number of electron     159.0000090 magnetization 
 augmentation part       -6.2609996 magnetization 

 Broyden mixing:
  rms(total) = 0.20016E+01    rms(broyden)= 0.19996E+01
  rms(prec ) = 0.22230E+01
  weight for this iteration     100.00

 eigenvalues of (default mixing * dielectric matrix)
  average eigenvalue GAMMA=   0.5514
  0.8915  0.2114

 Free energy of the ion-electron system (eV)
  ---------------------------------------------------
  alpha Z        PSCENC =        81.65567618
  Ewald energy   TEWEN  =     41891.17177387
  -Hartree energ DENC   =    -47739.15543311
  -exchange      EXHF   =         0.00000000
  -V(xc)+E(xc)   XCENC  =      -234.99264809
  PAW double counting   =      3763.72403778    -3177.75274558
  entropy T*S    EENTRO =        -0.37053320
  eigenvalues    EBANDS =     -1542.35185991
  atomic energy  EATOM  =      6761.44252427
  Solvation  Ediel_sol  =         0.00000000
  ---------------------------------------------------
  free energy    TOTEN  =      -196.62920777 eV

  energy without entropy =     -196.25867458  energy(sigma->0) =     -196.44394118


--------------------------------------------------------------------------------------------------------




----------------------------------------- Iteration    1(   8)  ---------------------------------------


    POTLOK:  cpu time    0.0316: real time    0.0319
    SETDIJ:  cpu time    0.0025: real time    0.0025
     EDDAV:  cpu time   29.8246: real time   29.8965
       DOS:  cpu time    0.0011: real time    0.0011
    CHARGE:  cpu time    0.4826: real time    0.4837
    MIXING:  cpu time    0.0011: real time    0.0011
    --------------------------------------------
      LOOP:  cpu time   30.3445: real time   30.4251

 eigenvalue-minimisations  : 11960
 total energy-change (2. order) : 0.7143812E+01  (-0.1827072E+01)
 number of electron     159.0000095 magnetization 
 augmentation part       -6.3737038 magnetization 

 Broyden mixing:
  rms(total) = 0.12500E+01    rms(broyden)= 0.12497E+01
  rms(prec ) = 0.13504E+01
  weight for this iteration     100.00

 eigenvalues of (default mixing * dielectric matrix)
  average eigenvalue GAMMA=   0.5970
  1.1550  0.2307  0.4054

 Free energy of the ion-electron system (eV)
  ---------------------------------------------------
  alpha Z        PSCENC =        81.65567618
  Ewald energy   TEWEN  =     41891.17177387
  -Hartree energ DENC   =    -47762.20744870
  -exchange      EXHF   =         0.00000000
  -V(xc)+E(xc)   XCENC  =      -235.00408909
  PAW double counting   =      3906.74287805    -3322.40281329
  entropy T*S    EENTRO =        -0.32299485
  eigenvalues    EBANDS =     -1510.56090262
  atomic energy  EATOM  =      6761.44252427
  Solvation  Ediel_sol  =         0.00000000
  ---------------------------------------------------
  free energy    TOTEN  =      -189.48539619 eV

  energy without entropy =     -189.16240134  energy(sigma->0) =     -189.32389876


--------------------------------------------------------------------------------------------------------




----------------------------------------- Iteration    1(   9)  ---------------------------------------


    POTLOK:  cpu time    0.0301: real time    0.0304
    SETDIJ:  cpu time    0.0023: real time    0.0023
     EDDAV:  cpu time   33.0093: real time   33.0895
       DOS:  cpu time    0.0010: real time    0.0010
    CHARGE:  cpu time    0.4790: real time    0.4802
    MIXING:  cpu time    0.0012: real time    0.0012
    --------------------------------------------
      LOOP:  cpu time   33.5251: real time   33.6131

 eigenvalue-minimisations  : 13480
 total energy-change (2. order) : 0.1418067E+01  (-0.3114963E+00)
 number of electron     159.0000090 magnetization 
 augmentation part       -5.5194329 magnetization 

 Broyden mixing:
  rms(total) = 0.89036E+00    rms(broyden)= 0.89018E+00
  rms(prec ) = 0.96492E+00
  weight for this iteration     100.00

 eigenvalues of (default mixing * dielectric matrix)
  average eigenvalue GAMMA=   0.7570
  1.8466  0.6327  0.2211  0.3277

 Free energy of the ion-electron system (eV)
  ---------------------------------------------------
  alpha Z        PSCENC =        81.65567618
  Ewald energy   TEWEN  =     41891.17177387
  -Hartree energ DENC   =    -47767.27327850
  -exchange      EXHF   =         0.00000000
  -V(xc)+E(xc)   XCENC  =      -234.06466448
  PAW double counting   =      3981.05559306    -3397.64785987
  entropy T*S    EENTRO =        -0.31825763
  eigenvalues    EBANDS =     -1504.08883606
  atomic energy  EATOM  =      6761.44252427
  Solvation  Ediel_sol  =         0.00000000
  ---------------------------------------------------
  free energy    TOTEN  =      -188.06732916 eV

  energy without entropy =     -187.74907153  energy(sigma->0) =     -187.90820034


--------------------------------------------------------------------------------------------------------




----------------------------------------- Iteration    1(  10)  ---------------------------------------


    POTLOK:  cpu time    0.0309: real time    0.0310
    SETDIJ:  cpu time    0.0025: real time    0.0025
     EDDAV:  cpu time   32.9862: real time   33.0657
       DOS:  cpu time    0.0011: real time    0.0011
    CHARGE:  cpu time    0.4987: real time    0.4999
    MIXING:  cpu time    0.0013: real time    0.0013
    --------------------------------------------
      LOOP:  cpu time   33.5217: real time   33.6099

 eigenvalue-minimisations  : 13480
 total energy-change (2. order) : 0.1145865E+01  (-0.1591312E+00)
 number of electron     159.0000092 magnetization 
 augmentation part       -4.2156585 magnetization 

 Broyden mixing:
  rms(total) = 0.19593E+00    rms(broyden)= 0.19526E+00
  rms(prec ) = 0.20645E+00
  weight for this iteration     100.00

 eigenvalues of (default mixing * dielectric matrix)
  average eigenvalue GAMMA=   0.9473
  1.7813  1.7813  0.6468  0.2213  0.3057

 Free energy of the ion-electron system (eV)
  ---------------------------------------------------
  alpha Z        PSCENC =        81.65567618
  Ewald energy   TEWEN  =     41891.17177387
  -Hartree energ DENC   =    -47780.69622845
  -exchange      EXHF   =         0.00000000
  -V(xc)+E(xc)   XCENC  =      -232.54147047
  PAW double counting   =      4109.36224073    -3527.53504696
  entropy T*S    EENTRO =        -0.35187923
  eigenvalues    EBANDS =     -1489.42905440
  atomic energy  EATOM  =      6761.44252427
  Solvation  Ediel_sol  =         0.00000000
  ---------------------------------------------------
  free energy    TOTEN  =      -186.92146445 eV

  energy without entropy =     -186.56958522  energy(sigma->0) =     -186.74552483


--------------------------------------------------------------------------------------------------------




----------------------------------------- Iteration    1(  11)  ---------------------------------------


    POTLOK:  cpu time    0.0296: real time    0.0308
    SETDIJ:  cpu time    0.0024: real time    0.0024
     EDDAV:  cpu time   33.2295: real time   33.3096
       DOS:  cpu time    0.0010: real time    0.0010
    CHARGE:  cpu time    0.4998: real time    0.5010
    MIXING:  cpu time    0.0013: real time    0.0013
    --------------------------------------------
      LOOP:  cpu time   33.7657: real time   33.8548

 eigenvalue-minimisations  : 13600
 total energy-change (2. order) :-0.1236154E-01  (-0.4250572E-01)
 number of electron     159.0000087 magnetization 
 augmentation part       -4.6196703 magnetization 

 Broyden mixing:
  rms(total) = 0.30047E+00    rms(broyden)= 0.30039E+00
  rms(prec ) = 0.33428E+00
  weight for this iteration     100.00

 eigenvalues of (default mixing * dielectric matrix)
  average eigenvalue GAMMA=   0.9612
  2.1924  1.7356  0.6550  0.6550  0.2209  0.3084

 Free energy of the ion-electron system (eV)
  ---------------------------------------------------
  alpha Z        PSCENC =        81.65567618
  Ewald energy   TEWEN  =     41891.17177387
  -Hartree energ DENC   =    -47795.15441826
  -exchange      EXHF   =         0.00000000
  -V(xc)+E(xc)   XCENC  =      -232.08658577
  PAW double counting   =      4173.89368681    -3592.17852895
  entropy T*S    EENTRO =        -0.32583297
  eigenvalues    EBANDS =     -1475.35212117
  atomic energy  EATOM  =      6761.44252427
  Solvation  Ediel_sol  =         0.00000000
  ---------------------------------------------------
  free energy    TOTEN  =      -186.93382599 eV

  energy without entropy =     -186.60799302  energy(sigma->0) =     -186.77090950


--------------------------------------------------------------------------------------------------------




----------------------------------------- Iteration    1(  12)  ---------------------------------------


    POTLOK:  cpu time    0.0319: real time    0.0319
    SETDIJ:  cpu time    0.0025: real time    0.0025
     EDDAV:  cpu time   32.9805: real time   33.0596
       DOS:  cpu time    0.0010: real time    0.0010
    CHARGE:  cpu time    0.4994: real time    0.5005
    MIXING:  cpu time    0.0014: real time    0.0014
    --------------------------------------------
      LOOP:  cpu time   33.5176: real time   33.6058

 eigenvalue-minimisations  : 13480
 total energy-change (2. order) : 0.7777447E-01  (-0.2526043E-01)
 number of electron     159.0000088 magnetization 
 augmentation part       -4.1864781 magnetization 

 Broyden mixing:
  rms(total) = 0.13058E+00    rms(broyden)= 0.13027E+00
  rms(prec ) = 0.14959E+00
  weight for this iteration     100.00

 eigenvalues of (default mixing * dielectric matrix)
  average eigenvalue GAMMA=   0.8843
  2.2477  1.7253  0.7744  0.6583  0.2208  0.3080  0.2554

 Free energy of the ion-electron system (eV)
  ---------------------------------------------------
  alpha Z        PSCENC =        81.65567618
  Ewald energy   TEWEN  =     41891.17177387
  -Hartree energ DENC   =    -47801.22435006
  -exchange      EXHF   =         0.00000000
  -V(xc)+E(xc)   XCENC  =      -231.92140500
  PAW double counting   =      4189.56772320    -3607.76768160
  entropy T*S    EENTRO =        -0.33998860
  eigenvalues    EBANDS =     -1469.44032378
  atomic energy  EATOM  =      6761.44252427
  Solvation  Ediel_sol  =         0.00000000
  ---------------------------------------------------
  free energy    TOTEN  =      -186.85605152 eV

  energy without entropy =     -186.51606292  energy(sigma->0) =     -186.68605722


--------------------------------------------------------------------------------------------------------




----------------------------------------- Iteration    1(  13)  ---------------------------------------


    POTLOK:  cpu time    0.0305: real time    0.0306
    SETDIJ:  cpu time    0.0023: real time    0.0023
     EDDAV:  cpu time   30.8999: real time   30.9743
       DOS:  cpu time    0.0010: real time    0.0010
    CHARGE:  cpu time    0.4988: real time    0.5000
    MIXING:  cpu time    0.0013: real time    0.0013
    --------------------------------------------
      LOOP:  cpu time   31.4349: real time   31.5181

 eigenvalue-minimisations  : 12480
 total energy-change (2. order) : 0.2495042E-01  (-0.6850910E-02)
 number of electron     159.0000089 magnetization 
 augmentation part       -4.1023097 magnetization 

 Broyden mixing:
  rms(total) = 0.90540E-01    rms(broyden)= 0.90437E-01
  rms(prec ) = 0.10094E+00
  weight for this iteration     100.00

 eigenvalues of (default mixing * dielectric matrix)
  average eigenvalue GAMMA=   0.8132
  2.2456  1.7523  0.8252  0.6422  0.3140  0.3114  0.2207  0.1941

 Free energy of the ion-electron system (eV)
  ---------------------------------------------------
  alpha Z        PSCENC =        81.65567618
  Ewald energy   TEWEN  =     41891.17177387
  -Hartree energ DENC   =    -47803.57525664
  -exchange      EXHF   =         0.00000000
  -V(xc)+E(xc)   XCENC  =      -231.87696220
  PAW double counting   =      4191.84549561    -3610.00157589
  entropy T*S    EENTRO =        -0.34284320
  eigenvalues    EBANDS =     -1467.14993310
  atomic energy  EATOM  =      6761.44252427
  Solvation  Ediel_sol  =         0.00000000
  ---------------------------------------------------
  free energy    TOTEN  =      -186.83110110 eV

  energy without entropy =     -186.48825790  energy(sigma->0) =     -186.65967950


--------------------------------------------------------------------------------------------------------




----------------------------------------- Iteration    1(  14)  ---------------------------------------


    POTLOK:  cpu time    0.0302: real time    0.0303
    SETDIJ:  cpu time    0.0024: real time    0.0024
     EDDAV:  cpu time   32.7671: real time   32.8461
       DOS:  cpu time    0.0010: real time    0.0010
    CHARGE:  cpu time    0.5015: real time    0.5027
    MIXING:  cpu time    0.0015: real time    0.0015
    --------------------------------------------
      LOOP:  cpu time   33.3047: real time   33.3931

 eigenvalue-minimisations  : 13400
 total energy-change (2. order) : 0.2002935E-02  (-0.2156600E-02)
 number of electron     159.0000089 magnetization 
 augmentation part       -4.1293583 magnetization 

 Broyden mixing:
  rms(total) = 0.76663E-01    rms(broyden)= 0.76628E-01
  rms(prec ) = 0.85549E-01
  weight for this iteration     100.00

 eigenvalues of (default mixing * dielectric matrix)
  average eigenvalue GAMMA=   0.8328
  2.2051  1.9639  1.1257  0.6473  0.6473  0.3080  0.2209  0.2546  0.1225

 Free energy of the ion-electron system (eV)
  ---------------------------------------------------
  alpha Z        PSCENC =        81.65567618
  Ewald energy   TEWEN  =     41891.17177387
  -Hartree energ DENC   =    -47804.98331709
  -exchange      EXHF   =         0.00000000
  -V(xc)+E(xc)   XCENC  =      -231.85849594
  PAW double counting   =      4192.27317812    -3610.40874384
  entropy T*S    EENTRO =        -0.34207806
  eigenvalues    EBANDS =     -1465.77961568
  atomic energy  EATOM  =      6761.44252427
  Solvation  Ediel_sol  =         0.00000000
  ---------------------------------------------------
  free energy    TOTEN  =      -186.82909817 eV

  energy without entropy =     -186.48702011  energy(sigma->0) =     -186.65805914


--------------------------------------------------------------------------------------------------------




----------------------------------------- Iteration    1(  15)  ---------------------------------------


    POTLOK:  cpu time    0.0310: real time    0.0311
    SETDIJ:  cpu time    0.0025: real time    0.0025
     EDDAV:  cpu time   32.3381: real time   32.4155
       DOS:  cpu time    0.0004: real time    0.0012
    CHARGE:  cpu time    0.5007: real time    0.5019
    MIXING:  cpu time    0.0016: real time    0.0016
    --------------------------------------------
      LOOP:  cpu time   32.8761: real time   32.9621

 eigenvalue-minimisations  : 13200
 total energy-change (2. order) : 0.5814997E-02  (-0.1234983E-02)
 number of electron     159.0000089 magnetization 
 augmentation part       -4.2100329 magnetization 

 Broyden mixing:
  rms(total) = 0.17870E-01    rms(broyden)= 0.17778E-01
  rms(prec ) = 0.21582E-01
  weight for this iteration     100.00

 eigenvalues of (default mixing * dielectric matrix)
  average eigenvalue GAMMA=   0.8946
  2.2707  2.2707  1.3559  0.9022  0.6236  0.6236  0.3083  0.2209  0.2505  0.1199

 Free energy of the ion-electron system (eV)
  ---------------------------------------------------
  alpha Z        PSCENC =        81.65567618
  Ewald energy   TEWEN  =     41891.17177387
  -Hartree energ DENC   =    -47809.24249083
  -exchange      EXHF   =         0.00000000
  -V(xc)+E(xc)   XCENC  =      -231.80324573
  PAW double counting   =      4193.35244298    -3611.43215478
  entropy T*S    EENTRO =        -0.33970571
  eigenvalues    EBANDS =     -1461.62810342
  atomic energy  EATOM  =      6761.44252427
  Solvation  Ediel_sol  =         0.00000000
  ---------------------------------------------------
  free energy    TOTEN  =      -186.82328317 eV

  energy without entropy =     -186.48357746  energy(sigma->0) =     -186.65343032


--------------------------------------------------------------------------------------------------------




----------------------------------------- Iteration    1(  16)  ---------------------------------------


    POTLOK:  cpu time    0.0290: real time    0.0303
    SETDIJ:  cpu time    0.0024: real time    0.0024
     EDDAV:  cpu time   30.0687: real time   30.1407
       DOS:  cpu time    0.0010: real time    0.0010
    CHARGE:  cpu time    0.5011: real time    0.5022
    MIXING:  cpu time    0.0017: real time    0.0017
    --------------------------------------------
      LOOP:  cpu time   30.6060: real time   30.6861

 eigenvalue-minimisations  : 12120
 total energy-change (2. order) : 0.1982221E-03  (-0.3073218E-03)
 number of electron     159.0000089 magnetization 
 augmentation part       -4.2056025 magnetization 

 Broyden mixing:
  rms(total) = 0.20701E-01    rms(broyden)= 0.20687E-01
  rms(prec ) = 0.24186E-01
  weight for this iteration     100.00

 eigenvalues of (default mixing * dielectric matrix)
  average eigenvalue GAMMA=   0.8609
  2.3190  2.3190  1.3939  0.9959  0.6334  0.6334  0.3086  0.2209  0.2782  0.2481
  0.1198

 Free energy of the ion-electron system (eV)
  ---------------------------------------------------
  alpha Z        PSCENC =        81.65567618
  Ewald energy   TEWEN  =     41891.17177387
  -Hartree energ DENC   =    -47814.26574419
  -exchange      EXHF   =         0.00000000
  -V(xc)+E(xc)   XCENC  =      -231.74034860
  PAW double counting   =      4194.41408122    -3612.44670096
  entropy T*S    EENTRO =        -0.33973905
  eigenvalues    EBANDS =     -1456.71460771
  atomic energy  EATOM  =      6761.44252427
  Solvation  Ediel_sol  =         0.00000000
  ---------------------------------------------------
  free energy    TOTEN  =      -186.82308495 eV

  energy without entropy =     -186.48334591  energy(sigma->0) =     -186.65321543


--------------------------------------------------------------------------------------------------------




----------------------------------------- Iteration    1(  17)  ---------------------------------------


    POTLOK:  cpu time    0.0307: real time    0.0310
    SETDIJ:  cpu time    0.0025: real time    0.0025
     EDDAV:  cpu time   31.3224: real time   31.3979
       DOS:  cpu time    0.0011: real time    0.0011
    CHARGE:  cpu time    0.5010: real time    0.5022
    MIXING:  cpu time    0.0018: real time    0.0018
    --------------------------------------------
      LOOP:  cpu time   31.8608: real time   31.9442

 eigenvalue-minimisations  : 12680
 total energy-change (2. order) : 0.1405723E-03  (-0.2928351E-03)
 number of electron     159.0000089 magnetization 
 augmentation part       -4.1952569 magnetization 

 Broyden mixing:
  rms(total) = 0.26227E-01    rms(broyden)= 0.26213E-01
  rms(prec ) = 0.29681E-01
  weight for this iteration     100.00

 eigenvalues of (default mixing * dielectric matrix)
  average eigenvalue GAMMA=   0.8257
  2.3467  2.3467  1.4101  1.0713  0.6444  0.6444  0.4147  0.3081  0.2209  0.2498
  0.1198  0.1315

 Free energy of the ion-electron system (eV)
  ---------------------------------------------------
  alpha Z        PSCENC =        81.65567618
  Ewald energy   TEWEN  =     41891.17177387
  -Hartree energ DENC   =    -47816.15299175
  -exchange      EXHF   =         0.00000000
  -V(xc)+E(xc)   XCENC  =      -231.72062464
  PAW double counting   =      4194.46913520    -3612.48975028
  entropy T*S    EENTRO =        -0.33998505
  eigenvalues    EBANDS =     -1454.85870217
  atomic energy  EATOM  =      6761.44252427
  Solvation  Ediel_sol  =         0.00000000
  ---------------------------------------------------
  free energy    TOTEN  =      -186.82294438 eV

  energy without entropy =     -186.48295932  energy(sigma->0) =     -186.65295185


--------------------------------------------------------------------------------------------------------




----------------------------------------- Iteration    1(  18)  ---------------------------------------


    POTLOK:  cpu time    0.0304: real time    0.0304
    SETDIJ:  cpu time    0.0023: real time    0.0023
     EDDAV:  cpu time   25.3178: real time   25.3784
       DOS:  cpu time    0.0011: real time    0.0011
    CHARGE:  cpu time    0.4993: real time    0.5005
    MIXING:  cpu time    0.0019: real time    0.0019
    --------------------------------------------
      LOOP:  cpu time   25.8538: real time   25.9232

 eigenvalue-minimisations  :  9800
 total energy-change (2. order) : 0.5198904E-03  (-0.1459121E-03)
 number of electron     159.0000089 magnetization 
 augmentation part       -4.1902665 magnetization 

 Broyden mixing:
  rms(total) = 0.69731E-02    rms(broyden)= 0.69502E-02
  rms(prec ) = 0.97650E-02
  weight for this iteration     100.00

 eigenvalues of (default mixing * dielectric matrix)
  average eigenvalue GAMMA=   0.8682
  2.4706  2.4706  1.4675  1.3047  0.9250  0.6320  0.6320  0.3618  0.3082  0.2209
  0.2498  0.1197  0.1242

 Free energy of the ion-electron system (eV)
  ---------------------------------------------------
  alpha Z        PSCENC =        81.65567618
  Ewald energy   TEWEN  =     41891.17177387
  -Hartree energ DENC   =    -47817.47248928
  -exchange      EXHF   =         0.00000000
  -V(xc)+E(xc)   XCENC  =      -231.70851831
  PAW double counting   =      4194.36646081    -3612.38065841
  entropy T*S    EENTRO =        -0.34011490
  eigenvalues    EBANDS =     -1453.55707873
  atomic energy  EATOM  =      6761.44252427
  Solvation  Ediel_sol  =         0.00000000
  ---------------------------------------------------
  free energy    TOTEN  =      -186.82242449 eV

  energy without entropy =     -186.48230959  energy(sigma->0) =     -186.65236704


--------------------------------------------------------------------------------------------------------




----------------------------------------- Iteration    1(  19)  ---------------------------------------


    POTLOK:  cpu time    0.0298: real time    0.0302
    SETDIJ:  cpu time    0.0023: real time    0.0023
     EDDAV:  cpu time   27.3164: real time   27.3823
       DOS:  cpu time    0.0010: real time    0.0010
    CHARGE:  cpu time    0.5018: real time    0.5030
    MIXING:  cpu time    0.0019: real time    0.0019
    --------------------------------------------
      LOOP:  cpu time   27.8544: real time   27.9296

 eigenvalue-minimisations  : 10840
 total energy-change (2. order) :-0.5483799E-03  (-0.7776405E-04)
 number of electron     159.0000089 magnetization 
 augmentation part       -4.1946269 magnetization 

 Broyden mixing:
  rms(total) = 0.88124E-02    rms(broyden)= 0.88058E-02
  rms(prec ) = 0.10952E-01
  weight for this iteration     100.00

 eigenvalues of (default mixing * dielectric matrix)
  average eigenvalue GAMMA=   0.8731
  2.6194  2.6194  1.6501  1.4049  0.9774  0.6353  0.6353  0.3810  0.3083  0.2209
  0.2499  0.2774  0.1196  0.1239

 Free energy of the ion-electron system (eV)
  ---------------------------------------------------
  alpha Z        PSCENC =        81.65567618
  Ewald energy   TEWEN  =     41891.17177387
  -Hartree energ DENC   =    -47821.78539225
  -exchange      EXHF   =         0.00000000
  -V(xc)+E(xc)   XCENC  =      -231.67442688
  PAW double counting   =      4193.57699776    -3611.57659810
  entropy T*S    EENTRO =        -0.33983482
  eigenvalues    EBANDS =     -1449.29369291
  atomic energy  EATOM  =      6761.44252427
  Solvation  Ediel_sol  =         0.00000000
  ---------------------------------------------------
  free energy    TOTEN  =      -186.82297287 eV

  energy without entropy =     -186.48313805  energy(sigma->0) =     -186.65305546


--------------------------------------------------------------------------------------------------------




----------------------------------------- Iteration    1(  20)  ---------------------------------------


    POTLOK:  cpu time    0.0309: real time    0.0312
    SETDIJ:  cpu time    0.0025: real time    0.0025
     EDDAV:  cpu time   21.5464: real time   21.5983
       DOS:  cpu time    0.0011: real time    0.0011
    CHARGE:  cpu time    0.5016: real time    0.5029
    MIXING:  cpu time    0.0020: real time    0.0020
    --------------------------------------------
      LOOP:  cpu time   22.0857: real time   22.1464

 eigenvalue-minimisations  :  8000
 total energy-change (2. order) :-0.3313365E-03  (-0.4250542E-04)
 number of electron     159.0000089 magnetization 
 augmentation part       -4.1962886 magnetization 

 Broyden mixing:
  rms(total) = 0.42771E-02    rms(broyden)= 0.42674E-02
  rms(prec ) = 0.57658E-02
  weight for this iteration     100.00

 eigenvalues of (default mixing * dielectric matrix)
  average eigenvalue GAMMA=   0.9572
  3.3661  2.3950  2.0509  1.5696  1.0260  1.0260  0.6369  0.6369  0.3751  0.3082
  0.2209  0.2498  0.2524  0.1196  0.1239

 Free energy of the ion-electron system (eV)
  ---------------------------------------------------
  alpha Z        PSCENC =        81.65567618
  Ewald energy   TEWEN  =     41891.17177387
  -Hartree energ DENC   =    -47824.44127314
  -exchange      EXHF   =         0.00000000
  -V(xc)+E(xc)   XCENC  =      -231.65388091
  PAW double counting   =      4193.12216598    -3611.11511484
  entropy T*S    EENTRO =        -0.33969763
  eigenvalues    EBANDS =     -1446.66547798
  atomic energy  EATOM  =      6761.44252427
  Solvation  Ediel_sol  =         0.00000000
  ---------------------------------------------------
  free energy    TOTEN  =      -186.82330420 eV

  energy without entropy =     -186.48360657  energy(sigma->0) =     -186.65345539


--------------------------------------------------------------------------------------------------------




----------------------------------------- Iteration    1(  21)  ---------------------------------------


    POTLOK:  cpu time    0.0303: real time    0.0306
    SETDIJ:  cpu time    0.0023: real time    0.0023
     EDDAV:  cpu time   23.6912: real time   23.7479
       DOS:  cpu time    0.0011: real time    0.0011
    CHARGE:  cpu time    0.5006: real time    0.5018
    MIXING:  cpu time    0.0019: real time    0.0019
    --------------------------------------------
      LOOP:  cpu time   24.2286: real time   24.2943

 eigenvalue-minimisations  :  9080
 total energy-change (2. order) :-0.1260438E-02  (-0.2951534E-04)
 number of electron     159.0000089 magnetization 
 augmentation part       -4.1887799 magnetization 

 Broyden mixing:
  rms(total) = 0.23406E-02    rms(broyden)= 0.23384E-02
  rms(prec ) = 0.31444E-02
  weight for this iteration     100.00

 eigenvalues of (default mixing * dielectric matrix)
  average eigenvalue GAMMA=   1.0739
  4.4080  2.4188  2.4188  1.7221  1.1900  1.1900  0.9138  0.6353  0.6353  0.3750
  0.3082  0.2209  0.2496  0.2521  0.1196  0.1239

 Free energy of the ion-electron system (eV)
  ---------------------------------------------------
  alpha Z        PSCENC =        81.65567618
  Ewald energy   TEWEN  =     41891.17177387
  -Hartree energ DENC   =    -47828.63015761
  -exchange      EXHF   =         0.00000000
  -V(xc)+E(xc)   XCENC  =      -231.62358106
  PAW double counting   =      4192.59860045    -3610.59046750
  entropy T*S    EENTRO =        -0.33978980
  eigenvalues    EBANDS =     -1442.50914345
  atomic energy  EATOM  =      6761.44252427
  Solvation  Ediel_sol  =         0.00000000
  ---------------------------------------------------
  free energy    TOTEN  =      -186.82456464 eV

  energy without entropy =     -186.48477484  energy(sigma->0) =     -186.65466974


--------------------------------------------------------------------------------------------------------




----------------------------------------- Iteration    1(  22)  ---------------------------------------


    POTLOK:  cpu time    0.0306: real time    0.0307
    SETDIJ:  cpu time    0.0023: real time    0.0023
     EDDAV:  cpu time   21.2076: real time   21.2583
       DOS:  cpu time    0.0012: real time    0.0012
    CHARGE:  cpu time    0.5012: real time    0.5024
    MIXING:  cpu time    0.0020: real time    0.0020
    --------------------------------------------
      LOOP:  cpu time   21.7459: real time   21.8051

 eigenvalue-minimisations  :  7840
 total energy-change (2. order) :-0.1244633E-02  (-0.1038605E-04)
 number of electron     159.0000089 magnetization 
 augmentation part       -4.1919361 magnetization 

 Broyden mixing:
  rms(total) = 0.88599E-03    rms(broyden)= 0.88545E-03
  rms(prec ) = 0.13252E-02
  weight for this iteration     100.00

 eigenvalues of (default mixing * dielectric matrix)
  average eigenvalue GAMMA=   1.1846
  5.6012  2.7593  2.4752  1.8263  1.5001  1.0579  1.0579  0.9387  0.6357  0.6357
  0.3750  0.3082  0.2209  0.2496  0.2521  0.1196  0.1239

 Free energy of the ion-electron system (eV)
  ---------------------------------------------------
  alpha Z        PSCENC =        81.65567618
  Ewald energy   TEWEN  =     41891.17177387
  -Hartree energ DENC   =    -47831.42491205
[...]
    104      -0.4793      0.00000
    105      -0.4059      0.00000
    106      -0.2765      0.00000
    107      -0.2174      0.00000
    108      -0.1643      0.00000
    109       0.0134      0.00000
    110       0.2725      0.00000
    111       0.3494      0.00000
    112       0.5604      0.00000
    113       0.6390      0.00000
    114       0.8545      0.00000
    115       1.1227      0.00000
    116       1.2962      0.00000
    117       1.3561      0.00000
    118       2.1368      0.00000
    119       2.3011      0.00000
    120       2.3935      0.00000

 k-point    34 :       0.5000    0.5000    0.0000
  band No.  band energies     occupation 
      1     -17.4864      2.00000
      2     -17.2814      2.00000
      3     -16.7077      2.00000
      4     -16.6498      2.00000
      5     -16.5005      2.00000
      6     -16.4054      2.00000
      7     -16.1699      2.00000
      8     -16.1684      2.00000
      9     -16.1646      2.00000
     10     -16.0272      2.00000
     11     -15.9342      2.00000
     12     -15.7407      2.00000
     13     -15.7280      2.00000
     14     -15.6754      2.00000
     15     -15.6628      2.00000
     16     -15.5429      2.00000
     17     -15.5272      2.00000
     18     -15.4903      2.00000
     19      -9.7624      2.00000
     20      -9.2754      2.00000
     21      -9.2638      2.00000
     22      -9.0356      2.00000
     23      -8.8959      2.00000
     24      -8.8592      2.00000
     25      -8.5821      2.00000
     26      -8.5088      2.00000
     27      -8.3862      2.00000
     28      -8.2845      2.00000
     29      -8.2392      2.00000
     30      -8.1472      2.00000
     31      -8.0827      2.00000
     32      -7.9626      2.00000
     33      -7.9624      2.00000
     34      -7.8056      2.00000
     35      -7.7372      2.00000
     36      -7.6702      2.00000
     37      -7.6019      2.00000
     38      -7.3337      2.00000
     39      -7.3229      2.00000
     40      -7.2729      2.00000
     41      -7.0392      2.00000
     42      -7.0135      2.00000
     43      -6.9148      2.00000
     44      -6.8991      2.00000
     45      -6.8777      2.00000
     46      -6.7485      2.00000
     47      -6.6844      2.00000
     48      -6.6347      2.00000
     49      -6.6143      2.00000
     50      -6.5738      2.00000
     51      -6.3483      2.00000
     52      -6.3237      2.00000
     53      -6.2308      2.00000
     54      -6.1656      2.00000
     55      -6.1375      2.00000
     56      -6.0931      2.00000
     57      -6.0645      2.00000
     58      -5.9433      2.00000
     59      -5.9283      2.00000
     60      -5.8247      2.00000
     61      -5.7962      2.00000
     62      -5.6486      2.00000
     63      -5.5624      2.00000
     64      -5.5071      2.00000
     65      -5.4939      2.00000
     66      -5.0311      2.00000
     67      -4.9619      2.00000
     68      -4.8129      2.00000
     69      -4.7432      2.00000
     70      -4.7118      2.00000
     71      -4.6147      2.00000
     72      -4.5555      2.00000
     73      -4.3280      2.00000
     74      -4.2352      2.00000
     75      -3.9583      2.00000
     76      -3.8893      2.00000
     77      -3.8184      1.99999
     78      -3.5976      1.99716
     79      -3.5521      1.99225
     80      -3.0653      0.43586
     81      -3.0602      0.41505
     82      -2.9279      0.07993
     83      -2.7392      0.00204
     84      -2.7267      0.00151
     85      -2.5869      0.00003
     86      -2.5624      0.00001
     87      -2.4880      0.00000
     88      -2.4043      0.00000
     89      -2.1460      0.00000
     90      -2.1345      0.00000
     91      -1.8972      0.00000
     92      -1.8962      0.00000
     93      -1.8049      0.00000
     94      -1.3383      0.00000
     95      -1.1560      0.00000
     96      -1.0994      0.00000
     97      -0.9857      0.00000
     98      -0.9595      0.00000
     99      -0.8312      0.00000
    100      -0.7682      0.00000
    101      -0.7665      0.00000
    102      -0.7073      0.00000
    103      -0.5349      0.00000
    104      -0.4816      0.00000
    105      -0.4671      0.00000
    106      -0.2825      0.00000
    107      -0.2620      0.00000
    108      -0.1413      0.00000
    109       0.0205      0.00000
    110       0.3227      0.00000
    111       0.3871      0.00000
    112       0.5474      0.00000
    113       0.6062      0.00000
    114       0.8807      0.00000
    115       1.0979      0.00000
    116       1.3427      0.00000
    117       1.3585      0.00000
    118       2.2258      0.00000
    119       2.2396      0.00000
    120       2.3669      0.00000


--------------------------------------------------------------------------------------------------------


 soft charge-density along one line, spin component           1
         0         1         2         3         4         5         6         7         8         9
 total charge-density along one line
 
 pseudopotential strength for first ion, spin component:           1
 -7.340  -0.035   0.000  -0.000  -0.000   0.711   0.009  -0.000
 -0.035  -7.290  -0.000  -0.000   0.000   0.009   0.695   0.000
  0.000  -0.000  -7.240  -0.018  -0.029  -0.000   0.000   0.682
 -0.000  -0.000  -0.018  -7.248  -0.017   0.000   0.000   0.005
 -0.000   0.000  -0.029  -0.017  -7.341   0.000  -0.000   0.009
  0.711   0.009  -0.000   0.000   0.000   0.322  -0.002   0.000
  0.009   0.695   0.000   0.000  -0.000  -0.002   0.327  -0.000
 -0.000   0.000   0.682   0.005   0.009   0.000  -0.000   0.329
  0.000   0.000   0.005   0.683   0.006  -0.000  -0.000  -0.002
  0.000  -0.000   0.009   0.006   0.711  -0.000   0.000  -0.003
  0.000   0.000  -0.016   0.009  -0.008  -0.000  -0.000   0.003
  0.000   0.000  -0.006   0.003  -0.002  -0.000  -0.000   0.001
 -0.003  -0.002   0.000   0.000   0.000   0.000   0.000  -0.000
  0.000   0.000  -0.001  -0.003   0.000  -0.000   0.000   0.000
 -0.000   0.000   0.001  -0.001  -0.002   0.000  -0.000  -0.000
 -0.003  -0.001   0.000   0.000   0.000   0.001   0.000  -0.000
  0.000   0.000   0.000  -0.002   0.000  -0.000   0.000  -0.000
 -0.000   0.000   0.001  -0.000  -0.001   0.000  -0.000  -0.000
 total augmentation occupancy for first ion, spin component:           1
  0.833   0.154  -0.000  -0.000  -0.000   0.412   0.256   0.000   0.000   0.000  -0.000   0.000  -0.010   0.001   0.000   0.001
  0.154   1.135  -0.000   0.000   0.000   0.252   0.616  -0.000   0.000   0.000   0.000  -0.000  -0.023   0.001   0.001  -0.001
 -0.000  -0.000   0.703  -0.069  -0.080   0.000  -0.000   0.265   0.004  -0.002   0.173   0.000   0.001   0.005  -0.013  -0.000
 -0.000   0.000  -0.069   1.073  -0.175  -0.000   0.000   0.001   0.610  -0.234   0.021  -0.000   0.001  -0.007  -0.013   0.000
 -0.000   0.000  -0.080  -0.175   0.776  -0.000   0.000  -0.006  -0.235   0.401  -0.045   0.002   0.001   0.003   0.012  -0.000
  0.412   0.252   0.000  -0.000  -0.000   0.355   0.228  -0.000  -0.000   0.000   0.000   0.000  -0.008   0.001   0.000  -0.000
  0.256   0.616  -0.000   0.000   0.000   0.228   0.549  -0.000   0.000   0.000  -0.000  -0.000  -0.027   0.001   0.001  -0.002
  0.000  -0.000   0.265   0.001  -0.006  -0.000  -0.000   0.234  -0.005  -0.000   0.018   0.005  -0.000  -0.001  -0.005   0.000
  0.000   0.000   0.004   0.610  -0.235  -0.000   0.000  -0.005   0.536  -0.215   0.027   0.001   0.001  -0.018  -0.005   0.000
  0.000   0.000  -0.002  -0.234   0.401   0.000   0.000  -0.000  -0.215   0.355   0.001  -0.001  -0.000   0.012   0.002  -0.000
 -0.000   0.000   0.173   0.021  -0.045   0.000  -0.000   0.018   0.027   0.001   1.387   0.127   0.001  -0.023   0.005   0.000
  0.000  -0.000   0.000  -0.000   0.002   0.000  -0.000   0.005   0.001  -0.001   0.127   0.024   0.000  -0.001  -0.002   0.000
 -0.010  -0.023   0.001   0.001   0.001  -0.008  -0.027  -0.000   0.001  -0.000   0.001   0.000   0.368  -0.000   0.000   0.025
  0.001   0.001   0.005  -0.007   0.003   0.001   0.001  -0.001  -0.018   0.012  -0.023  -0.001  -0.000   0.411   0.011  -0.000
  0.000   0.001  -0.013  -0.013   0.012   0.000   0.001  -0.005  -0.005   0.002   0.005  -0.002   0.000   0.011   0.338   0.000
  0.001  -0.001  -0.000   0.000  -0.000  -0.000  -0.002   0.000   0.000  -0.000   0.000   0.000   0.025  -0.000   0.000   0.003
  0.000   0.000  -0.000   0.001   0.000   0.000   0.000  -0.000  -0.001   0.001  -0.001  -0.000  -0.000   0.028   0.000  -0.000
  0.000   0.000  -0.001  -0.000   0.001   0.000   0.000  -0.001  -0.001   0.001  -0.000  -0.000   0.000   0.000   0.026   0.000


------------------------ aborting loop because EDIFF is reached ----------------------------------------


    CHARGE:  cpu time    0.4627: real time    0.4638
    FORLOC:  cpu time    0.0063: real time    0.0063
    FORNL :  cpu time    5.2546: real time    5.2672
    STRESS:  cpu time   32.2640: real time   32.3412
    FORCOR:  cpu time    0.0339: real time    0.0340
    FORHAR:  cpu time    0.0123: real time    0.0123
    MIXING:  cpu time    0.0011: real time    0.0011
    OFIELD:  cpu time    0.0000: real time    0.0000

  FORCE on cell =-STRESS in cart. coord.  units (eV):
  Direction    XX          YY          ZZ          XY          YZ          ZX
  --------------------------------------------------------------------------------------
  Alpha Z    88.67916    88.67916    88.67916
  Ewald   48924.22377 48924.43711-53871.84272     0.16677     0.04131     0.08956
  Hartree 49640.94073 49641.03397-49298.17428     0.09833    -0.00063     0.01880
  E(xc)    -609.83172  -609.83774  -616.89116    -0.00057     0.00058    -0.00141
  Local  ************************100612.94605    -0.25683    -0.02706    -0.12322
  n-local  1214.32838  1214.31520  1251.50367    -0.01775     0.01434     0.02189
  augment  -212.77101  -212.75568  -215.53892     0.00656    -0.00138    -0.00632
  Kinetic  2014.99428  2015.01193  2047.14930     0.00742    -0.02688    -0.00069
  Fock        0.00000     0.00000     0.00000     0.00000     0.00000     0.00000
  -------------------------------------------------------------------------------------
  Total       0.12149     0.12050    -2.16889     0.00392     0.00028    -0.00139
  in kB       0.08062     0.07997    -1.43941     0.00260     0.00019    -0.00092
  external pressure =       -0.43 kB  Pullay stress =        0.00 kB


 VOLUME and BASIS-vectors are now :
 -----------------------------------------------------------------------------
  energy-cutoff  :      280.00
  volume of cell :     2414.16
      direct lattice vectors                 reciprocal lattice vectors
     8.348065613  4.819494120  0.000000000     0.059895989  0.103742081  0.000000000
    -8.348325499  4.819945848  0.000000000    -0.059890376  0.103738852  0.000000000
     0.000000000  0.000000000 30.000000000     0.000000000  0.000000000  0.033333333

  length of vectors
     9.639383956  9.639834885 30.000000000     0.119791273  0.119785669  0.033333333


 FORCES acting on ions
    electron-ion (+dipol)            ewald-force                    non-local-force                 convergence-correction
 -----------------------------------------------------------------------------------------------
   -.115E+02 0.187E+00 0.260E+00   0.119E+02 -.189E+00 -.371E+00   -.438E+00 0.162E-01 0.109E+00   0.453E-01 -.659E-02 0.107E-02
   0.597E+01 -.100E+02 0.975E-01   -.616E+01 0.104E+02 -.205E+00   0.228E+00 -.378E+00 0.106E+00   -.378E-01 0.351E-01 0.309E-02
   0.587E+01 0.102E+02 0.172E+00   -.605E+01 -.106E+02 -.281E+00   0.211E+00 0.381E+00 0.108E+00   -.373E-01 -.476E-01 0.210E-02
   -.144E+02 -.247E+02 0.193E+01   0.138E+02 0.237E+02 -.217E+01   0.521E+00 0.898E+00 0.240E+00   0.140E-01 0.573E-02 -.445E-02
   0.286E+02 -.111E+00 0.193E+01   -.275E+02 0.937E-01 -.216E+01   -.104E+01 0.663E-03 0.247E+00   -.211E-01 0.182E-01 -.632E-02
   -.145E+02 0.247E+02 0.191E+01   0.140E+02 -.238E+02 -.216E+01   0.519E+00 -.893E+00 0.244E+00   0.318E-01 -.597E-03 -.521E-02
   -.146E+02 0.253E+02 -.400E+00   0.142E+02 -.246E+02 0.388E+00   0.373E+00 -.648E+00 0.643E-02   0.703E-02 -.216E-01 0.359E-02
   0.292E+02 -.825E-01 -.492E+00   -.284E+02 0.909E-01 0.481E+00   -.741E+00 -.686E-02 -.266E-02   -.123E-01 -.422E-02 0.415E-02
   -.146E+02 -.254E+02 -.302E+00   0.142E+02 0.247E+02 0.289E+00   0.369E+00 0.629E+00 0.932E-02   0.179E-01 0.319E-01 0.313E-02
   -.113E+02 -.576E+00 0.547E+03   0.117E+02 -.762E-02 -.551E+03   -.513E+00 0.639E+00 0.417E+01   0.602E-01 -.542E-01 0.148E-01
   -.428E+01 0.774E+01 -.526E+03   0.481E+01 -.861E+01 0.530E+03   -.540E+00 0.951E+00 -.411E+01   -.369E-02 -.752E-01 -.384E-01
   0.503E+01 -.102E+02 0.547E+03   -.577E+01 0.103E+02 -.552E+03   0.804E+00 -.124E+00 0.418E+01   -.636E-01 0.211E-01 0.878E-02
   0.689E+01 0.120E+02 -.580E+03   -.636E+01 -.111E+02 0.583E+03   -.553E+00 -.965E+00 -.376E+01   0.125E-01 0.112E-01 0.138E-01
   0.117E+00 0.153E+00 0.521E+03   -.924E-01 -.127E+00 -.526E+03   0.744E-02 0.136E-02 0.406E+01   -.349E-01 -.288E-01 0.723E-01
   0.881E+01 -.360E-02 -.525E+03   -.983E+01 0.222E-01 0.530E+03   0.109E+01 0.854E-02 -.411E+01   -.614E-01 -.277E-01 -.287E-01
   0.641E+01 0.933E+01 0.547E+03   -.610E+01 -.100E+02 -.551E+03   -.300E+00 0.762E+00 0.417E+01   -.641E-02 -.381E-01 -.339E-02
   0.108E+02 0.188E+02 -.589E+03   -.107E+02 -.186E+02 0.593E+03   -.406E-01 -.713E-01 -.384E+01   -.246E-01 -.365E-01 0.107E-01
   -.352E-02 -.893E-01 0.635E+03   -.141E-02 0.887E-01 -.639E+03   -.148E-02 -.547E-02 0.392E+01   0.469E-02 0.439E-02 0.716E-02
   -.138E+02 -.832E-01 -.580E+03   0.127E+02 0.807E-01 0.583E+03   0.111E+01 -.805E-02 -.377E+01   -.119E-01 0.966E-02 0.561E-02
   0.485E+01 0.102E+02 0.547E+03   -.561E+01 -.103E+02 -.551E+03   0.800E+00 0.120E+00 0.418E+01   -.322E-01 -.219E-01 -.804E-02
   0.684E+01 -.121E+02 -.579E+03   -.631E+01 0.112E+02 0.583E+03   -.558E+00 0.958E+00 -.377E+01   0.206E-01 -.593E-02 0.103E-01
   -.939E-01 0.341E-02 0.635E+03   0.959E-01 -.738E-02 -.639E+03   -.442E-03 0.318E-02 0.349E+01   -.261E-02 0.476E-03 -.309E-01
   -.220E+02 0.902E-01 -.589E+03   0.218E+02 -.892E-01 0.593E+03   0.987E-01 0.411E-02 -.383E+01   0.981E-01 -.516E-02 -.141E-02
   0.635E+01 -.953E+01 0.547E+03   -.607E+01 0.102E+02 -.551E+03   -.294E+00 -.753E+00 0.418E+01   0.527E-02 0.656E-01 0.183E-01
   0.109E+02 -.189E+02 -.589E+03   -.108E+02 0.187E+02 0.593E+03   -.387E-01 0.763E-01 -.384E+01   -.459E-01 0.627E-01 -.466E-02
   -.114E+02 0.614E+00 0.547E+03   0.118E+02 -.381E-01 -.551E+03   -.503E+00 -.628E+00 0.418E+01   0.632E-01 0.505E-01 0.192E-01
   -.425E+01 -.768E+01 -.525E+03   0.476E+01 0.855E+01 0.529E+03   -.544E+00 -.941E+00 -.411E+01   0.226E-01 0.654E-01 -.560E-01
 -----------------------------------------------------------------------------------------------
   -.377E-01 -.353E-01 -.250E+01   -.320E-13 -.480E-13 -.682E-12   0.288E-01 0.274E-01 0.249E+01   0.749E-02 0.782E-02 0.105E-01
 
 
 POSITION                                       TOTAL-FORCE (eV/Angst)
 -----------------------------------------------------------------------------------
     -0.06020      0.00128     -0.00906         0.011263      0.007991     -0.000560
     -5.53344      3.15957     -0.00837        -0.001996      0.011192      0.002140
      2.81388      1.66131     -0.00875        -0.009820     -0.008556      0.000256
      5.45888      6.24285     -0.00354        -0.007366     -0.015691     -0.002817
      2.99414      4.81866     -0.00359         0.017464      0.001449      0.001801
      5.45832      3.39546     -0.00351        -0.006660      0.017150     -0.001389
     -0.11085      3.40336      0.00631        -0.011699      0.020024     -0.001600
     -2.56181      4.81800      0.00663         0.025561     -0.002748     -0.009491
     -0.11050      6.23331      0.00602        -0.012015     -0.025847     -0.000362
     -0.91592      1.59300     28.51868        -0.003449      0.001028      0.013994
      0.92488      1.61168      1.42101        -0.008584      0.008037     -0.007132
     -3.72800      3.21642     28.51838         0.005341     -0.001058      0.014164
     -1.87984      3.16957      1.56969        -0.006348     -0.013316     -0.003697
     -6.49224      4.81981     28.59910        -0.002901     -0.000663     -0.002770
     -4.63182      4.81951      1.42016         0.014433     -0.000504     -0.008096
      1.86049      3.19530     28.51910        -0.003583      0.007807      0.013138
      3.69289      3.18282      1.59625         0.002628      0.006755      0.000292
     -0.92783      4.81865     28.26488        -0.001674     -0.001732     -0.004972
      0.97665      4.81874      1.56953         0.011438     -0.000932     -0.008750
     -3.72800      6.42160     28.51948         0.007608     -0.000332      0.017419
     -1.88004      6.46824      1.56874        -0.006544      0.011556     -0.007266
      4.63766      4.81901     28.28319        -0.001019     -0.000310     -0.028704
      6.52608      4.81883      1.59459        -0.000886     -0.000019      0.004017
      1.86041      6.44272     28.51957        -0.002791     -0.005444      0.014816
      3.69292      6.45476      1.59566         0.001636     -0.004760      0.002125
     -0.91591      8.04494     28.52021        -0.001777     -0.001837      0.018847
      0.92418      8.02614      1.41969        -0.008259     -0.009241     -0.015406
 -----------------------------------------------------------------------------------
    total drift:                               -0.001411     -0.000022      0.001385


--------------------------------------------------------------------------------------------------------



  FREE ENERGIE OF THE ION-ELECTRON SYSTEM (eV)
  ---------------------------------------------------
  free  energy   TOTEN  =      -191.74214608 eV

  energy  without entropy=     -191.53971105  energy(sigma->0) =     -191.64092856
 
 d Force = 0.8176577E-03[ 0.503E-03, 0.113E-02]  d Energy = 0.7551120E-03 0.625E-04
 d Force =-0.8434582E+01[-0.843E+01,-0.844E+01]  d Ewald  = 0.1105730E+01-0.954E+01


--------------------------------------------------------------------------------------------------------


    POTLOK:  cpu time    0.0344: real time    0.0345


--------------------------------------------------------------------------------------------------------


 Quasi-Newton relaxation of ions (Broydens 2nd method)
  g(Force)  = 0.372E-03   g(Stress)= 0.524E-04

 retain information from N=  1 steps
 eigenvalues of (default step * inverse Hessian matrix)
  average eigenvalue of G=   0.6520
 eigenvalue spectrum of G is  0.6520


--------------------------------------------------------------------------------------------------------


  
 reached required accuracy - stopping structural energy minimisation
     LOOP+:  cpu time  134.9526: real time  135.2863
    4ORBIT:  cpu time    0.0000: real time    0.0000

 total amount of memory used by VASP on root node   650782. kBytes
========================================================================

   base      :      30000. kBytes
   nonl-proj :     559647. kBytes
   fftplans  :       2414. kBytes
   grid      :      12150. kBytes
   one-center:        419. kBytes
   wavefun   :      46152. kBytes
 
  
  
 General timing and accounting informations for this job:
 ========================================================
  
                  Total CPU time used (sec):     4932.375
                            User time (sec):     4909.169
                          System time (sec):       23.205
                         Elapsed time (sec):     4945.244
  
                   Maximum memory used (kb):      741184.
                   Average memory used (kb):           0.
  
                          Minor page faults:       843356
                          Major page faults:            1
                 Voluntary context switches:         4230
