   27   27  100    1
  0.9710400E+02  0.1002848E-08  0.1002848E-08  0.3000000E-08  0.5000000E-15
  1.000000000000000E-004
  CAR 
 unknown system                          
    159     34    120
 
  0.0000000E+00  0.0000000E+00  0.0000000E+00  0.1562500E-01
    1      -17.798183   1.000000
    2      -16.740204   1.000000
    3      -16.645521   1.000000
    4      -16.558470   1.000000
    5      -16.478003   1.000000
    6      -16.449180   1.000000
    7      -16.424273   1.000000
    8      -16.315653   1.000000
    9      -16.217773   1.000000
   10      -16.159828   1.000000
   11      -16.064055   1.000000
   12      -15.932169   1.000000
   13      -15.895176   1.000000
   14      -15.665665   1.000000
   15      -15.621996   1.000000
   16      -15.466417   1.000000
   17      -15.418604   1.000000
   18      -15.224931   1.000000
   19       -9.316944   1.000000
   20       -9.047871   1.000000
   21       -8.968440   1.000000
   22       -8.875672   1.000000
   23       -8.810747   1.000000
   24       -8.730890   1.000000
   25       -8.627349   1.000000
   26       -8.555179   1.000000
   27       -8.507161   1.000000
   28       -8.417907   1.000000
   29       -8.353253   1.000000
   30       -8.297000   1.000000
   31       -8.248283   1.000000
   32       -8.100179   1.000000
   33       -8.077485   1.000000
   34       -7.989772   1.000000
   35       -7.855955   1.000000
   36       -7.765954   1.000000
   37       -7.717278   1.000000
   38       -7.513993   1.000000
   39       -7.504055   1.000000
   40       -7.424243   1.000000
   41       -7.280845   1.000000
   42       -7.186689   1.000000
   43       -7.141089   1.000000
   44       -6.990884   1.000000
   45       -6.842085   1.000000
   46       -6.767462   1.000000
   47       -6.656180   1.000000
   48       -6.642085   1.000000
   49       -6.564849   1.000000
   50       -6.509810   1.000000
   51       -6.472654   1.000000
   52       -6.347019   1.000000
   53       -6.321870   1.000000
   54       -6.284510   1.000000
   55       -6.229908   1.000000
   56       -6.181351   1.000000
   57       -6.104435   1.000000
   58       -5.920306   1.000000
   59       -5.804204   1.000000
   60       -5.618091   1.000000
   61       -5.374062   1.000000
   62       -5.354058   1.000000
   63       -5.314852   1.000000
   64       -5.186806   1.000000
   65       -5.081301   1.000000
   66       -4.955686   1.000000
   67       -4.882619   1.000000
   68       -4.837920   1.000000
   69       -4.807051   1.000000
   70       -4.776738   1.000000
   71       -4.681179   1.000000
   72       -4.637810   1.000000
   73       -4.517019   1.000000
   74       -4.300114   1.000000
   75       -4.274452   1.000000
   76       -4.090725   1.000000
   77       -3.699242   0.996987
   78       -3.634624   0.988973
   79       -3.465230   0.862506
   80       -3.431028   0.802281
   81       -3.205503   0.228165
   82       -2.994979   0.012757
   83       -2.817258   0.000241
   84       -2.726447   0.000018
   85       -2.594940   0.000000
   86       -2.540901   0.000000
   87       -2.327370   0.000000
   88       -2.234776   0.000000
   89       -2.215829   0.000000
   90       -2.090032   0.000000
   91       -1.967575   0.000000
   92       -1.449959   0.000000
   93       -1.314575   0.000000
   94       -1.255431   0.000000
   95       -1.136040   0.000000
   96       -1.020415   0.000000
   97       -0.956135   0.000000
   98       -0.886957   0.000000
   99       -0.779028   0.000000
  100       -0.633496   0.000000
  101       -0.592566   0.000000
  102       -0.567374   0.000000
  103       -0.507318   0.000000
  104       -0.335236   0.000000
  105       -0.183145   0.000000
  106       -0.092183   0.000000
  107       -0.071783   0.000000
  108       -0.025670   0.000000
  109        0.132358   0.000000
  110        0.281262   0.000000
  111        0.370704   0.000000
  112        0.541305   0.000000
  113        0.679908   0.000000
  114        0.712127   0.000000
  115        0.804543   0.000000
  116        1.031197   0.000000
  117        1.194018   0.000000
  118        1.636671   0.000000
  119        1.835599   0.000000
  120        2.153669   0.000000
 
  0.1250000E+00  0.2775558E-16  0.0000000E+00  0.3125000E-01
    1      -17.774383   1.000000
    2      -16.793519   1.000000
    3      -16.681342   1.000000
    4      -16.631671   1.000000
    5      -16.516278   1.000000
    6      -16.407395   1.000000
    7      -16.363593   1.000000
    8      -16.285690   1.000000
    9      -16.220457   1.000000
   10      -16.164879   1.000000
   11      -15.995627   1.000000
   12      -15.919800   1.000000
   13      -15.877890   1.000000
   14      -15.670820   1.000000
   15      -15.636130   1.000000
   16      -15.476079   1.000000
   17      -15.423040   1.000000
   18      -15.227511   1.000000
   19       -9.326488   1.000000
   20       -9.133124   1.000000
   21       -9.020892   1.000000
   22       -8.942193   1.000000
   23       -8.875296   1.000000
   24       -8.763754   1.000000
   25       -8.645997   1.000000
   26       -8.612369   1.000000
   27       -8.489143   1.000000
   28       -8.405625   1.000000
   29       -8.374968   1.000000
   30       -8.206262   1.000000
   31       -8.116715   1.000000
   32       -8.020734   1.000000
   33       -7.976387   1.000000
   34       -7.936510   1.000000
   35       -7.809145   1.000000
   36       -7.703270   1.000000
   37       -7.676251   1.000000
   38       -7.553079   1.000000
   39       -7.532080   1.000000
   40       -7.480835   1.000000
   41       -7.251617   1.000000
   42       -7.168923   1.000000
   43       -7.110291   1.000000
   44       -7.065724   1.000000
   45       -6.891235   1.000000
   46       -6.767601   1.000000
   47       -6.683509   1.000000
   48       -6.604282   1.000000
   49       -6.553622   1.000000
   50       -6.504916   1.000000
   51       -6.425825   1.000000
   52       -6.395213   1.000000
   53       -6.331966   1.000000
   54       -6.288584   1.000000
   55       -6.245259   1.000000
   56       -6.207622   1.000000
   57       -6.003761   1.000000
   58       -5.935255   1.000000
   59       -5.752737   1.000000
   60       -5.629963   1.000000
   61       -5.471247   1.000000
   62       -5.393631   1.000000
   63       -5.319456   1.000000
   64       -5.239045   1.000000
   65       -5.155026   1.000000
   66       -4.978632   1.000000
   67       -4.921540   1.000000
   68       -4.857524   1.000000
   69       -4.792155   1.000000
   70       -4.755908   1.000000
   71       -4.662263   1.000000
   72       -4.562235   1.000000
   73       -4.457138   1.000000
   74       -4.251184   1.000000
   75       -4.222830   1.000000
   76       -4.090011   1.000000
   77       -3.810407   0.999794
   78       -3.715307   0.997881
   79       -3.500725   0.910304
   80       -3.378753   0.684441
   81       -3.152044   0.130737
   82       -2.968871   0.007800
   83       -2.771444   0.000068
   84       -2.714879   0.000013
   85       -2.599153   0.000000
   86       -2.531396   0.000000
   87       -2.304598   0.000000
   88       -2.222077   0.000000
   89       -2.205020   0.000000
   90       -2.079965   0.000000
   91       -1.963600   0.000000
   92       -1.454579   0.000000
   93       -1.331123   0.000000
   94       -1.259243   0.000000
   95       -1.134285   0.000000
   96       -1.038555   0.000000
   97       -0.951260   0.000000
   98       -0.889490   0.000000
   99       -0.802538   0.000000
  100       -0.706593   0.000000
  101       -0.638957   0.000000
  102       -0.612742   0.000000
  103       -0.550516   0.000000
  104       -0.405046   0.000000
  105       -0.230205   0.000000
  106       -0.115322   0.000000
  107       -0.063572   0.000000
  108       -0.000840   0.000000
  109        0.063889   0.000000
  110        0.224927   0.000000
  111        0.377746   0.000000
  112        0.538042   0.000000
  113        0.674422   0.000000
  114        0.812775   0.000000
  115        0.865569   0.000000
  116        1.070210   0.000000
  117        1.191289   0.000000
  118        1.678623   0.000000
  119        1.875845   0.000000
  120        2.188170   0.000000
 
  0.2500000E+00  0.5551115E-16  0.0000000E+00  0.3125000E-01
    1      -17.705009   1.000000
    2      -16.974441   1.000000
    3      -16.713241   1.000000
    4      -16.675141   1.000000
    5      -16.577012   1.000000
    6      -16.360769   1.000000
    7      -16.323763   1.000000
    8      -16.259919   1.000000
    9      -16.180375   1.000000
   10      -16.128686   1.000000
   11      -15.930384   1.000000
   12      -15.885766   1.000000
   13      -15.798421   1.000000
   14      -15.703138   1.000000
   15      -15.655790   1.000000
   16      -15.504219   1.000000
   17      -15.431169   1.000000
   18      -15.234542   1.000000
   19       -9.472271   1.000000
   20       -9.201376   1.000000
   21       -9.115457   1.000000
   22       -9.053768   1.000000
   23       -8.998209   1.000000
   24       -8.831009   1.000000
   25       -8.611342   1.000000
   26       -8.559638   1.000000
   27       -8.486246   1.000000
   28       -8.353853   1.000000
   29       -8.288796   1.000000
   30       -8.168735   1.000000
   31       -8.104513   1.000000
   32       -8.019061   1.000000
   33       -7.857115   1.000000
   34       -7.761734   1.000000
   35       -7.714502   1.000000
   36       -7.663290   1.000000
   37       -7.596928   1.000000
   38       -7.520156   1.000000
   39       -7.481318   1.000000
   40       -7.454311   1.000000
   41       -7.253533   1.000000
   42       -7.155881   1.000000
   43       -7.117397   1.000000
   44       -7.054331   1.000000
   45       -6.939945   1.000000
   46       -6.729121   1.000000
   47       -6.682390   1.000000
   48       -6.648918   1.000000
   49       -6.541071   1.000000
   50       -6.502449   1.000000
   51       -6.436356   1.000000
   52       -6.405798   1.000000
   53       -6.335892   1.000000
   54       -6.286102   1.000000
   55       -6.181336   1.000000
   56       -6.167187   1.000000
   57       -5.987509   1.000000
   58       -5.877058   1.000000
   59       -5.740447   1.000000
   60       -5.691947   1.000000
   61       -5.623361   1.000000
   62       -5.569800   1.000000
   63       -5.462582   1.000000
   64       -5.337338   1.000000
   65       -5.223114   1.000000
   66       -5.027732   1.000000
   67       -4.917791   1.000000
   68       -4.816406   1.000000
   69       -4.798566   1.000000
   70       -4.650516   1.000000
   71       -4.577451   1.000000
   72       -4.485623   1.000000
   73       -4.404480   1.000000
   74       -4.278509   1.000000
   75       -4.180470   1.000000
   76       -4.038933   1.000000
   77       -3.935539   0.999995
   78       -3.864790   0.999955
   79       -3.508948   0.919359
   80       -3.305860   0.485932
   81       -3.089341   0.058640
   82       -2.914731   0.002547
   83       -2.705662   0.000009
   84       -2.654358   0.000002
   85       -2.595638   0.000000
   86       -2.519194   0.000000
   87       -2.276396   0.000000
   88       -2.184563   0.000000
   89       -2.149926   0.000000
   90       -2.052937   0.000000
   91       -1.934061   0.000000
   92       -1.466501   0.000000
   93       -1.386465   0.000000
   94       -1.281590   0.000000
   95       -1.143955   0.000000
   96       -1.089671   0.000000
   97       -0.972898   0.000000
   98       -0.935532   0.000000
   99       -0.861103   0.000000
  100       -0.809579   0.000000
  101       -0.743324   0.000000
  102       -0.681243   0.000000
  103       -0.607362   0.000000
  104       -0.551070   0.000000
  105       -0.305475   0.000000
  106       -0.231194   0.000000
  107       -0.141234   0.000000
  108       -0.015402   0.000000
  109        0.039139   0.000000
  110        0.126058   0.000000
  111        0.413255   0.000000
  112        0.498277   0.000000
  113        0.725802   0.000000
  114        0.874034   0.000000
  115        1.053702   0.000000
  116        1.121260   0.000000
  117        1.246269   0.000000
  118        1.796591   0.000000
  119        1.989394   0.000000
  120        2.290372   0.000000
 
  0.3750000E+00  0.0000000E+00  0.0000000E+00  0.3125000E-01
    1      -17.599988   1.000000
    2      -17.170578   1.000000
    3      -16.752344   1.000000
    4      -16.668904   1.000000
    5      -16.621710   1.000000
    6      -16.345522   1.000000
    7      -16.328431   1.000000
    8      -16.253788   1.000000
    9      -16.093572   1.000000
   10      -16.062398   1.000000
   11      -15.919031   1.000000
   12      -15.858575   1.000000
   13      -15.761249   1.000000
   14      -15.703764   1.000000
   15      -15.658146   1.000000
   16      -15.540477   1.000000
   17      -15.435836   1.000000
   18      -15.242625   1.000000
   19       -9.655584   1.000000
   20       -9.225469   1.000000
   21       -9.202452   1.000000
   22       -9.110055   1.000000
   23       -9.052364   1.000000
   24       -8.880626   1.000000
   25       -8.518969   1.000000
   26       -8.481092   1.000000
   27       -8.455593   1.000000
   28       -8.282541   1.000000
   29       -8.220583   1.000000
   30       -8.176418   1.000000
   31       -8.126655   1.000000
   32       -8.098067   1.000000
   33       -7.926420   1.000000
   34       -7.814572   1.000000
   35       -7.725231   1.000000
   36       -7.573530   1.000000
   37       -7.528998   1.000000
   38       -7.442389   1.000000
   39       -7.391523   1.000000
   40       -7.282270   1.000000
   41       -7.219265   1.000000
   42       -7.162797   1.000000
   43       -7.091308   1.000000
   44       -6.982164   1.000000
   45       -6.880484   1.000000
   46       -6.737743   1.000000
   47       -6.679565   1.000000
   48       -6.576760   1.000000
   49       -6.535931   1.000000
   50       -6.477076   1.000000
   51       -6.414839   1.000000
   52       -6.371729   1.000000
   53       -6.340488   1.000000
   54       -6.254514   1.000000
   55       -6.156356   1.000000
   56       -6.085558   1.000000
   57       -6.014802   1.000000
   58       -5.895934   1.000000
   59       -5.883275   1.000000
   60       -5.824287   1.000000
   61       -5.742254   1.000000
   62       -5.662701   1.000000
   63       -5.622011   1.000000
   64       -5.412338   1.000000
   65       -5.255102   1.000000
   66       -4.965755   1.000000
   67       -4.914812   1.000000
   68       -4.820778   1.000000
   69       -4.779281   1.000000
   70       -4.699387   1.000000
   71       -4.568881   1.000000
   72       -4.506657   1.000000
   73       -4.393750   1.000000
   74       -4.218271   1.000000
   75       -4.141991   1.000000
   76       -4.089044   1.000000
   77       -3.959134   0.999998
   78       -3.831681   0.999885
   79       -3.502410   0.912219
   80       -3.257363   0.352642
   81       -3.049727   0.032417
   82       -2.871210   0.000940
   83       -2.673565   0.000003
   84       -2.646977   0.000001
   85       -2.521514   0.000000
   86       -2.495640   0.000000
   87       -2.264629   0.000000
   88       -2.141064   0.000000
   89       -2.085607   0.000000
   90       -1.986554   0.000000
   91       -1.880555   0.000000
   92       -1.518031   0.000000
   93       -1.446992   0.000000
   94       -1.329453   0.000000
   95       -1.220532   0.000000
   96       -1.126974   0.000000
   97       -1.028550   0.000000
   98       -0.982228   0.000000
   99       -0.934755   0.000000
  100       -0.859701   0.000000
  101       -0.807036   0.000000
  102       -0.735143   0.000000
  103       -0.686787   0.000000
  104       -0.586283   0.000000
  105       -0.429327   0.000000
  106       -0.356820   0.000000
  107       -0.182237   0.000000
  108       -0.049833   0.000000
  109       -0.009290   0.000000
  110        0.072241   0.000000
  111        0.403314   0.000000
  112        0.489623   0.000000
  113        0.782549   0.000000
  114        0.927789   0.000000
  115        1.110913   0.000000
  116        1.208397   0.000000
  117        1.350787   0.000000
  118        1.973698   0.000000
  119        2.158958   0.000000
  120        2.444820   0.000000
 
  0.5000000E+00  0.1110223E-15  0.0000000E+00  0.1562500E-01
    1      -17.520709   1.000000
    2      -17.282564   1.000000
    3      -16.766711   1.000000
    4      -16.659727   1.000000
    5      -16.642025   1.000000
    6      -16.346824   1.000000
    7      -16.329990   1.000000
    8      -16.253209   1.000000
    9      -16.040039   1.000000
   10      -16.026999   1.000000
   11      -15.928575   1.000000
   12      -15.855383   1.000000
   13      -15.782084   1.000000
   14      -15.695495   1.000000
   15      -15.630286   1.000000
   16      -15.563479   1.000000
   17      -15.436137   1.000000
   18      -15.246258   1.000000
   19       -9.725585   1.000000
   20       -9.248959   1.000000
   21       -9.233601   1.000000
   22       -9.135378   1.000000
   23       -9.045635   1.000000
   24       -8.890982   1.000000
   25       -8.489661   1.000000
   26       -8.441512   1.000000
   27       -8.412465   1.000000
   28       -8.247794   1.000000
   29       -8.227563   1.000000
   30       -8.164914   1.000000
   31       -8.139433   1.000000
   32       -8.112180   1.000000
   33       -7.971696   1.000000
   34       -7.894263   1.000000
   35       -7.767497   1.000000
   36       -7.546609   1.000000
   37       -7.520499   1.000000
   38       -7.398598   1.000000
   39       -7.339480   1.000000
   40       -7.268223   1.000000
   41       -7.142469   1.000000
   42       -7.101473   1.000000
   43       -7.041442   1.000000
   44       -6.982251   1.000000
   45       -6.897122   1.000000
   46       -6.746914   1.000000
   47       -6.606115   1.000000
   48       -6.568151   1.000000
   49       -6.547127   1.000000
   50       -6.476962   1.000000
   51       -6.398723   1.000000
   52       -6.318636   1.000000
   53       -6.242446   1.000000
   54       -6.224757   1.000000
   55       -6.188234   1.000000
   56       -6.107692   1.000000
   57       -6.072651   1.000000
   58       -6.020118   1.000000
   59       -5.896663   1.000000
   60       -5.864403   1.000000
   61       -5.731567   1.000000
   62       -5.693452   1.000000
   63       -5.626072   1.000000
   64       -5.456722   1.000000
   65       -5.239106   1.000000
   66       -5.138701   1.000000
   67       -4.895672   1.000000
   68       -4.833239   1.000000
   69       -4.771538   1.000000
   70       -4.717174   1.000000
   71       -4.546575   1.000000
   72       -4.484864   1.000000
   73       -4.360219   1.000000
   74       -4.199946   1.000000
   75       -4.164867   1.000000
   76       -4.112515   1.000000
   77       -3.924989   0.999993
   78       -3.805537   0.999766
   79       -3.497465   0.906513
   80       -3.240876   0.310377
   81       -3.035149   0.025619
   82       -2.855723   0.000645
   83       -2.657560   0.000002
   84       -2.656646   0.000002
   85       -2.521461   0.000000
   86       -2.443923   0.000000
   87       -2.259162   0.000000
   88       -2.125026   0.000000
   89       -2.061993   0.000000
   90       -1.923777   0.000000
   91       -1.857179   0.000000
   92       -1.590684   0.000000
   93       -1.443650   0.000000
   94       -1.361038   0.000000
   95       -1.266900   0.000000
   96       -1.137607   0.000000
   97       -1.050191   0.000000
   98       -1.018429   0.000000
   99       -0.970106   0.000000
  100       -0.886807   0.000000
  101       -0.784631   0.000000
  102       -0.776464   0.000000
  103       -0.709027   0.000000
  104       -0.585815   0.000000
  105       -0.495487   0.000000
  106       -0.407510   0.000000
  107       -0.183726   0.000000
  108       -0.065920   0.000000
  109       -0.046016   0.000000
  110        0.060623   0.000000
  111        0.382033   0.000000
  112        0.502035   0.000000
  113        0.802271   0.000000
  114        0.949319   0.000000
  115        1.112607   0.000000
  116        1.254380   0.000000
  117        1.396973   0.000000
  118        2.165346   0.000000
  119        2.236155   0.000000
  120        2.360606   0.000000
 
  0.0000000E+00  0.1250000E+00  0.0000000E+00  0.3125000E-01
    1      -17.772845   1.000000
    2      -16.789501   1.000000
    3      -16.722193   1.000000
    4      -16.576247   1.000000
    5      -16.509592   1.000000
    6      -16.412289   1.000000
    7      -16.368327   1.000000
    8      -16.324719   1.000000
    9      -16.259086   1.000000
   10      -16.104496   1.000000
   11      -15.991152   1.000000
   12      -15.929731   1.000000
   13      -15.883008   1.000000
   14      -15.660907   1.000000
   15      -15.627101   1.000000
   16      -15.474751   1.000000
   17      -15.424959   1.000000
   18      -15.233735   1.000000
   19       -9.311491   1.000000
   20       -9.195246   1.000000
   21       -9.042286   1.000000
   22       -9.021882   1.000000
   23       -8.761372   1.000000
   24       -8.684741   1.000000
   25       -8.641496   1.000000
   26       -8.573616   1.000000
   27       -8.458863   1.000000
   28       -8.444443   1.000000
   29       -8.390874   1.000000
   30       -8.231100   1.000000
   31       -8.154706   1.000000
   32       -8.091704   1.000000
   33       -7.984035   1.000000
   34       -7.877969   1.000000
   35       -7.828868   1.000000
   36       -7.721852   1.000000
   37       -7.679585   1.000000
   38       -7.572206   1.000000
   39       -7.454522   1.000000
   40       -7.370523   1.000000
   41       -7.320198   1.000000
   42       -7.227214   1.000000
   43       -7.144678   1.000000
   44       -7.006019   1.000000
   45       -6.850822   1.000000
   46       -6.792556   1.000000
   47       -6.739868   1.000000
   48       -6.625222   1.000000
   49       -6.544299   1.000000
   50       -6.512575   1.000000
   51       -6.451266   1.000000
   52       -6.369821   1.000000
   53       -6.322406   1.000000
   54       -6.268420   1.000000
   55       -6.240507   1.000000
   56       -6.189734   1.000000
   57       -5.999682   1.000000
   58       -5.936154   1.000000
   59       -5.779398   1.000000
   60       -5.575923   1.000000
   61       -5.445421   1.000000
   62       -5.365149   1.000000
   63       -5.306923   1.000000
   64       -5.247584   1.000000
   65       -5.196502   1.000000
   66       -5.044354   1.000000
   67       -4.953202   1.000000
   68       -4.889824   1.000000
   69       -4.792650   1.000000
   70       -4.698090   1.000000
   71       -4.641097   1.000000
   72       -4.546520   1.000000
   73       -4.455804   1.000000
   74       -4.266440   1.000000
   75       -4.230529   1.000000
   76       -4.040579   1.000000
   77       -3.808597   0.999784
   78       -3.753167   0.999119
   79       -3.467038   0.865296
   80       -3.403578   0.743991
   81       -3.161488   0.145453
   82       -2.980555   0.009758
   83       -2.799347   0.000149
   84       -2.712190   0.000012
   85       -2.601748   0.000000
   86       -2.520904   0.000000
   87       -2.314592   0.000000
   88       -2.237606   0.000000
   89       -2.192272   0.000000
   90       -2.096922   0.000000
   91       -1.943556   0.000000
   92       -1.447162   0.000000
   93       -1.307295   0.000000
   94       -1.259683   0.000000
   95       -1.123621   0.000000
   96       -1.018372   0.000000
   97       -0.949945   0.000000
   98       -0.905311   0.000000
   99       -0.833164   0.000000
  100       -0.671669   0.000000
  101       -0.638516   0.000000
  102       -0.600482   0.000000
  103       -0.551128   0.000000
  104       -0.334605   0.000000
  105       -0.275194   0.000000
  106       -0.189157   0.000000
  107       -0.100623   0.000000
  108        0.008749   0.000000
  109        0.119835   0.000000
  110        0.265617   0.000000
  111        0.357492   0.000000
  112        0.574603   0.000000
  113        0.683705   0.000000
  114        0.758440   0.000000
  115        0.882606   0.000000
  116        1.044336   0.000000
  117        1.191311   0.000000
  118        1.682141   0.000000
  119        1.874144   0.000000
  120        2.189106   0.000000
 
  0.1250000E+00  0.1250000E+00  0.0000000E+00  0.3125000E-01
    1      -17.725893   1.000000
    2      -16.895945   1.000000
    3      -16.787491   1.000000
    4      -16.655246   1.000000
    5      -16.454773   1.000000
    6      -16.412933   1.000000
    7      -16.315142   1.000000
    8      -16.307789   1.000000
    9      -16.244547   1.000000
   10      -16.085106   1.000000
   11      -15.957054   1.000000
   12      -15.888456   1.000000
   13      -15.834176   1.000000
   14      -15.678380   1.000000
   15      -15.642920   1.000000
   16      -15.495440   1.000000
   17      -15.426744   1.000000
   18      -15.239285   1.000000
   19       -9.365445   1.000000
   20       -9.327086   1.000000
   21       -9.140315   1.000000
   22       -9.077362   1.000000
   23       -8.816875   1.000000
   24       -8.700166   1.000000
   25       -8.628102   1.000000
   26       -8.598281   1.000000
   27       -8.430311   1.000000
   28       -8.384482   1.000000
   29       -8.351820   1.000000
   30       -8.234962   1.000000
   31       -8.105878   1.000000
   32       -8.012625   1.000000
   33       -7.936735   1.000000
   34       -7.807094   1.000000
   35       -7.718491   1.000000
   36       -7.692431   1.000000
   37       -7.622739   1.000000
   38       -7.545374   1.000000
   39       -7.476918   1.000000
   40       -7.339603   1.000000
   41       -7.294124   1.000000
   42       -7.189006   1.000000
   43       -7.097345   1.000000
   44       -7.044905   1.000000
   45       -6.897368   1.000000
   46       -6.801152   1.000000
   47       -6.746714   1.000000
   48       -6.660747   1.000000
   49       -6.526169   1.000000
   50       -6.508620   1.000000
   51       -6.452012   1.000000
   52       -6.360990   1.000000
   53       -6.346157   1.000000
   54       -6.305591   1.000000
   55       -6.219154   1.000000
   56       -6.130972   1.000000
   57       -5.992785   1.000000
   58       -5.879581   1.000000
   59       -5.767939   1.000000
   60       -5.658822   1.000000
   61       -5.536795   1.000000
   62       -5.477313   1.000000
   63       -5.415777   1.000000
   64       -5.251832   1.000000
   65       -5.217411   1.000000
   66       -5.058197   1.000000
   67       -5.025565   1.000000
   68       -4.905577   1.000000
   69       -4.721861   1.000000
   70       -4.653195   1.000000
   71       -4.598673   1.000000
   72       -4.505213   1.000000
   73       -4.396380   1.000000
   74       -4.209749   1.000000
   75       -4.186877   1.000000
   76       -4.093742   1.000000
   77       -3.917453   0.999991
   78       -3.822134   0.999850
   79       -3.473681   0.875217
   80       -3.363088   0.644083
   81       -3.120792   0.089490
   82       -2.932698   0.003748
   83       -2.738383   0.000026
   84       -2.685662   0.000005
   85       -2.599146   0.000000
   86       -2.512698   0.000000
   87       -2.300280   0.000000
   88       -2.212961   0.000000
   89       -2.165143   0.000000
   90       -2.069039   0.000000
   91       -1.907303   0.000000
   92       -1.466994   0.000000
   93       -1.333922   0.000000
   94       -1.270260   0.000000
   95       -1.141834   0.000000
   96       -1.056283   0.000000
   97       -0.960563   0.000000
   98       -0.928548   0.000000
   99       -0.869206   0.000000
  100       -0.760990   0.000000
  101       -0.726488   0.000000
  102       -0.668414   0.000000
  103       -0.602708   0.000000
  104       -0.448064   0.000000
  105       -0.321174   0.000000
  106       -0.209782   0.000000
  107       -0.120479   0.000000
  108       -0.031223   0.000000
  109        0.055348   0.000000
  110        0.212480   0.000000
  111        0.364873   0.000000
  112        0.575363   0.000000
  113        0.726717   0.000000
  114        0.900312   0.000000
  115        0.926152   0.000000
  116        1.097931   0.000000
  117        1.189314   0.000000
  118        1.762835   0.000000
  119        1.951509   0.000000
  120        2.257809   0.000000
 
  0.2500000E+00  0.1250000E+00  0.0000000E+00  0.3125000E-01
    1      -17.636806   1.000000
    2      -17.068978   1.000000
    3      -16.875710   1.000000
    4      -16.661433   1.000000
    5      -16.473688   1.000000
    6      -16.369676   1.000000
    7      -16.321417   1.000000
    8      -16.240402   1.000000
    9      -16.206393   1.000000
   10      -16.047375   1.000000
   11      -15.944401   1.000000
   12      -15.866391   1.000000
   13      -15.759035   1.000000
   14      -15.698348   1.000000
   15      -15.649925   1.000000
   16      -15.525021   1.000000
   17      -15.432956   1.000000
   18      -15.244447   1.000000
   19       -9.558109   1.000000
   20       -9.406875   1.000000
   21       -9.240070   1.000000
   22       -9.087699   1.000000
   23       -8.880422   1.000000
   24       -8.723017   1.000000
   25       -8.552211   1.000000
   26       -8.510619   1.000000
   27       -8.428843   1.000000
   28       -8.316646   1.000000
   29       -8.293349   1.000000
   30       -8.217497   1.000000
   31       -8.118105   1.000000
   32       -8.063078   1.000000
   33       -7.938792   1.000000
   34       -7.824415   1.000000
   35       -7.756343   1.000000
   36       -7.630759   1.000000
   37       -7.514131   1.000000
   38       -7.490786   1.000000
   39       -7.377794   1.000000
   40       -7.325816   1.000000
   41       -7.194574   1.000000
   42       -7.117615   1.000000
   43       -7.084144   1.000000
   44       -6.997378   1.000000
   45       -6.865370   1.000000
   46       -6.782111   1.000000
   47       -6.715317   1.000000