       N       E                     dE             d eps       ncg     rms          rms(c)
DAV:   1     0.112633486553E+04    0.11263E+04   -0.35978E+04  8160   0.577E+02
DAV:   2     0.110369233382E+01   -0.11252E+04   -0.10812E+04 11000   0.173E+02
DAV:   3    -0.199507285648E+03   -0.20061E+03   -0.19217E+03 10920   0.824E+01
DAV:   4    -0.208953943294E+03   -0.94467E+01   -0.91503E+01 12200   0.263E+01
DAV:   5    -0.209279233858E+03   -0.32529E+00   -0.32435E+00 11360   0.353E+00    0.275E+01
DAV:   6    -0.237211911768E+03   -0.27933E+02   -0.10800E+02 12920   0.605E+01    0.594E+01
DAV:   7    -0.196638223764E+03    0.40574E+02   -0.17732E+02 13040   0.152E+02    0.204E+01
DAV:   8    -0.190085311951E+03    0.65529E+01   -0.20340E+01 11600   0.134E+01    0.137E+01
DAV:   9    -0.188311615847E+03    0.17737E+01   -0.35030E+00 11880   0.623E+00    0.938E+00
DAV:  10    -0.187124626182E+03    0.11870E+01   -0.17707E+00 13320   0.759E+00    0.336E+00
DAV:  11    -0.187014621693E+03    0.11000E+00   -0.65654E-01 12440   0.248E+00    0.237E+00
DAV:  12    -0.187030501065E+03   -0.15879E-01   -0.47810E-01 12640   0.326E+00    0.346E+00
DAV:  13    -0.186932878362E+03    0.97623E-01   -0.27779E-01 13240   0.313E+00    0.190E+00
DAV:  14    -0.186903467826E+03    0.29411E-01   -0.10516E-01 12720   0.173E+00    0.961E-01
DAV:  15    -0.186898371230E+03    0.50966E-02   -0.41617E-02 12040   0.104E+00    0.972E-01
DAV:  16    -0.186892570304E+03    0.58009E-02   -0.15656E-02 12880   0.670E-01    0.485E-01
DAV:  17    -0.186889919146E+03    0.26512E-02   -0.73300E-03 12720   0.387E-01    0.176E-01
DAV:  18    -0.186889383339E+03    0.53581E-03   -0.19244E-03 11560   0.142E-01    0.167E-01
DAV:  19    -0.186889172737E+03    0.21060E-03   -0.77553E-04 11040   0.134E-01    0.465E-02
DAV:  20    -0.186890056765E+03   -0.88403E-03   -0.82888E-04  9200   0.579E-02    0.442E-02
DAV:  21    -0.186890924855E+03   -0.86809E-03   -0.22721E-04  8200   0.521E-02    0.352E-02
DAV:  22    -0.186891735898E+03   -0.81104E-03   -0.10608E-04  6800   0.297E-02    0.337E-02
DAV:  23    -0.186892892553E+03   -0.11567E-02   -0.13644E-04  7440   0.405E-02    0.168E-02
DAV:  24    -0.186893476074E+03   -0.58352E-03   -0.26717E-05  6720   0.182E-02    0.435E-03
DAV:  25    -0.186893842670E+03   -0.36660E-03   -0.16575E-05  5520   0.889E-03    0.456E-03
DAV:  26    -0.186894079966E+03   -0.23730E-03   -0.90794E-06  6760   0.696E-03    0.151E-03
DAV:  27    -0.186894170417E+03   -0.90451E-04   -0.31927E-06  7240   0.384E-03
   1 F= -.18689417E+03 E0= -.18672339E+03  d E =-.186894E+03
       N       E                     dE             d eps       ncg     rms          rms(c)
DAV:   1    -0.187531773561E+03   -0.63769E+00   -0.27016E+02  8160   0.349E+01    0.466E+00
DAV:   2    -0.189594273982E+03   -0.20625E+01   -0.20364E+01 12280   0.159E+01    0.101E+01
DAV:   3    -0.189330242481E+03    0.26403E+00   -0.43083E+00 12400   0.125E+01    0.629E+00
DAV:   4    -0.188790149435E+03    0.54009E+00   -0.56420E-01 12640   0.425E+00    0.179E+00
DAV:   5    -0.188888479365E+03   -0.98330E-01   -0.43401E-01 12200   0.315E+00    0.486E+00
DAV:   6    -0.188779242925E+03    0.10924E+00   -0.72926E-01 12680   0.430E+00    0.258E+00
DAV:   7    -0.188720380843E+03    0.58862E-01   -0.18614E-01 12080   0.188E+00    0.106E+00
DAV:   8    -0.188710803133E+03    0.95777E-02   -0.62806E-02 12920   0.125E+00    0.123E+00
DAV:   9    -0.188700093285E+03    0.10710E-01   -0.24604E-02 12000   0.900E-01    0.382E-01
DAV:  10    -0.188699197343E+03    0.89594E-03   -0.40399E-03 12120   0.254E-01    0.221E-01
DAV:  11    -0.188698560277E+03    0.63707E-03   -0.24883E-03 12480   0.168E-01    0.101E-01
DAV:  12    -0.188698654101E+03   -0.93824E-04   -0.92680E-04 11840   0.895E-02
   2 F= -.18869865E+03 E0= -.18856047E+03  d E =-.180448E+01
       N       E                     dE             d eps       ncg     rms          rms(c)
DAV:   1    -0.190618895281E+03   -0.19203E+01   -0.30966E+01  9120   0.142E+01    0.443E+00
DAV:   2    -0.190569179719E+03    0.49716E-01   -0.27328E+00 11240   0.942E+00    0.722E+00
DAV:   3    -0.190106890958E+03    0.46229E+00   -0.13085E+00 12360   0.858E+00    0.424E+00
DAV:   4    -0.189894482606E+03    0.21241E+00   -0.70227E-01 12560   0.420E+00    0.250E+00
DAV:   5    -0.189848181304E+03    0.46301E-01   -0.33721E-01 12320   0.270E+00    0.232E+00
DAV:   6    -0.189797478778E+03    0.50703E-01   -0.11693E-01 12720   0.214E+00    0.777E-01
DAV:   7    -0.189790733716E+03    0.67451E-02   -0.14109E-02 11600   0.571E-01    0.204E-01
DAV:   8    -0.189791155918E+03   -0.42220E-03   -0.34236E-03 12200   0.265E-01    0.270E-01
DAV:   9    -0.189790855434E+03    0.30048E-03   -0.18312E-03 10800   0.278E-01    0.170E-01
DAV:  10    -0.189791092618E+03   -0.23718E-03   -0.99105E-04  9880   0.153E-01    0.129E-01
DAV:  11    -0.189790816241E+03    0.27638E-03   -0.46878E-04  9120   0.784E-02    0.217E-02
DAV:  12    -0.189790839725E+03   -0.23484E-04   -0.73484E-05  6800   0.288E-02
   3 F= -.18979084E+03 E0= -.18967431E+03  d E =-.109219E+01
       N       E                     dE             d eps       ncg     rms          rms(c)
DAV:   1    -0.191366498390E+03   -0.15757E+01   -0.74555E+01  8160   0.197E+01    0.457E+00
DAV:   2    -0.191184769889E+03    0.18173E+00   -0.53247E+00 13360   0.763E+00    0.453E+00
DAV:   3    -0.191333674008E+03   -0.14890E+00   -0.15070E+00 12200   0.906E+00    0.671E+00
DAV:   4    -0.190935941165E+03    0.39773E+00   -0.13378E+00 12480   0.759E+00    0.293E+00
DAV:   5    -0.190893110799E+03    0.42830E-01   -0.41228E-01 12320   0.387E+00    0.284E+00
DAV:   6    -0.190807533345E+03    0.85577E-01   -0.19688E-01 12320   0.312E+00    0.120E+00
DAV:   7    -0.190795504161E+03    0.12029E-01   -0.42817E-02 12600   0.111E+00    0.463E-01
DAV:   8    -0.190793136903E+03    0.23673E-02   -0.86390E-03 11440   0.499E-01    0.378E-01
DAV:   9    -0.190792098177E+03    0.10387E-02   -0.30337E-03 11360   0.374E-01    0.168E-01
DAV:  10    -0.190792269634E+03   -0.17146E-03   -0.12669E-03 11400   0.150E-01    0.823E-02
DAV:  11    -0.190792183816E+03    0.85818E-04   -0.46081E-04  9400   0.789E-02
   4 F= -.19079218E+03 E0= -.19069426E+03  d E =-.100134E+01
       N       E                     dE             d eps       ncg     rms          rms(c)
DAV:   1    -0.192267668291E+03   -0.14754E+01   -0.17065E+02  8160   0.291E+01    0.579E+00
DAV:   2    -0.191995736479E+03    0.27193E+00   -0.99888E+00 11040   0.798E+00    0.362E+00
DAV:   3    -0.192051230399E+03   -0.55494E-01   -0.18512E+00 12200   0.785E+00    0.603E+00
DAV:   4    -0.191878133035E+03    0.17310E+00   -0.15319E+00 12000   0.956E+00    0.479E+00
DAV:   5    -0.191611354890E+03    0.26678E+00   -0.65617E-01 12360   0.488E+00    0.172E+00
DAV:   6    -0.191590174030E+03    0.21181E-01   -0.15957E-01 12600   0.285E+00    0.151E+00
DAV:   7    -0.191572283389E+03    0.17891E-01   -0.81088E-02 12400   0.201E+00    0.699E-01
DAV:   8    -0.191565705367E+03    0.65780E-02   -0.13634E-02 12000   0.715E-01    0.383E-01
DAV:   9    -0.191564731424E+03    0.97394E-03   -0.46057E-03 11760   0.473E-01    0.218E-01
DAV:  10    -0.191564704299E+03    0.27125E-04   -0.23151E-03 11520   0.209E-01    0.842E-02
DAV:  11    -0.191564643796E+03    0.60503E-04   -0.56337E-04 10800   0.882E-02
   5 F= -.19156464E+03 E0= -.19147868E+03  d E =-.772460E+00
       N       E                     dE             d eps       ncg     rms          rms(c)
DAV:   1    -0.191683681566E+03   -0.11898E+00   -0.89896E+00  8160   0.638E+00    0.747E-01
DAV:   2    -0.191747034557E+03   -0.63353E-01   -0.35950E-01 12760   0.294E+00    0.204E+00
DAV:   3    -0.191702533366E+03    0.44501E-01   -0.98279E-02 12600   0.237E+00    0.501E-01
DAV:   4    -0.191702385911E+03    0.14746E-03   -0.12692E-02 11600   0.759E-01    0.594E-01
DAV:   5    -0.191699090819E+03    0.32951E-02   -0.86143E-03 11640   0.707E-01    0.280E-01
DAV:   6    -0.191698941969E+03    0.14885E-03   -0.38619E-03 11400   0.324E-01    0.196E-01
DAV:   7    -0.191698420755E+03    0.52121E-03   -0.20402E-03 11520   0.251E-01    0.166E-01
DAV:   8    -0.191698183226E+03    0.23753E-03   -0.69741E-04  9240   0.187E-01    0.532E-02
DAV:   9    -0.191698186025E+03   -0.27986E-05   -0.10788E-04  6160   0.570E-02
   6 F= -.19169819E+03 E0= -.19161381E+03  d E =-.133542E+00
       N       E                     dE             d eps       ncg     rms          rms(c)
DAV:   1    -0.191819509686E+03   -0.12133E+00   -0.97188E+00  8160   0.665E+00    0.705E-01
DAV:   2    -0.191860270807E+03   -0.40761E-01   -0.32107E-01 12680   0.240E+00    0.146E+00
DAV:   3    -0.191838474356E+03    0.21796E-01   -0.64202E-02 12520   0.197E+00    0.570E-01
DAV:   4    -0.191835359991E+03    0.31144E-02   -0.95920E-03 11720   0.660E-01    0.425E-01
DAV:   5    -0.191834558683E+03    0.80131E-03   -0.72399E-03 12200   0.660E-01    0.368E-01
DAV:   6    -0.191833889202E+03    0.66948E-03   -0.48863E-03 11720   0.422E-01    0.195E-01
DAV:   7    -0.191833074401E+03    0.81480E-03   -0.15629E-03 10320   0.159E-01    0.377E-02
DAV:   8    -0.191833123334E+03   -0.48932E-04   -0.20842E-04  7880   0.769E-02
   7 F= -.19183312E+03 E0= -.19175110E+03  d E =-.134937E+00
       N       E                     dE             d eps       ncg     rms          rms(c)
DAV:   1    -0.191991940492E+03   -0.15887E+00   -0.24197E+01  8160   0.106E+01    0.108E+00
DAV:   2    -0.192062470339E+03   -0.70530E-01   -0.82130E-01 12320   0.310E+00    0.142E+00
DAV:   3    -0.192053917274E+03    0.85531E-02   -0.10042E-01 12440   0.260E+00    0.116E+00
DAV:   4    -0.192034140507E+03    0.19777E-01   -0.22662E-02 12520   0.118E+00    0.324E-01
DAV:   5    -0.192037269860E+03   -0.31294E-02   -0.15016E-02 12600   0.679E-01    0.613E-01
DAV:   6    -0.192034806242E+03    0.24636E-02   -0.13015E-02 12480   0.907E-01    0.443E-01
DAV:   7    -0.192032356247E+03    0.24500E-02   -0.38577E-03 11560   0.423E-01    0.648E-02
DAV:   8    -0.192032348891E+03    0.73567E-05   -0.50165E-04  9840   0.719E-02
   8 F= -.19203235E+03 E0= -.19195196E+03  d E =-.199226E+00
       N       E                     dE             d eps       ncg     rms          rms(c)
DAV:   1    -0.192147045518E+03   -0.11469E+00   -0.58336E+01  8160   0.164E+01    0.168E+00
DAV:   2    -0.192306818058E+03   -0.15977E+00   -0.21248E+00 11680   0.422E+00    0.160E+00
DAV:   3    -0.192346192158E+03   -0.39374E-01   -0.22698E-01 12240   0.403E+00    0.242E+00
DAV:   4    -0.192273672963E+03    0.72519E-01   -0.80507E-02 11920   0.261E+00    0.738E-01
DAV:   5    -0.192277221176E+03   -0.35482E-02   -0.32239E-02 12280   0.155E+00    0.994E-01
DAV:   6    -0.192268137612E+03    0.90836E-02   -0.29537E-02 12600   0.125E+00    0.452E-01
DAV:   7    -0.192266240507E+03    0.18971E-02   -0.92491E-03 11840   0.733E-01    0.352E-01
DAV:   8    -0.192264862474E+03    0.13780E-02   -0.24585E-03 11440   0.394E-01    0.939E-02
DAV:   9    -0.192264720569E+03    0.14191E-03   -0.69978E-04 10280   0.985E-02    0.517E-02
DAV:  10    -0.192264674973E+03    0.45596E-04   -0.22226E-04  7960   0.483E-02
   9 F= -.19226467E+03 E0= -.19218999E+03  d E =-.232326E+00
       N       E                     dE             d eps       ncg     rms          rms(c)
DAV:   1    -0.192294415504E+03   -0.29695E-01   -0.16411E+00  8160   0.276E+00    0.408E-01
DAV:   2    -0.192300810018E+03   -0.63945E-02   -0.79273E-02 12200   0.110E+00    0.650E-01
DAV:   3    -0.192298040099E+03    0.27699E-02   -0.14905E-02 12400   0.105E+00    0.442E-01
DAV:   4    -0.192295760559E+03    0.22795E-02   -0.41216E-03 12640   0.526E-01    0.209E-01
DAV:   5    -0.192295892509E+03   -0.13195E-03   -0.26096E-03 11680   0.435E-01    0.257E-01
DAV:   6    -0.192295123754E+03    0.76875E-03   -0.18851E-03 12160   0.323E-01    0.738E-02
DAV:   7    -0.192295085604E+03    0.38150E-04   -0.33862E-04  8600   0.118E-01
  10 F= -.19229509E+03 E0= -.19222138E+03  d E =-.304106E-01
       N       E                     dE             d eps       ncg     rms          rms(c)
DAV:   1    -0.192336566626E+03   -0.41443E-01   -0.13893E+01  8160   0.789E+00    0.858E-01
DAV:   2    -0.192385128403E+03   -0.48562E-01   -0.52420E-01 11880   0.241E+00    0.124E+00
DAV:   3    -0.192379000729E+03    0.61277E-02   -0.66245E-02 12040   0.222E+00    0.105E+00
DAV:   4    -0.192365522660E+03    0.13478E-01   -0.16669E-02 12480   0.109E+00    0.267E-01
DAV:   5    -0.192366163751E+03   -0.64109E-03   -0.65149E-03 12240   0.521E-01    0.362E-01
DAV:   6    -0.192365557977E+03    0.60577E-03   -0.53183E-03 11600   0.632E-01    0.305E-01
DAV:   7    -0.192364369281E+03    0.11887E-02   -0.21020E-03 11600   0.348E-01    0.949E-02
DAV:   8    -0.192364329268E+03    0.40013E-04   -0.41657E-04  8760   0.156E-01
  11 F= -.19236433E+03 E0= -.19229431E+03  d E =-.692437E-01
       N       E                     dE             d eps       ncg     rms          rms(c)
DAV:   1    -0.192376271326E+03   -0.11902E-01   -0.74864E-01  8160   0.187E+00    0.245E-01
DAV:   2    -0.192379214731E+03   -0.29434E-02   -0.30217E-02 12160   0.729E-01    0.439E-01
DAV:   3    -0.192377572877E+03    0.16419E-02   -0.57800E-03 12400   0.656E-01    0.233E-01
DAV:   4    -0.192376942449E+03    0.63043E-03   -0.12525E-03 10960   0.287E-01    0.127E-01
DAV:   5    -0.192376956523E+03   -0.14073E-04   -0.89481E-04 10680   0.258E-01
  12 F= -.19237696E+03 E0= -.19230738E+03  d E =-.126273E-01
       N       E                     dE             d eps       ncg     rms          rms(c)
DAV:   1    -0.192395310934E+03   -0.18368E-01   -0.16778E+00  8160   0.276E+00    0.363E-01
DAV:   2    -0.192402430469E+03   -0.71195E-02   -0.64067E-02 12200   0.110E+00    0.690E-01
DAV:   3    -0.192398066208E+03    0.43643E-02   -0.12421E-02 12520   0.979E-01    0.320E-01
DAV:   4    -0.192396819292E+03    0.12469E-02   -0.23487E-03 12480   0.363E-01    0.161E-01
DAV:   5    -0.192396891338E+03   -0.72047E-04   -0.16712E-03 12040   0.332E-01    0.193E-01
DAV:   6    -0.192396517339E+03    0.37400E-03   -0.11490E-03 10680   0.270E-01    0.719E-02
DAV:   7    -0.192396423154E+03    0.94185E-04   -0.19717E-04  7280   0.923E-02
  13 F= -.19239642E+03 E0= -.19232768E+03  d E =-.194666E-01
       N       E                     dE             d eps       ncg     rms          rms(c)
DAV:   1    -0.192403900815E+03   -0.73835E-02   -0.27249E-01  8160   0.116E+00    0.229E-01
DAV:   2    -0.192404832606E+03   -0.93179E-03   -0.16308E-02 11280   0.619E-01    0.360E-01
DAV:   3    -0.192403675714E+03    0.11569E-02   -0.42581E-03 11600   0.565E-01    0.199E-01
DAV:   4    -0.192403278383E+03    0.39733E-03   -0.13752E-03 10360   0.300E-01    0.151E-01
DAV:   5    -0.192403249860E+03    0.28522E-04   -0.10280E-03 10040   0.279E-01    0.151E-01
DAV:   6    -0.192402966484E+03    0.28338E-03   -0.55100E-04 10040   0.177E-01    0.312E-02
DAV:   7    -0.192402963465E+03    0.30192E-05   -0.78145E-05  6000   0.428E-02
  14 F= -.19240296E+03 E0= -.19233501E+03  d E =-.654031E-02
       N       E                     dE             d eps       ncg     rms          rms(c)
DAV:   1    -0.192413482705E+03   -0.10516E-01   -0.71038E-01  8160   0.180E+00    0.224E-01
DAV:   2    -0.192417394306E+03   -0.39116E-02   -0.29600E-02 12360   0.763E-01    0.485E-01
DAV:   3    -0.192415025034E+03    0.23693E-02   -0.56855E-03 12640   0.656E-01    0.185E-01
DAV:   4    -0.192414614971E+03    0.41006E-03   -0.82866E-04 10400   0.200E-01    0.900E-02
DAV:   5    -0.192414621654E+03   -0.66831E-05   -0.55181E-04 10240   0.173E-01
  15 F= -.19241462E+03 E0= -.19234730E+03  d E =-.116582E-01
       N       E                     dE             d eps       ncg     rms          rms(c)
DAV:   1    -0.192433140250E+03   -0.18525E-01   -0.76346E+00  8160   0.591E+00    0.766E-01
DAV:   2    -0.192468295323E+03   -0.35155E-01   -0.32216E-01 12440   0.238E+00    0.145E+00
DAV:   3    -0.192449398975E+03    0.18896E-01   -0.57349E-02 12400   0.208E+00    0.672E-01
DAV:   4    -0.192443308956E+03    0.60900E-02   -0.10350E-02 12400   0.773E-01    0.334E-01
DAV:   5    -0.192443905366E+03   -0.59641E-03   -0.77376E-03 12440   0.731E-01    0.437E-01
DAV:   6    -0.192441806166E+03    0.20992E-02   -0.59036E-03 11960   0.587E-01    0.146E-01
DAV:   7    -0.192441525471E+03    0.28069E-03   -0.11279E-03 11120   0.218E-01    0.109E-01
DAV:   8    -0.192441414854E+03    0.11062E-03   -0.32530E-04  9800   0.152E-01    0.551E-02
DAV:   9    -0.192441375352E+03    0.39502E-04   -0.74238E-05  6480   0.626E-02
  16 F= -.19244138E+03 E0= -.19237527E+03  d E =-.267537E-01
       N       E                     dE             d eps       ncg     rms          rms(c)
DAV:   1    -0.192446991168E+03   -0.55763E-02   -0.59853E-01  8160   0.164E+00    0.201E-01
DAV:   2    -0.192450067394E+03   -0.30762E-02   -0.27990E-02 10560   0.719E-01    0.375E-01
DAV:   3    -0.192448697113E+03    0.13703E-02   -0.41040E-03 11840   0.543E-01    0.179E-01
DAV:   4    -0.192448357588E+03    0.33952E-03   -0.85802E-04 10200   0.240E-01    0.112E-01
DAV:   5    -0.192448326309E+03    0.31278E-04   -0.52250E-04  9680   0.205E-01
  17 F= -.19244833E+03 E0= -.19238293E+03  d E =-.695096E-02
       N       E                     dE             d eps       ncg     rms          rms(c)
DAV:   1    -0.192452416475E+03   -0.40589E-02   -0.23226E+00  8160   0.323E+00    0.411E-01
DAV:   2    -0.192461668351E+03   -0.92519E-02   -0.11184E-01 11520   0.120E+00    0.558E-01
DAV:   3    -0.192460339189E+03    0.13292E-02   -0.13462E-02 12200   0.100E+00    0.468E-01
DAV:   4    -0.192457582240E+03    0.27569E-02   -0.41042E-03 11880   0.561E-01    0.184E-01
DAV:   5    -0.192457867998E+03   -0.28576E-03   -0.23215E-03 11040   0.407E-01    0.248E-01
DAV:   6    -0.192457133165E+03    0.73483E-03   -0.17706E-03 12560   0.326E-01    0.626E-02
DAV:   7    -0.192457085877E+03    0.47287E-04   -0.20530E-04  6080   0.801E-02
  18 F= -.19245709E+03 E0= -.19239300E+03  d E =-.875957E-02
       N       E                     dE             d eps       ncg     rms          rms(c)
DAV:   1    -0.192457197027E+03   -0.63862E-04   -0.13640E-01  8160   0.815E-01    0.134E-01
DAV:   2    -0.192457603991E+03   -0.40696E-03   -0.57528E-03 10680   0.359E-01    0.226E-01
DAV:   3    -0.192457159508E+03    0.44448E-03   -0.15186E-03 11360   0.340E-01    0.124E-01
DAV:   4    -0.192456956310E+03    0.20320E-03   -0.41643E-04  8720   0.168E-01    0.719E-02
DAV:   5    -0.192456965964E+03   -0.96537E-05   -0.33074E-04  8560   0.156E-01
  19 F= -.19245697E+03 E0= -.19239253E+03  d E =0.119914E-03
       N       E                     dE             d eps       ncg     rms          rms(c)
DAV:   1    -0.192457929481E+03   -0.97317E-03   -0.74543E-02  8160   0.594E-01    0.108E-01
DAV:   2    -0.192458055782E+03   -0.12630E-03   -0.41072E-03 10600   0.228E-01    0.119E-01
DAV:   3    -0.192458044314E+03    0.11468E-04   -0.78902E-04 10880   0.235E-01
  20 F= -.19245804E+03 E0= -.19239353E+03  d E =-.107835E-02
       N       E                     dE             d eps       ncg     rms          rms(c)
DAV:   1    -0.192458908588E+03   -0.85281E-03   -0.57224E-02  8160   0.529E-01    0.772E-02
DAV:   2    -0.192459607955E+03   -0.69937E-03   -0.31051E-03 12480   0.296E-01    0.223E-01
DAV:   3    -0.192459027834E+03    0.58012E-03   -0.85966E-04 10160   0.267E-01    0.481E-02
DAV:   4    -0.192459015236E+03    0.12598E-04   -0.66232E-05  5760   0.534E-02
  21 F= -.19245902E+03 E0= -.19239476E+03  d E =-.970922E-03
       N       E                     dE             d eps       ncg     rms          rms(c)
DAV:   1    -0.192459397910E+03   -0.37008E-03   -0.11642E-02  8160   0.235E-01    0.545E-02
DAV:   2    -0.192459582280E+03   -0.18437E-03   -0.86621E-04 10320   0.199E-01    0.129E-01
DAV:   3    -0.192459372817E+03    0.20946E-03   -0.29246E-04  8920   0.161E-01    0.295E-02
DAV:   4    -0.192459381927E+03   -0.91108E-05   -0.43907E-05  5840   0.568E-02
  22 F= -.19245938E+03 E0= -.19239525E+03  d E =-.366692E-03
       N       E                     dE             d eps       ncg     rms          rms(c)
DAV:   1    -0.192460492047E+03   -0.11192E-02   -0.98710E-02  8160   0.667E-01    0.849E-02
DAV:   2    -0.192460990689E+03   -0.49864E-03   -0.50658E-03 11120   0.272E-01    0.141E-01
DAV:   3    -0.192460831691E+03    0.15900E-03   -0.65850E-04 10920   0.220E-01    0.842E-02
DAV:   4    -0.192460743429E+03    0.88262E-04   -0.11347E-04  5600   0.101E-01
  23 F= -.19246074E+03 E0= -.19239680E+03  d E =-.136150E-02
       N       E                     dE             d eps       ncg     rms          rms(c)
DAV:   1    -0.192461796259E+03   -0.96457E-03   -0.91846E-02  8160   0.645E-01    0.870E-02
DAV:   2    -0.192462212380E+03   -0.41612E-03   -0.44063E-03 11720   0.232E-01    0.124E-01
DAV:   3    -0.192462081198E+03    0.13118E-03   -0.58965E-04 10560   0.213E-01    0.833E-02
DAV:   4    -0.192461997629E+03    0.83569E-04   -0.10629E-04  5720   0.976E-02
  24 F= -.19246200E+03 E0= -.19239826E+03  d E =-.125420E-02
       N       E                     dE             d eps       ncg     rms          rms(c)
DAV:   1    -0.192463031446E+03   -0.95025E-03   -0.46402E-01  8160   0.144E+00    0.179E-01
DAV:   2    -0.192464929096E+03   -0.18976E-02   -0.21986E-02 10840   0.459E-01    0.225E-01
DAV:   3    -0.192464866532E+03    0.62564E-04   -0.24864E-03 12240   0.441E-01    0.227E-01
DAV:   4    -0.192464232576E+03    0.63396E-03   -0.70369E-04 10160   0.236E-01    0.625E-02
DAV:   5    -0.192464363095E+03   -0.13052E-03   -0.39659E-04  9120   0.176E-01    0.118E-01
DAV:   6    -0.192464195326E+03    0.16777E-03   -0.31059E-04  8800   0.143E-01    0.183E-02
DAV:   7    -0.192464197346E+03   -0.20197E-05   -0.47593E-05  6480   0.295E-02
  25 F= -.19246420E+03 E0= -.19240090E+03  d E =-.219972E-02
       N       E                     dE             d eps       ncg     rms          rms(c)
DAV:   1    -0.192464241375E+03   -0.46049E-04   -0.45702E-01  8160   0.143E+00    0.165E-01
DAV:   2    -0.192465958018E+03   -0.17166E-02   -0.22264E-02 10240   0.435E-01    0.144E-01
DAV:   3    -0.192466348808E+03   -0.39079E-03   -0.18581E-03 13200   0.378E-01    0.241E-01
DAV:   4    -0.192465643704E+03    0.70510E-03   -0.75874E-04 10200   0.265E-01    0.546E-02
DAV:   5    -0.192465714634E+03   -0.70930E-04   -0.27631E-04  8680   0.132E-01
  26 F= -.19246571E+03 E0= -.19240284E+03  d E =-.151729E-02
       N       E                     dE             d eps       ncg     rms          rms(c)
DAV:   1    -0.192465771543E+03   -0.12784E-03   -0.12498E-01  8160   0.754E-01    0.105E-01
DAV:   2    -0.192466472560E+03   -0.70102E-03   -0.65865E-03 11360   0.307E-01    0.175E-01
DAV:   3    -0.192466151224E+03    0.32134E-03   -0.10470E-03 11000   0.270E-01    0.895E-02
DAV:   4    -0.192466087752E+03    0.63472E-04   -0.24191E-04  7640   0.127E-01
  27 F= -.19246609E+03 E0= -.19240340E+03  d E =-.373119E-03
