       N       E                     dE             d eps       ncg     rms          rms(c)
DAV:   1     0.112414368770E+04    0.11241E+04   -0.35863E+04  8160   0.577E+02
DAV:   2    -0.980931515992E+00   -0.11251E+04   -0.10815E+04 11160   0.173E+02
DAV:   3    -0.199609877871E+03   -0.19863E+03   -0.19035E+03 10880   0.821E+01
DAV:   4    -0.208948970222E+03   -0.93391E+01   -0.90508E+01 12040   0.264E+01
DAV:   5    -0.209287915043E+03   -0.33894E+00   -0.33800E+00 11320   0.374E+00    0.275E+01
DAV:   6    -0.236786352035E+03   -0.27498E+02   -0.11055E+02 12720   0.604E+01    0.594E+01
DAV:   7    -0.196670783979E+03    0.40116E+02   -0.17915E+02 13080   0.152E+02    0.203E+01
DAV:   8    -0.190026864444E+03    0.66439E+01   -0.20762E+01 11720   0.134E+01    0.135E+01
DAV:   9    -0.188239609262E+03    0.17873E+01   -0.30907E+00 11720   0.626E+00    0.918E+00
DAV:  10    -0.187056474984E+03    0.11831E+01   -0.18259E+00 13440   0.772E+00    0.300E+00
DAV:  11    -0.186996012237E+03    0.60463E-01   -0.62068E-01 12440   0.238E+00    0.248E+00
DAV:  12    -0.187074147598E+03   -0.78135E-01   -0.59579E-01 12640   0.414E+00    0.454E+00
DAV:  13    -0.186906005545E+03    0.16814E+00   -0.42600E-01 12960   0.363E+00    0.185E+00
DAV:  14    -0.186894027475E+03    0.11978E-01   -0.11953E-01 12880   0.209E+00    0.178E+00
DAV:  15    -0.186870078087E+03    0.23949E-01   -0.58335E-02 12840   0.147E+00    0.735E-01
DAV:  16    -0.186865586623E+03    0.44915E-02   -0.88633E-03 12720   0.371E-01    0.415E-01
DAV:  17    -0.186863619128E+03    0.19675E-02   -0.74691E-03 12640   0.368E-01    0.221E-01
DAV:  18    -0.186862979175E+03    0.63995E-03   -0.17437E-03 11600   0.126E-01    0.131E-01
DAV:  19    -0.186862857598E+03    0.12158E-03   -0.59236E-04 10040   0.994E-02    0.449E-02
DAV:  20    -0.186863704808E+03   -0.84721E-03   -0.76760E-04  8920   0.508E-02    0.374E-02
DAV:  21    -0.186864384868E+03   -0.68006E-03   -0.19151E-04  8240   0.394E-02    0.338E-02
DAV:  22    -0.186865416345E+03   -0.10315E-02   -0.16102E-04  7480   0.459E-02    0.403E-02
DAV:  23    -0.186866564787E+03   -0.11484E-02   -0.13666E-04  7480   0.486E-02    0.162E-02
DAV:  24    -0.186867140726E+03   -0.57594E-03   -0.28930E-05  6720   0.170E-02    0.452E-03
DAV:  25    -0.186867505120E+03   -0.36439E-03   -0.16877E-05  5560   0.963E-03    0.438E-03
DAV:  26    -0.186867748881E+03   -0.24376E-03   -0.93720E-06  6760   0.723E-03    0.158E-03
DAV:  27    -0.186867839693E+03   -0.90812E-04   -0.32769E-06  7200   0.416E-03
   1 F= -.18686784E+03 E0= -.18669573E+03  d E =-.186868E+03
       N       E                     dE             d eps       ncg     rms          rms(c)
DAV:   1    -0.187506856553E+03   -0.63911E+00   -0.27185E+02  8160   0.350E+01    0.467E+00
DAV:   2    -0.189514007044E+03   -0.20072E+01   -0.20434E+01 12240   0.156E+01    0.986E+00
DAV:   3    -0.189363193250E+03    0.15081E+00   -0.50268E+00 12400   0.126E+01    0.648E+00
DAV:   4    -0.188791566607E+03    0.57163E+00   -0.60330E-01 12400   0.458E+00    0.230E+00
DAV:   5    -0.188886402164E+03   -0.94836E-01   -0.45008E-01 11200   0.375E+00    0.524E+00
DAV:   6    -0.188758640542E+03    0.12776E+00   -0.73492E-01 12640   0.410E+00    0.223E+00
DAV:   7    -0.188704689775E+03    0.53951E-01   -0.19646E-01 10480   0.140E+00    0.136E+00
DAV:   8    -0.188696123738E+03    0.85660E-02   -0.91273E-02 13000   0.146E+00    0.150E+00
DAV:   9    -0.188681088069E+03    0.15036E-01   -0.32694E-02 11760   0.106E+00    0.625E-01
DAV:  10    -0.188677440603E+03    0.36475E-02   -0.71367E-03 12520   0.380E-01    0.330E-01
DAV:  11    -0.188676739218E+03    0.70138E-03   -0.37506E-03 12880   0.280E-01    0.128E-01
DAV:  12    -0.188676836543E+03   -0.97325E-04   -0.95321E-04 12000   0.988E-02
   2 F= -.18867684E+03 E0= -.18853551E+03  d E =-.180900E+01
       N       E                     dE             d eps       ncg     rms          rms(c)
DAV:   1    -0.190607401560E+03   -0.19307E+01   -0.31416E+01  9120   0.143E+01    0.446E+00
DAV:   2    -0.190567004310E+03    0.40397E-01   -0.28186E+00 11120   0.953E+00    0.734E+00
DAV:   3    -0.190088003043E+03    0.47900E+00   -0.14096E+00 12320   0.862E+00    0.425E+00
DAV:   4    -0.189880734318E+03    0.20727E+00   -0.76867E-01 12640   0.423E+00    0.265E+00
DAV:   5    -0.189920108666E+03   -0.39374E-01   -0.47534E-01 12240   0.405E+00    0.375E+00
DAV:   6    -0.189775656362E+03    0.14445E+00   -0.21616E-01 12280   0.316E+00    0.655E-01
DAV:   7    -0.189769471643E+03    0.61847E-02   -0.16162E-02 12520   0.511E-01    0.266E-01
DAV:   8    -0.189770499407E+03   -0.10278E-02   -0.51858E-03 11640   0.419E-01    0.412E-01
DAV:   9    -0.189769284101E+03    0.12153E-02   -0.27010E-03 11120   0.331E-01    0.133E-01
DAV:  10    -0.189769571482E+03   -0.28738E-03   -0.90006E-04 10200   0.115E-01    0.129E-01
DAV:  11    -0.189769355600E+03    0.21588E-03   -0.46671E-04  8880   0.742E-02    0.198E-02
DAV:  12    -0.189769377895E+03   -0.22295E-04   -0.68102E-05  7000   0.269E-02
   3 F= -.18976938E+03 E0= -.18964926E+03  d E =-.109254E+01
       N       E                     dE             d eps       ncg     rms          rms(c)
DAV:   1    -0.191314316625E+03   -0.15450E+01   -0.75286E+01  8160   0.198E+01    0.456E+00
DAV:   2    -0.191164831879E+03    0.14948E+00   -0.53461E+00 13160   0.782E+00    0.478E+00
DAV:   3    -0.191269145288E+03   -0.10431E+00   -0.15782E+00 12240   0.905E+00    0.643E+00
DAV:   4    -0.190873256611E+03    0.39589E+00   -0.12258E+00 12960   0.722E+00    0.263E+00
DAV:   5    -0.190789653956E+03    0.83603E-01   -0.31511E-01 12280   0.272E+00    0.182E+00
DAV:   6    -0.190772169120E+03    0.17485E-01   -0.15923E-01 12640   0.258E+00    0.166E+00
DAV:   7    -0.190751090243E+03    0.21079E-01   -0.64249E-02 11800   0.154E+00    0.494E-01
DAV:   8    -0.190748000143E+03    0.30901E-02   -0.89863E-03 11560   0.474E-01    0.320E-01
DAV:   9    -0.190747402221E+03    0.59792E-03   -0.28300E-03 11440   0.364E-01    0.211E-01
DAV:  10    -0.190747517128E+03   -0.11491E-03   -0.14940E-03 11160   0.206E-01    0.138E-01
DAV:  11    -0.190747303246E+03    0.21388E-03   -0.92643E-04 10040   0.111E-01    0.463E-02
DAV:  12    -0.190747298564E+03    0.46816E-05   -0.14093E-04  7280   0.441E-02
   4 F= -.19074730E+03 E0= -.19064226E+03  d E =-.977921E+00
       N       E                     dE             d eps       ncg     rms          rms(c)
DAV:   1    -0.192157225088E+03   -0.14099E+01   -0.16448E+02  8160   0.287E+01    0.576E+00
DAV:   2    -0.191865816035E+03    0.29141E+00   -0.95593E+00 11320   0.819E+00    0.388E+00
DAV:   3    -0.192011213500E+03   -0.14540E+00   -0.20522E+00 12080   0.868E+00    0.742E+00
DAV:   4    -0.191753037159E+03    0.25818E+00   -0.25205E+00 11480   0.108E+01    0.452E+00
DAV:   5    -0.191587097348E+03    0.16594E+00   -0.77202E-01 12280   0.583E+00    0.347E+00
DAV:   6    -0.191436110873E+03    0.15099E+00   -0.28089E-01 12240   0.382E+00    0.122E+00
DAV:   7    -0.191427879888E+03    0.82310E-02   -0.72393E-02 12320   0.143E+00    0.833E-01
DAV:   8    -0.191426054393E+03    0.18255E-02   -0.34070E-02 12040   0.122E+00    0.775E-01
DAV:   9    -0.191419491312E+03    0.65631E-02   -0.10699E-02 12440   0.701E-01    0.186E-01
DAV:  10    -0.191419782129E+03   -0.29082E-03   -0.23750E-03 11240   0.183E-01    0.109E-01
DAV:  11    -0.191419636919E+03    0.14521E-03   -0.64253E-04 11200   0.971E-02    0.554E-02
DAV:  12    -0.191419618452E+03    0.18467E-04   -0.10718E-04  7040   0.461E-02
   5 F= -.19141962E+03 E0= -.19131715E+03  d E =-.672320E+00
       N       E                     dE             d eps       ncg     rms          rms(c)
DAV:   1    -0.191483866239E+03   -0.64229E-01   -0.46198E+00  8160   0.456E+00    0.674E-01
DAV:   2    -0.191546677610E+03   -0.62811E-01   -0.28234E-01 12960   0.300E+00    0.231E+00
DAV:   3    -0.191493421897E+03    0.53256E-01   -0.10860E-01 12400   0.232E+00    0.455E-01
DAV:   4    -0.191495949289E+03   -0.25274E-02   -0.18475E-02 11160   0.880E-01    0.737E-01
DAV:   5    -0.191490738462E+03    0.52108E-02   -0.12123E-02 11280   0.734E-01    0.255E-01
DAV:   6    -0.191490448668E+03    0.28979E-03   -0.35480E-03 10960   0.283E-01    0.209E-01
DAV:   7    -0.191490828498E+03   -0.37983E-03   -0.37328E-03 11480   0.403E-01    0.317E-01
DAV:   8    -0.191489851436E+03    0.97706E-03   -0.18898E-03  9640   0.284E-01    0.474E-02
DAV:   9    -0.191489839800E+03    0.11636E-04   -0.10582E-04  5760   0.444E-02
   6 F= -.19148984E+03 E0= -.19138499E+03  d E =-.702213E-01
       N       E                     dE             d eps       ncg     rms          rms(c)
DAV:   1    -0.191535838584E+03   -0.45987E-01   -0.22491E+00  8160   0.316E+00    0.366E-01
DAV:   2    -0.191549588826E+03   -0.13750E-01   -0.72925E-02 13400   0.118E+00    0.103E+00
DAV:   3    -0.191538958494E+03    0.10630E-01   -0.28782E-02 12160   0.116E+00    0.346E-01
DAV:   4    -0.191539281565E+03   -0.32307E-03   -0.63588E-03 11080   0.492E-01    0.400E-01
DAV:   5    -0.191537747865E+03    0.15337E-02   -0.38346E-03 11040   0.417E-01    0.139E-01
DAV:   6    -0.191537657155E+03    0.90709E-04   -0.91111E-04  9960   0.137E-01
   7 F= -.19153766E+03 E0= -.19143193E+03  d E =-.478174E-01
       N       E                     dE             d eps       ncg     rms          rms(c)
DAV:   1    -0.191594404493E+03   -0.56657E-01   -0.33646E+00  8160   0.386E+00    0.447E-01
DAV:   2    -0.191620783563E+03   -0.26379E-01   -0.11839E-01 13600   0.164E+00    0.151E+00
DAV:   3    -0.191598996872E+03    0.21787E-01   -0.56668E-02 12200   0.154E+00    0.404E-01
DAV:   4    -0.191599684007E+03   -0.68714E-03   -0.10370E-02 11360   0.640E-01    0.478E-01
DAV:   5    -0.191597342626E+03    0.23414E-02   -0.49663E-03 11240   0.476E-01    0.145E-01
DAV:   6    -0.191597382526E+03   -0.39900E-04   -0.13671E-03 10440   0.178E-01    0.149E-01
DAV:   7    -0.191597627825E+03   -0.24530E-03   -0.17465E-03 10240   0.283E-01    0.235E-01
DAV:   8    -0.191597085766E+03    0.54206E-03   -0.88635E-04  8320   0.198E-01    0.274E-02
DAV:   9    -0.191597104845E+03   -0.19079E-04   -0.60333E-05  5640   0.308E-02
   8 F= -.19159710E+03 E0= -.19149088E+03  d E =-.594477E-01
       N       E                     dE             d eps       ncg     rms          rms(c)
DAV:   1    -0.191625544003E+03   -0.28458E-01   -0.77068E-01  8160   0.185E+00    0.218E-01
DAV:   2    -0.191631758694E+03   -0.62147E-02   -0.29239E-02 13480   0.898E-01    0.709E-01
DAV:   3    -0.191626650016E+03    0.51087E-02   -0.11518E-02 11320   0.728E-01    0.178E-01
DAV:   4    -0.191626949894E+03   -0.29988E-03   -0.23152E-03  9760   0.304E-01    0.246E-01
DAV:   5    -0.191626346315E+03    0.60358E-03   -0.12729E-03  9400   0.238E-01    0.634E-02
DAV:   6    -0.191626363969E+03   -0.17654E-04   -0.23325E-04  6680   0.640E-02
   9 F= -.19162636E+03 E0= -.19152014E+03  d E =-.292591E-01
       N       E                     dE             d eps       ncg     rms          rms(c)
DAV:   1    -0.191606475362E+03    0.19871E-01   -0.33290E-01  8160   0.122E+00    0.140E-01
DAV:   2    -0.191609199226E+03   -0.27239E-02   -0.12592E-02 12760   0.564E-01    0.466E-01
DAV:   3    -0.191606897452E+03    0.23018E-02   -0.47777E-03 11400   0.467E-01    0.109E-01
DAV:   4    -0.191607029923E+03   -0.13247E-03   -0.90544E-04  8720   0.190E-01    0.151E-01
DAV:   5    -0.191606787311E+03    0.24261E-03   -0.48647E-04  8560   0.152E-01    0.386E-02
DAV:   6    -0.191606795325E+03   -0.80138E-05   -0.10187E-04  6200   0.488E-02
  10 F= -.19160680E+03 E0= -.19150048E+03  d E =0.195686E-01
       N       E                     dE             d eps       ncg     rms          rms(c)
DAV:   1    -0.191568089585E+03    0.38698E-01   -0.17648E+00  8160   0.287E+00    0.406E-01
DAV:   2    -0.191581305876E+03   -0.13216E-01   -0.81711E-02 11400   0.135E+00    0.105E+00
DAV:   3    -0.191570401329E+03    0.10905E-01   -0.28248E-02 11920   0.113E+00    0.375E-01
DAV:   4    -0.191570570786E+03   -0.16946E-03   -0.80003E-03 11280   0.546E-01    0.406E-01
DAV:   5    -0.191569074567E+03    0.14962E-02   -0.52490E-03 10760   0.491E-01    0.208E-01
DAV:   6    -0.191568678363E+03    0.39620E-03   -0.17999E-03 11640   0.237E-01    0.896E-02
DAV:   7    -0.191568555802E+03    0.12256E-03   -0.60112E-04 11360   0.940E-02    0.448E-02
DAV:   8    -0.191568563110E+03   -0.73076E-05   -0.14673E-04  6520   0.812E-02
  11 F= -.19156856E+03 E0= -.19146227E+03  d E =0.382322E-01
       N       E                     dE             d eps       ncg     rms          rms(c)
DAV:   1    -0.191350388219E+03    0.21817E+00   -0.44040E+01  8160   0.142E+01    0.157E+00
DAV:   2    -0.191578807593E+03   -0.22842E+00   -0.14243E+00 12560   0.528E+00    0.361E+00
DAV:   3    -0.191413852257E+03    0.16496E+00   -0.28213E-01 11760   0.413E+00    0.115E+00
DAV:   4    -0.191414392446E+03   -0.54019E-03   -0.70963E-02 12400   0.165E+00    0.136E+00
DAV:   5    -0.191399084973E+03    0.15307E-01   -0.53093E-02 11560   0.160E+00    0.636E-01
DAV:   6    -0.191396836607E+03    0.22484E-02   -0.15912E-02 11480   0.670E-01    0.369E-01
DAV:   7    -0.191396432200E+03    0.40441E-03   -0.10895E-02 12200   0.661E-01    0.510E-01
DAV:   8    -0.191393998057E+03    0.24341E-02   -0.48962E-03 11320   0.468E-01    0.957E-02
DAV:   9    -0.191393965257E+03    0.32800E-04   -0.50423E-04  9960   0.977E-02
  12 F= -.19139397E+03 E0= -.19129300E+03  d E =0.174598E+00
       N       E                     dE             d eps       ncg     rms          rms(c)
DAV:   1    -0.191432637081E+03   -0.38639E-01   -0.24555E+00  8160   0.333E+00    0.441E-01
DAV:   2    -0.191454806356E+03   -0.22169E-01   -0.13597E-01 13400   0.175E+00    0.119E+00
DAV:   3    -0.191439917578E+03    0.14889E-01   -0.35537E-02 12320   0.135E+00    0.336E-01
DAV:   4    -0.191440147652E+03   -0.23007E-03   -0.67165E-03 11440   0.519E-01    0.421E-01
DAV:   5    -0.191438618022E+03    0.15296E-02   -0.48011E-03 11480   0.481E-01    0.200E-01
DAV:   6    -0.191438273971E+03    0.34405E-03   -0.15483E-03 11320   0.201E-01    0.888E-02
DAV:   7    -0.191438305870E+03   -0.31898E-04   -0.85502E-04 10840   0.151E-01
  13 F= -.19143831E+03 E0= -.19133566E+03  d E =-.443406E-01
       N       E                     dE             d eps       ncg     rms          rms(c)
DAV:   1    -0.191437304132E+03    0.96984E-03   -0.88346E+00  8160   0.643E+00    0.695E-01
DAV:   2    -0.191465113020E+03   -0.27809E-01   -0.22046E-01 13440   0.192E+00    0.151E+00
DAV:   3    -0.191448562986E+03    0.16550E-01   -0.69301E-02 11960   0.181E+00    0.736E-01
DAV:   4    -0.191444062683E+03    0.45003E-02   -0.13216E-02 12360   0.728E-01    0.389E-01
DAV:   5    -0.191443392903E+03    0.66978E-03   -0.84972E-03 11160   0.656E-01    0.440E-01
DAV:   6    -0.191442509148E+03    0.88376E-03   -0.75976E-03 10480   0.584E-01    0.300E-01
DAV:   7    -0.191442005897E+03    0.50325E-03   -0.35488E-03 11280   0.398E-01    0.249E-01
DAV:   8    -0.191441342974E+03    0.66292E-03   -0.12278E-03  9760   0.251E-01    0.482E-02
DAV:   9    -0.191441332089E+03    0.10885E-04   -0.96412E-05  6480   0.490E-02
  14 F= -.19144133E+03 E0= -.19133952E+03  d E =-.302622E-02
       N       E                     dE             d eps       ncg     rms          rms(c)
DAV:   1    -0.191499063016E+03   -0.57720E-01   -0.58262E+00  8160   0.510E+00    0.614E-01
DAV:   2    -0.191546051124E+03   -0.46988E-01   -0.21949E-01 13600   0.253E+00    0.199E+00
DAV:   3    -0.191508392396E+03    0.37659E-01   -0.89005E-02 12160   0.210E+00    0.535E-01
DAV:   4    -0.191508887565E+03   -0.49517E-03   -0.15635E-02 11440   0.850E-01    0.609E-01
DAV:   5    -0.191505180254E+03    0.37073E-02   -0.86650E-03 11560   0.659E-01    0.236E-01
DAV:   6    -0.191504591088E+03    0.58917E-03   -0.23547E-03 10640   0.222E-01    0.118E-01
DAV:   7    -0.191504684427E+03   -0.93339E-04   -0.13284E-03 11800   0.200E-01    0.169E-01
DAV:   8    -0.191504402642E+03    0.28178E-03   -0.67316E-04  8800   0.184E-01    0.575E-02
DAV:   9    -0.191504374514E+03    0.28129E-04   -0.95293E-05  5960   0.565E-02
  15 F= -.19150437E+03 E0= -.19140144E+03  d E =-.630424E-01
       N       E                     dE             d eps       ncg     rms          rms(c)
DAV:   1    -0.191446578161E+03    0.57824E-01   -0.42665E+00  8160   0.437E+00    0.500E-01
DAV:   2    -0.191470763285E+03   -0.24185E-01   -0.13854E-01 13600   0.186E+00    0.129E+00
DAV:   3    -0.191452081064E+03    0.18682E-01   -0.38440E-02 11840   0.146E+00    0.412E-01
DAV:   4    -0.191452451618E+03   -0.37055E-03   -0.97815E-03 11240   0.620E-01    0.476E-01
DAV:   5    -0.191450510221E+03    0.19414E-02   -0.64601E-03 11280   0.573E-01    0.251E-01
DAV:   6    -0.191449857259E+03    0.65296E-03   -0.20268E-03 10960   0.249E-01    0.101E-01
DAV:   7    -0.191449756154E+03    0.10111E-03   -0.57398E-04 10760   0.977E-02    0.557E-02
DAV:   8    -0.191449745415E+03    0.10738E-04   -0.16370E-04  6760   0.905E-02
  16 F= -.19144975E+03 E0= -.19134714E+03  d E =0.546291E-01
       N       E                     dE             d eps       ncg     rms          rms(c)
DAV:   1    -0.191385592750E+03    0.64163E-01   -0.68719E+00  8160   0.553E+00    0.598E-01
DAV:   2    -0.191421049077E+03   -0.35456E-01   -0.19873E-01 12800   0.205E+00    0.155E+00
DAV:   3    -0.191395004127E+03    0.26045E-01   -0.57486E-02 11840   0.176E+00    0.556E-01
DAV:   4    -0.191394576989E+03    0.42714E-03   -0.13252E-02 11240   0.728E-01    0.516E-01
DAV:   5    -0.191392211822E+03    0.23652E-02   -0.76760E-03 10960   0.639E-01    0.286E-01
DAV:   6    -0.191391454213E+03    0.75761E-03   -0.27059E-03 11920   0.306E-01    0.137E-01
DAV:   7    -0.191391549196E+03   -0.94982E-04   -0.13369E-03 11240   0.220E-01    0.185E-01
DAV:   8    -0.191391213247E+03    0.33595E-03   -0.72145E-04  8600   0.191E-01    0.482E-02
DAV:   9    -0.191391204987E+03    0.82605E-05   -0.64036E-05  6080   0.459E-02
  17 F= -.19139120E+03 E0= -.19128991E+03  d E =0.585404E-01
       N       E                     dE             d eps       ncg     rms          rms(c)
DAV:   1    -0.191389032699E+03    0.21805E-02   -0.11283E+00  8160   0.225E+00    0.255E-01
DAV:   2    -0.191392828811E+03   -0.37961E-02   -0.35108E-02 12720   0.720E-01    0.496E-01
DAV:   3    -0.191391278774E+03    0.15500E-02   -0.10442E-02 12280   0.693E-01    0.363E-01
DAV:   4    -0.191390053668E+03    0.12251E-02   -0.27795E-03 11320   0.331E-01    0.117E-01
DAV:   5    -0.191389897772E+03    0.15590E-03   -0.80861E-04 10040   0.134E-01    0.916E-02
DAV:   6    -0.191390033474E+03   -0.13570E-03   -0.72602E-04 10000   0.203E-01    0.138E-01
DAV:   7    -0.191389827319E+03    0.20615E-03   -0.40434E-04  8400   0.150E-01    0.411E-02
DAV:   8    -0.191389831636E+03   -0.43168E-05   -0.10877E-04  5800   0.680E-02
  18 F= -.19138983E+03 E0= -.19128873E+03  d E =0.137335E-02
       N       E                     dE             d eps       ncg     rms          rms(c)
DAV:   1    -0.191430272885E+03   -0.40446E-01   -0.39968E+00  8160   0.424E+00    0.520E-01
DAV:   2    -0.191457080709E+03   -0.26808E-01   -0.13875E-01 13600   0.195E+00    0.152E+00
DAV:   3    -0.191435281870E+03    0.21799E-01   -0.53526E-02 12200   0.164E+00    0.461E-01
DAV:   4    -0.191435511700E+03   -0.22983E-03   -0.11345E-02 11440   0.705E-01    0.511E-01
DAV:   5    -0.191433119261E+03    0.23924E-02   -0.71378E-03 11040   0.605E-01    0.261E-01
DAV:   6    -0.191432367796E+03    0.75147E-03   -0.23575E-03 11000   0.255E-01    0.108E-01
DAV:   7    -0.191432561368E+03   -0.19357E-03   -0.12774E-03 10840   0.221E-01    0.191E-01
DAV:   8    -0.191432193440E+03    0.36793E-03   -0.71622E-04  8880   0.190E-01    0.406E-02
DAV:   9    -0.191432186227E+03    0.72137E-05   -0.60729E-05  6040   0.405E-02
  19 F= -.19143219E+03 E0= -.19132953E+03  d E =-.423546E-01
       N       E                     dE             d eps       ncg     rms          rms(c)
DAV:   1    -0.191462103996E+03   -0.29911E-01   -0.17119E+00  8160   0.278E+00    0.348E-01
DAV:   2    -0.191475636311E+03   -0.13532E-01   -0.67110E-02 13600   0.140E+00    0.105E+00
DAV:   3    -0.191464504176E+03    0.11132E-01   -0.24582E-02 12240   0.112E+00    0.274E-01
DAV:   4    -0.191465027800E+03   -0.52362E-03   -0.50017E-03 11400   0.475E-01    0.374E-01
DAV:   5    -0.191463688043E+03    0.13398E-02   -0.31969E-03 11160   0.398E-01    0.139E-01
DAV:   6    -0.191463505572E+03    0.18247E-03   -0.82311E-04  9800   0.131E-01    0.660E-02
DAV:   7    -0.191463445977E+03    0.59595E-04   -0.27948E-04  8120   0.596E-02
  20 F= -.19146345E+03 E0= -.19136003E+03  d E =-.312598E-01
       N       E                     dE             d eps       ncg     rms          rms(c)
DAV:   1    -0.191425864033E+03    0.37642E-01   -0.21853E+00  8160   0.313E+00    0.369E-01
DAV:   2    -0.191440243444E+03   -0.14379E-01   -0.79144E-02 13600   0.143E+00    0.100E+00
DAV:   3    -0.191428948006E+03    0.11295E-01   -0.22068E-02 12080   0.111E+00    0.274E-01
DAV:   4    -0.191429392735E+03   -0.44473E-03   -0.50058E-03 10880   0.452E-01    0.371E-01
DAV:   5    -0.191428123299E+03    0.12694E-02   -0.34064E-03 10960   0.412E-01    0.156E-01
DAV:   6    -0.191427918368E+03    0.20493E-03   -0.97249E-04 10200   0.156E-01    0.761E-02
DAV:   7    -0.191427851658E+03    0.66711E-04   -0.34019E-04  9080   0.795E-02
  21 F= -.19142785E+03 E0= -.19132510E+03  d E =0.355943E-01
       N       E                     dE             d eps       ncg     rms          rms(c)
DAV:   1    -0.191368834634E+03    0.59084E-01   -0.60454E+00  8160   0.520E+00    0.573E-01
DAV:   2    -0.191399152700E+03   -0.30318E-01   -0.19072E-01 13320   0.196E+00    0.137E+00
DAV:   3    -0.191378165593E+03    0.20987E-01   -0.48185E-02 11840   0.162E+00    0.501E-01
DAV:   4    -0.191378206095E+03   -0.40502E-04   -0.12374E-02 11560   0.694E-01    0.532E-01
DAV:   5    -0.191375693968E+03    0.25121E-02   -0.73660E-03 11400   0.615E-01    0.261E-01
DAV:   6    -0.191375112003E+03    0.58196E-03   -0.24419E-03 11480   0.280E-01    0.128E-01
DAV:   7    -0.191374939993E+03    0.17201E-03   -0.87836E-04 10920   0.123E-01    0.600E-02
DAV:   8    -0.191374919747E+03    0.20247E-04   -0.21816E-04  7240   0.101E-01
  22 F= -.19137492E+03 E0= -.19127291E+03  d E =0.529319E-01
       N       E                     dE             d eps       ncg     rms          rms(c)
DAV:   1    -0.191355012353E+03    0.19928E-01   -0.24798E+00  8160   0.332E+00    0.363E-01
DAV:   2    -0.191365494154E+03   -0.10482E-01   -0.72355E-02 13240   0.119E+00    0.819E-01
DAV:   3    -0.191358657213E+03    0.68369E-02   -0.20063E-02 11360   0.100E+00    0.379E-01
DAV:   4    -0.191357985945E+03    0.67127E-03   -0.54210E-03 11320   0.470E-01    0.300E-01
DAV:   5    -0.191357385441E+03    0.60050E-03   -0.29868E-03 10800   0.394E-01    0.209E-01
DAV:   6    -0.191356936654E+03    0.44879E-03   -0.11919E-03 10760   0.224E-01    0.712E-02
DAV:   7    -0.191356936812E+03   -0.15791E-06   -0.40596E-04  9280   0.793E-02
  23 F= -.19135694E+03 E0= -.19125457E+03  d E =0.179829E-01
       N       E                     dE             d eps       ncg     rms          rms(c)
DAV:   1    -0.191394955043E+03   -0.38018E-01   -0.43872E+00  8160   0.445E+00    0.547E-01
DAV:   2    -0.191426208699E+03   -0.31254E-01   -0.16196E-01 13600   0.212E+00    0.158E+00
DAV:   3    -0.191401050342E+03    0.25158E-01   -0.58884E-02 12200   0.174E+00    0.444E-01
DAV:   4    -0.191401735535E+03   -0.68519E-03   -0.11881E-02 11480   0.717E-01    0.564E-01
DAV:   5    -0.191398828471E+03    0.29071E-02   -0.78372E-03 11200   0.623E-01    0.248E-01
DAV:   6    -0.191398134045E+03    0.69443E-03   -0.22934E-03 11160   0.245E-01    0.105E-01
DAV:   7    -0.191398293678E+03   -0.15963E-03   -0.12439E-03 11080   0.202E-01    0.176E-01
DAV:   8    -0.191397988277E+03    0.30540E-03   -0.66827E-04  8840   0.184E-01    0.533E-02
DAV:   9    -0.191397964103E+03    0.24174E-04   -0.79086E-05  5920   0.523E-02
  24 F= -.19139796E+03 E0= -.19129414E+03  d E =-.410273E-01
       N       E                     dE             d eps       ncg     rms          rms(c)
DAV:   1    -0.191410743110E+03   -0.12755E-01   -0.50176E-01  8160   0.150E+00    0.176E-01
DAV:   2    -0.191413765393E+03   -0.30223E-02   -0.16989E-02 13600   0.678E-01    0.470E-01
DAV:   3    -0.191411416140E+03    0.23493E-02   -0.54066E-03 11680   0.538E-01    0.141E-01
DAV:   4    -0.191411470710E+03   -0.54569E-04   -0.11381E-03  9720   0.211E-01    0.169E-01
DAV:   5    -0.191411245057E+03    0.22565E-03   -0.76932E-04  8520   0.198E-01    0.911E-02
DAV:   6    -0.191411163279E+03    0.81778E-04   -0.22146E-04  5880   0.889E-02
  25 F= -.19141116E+03 E0= -.19130661E+03  d E =-.131992E-01
       N       E                     dE             d eps       ncg     rms          rms(c)
DAV:   1    -0.191399968879E+03    0.11276E-01   -0.15608E+00  8160   0.269E+00    0.386E-01
DAV:   2    -0.191406120284E+03   -0.61514E-02   -0.54253E-02 12640   0.118E+00    0.772E-01
DAV:   3    -0.191400074317E+03    0.60460E-02   -0.16622E-02 12080   0.983E-01    0.316E-01
DAV:   4    -0.191399555269E+03    0.51905E-03   -0.50354E-03 10960   0.428E-01    0.310E-01
DAV:   5    -0.191399347247E+03    0.20802E-03   -0.45842E-03 11560   0.478E-01    0.308E-01
DAV:   6    -0.191398342312E+03    0.10049E-02   -0.22809E-03 10920   0.301E-01    0.755E-02
DAV:   7    -0.191398314976E+03    0.27336E-04   -0.39787E-04  8080   0.796E-02
  26 F= -.19139831E+03 E0= -.19129552E+03  d E =0.128483E-01
       N       E                     dE             d eps       ncg     rms          rms(c)
DAV:   1    -0.191449546139E+03   -0.51204E-01   -0.75056E+00  8160   0.583E+00    0.730E-01
DAV:   2    -0.191491703356E+03   -0.42157E-01   -0.25587E-01 13600   0.262E+00    0.185E+00
DAV:   3    -0.191457002703E+03    0.34701E-01   -0.85767E-02 12240   0.216E+00    0.559E-01
DAV:   4    -0.191457728550E+03   -0.72585E-03   -0.19171E-02 12320   0.867E-01    0.725E-01
DAV:   5    -0.191453819127E+03    0.39094E-02   -0.15593E-02 10840   0.878E-01    0.448E-01
DAV:   6    -0.191451748163E+03    0.20710E-02   -0.58274E-03 11320   0.432E-01    0.160E-01
DAV:   7    -0.191451698212E+03    0.49951E-04   -0.19903E-03 11680   0.225E-01    0.169E-01
DAV:   8    -0.191451470045E+03    0.22817E-03   -0.10471E-03  9200   0.223E-01    0.106E-01
DAV:   9    -0.191451349592E+03    0.12045E-03   -0.24687E-04  6840   0.988E-02    0.251E-02
DAV:  10    -0.191451347126E+03    0.24658E-05   -0.61173E-05  6560   0.288E-02
  27 F= -.19145135E+03 E0= -.19134597E+03  d E =-.530321E-01
       N       E                     dE             d eps       ncg     rms          rms(c)
DAV:   1    -0.191481649291E+03   -0.30300E-01   -0.18272E+00  8160   0.286E+00    0.336E-01
DAV:   2    -0.191493120895E+03   -0.11472E-01   -0.61065E-02 13600   0.127E+00    0.965E-01
DAV:   3    -0.191484108364E+03    0.90125E-02   -0.22345E-02 11960   0.105E+00    0.306E-01
DAV:   4    -0.191484216900E+03   -0.10854E-03   -0.47651E-03 11120   0.457E-01    0.339E-01
DAV:   5    -0.191483194913E+03    0.10220E-02   -0.29631E-03 10840   0.388E-01    0.161E-01
DAV:   6    -0.191482910400E+03    0.28451E-03   -0.88350E-04 10400   0.154E-01    0.620E-02
DAV:   7    -0.191482869992E+03    0.40408E-04   -0.25329E-04  7360   0.563E-02
  28 F= -.19148287E+03 E0= -.19137756E+03  d E =-.315229E-01
       N       E                     dE             d eps       ncg     rms          rms(c)
DAV:   1    -0.191451254254E+03    0.31656E-01   -0.20482E+00  8160   0.301E+00    0.307E-01
DAV:   2    -0.191459095848E+03   -0.78416E-02   -0.53959E-02 12320   0.922E-01    0.716E-01
DAV:   3    -0.191454478588E+03    0.46173E-02   -0.15851E-02 12000   0.872E-01    0.364E-01
DAV:   4    -0.191453680777E+03    0.79781E-03   -0.38688E-03 11000   0.384E-01    0.227E-01
DAV:   5    -0.191453292984E+03    0.38779E-03   -0.18360E-03 10240   0.313E-01    0.167E-01
DAV:   6    -0.191453052545E+03    0.24044E-03   -0.92226E-04 10080   0.201E-01    0.811E-02
DAV:   7    -0.191453027137E+03    0.25409E-04   -0.33309E-04  8160   0.983E-02
  29 F= -.19145303E+03 E0= -.19134729E+03  d E =0.298429E-01
       N       E                     dE             d eps       ncg     rms          rms(c)
DAV:   1    -0.191437425507E+03    0.15627E-01   -0.34202E+00  8160   0.388E+00    0.401E-01
DAV:   2    -0.191448924944E+03   -0.11499E-01   -0.94281E-02 12600   0.128E+00    0.844E-01
DAV:   3    -0.191443008241E+03    0.59167E-02   -0.22652E-02 11960   0.105E+00    0.463E-01
DAV:   4    -0.191441725759E+03    0.12825E-02   -0.66206E-03 11280   0.527E-01    0.310E-01
DAV:   5    -0.191441222773E+03    0.50299E-03   -0.37909E-03 10360   0.452E-01    0.256E-01
DAV:   6    -0.191440666714E+03    0.55606E-03   -0.19503E-03 12680   0.286E-01    0.987E-02
DAV:   7    -0.191440598313E+03    0.68401E-04   -0.61019E-04 10040   0.126E-01
  30 F= -.19144060E+03 E0= -.19133479E+03  d E =0.124288E-01
       N       E                     dE             d eps       ncg     rms          rms(c)
DAV:   1    -0.191487322472E+03   -0.46656E-01   -0.60473E+00  8160   0.520E+00    0.597E-01
DAV:   2    -0.191522589558E+03   -0.35267E-01   -0.19721E-01 13520   0.219E+00    0.170E+00
DAV:   3    -0.191496611537E+03    0.25978E-01   -0.68054E-02 12200   0.186E+00    0.576E-01
DAV:   4    -0.191496158324E+03    0.45321E-03   -0.13955E-02 11400   0.792E-01    0.564E-01
DAV:   5    -0.191493203483E+03    0.29548E-02   -0.85775E-03 10800   0.674E-01    0.293E-01
DAV:   6    -0.191492361030E+03    0.84245E-03   -0.31641E-03 11560   0.304E-01    0.139E-01
DAV:   7    -0.191492799086E+03   -0.43806E-03   -0.22870E-03 12080   0.305E-01    0.266E-01
DAV:   8    -0.191492096532E+03    0.70255E-03   -0.13123E-03  9400   0.256E-01    0.515E-02
DAV:   9    -0.191492076879E+03    0.19653E-04   -0.94220E-05  5800   0.506E-02
  31 F= -.19149208E+03 E0= -.19138646E+03  d E =-.514786E-01
       N       E                     dE             d eps       ncg     rms          rms(c)
DAV:   1    -0.191516905782E+03   -0.24809E-01   -0.13069E+00  8160   0.243E+00    0.277E-01
DAV:   2    -0.191522403577E+03   -0.54978E-02   -0.37345E-02 13600   0.945E-01    0.641E-01
DAV:   3    -0.191518136119E+03    0.42675E-02   -0.10551E-02 12120   0.764E-01    0.211E-01
DAV:   4    -0.191518205940E+03   -0.69821E-04   -0.25093E-03 11280   0.303E-01    0.257E-01
DAV:   5    -0.191517791290E+03    0.41465E-03   -0.23184E-03 10200   0.335E-01    0.183E-01
DAV:   6    -0.191517478651E+03    0.31264E-03   -0.91926E-04  9680   0.183E-01    0.641E-02
DAV:   7    -0.191517447279E+03    0.31373E-04   -0.18272E-04  6480   0.742E-02
  32 F= -.19151745E+03 E0= -.19141204E+03  d E =-.253704E-01
       N       E                     dE             d eps       ncg     rms          rms(c)
DAV:   1    -0.191510571736E+03    0.69069E-02   -0.13216E+00  8160   0.244E+00    0.242E-01
DAV:   2    -0.191513316167E+03   -0.27444E-02   -0.29651E-02 13240   0.672E-01    0.416E-01
DAV:   3    -0.191512309813E+03    0.10064E-02   -0.74318E-03 12240   0.599E-01    0.302E-01
DAV:   4    -0.191511708058E+03    0.60176E-03   -0.27345E-03  9920   0.345E-01    0.198E-01
DAV:   5    -0.191511517918E+03    0.19014E-03   -0.15989E-03  9880   0.293E-01    0.159E-01
DAV:   6    -0.191511290305E+03    0.22761E-03   -0.75143E-04 10320   0.164E-01    0.630E-02
DAV:   7    -0.191511343080E+03   -0.52775E-04   -0.33671E-04  7880   0.123E-01
  33 F= -.19151134E+03 E0= -.19140591E+03  d E =0.610420E-02
       N       E                     dE             d eps       ncg     rms          rms(c)
DAV:   1    -0.191486461421E+03    0.24829E-01   -0.45767E+00  8160   0.448E+00    0.455E-01
DAV:   2    -0.191505135507E+03   -0.18674E-01   -0.11505E-01 12120   0.146E+00    0.118E+00
DAV:   3    -0.191492695986E+03    0.12440E-01   -0.33169E-02 12480   0.131E+00    0.459E-01
DAV:   4    -0.191491838146E+03    0.85784E-03   -0.66451E-03 10960   0.533E-01    0.363E-01
DAV:   5    -0.191490717109E+03    0.11210E-02   -0.41627E-03 12120   0.492E-01    0.228E-01
DAV:   6    -0.191490381616E+03    0.33549E-03   -0.18995E-03 11680   0.269E-01    0.129E-01
DAV:   7    -0.191490593913E+03   -0.21230E-03   -0.14646E-03 10240   0.260E-01    0.210E-01
DAV:   8    -0.191490146643E+03    0.44727E-03   -0.79722E-04  8400   0.199E-01    0.357E-02
DAV:   9    -0.191490146102E+03    0.54030E-06   -0.51273E-05  5600   0.343E-02
  34 F= -.19149015E+03 E0= -.19138471E+03  d E =0.211970E-01
       N       E                     dE             d eps       ncg     rms          rms(c)
DAV:   1    -0.191544496123E+03   -0.54349E-01   -0.59606E+00  8160   0.518E+00    0.589E-01
DAV:   2    -0.191575599653E+03   -0.31104E-01   -0.18930E-01 13600   0.212E+00    0.156E+00
DAV:   3    -0.191553469986E+03    0.22130E-01   -0.61353E-02 12120   0.178E+00    0.579E-01
DAV:   4    -0.191553097978E+03    0.37201E-03   -0.14372E-02 11520   0.812E-01    0.584E-01
DAV:   5    -0.191550063056E+03    0.30349E-02   -0.90827E-03 11240   0.694E-01    0.304E-01
DAV:   6    -0.191549065345E+03    0.99771E-03   -0.31597E-03 11440   0.305E-01    0.122E-01
DAV:   7    -0.191549029746E+03    0.35599E-04   -0.11882E-03 11840   0.169E-01    0.131E-01
DAV:   8    -0.191548880513E+03    0.14923E-03   -0.54713E-04  8800   0.167E-01    0.746E-02
DAV:   9    -0.191548822899E+03    0.57614E-04   -0.11930E-04  6040   0.733E-02
  35 F= -.19154882E+03 E0= -.19144439E+03  d E =-.586768E-01
       N       E                     dE             d eps       ncg     rms          rms(c)
DAV:   1    -0.191557875946E+03   -0.89954E-02   -0.46145E-01  8160   0.144E+00    0.138E-01
DAV:   2    -0.191559059836E+03   -0.11839E-02   -0.10463E-02 13040   0.396E-01    0.274E-01
DAV:   3    -0.191558507896E+03    0.55194E-03   -0.23391E-03 10680   0.346E-01    0.158E-01
DAV:   4    -0.191558421931E+03    0.85965E-04   -0.70325E-04  8360   0.190E-01
  36 F= -.19155842E+03 E0= -.19145443E+03  d E =-.959903E-02
       N       E                     dE             d eps       ncg     rms          rms(c)
DAV:   1    -0.191586770048E+03   -0.28262E-01   -0.49913E+00  8160   0.467E+00    0.455E-01
DAV:   2    -0.191601615273E+03   -0.14845E-01   -0.11639E-01 12160   0.137E+00    0.101E+00
DAV:   3    -0.191594304597E+03    0.73107E-02   -0.33866E-02 12560   0.126E+00    0.554E-01
DAV:   4    -0.191591535982E+03    0.27686E-02   -0.65651E-03 10840   0.501E-01    0.219E-01
DAV:   5    -0.191591396640E+03    0.13934E-03   -0.28918E-03 11960   0.353E-01    0.252E-01
DAV:   6    -0.191591100003E+03    0.29664E-03   -0.23840E-03 11800   0.364E-01    0.172E-01
DAV:   7    -0.191590897888E+03    0.20211E-03   -0.10392E-03  9920   0.211E-01    0.125E-01
DAV:   8    -0.191590767871E+03    0.13002E-03   -0.44595E-04  8600   0.153E-01    0.620E-02
DAV:   9    -0.191590728473E+03    0.39398E-04   -0.81527E-05  5880   0.607E-02
  37 F= -.19159073E+03 E0= -.19148749E+03  d E =-.323065E-01
       N       E                     dE             d eps       ncg     rms          rms(c)
DAV:   1    -0.191614678388E+03   -0.23911E-01   -0.48603E+00  8160   0.470E+00    0.467E-01
DAV:   2    -0.191628346750E+03   -0.13668E-01   -0.11648E-01 13560   0.141E+00    0.964E-01
DAV:   3    -0.191621196289E+03    0.71505E-02   -0.26593E-02 11640   0.119E+00    0.497E-01
DAV:   4    -0.191620656406E+03    0.53988E-03   -0.85735E-03 11760   0.667E-01    0.469E-01
DAV:   5    -0.191618753195E+03    0.19032E-02   -0.57135E-03 10400   0.596E-01    0.263E-01
DAV:   6    -0.191618218143E+03    0.53505E-03   -0.23594E-03 11040   0.267E-01    0.123E-01
DAV:   7    -0.191618096889E+03    0.12125E-03   -0.86058E-04 10840   0.162E-01    0.119E-01
DAV:   8    -0.191617963174E+03    0.13372E-03   -0.38646E-04  8680   0.139E-01    0.486E-02
DAV:   9    -0.191617940778E+03    0.22396E-04   -0.61198E-05  5960   0.479E-02
  38 F= -.19161794E+03 E0= -.19151596E+03  d E =-.272123E-01
       N       E                     dE             d eps       ncg     rms          rms(c)
DAV:   1    -0.191700506178E+03   -0.82543E-01   -0.13695E+01  8160   0.793E+00    0.821E-01
DAV:   2    -0.191741015332E+03   -0.40509E-01   -0.35852E-01 13440   0.246E+00    0.160E+00
DAV:   3    -0.191719752078E+03    0.21263E-01   -0.78408E-02 12240   0.211E+00    0.837E-01
DAV:   4    -0.191717545743E+03    0.22063E-02   -0.24974E-02 12200   0.113E+00    0.808E-01
DAV:   5    -0.191712675597E+03    0.48701E-02   -0.17148E-02 12080   0.105E+00    0.533E-01
DAV:   6    -0.191709893942E+03    0.27817E-02   -0.82478E-03 11120   0.562E-01    0.214E-01
DAV:   7    -0.191709620676E+03    0.27327E-03   -0.26430E-03 12400   0.278E-01    0.206E-01
DAV:   8    -0.191709221437E+03    0.39924E-03   -0.11506E-03 10520   0.243E-01    0.801E-02
DAV:   9    -0.191709153566E+03    0.67871E-04   -0.14864E-04  6160   0.768E-02
  39 F= -.19170915E+03 E0= -.19161068E+03  d E =-.912128E-01
       N       E                     dE             d eps       ncg     rms          rms(c)
DAV:   1    -0.191786437178E+03   -0.77216E-01   -0.97756E+00  8160   0.668E+00    0.678E-01
DAV:   2    -0.191811833016E+03   -0.25396E-01   -0.27417E-01 12280   0.190E+00    0.105E+00
DAV:   3    -0.191804697892E+03    0.71351E-02   -0.48930E-02 12080   0.165E+00    0.784E-01
DAV:   4    -0.191800273112E+03    0.44248E-02   -0.16315E-02 12040   0.946E-01    0.541E-01
DAV:   5    -0.191798439299E+03    0.18338E-02   -0.88505E-03 11880   0.769E-01    0.451E-01
DAV:   6    -0.191796784753E+03    0.16545E-02   -0.57954E-03 12360   0.546E-01    0.221E-01
DAV:   7    -0.191796754169E+03    0.30584E-04   -0.26118E-03 11840   0.313E-01    0.242E-01
DAV:   8    -0.191796182482E+03    0.57169E-03   -0.13366E-03 10000   0.268E-01    0.750E-02
DAV:   9    -0.191796119830E+03    0.62652E-04   -0.13541E-04  5800   0.718E-02
  40 F= -.19179612E+03 E0= -.19170082E+03  d E =-.869663E-01
       N       E                     dE             d eps       ncg     rms          rms(c)
DAV:   1    -0.191847898511E+03   -0.51716E-01   -0.41114E+00  8160   0.433E+00    0.478E-01
DAV:   2    -0.191859405154E+03   -0.11507E-01   -0.13040E-01 12400   0.133E+00    0.735E-01
DAV:   3    -0.191855958303E+03    0.34469E-02   -0.24191E-02 12200   0.117E+00    0.548E-01
DAV:   4    -0.191853727821E+03    0.22305E-02   -0.90625E-03 12320   0.693E-01    0.365E-01
DAV:   5    -0.191852912814E+03    0.81501E-03   -0.49452E-03 10560   0.543E-01    0.316E-01
DAV:   6    -0.191852035135E+03    0.87768E-03   -0.28869E-03 11440   0.385E-01    0.136E-01
DAV:   7    -0.191851817953E+03    0.21718E-03   -0.72604E-04 10000   0.122E-01    0.532E-02
DAV:   8    -0.191851796648E+03    0.21306E-04   -0.17799E-04  7080   0.898E-02
  41 F= -.19185180E+03 E0= -.19175776E+03  d E =-.556768E-01
       N       E                     dE             d eps       ncg     rms          rms(c)
DAV:   1    -0.191919248149E+03   -0.67430E-01   -0.11231E+01  8160   0.710E+00    0.700E-01
DAV:   2    -0.191944605934E+03   -0.25358E-01   -0.31610E-01 12160   0.178E+00    0.873E-01
DAV:   3    -0.191945952046E+03   -0.13461E-02   -0.57771E-02 12240   0.170E+00    0.103E+00
DAV:   4    -0.191936047926E+03    0.99041E-02   -0.22344E-02 12320   0.112E+00    0.399E-01
DAV:   5    -0.191934683231E+03    0.13647E-02   -0.68775E-03 11080   0.608E-01    0.351E-01
DAV:   6    -0.191934425814E+03    0.25742E-03   -0.53768E-03 12760   0.584E-01    0.287E-01
DAV:   7    -0.191933369256E+03    0.10566E-02   -0.20127E-03 11280   0.276E-01    0.680E-02
DAV:   8    -0.191933289842E+03    0.79414E-04   -0.29219E-04  8120   0.727E-02
  42 F= -.19193329E+03 E0= -.19184053E+03  d E =-.814932E-01
       N       E                     dE             d eps       ncg     rms          rms(c)
DAV:   1    -0.191955538176E+03   -0.22169E-01   -0.93685E-01  8160   0.213E+00    0.335E-01
DAV:   2    -0.191959799968E+03   -0.42618E-02   -0.44975E-02 11480   0.929E-01    0.646E-01
DAV:   3    -0.191956564850E+03    0.32351E-02   -0.11237E-02 10800   0.828E-01    0.335E-01
DAV:   4    -0.191956098461E+03    0.46639E-03   -0.40812E-03 11400   0.494E-01    0.316E-01
DAV:   5    -0.191955342306E+03    0.75615E-03   -0.25759E-03 10120   0.440E-01    0.207E-01
DAV:   6    -0.191954865357E+03    0.47695E-03   -0.12451E-03 10040   0.222E-01    0.794E-02
DAV:   7    -0.191954916821E+03   -0.51464E-04   -0.53641E-04  8800   0.163E-01
  43 F= -.19195492E+03 E0= -.19186164E+03  d E =-.216270E-01
       N       E                     dE             d eps       ncg     rms          rms(c)
DAV:   1    -0.191979268061E+03   -0.24403E-01   -0.19248E+00  8160   0.294E+00    0.298E-01
DAV:   2    -0.191983518343E+03   -0.42503E-02   -0.59571E-02 12200   0.715E-01    0.281E-01
DAV:   3    -0.191984265823E+03   -0.74748E-03   -0.80329E-03 11200   0.600E-01    0.424E-01
DAV:   4    -0.191982561977E+03    0.17038E-02   -0.40761E-03 10600   0.486E-01    0.174E-01
DAV:   5    -0.191982452108E+03    0.10987E-03   -0.12348E-03  9960   0.244E-01    0.161E-01
DAV:   6    -0.191982362493E+03    0.89614E-04   -0.98132E-04 10440   0.253E-01
  44 F= -.19198236E+03 E0= -.19188878E+03  d E =-.274457E-01
       N       E                     dE             d eps       ncg     rms          rms(c)
DAV:   1    -0.191994370569E+03   -0.11918E-01   -0.40762E-01  8160   0.138E+00    0.203E-01
DAV:   2    -0.191995149491E+03   -0.77892E-03   -0.16711E-02 11360   0.465E-01    0.248E-01
DAV:   3    -0.191995158602E+03   -0.91107E-05   -0.36330E-03 11200   0.465E-01    0.270E-01
DAV:   4    -0.191994516427E+03    0.64217E-03   -0.20031E-03 10120   0.329E-01    0.151E-01
DAV:   5    -0.191994420342E+03    0.96085E-04   -0.10350E-03  9600   0.241E-01    0.138E-01
DAV:   6    -0.191994230966E+03    0.18938E-03   -0.48392E-04  8560   0.162E-01    0.545E-02
DAV:   7    -0.191994216390E+03    0.14576E-04   -0.12551E-04  6200   0.782E-02
  45 F= -.19199422E+03 E0= -.19190062E+03  d E =-.118539E-01
       N       E                     dE             d eps       ncg     rms          rms(c)
DAV:   1    -0.192013188610E+03   -0.18958E-01   -0.18875E+00  8160   0.291E+00    0.295E-01
DAV:   2    -0.192018315913E+03   -0.51273E-02   -0.61343E-02 11880   0.766E-01    0.385E-01
DAV:   3    -0.192018713343E+03   -0.39743E-03   -0.11078E-02 11920   0.735E-01    0.454E-01
DAV:   4    -0.192016635223E+03    0.20781E-02   -0.38879E-03 11040   0.457E-01    0.133E-01
DAV:   5    -0.192016616216E+03    0.19007E-04   -0.94674E-04 10040   0.201E-01
  46 F= -.19201662E+03 E0= -.19192301E+03  d E =-.223998E-01
       N       E                     dE             d eps       ncg     rms          rms(c)
DAV:   1    -0.192034828191E+03   -0.18193E-01   -0.23111E+00  8160   0.331E+00    0.403E-01
DAV:   2    -0.192040523342E+03   -0.56952E-02   -0.86086E-02 11720   0.849E-01    0.453E-01
DAV:   3    -0.192042213940E+03   -0.16906E-02   -0.14947E-02 12040   0.935E-01    0.644E-01
DAV:   4    -0.192037958477E+03    0.42555E-02   -0.72570E-03 12080   0.637E-01    0.204E-01
DAV:   5    -0.192038157006E+03   -0.19853E-03   -0.26757E-03 11560   0.408E-01    0.247E-01
DAV:   6    -0.192037495317E+03    0.66169E-03   -0.15419E-03 11720   0.288E-01    0.779E-02
DAV:   7    -0.192037432368E+03    0.62950E-04   -0.35445E-04  9400   0.111E-01
  47 F= -.19203743E+03 E0= -.19194222E+03  d E =-.208162E-01
       N       E                     dE             d eps       ncg     rms          rms(c)
DAV:   1    -0.192046235975E+03   -0.87407E-02   -0.11180E+01  8160   0.711E+00    0.733E-01
DAV:   2    -0.192074033958E+03   -0.27798E-01   -0.38186E-01 11760   0.168E+00    0.658E-01
DAV:   3    -0.192085228119E+03   -0.11194E-01   -0.55535E-02 12160   0.166E+00    0.128E+00
DAV:   4    -0.192068202180E+03    0.17026E-01   -0.28997E-02 11720   0.127E+00    0.299E-01
DAV:   5    -0.192069404755E+03   -0.12026E-02   -0.72250E-03 12280   0.631E-01    0.451E-01
DAV:   6    -0.192067422567E+03    0.19822E-02   -0.59346E-03 12000   0.595E-01    0.187E-01
DAV:   7    -0.192066881198E+03    0.54137E-03   -0.15215E-03 11960   0.225E-01    0.658E-02
DAV:   8    -0.192066889452E+03   -0.82545E-05   -0.30689E-04 10040   0.115E-01
  48 F= -.19206689E+03 E0= -.19196982E+03  d E =-.294571E-01
       N       E                     dE             d eps       ncg     rms          rms(c)
DAV:   1    -0.192067364038E+03   -0.48284E-03   -0.34732E-01  8160   0.125E+00    0.127E-01
DAV:   2    -0.192068124960E+03   -0.76092E-03   -0.94371E-03 11280   0.318E-01    0.161E-01
DAV:   3    -0.192067981609E+03    0.14335E-03   -0.18940E-03 12080   0.292E-01    0.159E-01
DAV:   4    -0.192067763758E+03    0.21785E-03   -0.70264E-04  8400   0.197E-01    0.885E-02
DAV:   5    -0.192067718361E+03    0.45397E-04   -0.27975E-04  8360   0.128E-01
  49 F= -.19206772E+03 E0= -.19197120E+03  d E =-.828909E-03
       N       E                     dE             d eps       ncg     rms          rms(c)
DAV:   1    -0.192072330846E+03   -0.45671E-02   -0.32905E-01  8160   0.123E+00    0.157E-01
DAV:   2    -0.192074120776E+03   -0.17899E-02   -0.11411E-02 11040   0.472E-01    0.338E-01
DAV:   3    -0.192072784722E+03    0.13361E-02   -0.31620E-03 12400   0.440E-01    0.117E-01
DAV:   4    -0.192072798830E+03   -0.14109E-04   -0.57835E-04  8800   0.170E-01
  50 F= -.19207280E+03 E0= -.19197613E+03  d E =-.508047E-02
       N       E                     dE             d eps       ncg     rms          rms(c)
DAV:   1    -0.192071208261E+03    0.15765E-02   -0.33167E-02  8560   0.442E-01    0.860E-02
DAV:   2    -0.192072688193E+03   -0.14799E-02   -0.36701E-03 12480   0.414E-01    0.378E-01
DAV:   3    -0.192071203115E+03    0.14851E-02   -0.21076E-03 10160   0.358E-01    0.383E-02
DAV:   4    -0.192071241572E+03   -0.38458E-04   -0.10122E-04  5760   0.683E-02
  51 F= -.19207124E+03 E0= -.19197503E+03  d E =0.155726E-02
       N       E                     dE             d eps       ncg     rms          rms(c)
DAV:   1    -0.192074503621E+03   -0.33005E-02   -0.18204E-01  8160   0.919E-01    0.153E-01
DAV:   2    -0.192076228780E+03   -0.17252E-02   -0.94164E-03 11560   0.576E-01    0.389E-01
DAV:   3    -0.192074500441E+03    0.17283E-02   -0.33829E-03 11960   0.452E-01    0.111E-01
DAV:   4    -0.192074600424E+03   -0.99983E-04   -0.78338E-04  9200   0.209E-01
  52 F= -.19207460E+03 E0= -.19197850E+03  d E =-.335885E-02
       N       E                     dE             d eps       ncg     rms          rms(c)
DAV:   1    -0.192074942027E+03   -0.44159E-03   -0.31459E-02  9920   0.424E-01    0.109E-01
DAV:   2    -0.192076142705E+03   -0.12007E-02   -0.29957E-03 11720   0.428E-01    0.340E-01
DAV:   3    -0.192074718089E+03    0.14246E-02   -0.15929E-03 10400   0.358E-01    0.536E-02
DAV:   4    -0.192074863760E+03   -0.14567E-03   -0.35858E-04  8560   0.146E-01    0.127E-01
DAV:   5    -0.192074694995E+03    0.16876E-03   -0.31788E-04  7920   0.137E-01    0.371E-02
DAV:   6    -0.192074680041E+03    0.14954E-04   -0.65623E-05  6000   0.442E-02
  53 F= -.19207468E+03 E0= -.19197851E+03  d E =-.796170E-04
       N       E                     dE             d eps       ncg     rms          rms(c)
DAV:   1    -0.192081349280E+03   -0.66543E-02   -0.48345E-01  8160   0.159E+00    0.325E-01
DAV:   2    -0.192081409804E+03   -0.60524E-04   -0.24687E-02 12320   0.661E-01    0.461E-01
DAV:   3    -0.192080587821E+03    0.82198E-03   -0.89751E-03 11280   0.749E-01    0.381E-01
DAV:   4    -0.192079484520E+03    0.11033E-02   -0.49625E-03 12160   0.518E-01    0.291E-01
DAV:   5    -0.192078917550E+03    0.56697E-03   -0.30189E-03 10200   0.429E-01    0.194E-01
DAV:   6    -0.192078390048E+03    0.52750E-03   -0.10682E-03  9600   0.203E-01    0.334E-02
DAV:   7    -0.192078405313E+03   -0.15265E-04   -0.11961E-04  6600   0.652E-02
  54 F= -.19207841E+03 E0= -.19198151E+03  d E =-.372527E-02
       N       E                     dE             d eps       ncg     rms          rms(c)
DAV:   1    -0.192080070259E+03   -0.16802E-02   -0.26786E-02  8160   0.367E-01    0.752E-02
DAV:   2    -0.192080434846E+03   -0.36459E-03   -0.17671E-03 11080   0.277E-01    0.192E-01
DAV:   3    -0.192080007805E+03    0.42704E-03   -0.61210E-04  9240   0.217E-01    0.448E-02
DAV:   4    -0.192080039826E+03   -0.32021E-04   -0.16358E-04  6560   0.919E-02
  55 F= -.19208004E+03 E0= -.19198337E+03  d E =-.163451E-02
       N       E                     dE             d eps       ncg     rms          rms(c)
DAV:   1    -0.192089517046E+03   -0.95092E-02   -0.91716E-01  8160   0.207E+00    0.312E-01
DAV:   2    -0.192094835411E+03   -0.53184E-02   -0.35406E-02 11680   0.104E+00    0.675E-01
DAV:   3    -0.192089350233E+03    0.54852E-02   -0.12456E-02 12400   0.849E-01    0.207E-01
DAV:   4    -0.192089344966E+03    0.52668E-05   -0.26443E-03 11400   0.320E-01    0.234E-01
DAV:   5    -0.192089158396E+03    0.18657E-03   -0.25483E-03 10480   0.385E-01    0.228E-01
DAV:   6    -0.192088598139E+03    0.56026E-03   -0.11727E-03 10320   0.237E-01    0.542E-02
DAV:   7    -0.192088585617E+03    0.12523E-04   -0.15587E-04  6280   0.579E-02
  56 F= -.19208859E+03 E0= -.19199320E+03  d E =-.854579E-02
       N       E                     dE             d eps       ncg     rms          rms(c)
DAV:   1    -0.192091816708E+03   -0.32186E-02   -0.10967E-01  8160   0.719E-01    0.103E-01
DAV:   2    -0.192092421770E+03   -0.60506E-03   -0.42230E-03 11560   0.278E-01    0.232E-01
DAV:   3    -0.192091943689E+03    0.47808E-03   -0.15744E-03 11160   0.295E-01    0.108E-01
DAV:   4    -0.192091853153E+03    0.90536E-04   -0.25189E-04  7320   0.102E-01
  57 F= -.19209185E+03 E0= -.19199684E+03  d E =-.326754E-02
       N       E                     dE             d eps       ncg     rms          rms(c)
DAV:   1    -0.192081065068E+03    0.10879E-01   -0.14781E+00  8160   0.262E+00    0.335E-01
DAV:   2    -0.192086587945E+03   -0.55229E-02   -0.41606E-02 12320   0.870E-01    0.640E-01
DAV:   3    -0.192082078451E+03    0.45095E-02   -0.15835E-02 12360   0.925E-01    0.326E-01
DAV:   4    -0.192081583655E+03    0.49480E-03   -0.33945E-03 12120   0.397E-01    0.260E-01
DAV:   5    -0.192081249095E+03    0.33456E-03   -0.22717E-03 11360   0.404E-01    0.221E-01
DAV:   6    -0.192080743607E+03    0.50549E-03   -0.10135E-03  9720   0.223E-01    0.673E-02
DAV:   7    -0.192080750898E+03   -0.72912E-05   -0.30214E-04  8680   0.102E-01
  58 F= -.19208075E+03 E0= -.19198450E+03  d E =0.111023E-01
       N       E                     dE             d eps       ncg     rms          rms(c)
DAV:   1    -0.192088851494E+03   -0.81079E-02   -0.74503E-01  8160   0.187E+00    0.247E-01
DAV:   2    -0.192090872748E+03   -0.20213E-02   -0.21501E-02 12240   0.557E-01    0.421E-01
DAV:   3    -0.192089673823E+03    0.11989E-02   -0.81240E-03 12360   0.658E-01    0.321E-01
DAV:   4    -0.192088835415E+03    0.83841E-03   -0.23372E-03 11240   0.340E-01    0.163E-01
DAV:   5    -0.192088678398E+03    0.15702E-03   -0.11386E-03 10920   0.276E-01    0.141E-01
DAV:   6    -0.192088474522E+03    0.20388E-03   -0.51546E-04  9640   0.172E-01    0.575E-02
DAV:   7    -0.192088441778E+03    0.32744E-04   -0.16391E-04  5920   0.715E-02
  59 F= -.19208844E+03 E0= -.19199291E+03  d E =-.769088E-02
       N       E                     dE             d eps       ncg     rms          rms(c)
DAV:   1    -0.192090910925E+03   -0.24364E-02   -0.73785E-02  8160   0.588E-01    0.854E-02
DAV:   2    -0.192091434570E+03   -0.52365E-03   -0.26038E-03 11040   0.289E-01    0.213E-01
DAV:   3    -0.192090925010E+03    0.50956E-03   -0.94245E-04 10080   0.254E-01    0.700E-02
DAV:   4    -0.192090927849E+03   -0.28389E-05   -0.27275E-04  8000   0.108E-01
  60 F= -.19209093E+03 E0= -.19199565E+03  d E =-.248607E-02
       N       E                     dE             d eps       ncg     rms          rms(c)
DAV:   1    -0.192095842082E+03   -0.49171E-02   -0.25743E-01  8160   0.110E+00    0.151E-01
DAV:   2    -0.192096461897E+03   -0.61982E-03   -0.76787E-03 11280   0.367E-01    0.220E-01
DAV:   3    -0.192096081558E+03    0.38034E-03   -0.24232E-03 12440   0.355E-01    0.173E-01
DAV:   4    -0.192095907699E+03    0.17386E-03   -0.94800E-04  9920   0.227E-01    0.119E-01
DAV:   5    -0.192095860497E+03    0.47203E-04   -0.54592E-04  9240   0.178E-01
  61 F= -.19209586E+03 E0= -.19200176E+03  d E =-.493265E-02
       N       E                     dE             d eps       ncg     rms          rms(c)
DAV:   1    -0.192098336491E+03   -0.24288E-02   -0.67503E-02  8160   0.579E-01    0.854E-02
DAV:   2    -0.192098728643E+03   -0.39215E-03   -0.21973E-03 12320   0.239E-01    0.181E-01
DAV:   3    -0.192098335898E+03    0.39274E-03   -0.89803E-04 10800   0.236E-01    0.615E-02
DAV:   4    -0.192098346749E+03   -0.10851E-04   -0.18662E-04  6880   0.897E-02
  62 F= -.19209835E+03 E0= -.19200427E+03  d E =-.248625E-02
       N       E                     dE             d eps       ncg     rms          rms(c)
DAV:   1    -0.192102909837E+03   -0.45739E-02   -0.20928E-01  8160   0.987E-01    0.132E-01
DAV:   2    -0.192103586893E+03   -0.67706E-03   -0.66567E-03 11240   0.322E-01    0.231E-01
DAV:   3    -0.192103179923E+03    0.40697E-03   -0.24398E-03 11720   0.342E-01    0.161E-01
DAV:   4    -0.192102973775E+03    0.20615E-03   -0.58882E-04  8520   0.173E-01    0.751E-02
DAV:   5    -0.192102955066E+03    0.18709E-04   -0.27153E-04  8560   0.132E-01
  63 F= -.19210296E+03 E0= -.19200976E+03  d E =-.460832E-02
       N       E                     dE             d eps       ncg     rms          rms(c)
DAV:   1    -0.192109623423E+03   -0.66496E-02   -0.39772E-01  8160   0.136E+00    0.179E-01
DAV:   2    -0.192111215077E+03   -0.15917E-02   -0.11890E-02 12200   0.473E-01    0.344E-01
DAV:   3    -0.192109871580E+03    0.13435E-02   -0.43432E-03 12360   0.479E-01    0.152E-01
DAV:   4    -0.192109840720E+03    0.30861E-04   -0.98178E-04  9920   0.209E-01
  64 F= -.19210984E+03 E0= -.19201734E+03  d E =-.688565E-02
       N       E                     dE             d eps       ncg     rms          rms(c)
DAV:   1    -0.192104432790E+03    0.54388E-02   -0.27153E-01  8160   0.117E+00    0.181E-01
DAV:   2    -0.192108281192E+03   -0.38484E-02   -0.12728E-02 12200   0.713E-01    0.601E-01
DAV:   3    -0.192104385712E+03    0.38955E-02   -0.63986E-03 10360   0.640E-01    0.115E-01
DAV:   4    -0.192104523434E+03   -0.13772E-03   -0.11638E-03  9640   0.218E-01    0.158E-01
DAV:   5    -0.192104216383E+03    0.30705E-03   -0.53844E-04  8440   0.183E-01    0.395E-02
DAV:   6    -0.192104211022E+03    0.53610E-05   -0.11470E-04  6680   0.582E-02
  65 F= -.19210421E+03 E0= -.19201128E+03  d E =0.562970E-02
       N       E                     dE             d eps       ncg     rms          rms(c)
DAV:   1    -0.192114866726E+03   -0.10650E-01   -0.91982E-01  8160   0.209E+00    0.272E-01
DAV:   2    -0.192115906295E+03   -0.10396E-02   -0.23617E-02 11040   0.491E-01    0.302E-01
DAV:   3    -0.192115534034E+03    0.37226E-03   -0.62309E-03 12400   0.588E-01    0.326E-01
DAV:   4    -0.192114550248E+03    0.98379E-03   -0.24103E-03 11320   0.406E-01    0.163E-01
DAV:   5    -0.192114483075E+03    0.67173E-04   -0.17335E-03 10240   0.278E-01    0.184E-01
DAV:   6    -0.192114205727E+03    0.27735E-03   -0.10444E-03 10160   0.234E-01    0.886E-02
DAV:   7    -0.192114110707E+03    0.95020E-04   -0.21597E-04  7080   0.891E-02
  66 F= -.19211411E+03 E0= -.19202210E+03  d E =-.989969E-02
       N       E                     dE             d eps       ncg     rms          rms(c)
DAV:   1    -0.192117468223E+03   -0.32625E-02   -0.89232E-02  8160   0.653E-01    0.109E-01
DAV:   2    -0.192118087439E+03   -0.61922E-03   -0.42736E-03 10920   0.365E-01    0.246E-01
DAV:   3    -0.192117445208E+03    0.64223E-03   -0.15705E-03 11240   0.304E-01    0.910E-02
DAV:   4    -0.192117445646E+03   -0.43792E-06   -0.37144E-04  8200   0.148E-01
  67 F= -.19211745E+03 E0= -.19202595E+03  d E =-.333494E-02
       N       E                     dE             d eps       ncg     rms          rms(c)
DAV:   1    -0.192125112704E+03   -0.76675E-02   -0.50387E-01  8160   0.152E+00    0.192E-01
DAV:   2    -0.192126176738E+03   -0.10640E-02   -0.13379E-02 10920   0.441E-01    0.274E-01
DAV:   3    -0.192125678635E+03    0.49810E-03   -0.43166E-03 11320   0.447E-01    0.238E-01
DAV:   4    -0.192125285028E+03    0.39361E-03   -0.14410E-03 10920   0.281E-01    0.130E-01
DAV:   5    -0.192125195577E+03    0.89451E-04   -0.64407E-04  9960   0.204E-01
  68 F= -.19212520E+03 E0= -.19203521E+03  d E =-.774993E-02
       N       E                     dE             d eps       ncg     rms          rms(c)
DAV:   1    -0.192129999456E+03   -0.47144E-02   -0.20786E-01  8160   0.989E-01    0.130E-01
DAV:   2    -0.192130821486E+03   -0.82203E-03   -0.65181E-03 12400   0.340E-01    0.243E-01
DAV:   3    -0.192130181150E+03    0.64034E-03   -0.20952E-03 11840   0.335E-01    0.108E-01
DAV:   4    -0.192130193540E+03   -0.12390E-04   -0.47596E-04  8760   0.156E-01
  69 F= -.19213019E+03 E0= -.19204055E+03  d E =-.499796E-02
       N       E                     dE             d eps       ncg     rms          rms(c)
DAV:   1    -0.192131152308E+03   -0.97116E-03   -0.94751E-03  8400   0.257E-01    0.716E-02
DAV:   2    -0.192131853719E+03   -0.70141E-03   -0.14635E-03 11600   0.295E-01    0.261E-01
DAV:   3    -0.192131099469E+03    0.75425E-03   -0.95880E-04  9640   0.265E-01    0.431E-02
DAV:   4    -0.192131104121E+03   -0.46524E-05   -0.72295E-05  5720   0.542E-02
  70 F= -.19213110E+03 E0= -.19204171E+03  d E =-.910581E-03
       N       E                     dE             d eps       ncg     rms          rms(c)
DAV:   1    -0.192139985091E+03   -0.88856E-02   -0.71121E-01  8160   0.181E+00    0.225E-01
DAV:   2    -0.192142688219E+03   -0.27031E-02   -0.22113E-02 11440   0.638E-01    0.427E-01
DAV:   3    -0.192140709227E+03    0.19790E-02   -0.70486E-03 11560   0.593E-01    0.210E-01
DAV:   4    -0.192140572085E+03    0.13714E-03   -0.15688E-03 11920   0.287E-01    0.182E-01
DAV:   5    -0.192140342235E+03    0.22985E-03   -0.94489E-04 10120   0.269E-01    0.127E-01
DAV:   6    -0.192140174313E+03    0.16792E-03   -0.39896E-04  9240   0.147E-01    0.465E-02
DAV:   7    -0.192140174091E+03    0.22125E-06   -0.11372E-04  6600   0.666E-02
  71 F= -.19214017E+03 E0= -.19205188E+03  d E =-.906997E-02
       N       E                     dE             d eps       ncg     rms          rms(c)
DAV:   1    -0.192141018538E+03   -0.84423E-03   -0.22759E-02  8160   0.363E-01    0.828E-02
DAV:   2    -0.192140957665E+03    0.60873E-04   -0.11580E-03 10440   0.151E-01    0.107E-01
DAV:   3    -0.192140945100E+03    0.12565E-04   -0.59289E-04  8840   0.196E-01
  72 F= -.19214095E+03 E0= -.19205257E+03  d E =-.771009E-03
       N       E                     dE             d eps       ncg     rms          rms(c)
DAV:   1    -0.192148043741E+03   -0.70861E-02   -0.51750E-01  8160   0.155E+00    0.195E-01
DAV:   2    -0.192148770286E+03   -0.72654E-03   -0.14869E-02 11000   0.369E-01    0.210E-01
DAV:   3    -0.192148945005E+03   -0.17472E-03   -0.44065E-03 12440   0.436E-01    0.279E-01
DAV:   4    -0.192148212762E+03    0.73224E-03   -0.17701E-03 10680   0.314E-01    0.106E-01
DAV:   5    -0.192148080632E+03    0.13213E-03   -0.49838E-04  9040   0.151E-01    0.779E-02
DAV:   6    -0.192148084450E+03   -0.38181E-05   -0.31571E-04  9120   0.151E-01
  73 F= -.19214808E+03 E0= -.19206032E+03  d E =-.713935E-02
       N       E                     dE             d eps       ncg     rms          rms(c)
DAV:   1    -0.192152519615E+03   -0.44390E-02   -0.20903E-01  8160   0.985E-01    0.136E-01
DAV:   2    -0.192154058115E+03   -0.15385E-02   -0.89634E-03 11040   0.522E-01    0.341E-01
DAV:   3    -0.192152733398E+03    0.13247E-02   -0.28162E-03 12280   0.410E-01    0.102E-01
DAV:   4    -0.192152755532E+03   -0.22134E-04   -0.51566E-04  8360   0.172E-01
  74 F= -.19215276E+03 E0= -.19206587E+03  d E =-.467108E-02
       N       E                     dE             d eps       ncg     rms          rms(c)
DAV:   1    -0.192156104493E+03   -0.33711E-02   -0.12756E-01  8160   0.786E-01    0.120E-01
DAV:   2    -0.192156576901E+03   -0.47241E-03   -0.42409E-03 11920   0.270E-01    0.200E-01
DAV:   3    -0.192156216368E+03    0.36053E-03   -0.14921E-03 11080   0.299E-01    0.143E-01
DAV:   4    -0.192156060150E+03    0.15622E-03   -0.45941E-04  8320   0.162E-01    0.680E-02
DAV:   5    -0.192156044921E+03    0.15229E-04   -0.22333E-04  8000   0.102E-01
  75 F= -.19215604E+03 E0= -.19206961E+03  d E =-.328939E-02
       N       E                     dE             d eps       ncg     rms          rms(c)
DAV:   1    -0.192163508199E+03   -0.74480E-02   -0.85883E-01  8160   0.198E+00    0.219E-01
DAV:   2    -0.192165283625E+03   -0.17754E-02   -0.24176E-02 11400   0.524E-01    0.265E-01
DAV:   3    -0.192165259806E+03    0.23819E-04   -0.48651E-03 12320   0.505E-01    0.290E-01
DAV:   4    -0.192164507597E+03    0.75221E-03   -0.17822E-03 11800   0.330E-01    0.129E-01
DAV:   5    -0.192164382606E+03    0.12499E-03   -0.67720E-04  9840   0.201E-01    0.105E-01
DAV:   6    -0.192164336367E+03    0.46239E-04   -0.42959E-04  9520   0.173E-01
  76 F= -.19216434E+03 E0= -.19207882E+03  d E =-.829145E-02
       N       E                     dE             d eps       ncg     rms          rms(c)
DAV:   1    -0.192169738330E+03   -0.53557E-02   -0.10893E+01  8160   0.708E+00    0.750E-01
DAV:   2    -0.192194974233E+03   -0.25236E-01   -0.32768E-01 11440   0.178E+00    0.858E-01
DAV:   3    -0.192195514208E+03   -0.53997E-03   -0.54011E-02 12280   0.173E+00    0.976E-01
DAV:   4    -0.192186326821E+03    0.91874E-02   -0.20593E-02 12280   0.114E+00    0.426E-01
DAV:   5    -0.192184982912E+03    0.13439E-02   -0.77087E-03 11600   0.696E-01    0.361E-01
DAV:   6    -0.192184364351E+03    0.61856E-03   -0.50597E-03 12120   0.578E-01    0.253E-01
DAV:   7    -0.192183478123E+03    0.88623E-03   -0.18148E-03 11400   0.272E-01    0.945E-02
DAV:   8    -0.192183429237E+03    0.48885E-04   -0.47292E-04  9520   0.161E-01
  77 F= -.19218343E+03 E0= -.19210132E+03  d E =-.190929E-01
       N       E                     dE             d eps       ncg     rms          rms(c)
DAV:   1    -0.192183900195E+03   -0.42207E-03   -0.48217E-02  8160   0.493E-01    0.792E-02
DAV:   2    -0.192183975448E+03   -0.75253E-04   -0.19404E-03 11560   0.163E-01    0.103E-01
DAV:   3    -0.192183952719E+03    0.22729E-04   -0.55187E-04 10000   0.193E-01
  78 F= -.19218395E+03 E0= -.19210181E+03  d E =-.523482E-03
       N       E                     dE             d eps       ncg     rms          rms(c)
DAV:   1    -0.192184778338E+03   -0.80289E-03   -0.88459E-02  8160   0.649E-01    0.112E-01
DAV:   2    -0.192185296602E+03   -0.51826E-03   -0.43429E-03 12280   0.316E-01    0.213E-01
DAV:   3    -0.192184866703E+03    0.42990E-03   -0.14206E-03 10960   0.308E-01    0.112E-01
DAV:   4    -0.192184766252E+03    0.10045E-03   -0.37110E-04  8160   0.132E-01    0.718E-02
DAV:   5    -0.192184736542E+03    0.29710E-04   -0.25532E-04  8360   0.123E-01
  79 F= -.19218474E+03 E0= -.19210263E+03  d E =-.783823E-03
       N       E                     dE             d eps       ncg     rms          rms(c)
DAV:   1    -0.192185176267E+03   -0.41002E-03   -0.12423E-02  8160   0.249E-01    0.559E-02
DAV:   2    -0.192185275752E+03   -0.99485E-04   -0.86826E-04 10400   0.173E-01
  80 F= -.19218528E+03 E0= -.19210304E+03  d E =-.539210E-03
       N       E                     dE             d eps       ncg     rms          rms(c)
DAV:   1    -0.192185256537E+03   -0.80270E-04   -0.18042E-02 10800   0.369E-01    0.644E-02
DAV:   2    -0.192185519144E+03   -0.26261E-03   -0.13548E-03 11680   0.206E-01    0.164E-01
DAV:   3    -0.192185220281E+03    0.29886E-03   -0.58238E-04  8840   0.197E-01    0.510E-02
DAV:   4    -0.192185202130E+03    0.18152E-04   -0.81512E-05  5720   0.613E-02
  81 F= -.19218520E+03 E0= -.19210328E+03  d E =0.736227E-04
