unknown system                          
           1
     8.858506    5.103244    0.000000
    -8.858897    5.103917    0.000000
     0.000000    0.000000   30.000000
   V    Mo   W    S 
   3   3   3  18
Direct configuration=     1
   0.33333334  0.00000000  0.00000000
   0.66666669  0.33333334  0.00000000
   1.00000000  0.33333334  0.00000000
   0.66666669  0.66666669  0.00000000
   0.66666669  0.00000000  0.00000000
   0.33333334  0.33333334  0.00000000
   0.00000000  0.00000000  0.00000000
   0.00000000  0.66666669  0.00000000
   0.33333334  0.66666669  0.00000000
   0.11068511  0.22244981  0.95539999
   0.22244981  0.11068511  0.04460000
   0.11068511  0.55578315  0.95539999
   0.22244981  0.44401845  0.04460000
   0.11068511  0.88911647  0.95539999
   0.22244981  0.77735180  0.04460000
   0.44401845  0.22244981  0.95539999
   0.55578315  0.11068511  0.04460000
   0.44401845  0.55578315  0.95539999
   0.55578315  0.44401845  0.04460000
   0.44401845  0.88911647  0.95539999
   0.55578315  0.77735180  0.04460000
   0.77735180  0.22244981  0.95539999
   0.88911647  0.11068511  0.04460000
   0.77735180  0.55578315  0.95539999
   0.88911647  0.44401845  0.04460000
   0.77735180  0.88911647  0.95539999
   0.88911647  0.77735180  0.04460000
unknown system                          
           1
     8.669694    4.996962    0.000000
    -8.670017    4.997517    0.000000
     0.000000    0.000000   30.000000
   V    Mo   W    S 
   3   3   3  18
Direct configuration=     2
   0.33484706  0.00149044 -0.00012379
   0.66554418  0.33294046 -0.00003132
   0.99957534  0.33217582  0.00010680
   0.66529570  0.66666314  0.00002515
   0.66665239 -0.00100238 -0.00005723
   0.33485928  0.33467254  0.00003053
  -0.00132095  0.00026259 -0.00016463
  -0.00181433  0.66619243  0.00003421
   0.33631106  0.66657775  0.00020832
   0.10813979  0.22346113  0.95202335
   0.22362323  0.10818711  0.04791981
   0.10921486  0.55177848  0.95200931
   0.21798679  0.44313531  0.04808472
   0.11483780  0.89065758  0.95186074
   0.22386337  0.78130157  0.04800892
   0.44646282  0.21983940  0.95300511
   0.55328843  0.11316716  0.04694873
   0.44398727  0.55586251  0.95067031
   0.55786671  0.44197665  0.04799613
   0.44139259  0.89039733  0.95199478
   0.55435792  0.77711704  0.04932577
   0.77963812  0.22650972  0.95315307
   0.89148382  0.11522541  0.04812910
   0.77646912  0.55149123  0.95194356
   0.88739481  0.44086216  0.04690686
   0.77876340  0.88925713  0.95073840
   0.88949386  0.77801474  0.04925318
unknown system                          
           1
     8.488238    4.898865    0.000000
    -8.488797    4.899831    0.000000
     0.000000    0.000000   30.000000
   V    Mo   W    S 
   3   3   3  18
Direct configuration=     3
   0.33516928  0.00187231 -0.00009252
   0.66523751  0.33287877 -0.00003444
   0.99948302  0.33179443  0.00006565
   0.66473743  0.66688409  0.00003225
   0.66666319 -0.00180817 -0.00010409
   0.33537142  0.33544059  0.00007944
  -0.00189343  0.00004292 -0.00018522
  -0.00232622  0.66632630  0.00002711
   0.33750010  0.66653041  0.00022464
   0.10799041  0.22327994  0.95204111
   0.22342308  0.10803808  0.04783477
   0.10927239  0.55194299  0.95217404
   0.21799911  0.44331165  0.04809213
   0.11468893  0.89062717  0.95191970
   0.22380462  0.78113133  0.04786684
   0.44652894  0.21982910  0.95299534
   0.55329176  0.11322498  0.04689166
   0.44387415  0.55600733  0.95054325
   0.55792984  0.44190343  0.04804406
   0.44122605  0.89018088  0.95200046
   0.55413082  0.77697291  0.04948702
   0.77968509  0.22657423  0.95323739
   0.89167756  0.11523982  0.04816130
   0.77661976  0.55149905  0.95195599
   0.88743415  0.44101975  0.04684983
   0.77900161  0.88936259  0.95063584
   0.88969391  0.77810758  0.04925636
unknown system                          
           1
     8.282742    4.774522    0.000000
    -8.283401    4.775661    0.000000
     0.000000    0.000000   30.000000
   V    Mo   W    S 
   3   3   3  18
Direct configuration=     4
   0.33571076  0.00276605  0.00007749
   0.66433866  0.33295582 -0.00003199
   0.99937937  0.33037875 -0.00012247
   0.66269235  0.66824678  0.00004114
   0.66668739 -0.00557105 -0.00022434
   0.33703953  0.33858985  0.00023565
  -0.00418468 -0.00139143 -0.00017041
  -0.00392531  0.66744631 -0.00002029
   0.34202234  0.66635319  0.00018555
   0.10762231  0.22380846  0.95067939
   0.22371981  0.10753815  0.04889175
   0.10902504  0.55133865  0.95140952
   0.21692041  0.44288515  0.04959998
   0.11565462  0.89135618  0.95064689
   0.22435902  0.78184618  0.04872961
   0.44713929  0.21947767  0.95163689
   0.55306344  0.11375505  0.04794391
   0.44387922  0.55612777  0.94840479
   0.55868560  0.44135554  0.04966100
   0.44057901  0.89040884  0.95058699
   0.55423810  0.77697689  0.05179751
   0.78011162  0.22744565  0.95227506
   0.89224399  0.11632651  0.04974525
   0.77583016  0.55037501  0.95054322
   0.88672310  0.43998223  0.04797997
   0.77906128  0.88925743  0.94859354
   0.88959803  0.77817883  0.05090429
unknown system                          
           1
     8.299102    4.777091    0.000000
    -8.301862    4.781872    0.000000
     0.000000    0.000000   30.000000
   V    Mo   W    S 
   3   3   3  18
Direct configuration=     5
   0.33601927  0.00407524  0.00041593
   0.66309350  0.33337287 -0.00000612
   0.99909740  0.32729090 -0.00046317
   0.65919101  0.67150673  0.00001808
   0.66694386 -0.01300158 -0.00025902
   0.34034664  0.34495474  0.00041199
  -0.00908108 -0.00493318 -0.00004212
  -0.00751485  0.66997968 -0.00016345
   0.35096056  0.66601890  0.00005726
   0.10783143  0.22430684  0.94904830
   0.22397403  0.10794131  0.05004472
   0.10958955  0.55136045  0.95087583
   0.21626907  0.44290712  0.05169872
   0.11677036  0.89260289  0.94885152
   0.22515993  0.78208686  0.04955128
   0.44776866  0.21971363  0.94969603
   0.55354095  0.11397258  0.04929625
   0.44451952  0.55610410  0.94529400
   0.55954991  0.44144317  0.05184826
   0.44052406  0.89037807  0.94877311
   0.55483196  0.77717247  0.05526381
   0.77982353  0.22712699  0.95102641
   0.89210757  0.11696608  0.05184931
   0.77420496  0.54937408  0.94871701
   0.88567871  0.43887368  0.04943502
   0.77868199  0.88853446  0.94556560
   0.88833195  0.77808536  0.05319531
unknown system                          
           1
     8.294596    4.773631    0.000000
    -8.298153    4.779796    0.000000
     0.000000    0.000000   30.000000
   V    Mo   W    S 
   3   3   3  18
Direct configuration=     6
   0.33590973  0.00448469  0.00042770
   0.66290106  0.33350763  0.00003096
   0.99885014  0.32582940 -0.00048624
   0.65982031  0.67177131 -0.00002134
   0.66749826 -0.01345104 -0.00018818
   0.34138887  0.34634384  0.00037411
  -0.01074543 -0.00650356 -0.00011283
  -0.00911683  0.67102419 -0.00024164
   0.35193114  0.66595297  0.00012384
   0.10821095  0.22390300  0.94922423
   0.22365402  0.10880581  0.04981021
   0.11051756  0.55238373  0.95139510
   0.21685229  0.44354109  0.05171246
   0.11656568  0.89294443  0.94882341
   0.22521712  0.78119041  0.04915925
   0.44761038  0.22009436  0.94972845
   0.55408889  0.11356528  0.04914359
   0.44509848  0.55614595  0.94498568
   0.55954964  0.44223388  0.05185351
   0.44102426  0.88991579  0.94887935
   0.55506611  0.77721774  0.05556970
   0.77913301  0.22586775  0.95114986
   0.89169778  0.11638075  0.05193734
   0.77376208  0.54979799  0.94868854
   0.88573464  0.43915881  0.04927014
   0.77850776  0.88816006  0.94531313
   0.88748655  0.77794820  0.05344959
unknown system                          
           1
     8.293213    4.771525    0.000000
    -8.297803    4.779484    0.000000
     0.000000    0.000000   30.000000
   V    Mo   W    S 
   3   3   3  18
Direct configuration=     7
   0.33595305  0.00477052  0.00046903
   0.66271212  0.33355396  0.00006732
   0.99862719  0.32474943 -0.00051823
   0.65995269  0.67205830 -0.00002381
   0.66785202 -0.01401116 -0.00016700
   0.34223392  0.34758759  0.00037009
  -0.01199042 -0.00761780 -0.00012181
  -0.01021960  0.67178889 -0.00027439
   0.35312465  0.66583638  0.00011522
   0.10836015  0.22372253  0.94925838
   0.22349907  0.10913943  0.04969945
   0.11076805  0.55278267  0.95167355
   0.21701230  0.44371864  0.05178397
   0.11650466  0.89312534  0.94873494
   0.22518638  0.78085997  0.04897752
   0.44759359  0.22023335  0.94967651
   0.55428709  0.11343507  0.04910139
   0.44534235  0.55624781  0.94477489
   0.55960674  0.44250431  0.05194042
   0.44119459  0.88977731  0.94888199
   0.55521564  0.77721737  0.05578932
   0.77890081  0.22544497  0.95117760
   0.89162712  0.11620518  0.05207200
   0.77353170  0.54984603  0.94856528
   0.88575596  0.43928243  0.04920626
   0.77840908  0.88801404  0.94508443
   0.88717356  0.77794190  0.05368558
unknown system                          
           1
     8.294381    4.770922    0.000000
    -8.299441    4.779694    0.000000
     0.000000    0.000000   30.000000
   V    Mo   W    S 
   3   3   3  18
Direct configuration=     8
   0.33604934  0.00514784  0.00052167
   0.66245694  0.33359213  0.00011356
   0.99830396  0.32328289 -0.00055543
   0.66024465  0.67227217 -0.00002983
   0.66834297 -0.01446937 -0.00013957
   0.34333793  0.34912034  0.00036521
  -0.01354393 -0.00904110 -0.00013721
  -0.01163319  0.67278571 -0.00032464
   0.35445046  0.66567561  0.00011365
   0.10856703  0.22344983  0.94936061
   0.22327600  0.10957307  0.04949594
   0.11103778  0.55330549  0.95208676
   0.21724388  0.44394612  0.05180875
   0.11637323  0.89331541  0.94867365
   0.22509385  0.78041655  0.04869405
   0.44756339  0.22040725  0.94966976
   0.55451963  0.11327403  0.04900127
   0.44565922  0.55638710  0.94458119
   0.55965552  0.44283032  0.05199593
   0.44140315  0.88960520  0.94894438
   0.55540170  0.77721872  0.05597400
   0.77862202  0.22493540  0.95125650
   0.89155857  0.11596344  0.05219868
   0.77329090  0.54990451  0.94844840
   0.88582976  0.43950396  0.04906442
   0.77829329  0.88784923  0.94486745
   0.88681640  0.77796260  0.05395077
unknown system                          
           1
     8.293745    4.771291    0.000000
    -8.298587    4.779686    0.000000
     0.000000    0.000000   30.000000
   V    Mo   W    S 
   3   3   3  18
Direct configuration=     9
   0.33612990  0.00535294  0.00055183
   0.66229930  0.33360428  0.00013063
   0.99813857  0.32252537 -0.00057768
   0.66037818  0.67229690 -0.00003867
   0.66858040 -0.01462550 -0.00012800
   0.34389423  0.34985534  0.00036897
  -0.01426312 -0.00971092 -0.00014599
  -0.01230525  0.67328081 -0.00036057
   0.35502448  0.66559322  0.00012330
   0.10868052  0.22332296  0.94939312
   0.22317849  0.10978079  0.04940542
   0.11113526  0.55353267  0.95227705
   0.21734521  0.44404610  0.05183530
   0.11631528  0.89340193  0.94863007
   0.22504531  0.78022411  0.04856894
   0.44756346  0.22048381  0.94965157
   0.55461383  0.11322004  0.04897202
   0.44582391  0.55643791  0.94445328
   0.55968029  0.44295231  0.05204777
   0.44148083  0.88953770  0.94895391
   0.55549583  0.77723555  0.05608956
   0.77850889  0.22473656  0.95127834
   0.89153496  0.11587012  0.05228670
   0.77318009  0.54989334  0.94837297
   0.88586096  0.43960497  0.04901029
   0.77824116  0.88777166  0.94473935
   0.88665348  0.77798947  0.05411043
unknown system                          
           1
     8.282941    4.767764    0.000000
    -8.288218    4.776917    0.000000
     0.000000    0.000000   30.000000
   V    Mo   W    S 
   3   3   3  18
Direct configuration=    10
   0.33602118  0.00520234  0.00053053
   0.66242707  0.33359261  0.00011838
   0.99828057  0.32312224 -0.00056604
   0.66031657  0.67234456 -0.00003519
   0.66840742 -0.01458865 -0.00013265
   0.34349730  0.34935643  0.00036904
  -0.01377261 -0.00930676 -0.00014464
  -0.01189715  0.67295552 -0.00033850
   0.35466474  0.66563753  0.00011918
   0.10859422  0.22342384  0.94936061
   0.22325355  0.10964251  0.04948386
   0.11111884  0.55339817  0.95212613
   0.21727531  0.44398785  0.05183358
   0.11637858  0.89335292  0.94864787
   0.22509542  0.78035024  0.04866769
   0.44756552  0.22043566  0.94965624
   0.55456176  0.11325122  0.04899382
   0.44571617  0.55639259  0.94451903
   0.55965931  0.44288087  0.05201558
   0.44144681  0.88958714  0.94893329
   0.55541968  0.77721783  0.05604100
   0.77855598  0.22484281  0.95125680
   0.89153541  0.11593083  0.05223533
   0.77324574  0.54991604  0.94842206
   0.88581517  0.43951046  0.04906728
   0.77828442  0.88782102  0.94480326
   0.88674747  0.77795665  0.05401636
unknown system                          
           1
     8.267267    4.766319    0.000000
    -8.271061    4.772894    0.000000
     0.000000    0.000000   30.000000
   V    Mo   W    S 
   3   3   3  18
Direct configuration=    11
   0.33522057  0.00485837  0.00047641
   0.66312276  0.33358961  0.00010129
   0.99866902  0.32520110 -0.00055032
   0.66090969  0.67335767 -0.00003210
   0.66811213 -0.01519379 -0.00011150
   0.34271298  0.34840728  0.00034870
  -0.01309510 -0.00933696 -0.00014843
  -0.01162863  0.67225621 -0.00026325
   0.35417963  0.66568168  0.00011447
   0.10821761  0.22366303  0.94929024
   0.22334828  0.10925919  0.04975674
   0.11137914  0.55341622  0.95171710
   0.21699546  0.44388553  0.05189574
   0.11674471  0.89328535  0.94862961
   0.22517687  0.78043795  0.04890345
   0.44755427  0.22028043  0.94966710
   0.55454197  0.11328277  0.04898557
   0.44557208  0.55632904  0.94461947
   0.55970015  0.44282781  0.05188882
   0.44150569  0.88968667  0.94887953
   0.55516028  0.77706409  0.05601675
   0.77840467  0.22495118  0.95122159
   0.89155257  0.11605839  0.05205062
   0.77326964  0.55001927  0.94856005
   0.88564181  0.43922034  0.04926837
   0.77843671  0.88792697  0.94484823
   0.88680949  0.77779905  0.05386565
unknown system                          
           1
     8.279477    4.764448    0.000000
    -8.283604    4.771592    0.000000
     0.000000    0.000000   30.000000
   V    Mo   W    S 
   3   3   3  18
Direct configuration=    12
   0.33248985  0.00341265  0.00028478
   0.66531953  0.33314332  0.00001013
   1.00094075  0.33424753 -0.00051740
   0.66115183  0.67544764 -0.00003744
   0.66604358 -0.01604713 -0.00010545
   0.33789889  0.34268040  0.00032810
  -0.00754367 -0.00610039 -0.00017451
  -0.00757789  0.66832703  0.00001334
   0.35024483  0.66565114  0.00006020
   0.10685670  0.22479324  0.94898991
   0.22406398  0.10768805  0.05086558
   0.11178548  0.55273607  0.94983118
   0.21605040  0.44329511  0.05202921
   0.11773643  0.89263023  0.94864585
   0.22559367  0.78142622  0.05000821
   0.44749016  0.21962821  0.94968023
   0.55410661  0.11339085  0.04910836
   0.44474972  0.55587740  0.94526724
   0.55957802  0.44232236  0.05143721
   0.44146175  0.89014787  0.94866851
   0.55421677  0.77666612  0.05575615
   0.77845667  0.22568813  0.95099024
   0.89163643  0.11666336  0.05130744
   0.77375921  0.55048745  0.94905473
   0.88500194  0.43815406  0.05016250
   0.77920649  0.88859067  0.94524369
   0.88749632  0.77726685  0.05309191
unknown system                          
           1
     8.282596    4.766110    0.000000
    -8.287643    4.774847    0.000000
     0.000000    0.000000   30.000000
   V    Mo   W    S 
   3   3   3  18
Direct configuration=    13
   0.33271060  0.00490132  0.00045254
   0.66458830  0.33298633  0.00004540
   1.00144267  0.33432367 -0.00052818
   0.66044324  0.67538401 -0.00003550
   0.66594662 -0.01687132 -0.00013687
   0.33831687  0.34316283  0.00035145
  -0.00846963 -0.00700599 -0.00007246
  -0.00778525  0.66854893 -0.00003786
   0.35124810  0.66521026  0.00013230
   0.10729197  0.22444507  0.94913600
   0.22381599  0.10838126  0.05056212
   0.11170653  0.55335517  0.95032492
   0.21643850  0.44345156  0.05203965
   0.11714176  0.89251869  0.94850617
   0.22539123  0.78098460  0.04952061
   0.44733948  0.21981562  0.94969738
   0.55419794  0.11305242  0.04899138
   0.44531806  0.55580668  0.94507738
   0.55951241  0.44274837  0.05144656
   0.44146734  0.88969226  0.94883730
   0.55444047  0.77664156  0.05598981
   0.77850480  0.22497688  0.95114890
   0.89174807  0.11642183  0.05131611
   0.77364287  0.55064053  0.94894475
   0.88527878  0.43871379  0.04998969
   0.77935438  0.88858329  0.94500720
   0.88718237  0.77734485  0.05329314
unknown system                          
           1
     8.290572    4.765113    0.000000
    -8.298914    4.779567    0.000000
     0.000000    0.000000   30.000000
   V    Mo   W    S 
   3   3   3  18
Direct configuration=    14
   0.33069299  0.00650679  0.00035585
   0.66499071  0.33237501 -0.00000098
   1.00363259  0.33992699 -0.00053862
   0.66051910  0.67739622 -0.00009642
   0.66506103 -0.01905354 -0.00017545
   0.33669240  0.34123886  0.00025310
  -0.00710580 -0.00750314 -0.00015563
  -0.00693112  0.66705230  0.00006387
   0.35065292  0.66406472  0.00015166
   0.10687951  0.22462254  0.94924104
   0.22377556  0.10830515  0.05101471
   0.11236446  0.55406724  0.94977127
   0.21634208  0.44325595  0.05227244
   0.11723770  0.89226786  0.94840481
   0.22562053  0.78098480  0.04949198
   0.44707661  0.21954593  0.94965291
   0.55412145  0.11259224  0.04888159
   0.44553353  0.55550446  0.94514459
   0.55952777  0.44309627  0.05124630
   0.44139917  0.88936004  0.94903448
   0.55416752  0.77633123  0.05624624
   0.77839791  0.22440735  0.95130820
   0.89186427  0.11643559  0.05086968
   0.77358702  0.55102176  0.94909137
   0.88512051  0.43861828  0.05035464
   0.77995790  0.88889097  0.94492105
   0.88703613  0.77690259  0.05319523
unknown system                          
           1
     8.284575    4.764678    0.000000
    -8.290750    4.775371    0.000000
     0.000000    0.000000   30.000000
   V    Mo   W    S 
   3   3   3  18
Direct configuration=    15
   0.33062068  0.00843819  0.00040860
   0.66433295  0.33209574  0.00005064
   1.00403342  0.33966569 -0.00053207
   0.66083202  0.67781563 -0.00009390
   0.66561773 -0.01998953 -0.00011379
   0.33817028  0.34285807  0.00026957
  -0.00910367 -0.00977571 -0.00012915
  -0.00871093  0.66788252  0.00000855
   0.35201752  0.66307807  0.00024568
   0.10707619  0.22424816  0.94949177
   0.22330671  0.10886035  0.05081719
   0.11268760  0.55480897  0.95022472
   0.21663973  0.44331002  0.05233748
   0.11694267  0.89238283  0.94830637
   0.22564551  0.78067355  0.04892546
   0.44705133  0.21970940  0.94955417
   0.55421645  0.11233799  0.04867911
   0.44606801  0.55556804  0.94487297
   0.55963199  0.44345342  0.05125089
   0.44129619  0.88896052  0.94929569
   0.55432424  0.77625882  0.05644256
   0.77840214  0.22389933  0.95157750
   0.89189964  0.11621367  0.05083581
   0.77335861  0.55095974  0.94900346
   0.88527057  0.43892297  0.05015252
   0.77997103  0.88872393  0.94464214
   0.88661584  0.77685407  0.05347596
unknown system                          
           1
     8.283102    4.766272    0.000000
    -8.286837    4.772727    0.000000
     0.000000    0.000000   30.000000
   V    Mo   W    S 
   3   3   3  18
Direct configuration=    16
   0.33102399  0.00664375  0.00040989
   0.66473416  0.33255303  0.00001853
   1.00336698  0.33884113 -0.00047330
   0.66022886  0.67727940 -0.00005388
   0.66508099 -0.01926028 -0.00012631
   0.33683796  0.34151087  0.00030633
  -0.00762595 -0.00761981 -0.00006756
  -0.00703874  0.66746638  0.00003156
   0.35141991  0.66429947  0.00018764
   0.10705003  0.22453160  0.94920350
   0.22374449  0.10851551  0.05086930
   0.11229448  0.55416909  0.94997375
   0.21645017  0.44332706  0.05222663
   0.11709142  0.89231752  0.94837606
   0.22554534  0.78085239  0.04941357
   0.44703746  0.21959596  0.94967191
   0.55420320  0.11253807  0.04886079
   0.44560799  0.55549398  0.94504805
   0.55945642  0.44317834  0.05124630
   0.44139722  0.88930365  0.94898964
   0.55425766  0.77638914  0.05628855
   0.77844133  0.22421902  0.95133852
   0.89185665  0.11641129  0.05090607
   0.77358319  0.55107752  0.94908943
   0.88525620  0.43876983  0.05023292
   0.77992809  0.88882880  0.94484112
   0.88698496  0.77698176  0.05319087
unknown system                          
           1
     8.277858    4.762362    0.000000
    -8.282533    4.770451    0.000000
     0.000000    0.000000   30.000000
   V    Mo   W    S 
   3   3   3  18
Direct configuration=    17
   0.33134747  0.00450216  0.00040515
   0.66545464  0.33322661 -0.00001457
   1.00266952  0.33808546 -0.00045018
   0.65949565  0.67701855 -0.00008238
   0.66429780 -0.01883585 -0.00019999
   0.33473184  0.33952414  0.00030564
  -0.00574066 -0.00475663 -0.00006493
  -0.00489209  0.66673609  0.00002298
   0.35078353  0.66586635  0.00005026
   0.10685595  0.22490584  0.94883462
   0.22421168  0.10807842  0.05104395
   0.11204614  0.55346525  0.94967888
   0.21623004  0.44339899  0.05212674
   0.11730555  0.89231165  0.94845610
   0.22553816  0.78104718  0.05003792
   0.44700558  0.21944951  0.94981540
   0.55432101  0.11279042  0.04902106
   0.44507585  0.55532486  0.94528053
   0.55926460  0.44292796  0.05116977
   0.44160485  0.88961918  0.94861268
   0.55416717  0.77652672  0.05627406
   0.77841508  0.22443472  0.95116338
   0.89175477  0.11669575  0.05097974
   0.77376669  0.55132289  0.94928105
   0.88521680  0.43854142  0.05034267
   0.77994508  0.88893511  0.94507181
   0.88734175  0.77707169  0.05283755
unknown system                          
           1
     8.286996    4.765455    0.000000
    -8.293135    4.776084    0.000000
     0.000000    0.000000   30.000000
   V    Mo   W    S 
   3   3   3  18
Direct configuration=    18
   0.33119732  0.00432019  0.00044402
   0.66555922  0.33353695  0.00001838
   1.00265960  0.33743349 -0.00042174
   0.65897464  0.67736486 -0.00001977
   0.66395345 -0.01977476 -0.00014945
   0.33382015  0.33885169  0.00032215
  -0.00543322 -0.00382262 -0.00003020
  -0.00430633  0.66679263  0.00003786
   0.35147718  0.66658284  0.00013082
   0.10670453  0.22489372  0.94872004
   0.22413410  0.10802750  0.05104511
   0.11230197  0.55358646  0.94978287
   0.21636339  0.44361746  0.05205551
   0.11731956  0.89246867  0.94852741
   0.22568968  0.78100745  0.04998262
   0.44687130  0.21935292  0.94988856
   0.55447633  0.11270183  0.04889318
   0.44503037  0.55516785  0.94526255
   0.55915947  0.44309444  0.05102191
   0.44169380  0.88953228  0.94855971
   0.55418016  0.77649583  0.05635625
   0.77827442  0.22406004  0.95131143
   0.89159718  0.11664144  0.05096322
   0.77374692  0.55162187  0.94939489
   0.88542589  0.43869828  0.05026357
   0.78001057  0.88888375  0.94500043
   0.88733279  0.77707739  0.05263858
unknown system                          
           1
     8.292730    4.766815    0.000000
    -8.299909    4.779250    0.000000
     0.000000    0.000000   30.000000
   V    Mo   W    S 
   3   3   3  18
Direct configuration=    19
   0.33095294  0.00595716  0.00042401
   0.66508279  0.33309020  0.00003211
   1.00317075  0.33796900 -0.00047451
   0.65961141  0.67759717 -0.00008666
   0.66459869 -0.02007040 -0.00016215
   0.33534344  0.34032295  0.00027762
  -0.00689643 -0.00594180 -0.00009588
  -0.00601782  0.66727303  0.00000242
   0.35191204  0.66534254  0.00014329
   0.10682501  0.22462720  0.94898413
   0.22377321  0.10837648  0.05097550
   0.11254609  0.55410441  0.95001844
   0.21650867  0.44355025  0.05217859
   0.11717588  0.89251520  0.94844933
   0.22573981  0.78087060  0.04956028
   0.44691171  0.21948062  0.94976535
   0.55444248  0.11253884  0.04878306
   0.44543566  0.55529268  0.94510462
   0.55933606  0.44329032  0.05110049
   0.44157496  0.88927099  0.94884181
   0.55427797  0.77641176  0.05648999
   0.77826521  0.22386123  0.95146751
   0.89166059  0.11646457  0.05095483
   0.77355676  0.55142376  0.94926337
   0.88541596  0.43882465  0.05019719
   0.77998992  0.88877756  0.94484189
   0.88702068  0.77699350  0.05296328
unknown system                          
           1
     8.287966    4.766364    0.000000
    -8.293491    4.775926    0.000000
     0.000000    0.000000   30.000000
   V    Mo   W    S 
   3   3   3  18
Direct configuration=    20
   0.33062975  0.00712217  0.00042428
   0.66478819  0.33297149  0.00006337
   1.00357136  0.33797905 -0.00049273
   0.65989567  0.67794160 -0.00012037
   0.66497400 -0.02071457 -0.00015032
   0.33590088  0.34095528  0.00025106
  -0.00777358 -0.00693199 -0.00012491
  -0.00707389  0.66764307 -0.00001735
   0.35258644  0.66472257  0.00017026
   0.10683634  0.22446622  0.94908131
   0.22348109  0.10859057  0.05094706
   0.11286888  0.55451896  0.95024212
   0.21666982  0.44359758  0.05224301
   0.11709428  0.89264404  0.94841583
   0.22586502  0.78079012  0.04924806
   0.44688540  0.21953358  0.94970205
   0.55450840  0.11238113  0.04863667
   0.44567942  0.55529843  0.94499501
   0.55940785  0.44349968  0.05108340
   0.44155505  0.88904756  0.94902377
   0.55437099  0.77632786  0.05664518
   0.77816345  0.22350916  0.95165445
   0.89160228  0.11630742  0.05096339
   0.77339943  0.55140863  0.94921569
   0.88551121  0.43898462  0.05010739
   0.77999757  0.88865477  0.94469024
   0.88681916  0.77696547  0.05310196
unknown system                          
           1
     8.283933    4.766024    0.000000
    -8.288022    4.773093    0.000000
     0.000000    0.000000   30.000000
   V    Mo   W    S 
   3   3   3  18
Direct configuration=    21
   0.33108167  0.00580645  0.00042386
   0.66505830  0.33303096  0.00001849
   1.00309936  0.33803378 -0.00046924
   0.65949223  0.67758133 -0.00010318
   0.66450229 -0.02002925 -0.00017984
   0.33538730  0.34035483  0.00027555
  -0.00688335 -0.00594164 -0.00008649
  -0.00579257  0.66724932 -0.00000348
   0.35187277  0.66542672  0.00010265
   0.10683106  0.22464259  0.94898093
   0.22382882  0.10834340  0.05096826
   0.11252534  0.55404551  0.94996842
   0.21647284  0.44356221  0.05217511
   0.11720361  0.89249689  0.94844859
   0.22574122  0.78088063  0.04963502
   0.44690434  0.21945011  0.94977602
   0.55444185  0.11256054  0.04882681
   0.44539370  0.55531696  0.94512187
   0.55935511  0.44329559  0.05110745
   0.44155234  0.88927808  0.94879278
   0.55425799  0.77645966  0.05651367
   0.77828222  0.22389277  0.95143345
   0.89167263  0.11650498  0.05094744
   0.77354713  0.55144470  0.94929384
   0.88540661  0.43879013  0.05022214
   0.77995900  0.88877493  0.94485976
   0.88702063  0.77696226  0.05295000
unknown system                          
           1
     8.280276    4.763829    0.000000
    -8.284772    4.771604    0.000000
     0.000000    0.000000   30.000000
   V    Mo   W    S 
   3   3   3  18
Direct configuration=    22
   0.33189854  0.00366227  0.00045657
   0.66524708  0.33281317 -0.00005035
   1.00235878  0.33815321 -0.00042218
   0.65848096  0.67723948 -0.00002237
   0.66353484 -0.01929248 -0.00020687
   0.33463715  0.33949898  0.00034827
  -0.00562994 -0.00446181 -0.00001173
  -0.00316241  0.66680906  0.00002765
   0.35095710  0.66683289  0.00006290
   0.10679707  0.22484392  0.94885484
   0.22435868  0.10794613  0.05092895
   0.11210694  0.55332810  0.94952116
   0.21621720  0.44362565  0.05201204
   0.11747543  0.89239070  0.94853783
   0.22565665  0.78104263  0.05025423
   0.44686079  0.21924601  0.94991648
   0.55437975  0.11278303  0.04912760
   0.44497141  0.55530116  0.94524672
   0.55930349  0.44313474  0.05109986
   0.44156041  0.88963042  0.94835999
   0.55401883  0.77670190  0.05633536
   0.77841722  0.22432739  0.95111808
   0.89170836  0.11677617  0.05087085
   0.77369391  0.55163671  0.94952047
   0.88529953  0.43848728  0.05038715
   0.77988428  0.88892667  0.94508971
   0.88718239  0.77683110  0.05263667
unknown system                          
           1
     8.288939    4.766253    0.000000
    -8.295134    4.776977    0.000000
     0.000000    0.000000   30.000000
   V    Mo   W    S 
   3   3   3  18
Direct configuration=    23
   0.33253829  0.00253067  0.00044375
   0.66536961  0.33245306 -0.00010790
   1.00199849  0.33845624 -0.00045082
   0.65727400  0.67722113 -0.00008767
   0.66284363 -0.01943415 -0.00027603
   0.33470215  0.33980082  0.00031878
  -0.00571098 -0.00407892 -0.00000606
  -0.00126141  0.66643685 -0.00002454
   0.35059526  0.66764305 -0.00006988
   0.10673920  0.22479709  0.94890321
   0.22441674  0.10785713  0.05085537
   0.11215427  0.55313136  0.94939063
   0.21625111  0.44382955  0.05193270
   0.11763317  0.89246146  0.94864138
   0.22583142  0.78111730  0.05054065
   0.44676699  0.21910499  0.95003071
   0.55451828  0.11282385  0.04923116
   0.44476567  0.55534561  0.94532855
   0.55936496  0.44330315  0.05103337
   0.44167109  0.88963653  0.94815731
   0.55385993  0.77693945  0.05646713
   0.77830970  0.22422333  0.95113467
   0.89154131  0.11673934  0.05078430
   0.77381667  0.55200532  0.94989440
   0.88535096  0.43846474  0.05037049
   0.77978327  0.88886959  0.94516695
   0.88709067  0.77653591  0.05239729
unknown system                          
           1
     8.291550    4.766559    0.000000
    -8.298466    4.778533    0.000000
     0.000000    0.000000   30.000000
   V    Mo   W    S 
   3   3   3  18
Direct configuration=    24
   0.33186057  0.00437475  0.00045435
   0.66497968  0.33234305 -0.00003903
   1.00267588  0.33848164 -0.00044946
   0.65799681  0.67765065 -0.00004662
   0.66363544 -0.02017989 -0.00018118
   0.33559594  0.34074506  0.00032519
  -0.00702638 -0.00564744 -0.00001931
  -0.00309215  0.66702882 -0.00001225
   0.35141221  0.66651528  0.00010114
   0.10677588  0.22459393  0.94902957
   0.22397595  0.10820246  0.05080678
   0.11254992  0.55372944  0.94969075
   0.21647571  0.44381638  0.05203877
   0.11747349  0.89259397  0.94856196
   0.22595106  0.78103174  0.05001814
   0.44679561  0.21925454  0.94989693
   0.55454589  0.11260077  0.04899186
   0.44514134  0.55533097  0.94510055
   0.55945247  0.44353134  0.05102981
   0.44162900  0.88937449  0.94846383