<?xml version="1.0" encoding="ISO-8859-1"?>
<modeling>
 <generator>
  <i name="program" type="string">vasp </i>
  <i name="version" type="string">5.4.1  </i>
  <i name="subversion" type="string">05Feb16 (build Jul 05 2020 17:13:04) complex                          parallel </i>
  <i name="platform" type="string">IFC91_ompi </i>
  <i name="date" type="string">2024 08 31 </i>
  <i name="time" type="string">19:05:28 </i>
 </generator>
 <incar>
  <i type="int" name="ISTART">     0</i>
  <i type="string" name="PREC">normal</i>
  <i type="string" name="ALGO"> Normal</i>
  <i type="int" name="ISPIN">     1</i>
  <i type="int" name="ICHARG">     2</i>
  <i type="int" name="IBRION">     1</i>
  <i type="int" name="NSW">   100</i>
  <i type="int" name="ISIF">     3</i>
  <i type="int" name="ISYM">     0</i>
  <i name="SYMPREC">      0.00000001</i>
  <i name="POTIM">      0.50000000</i>
  <i type="logical" name="LREAL"> F  </i>
  <i type="logical" name="LPLANE"> F  </i>
  <i type="int" name="ISMEAR">     0</i>
  <i type="logical" name="LWAVE"> F  </i>
  <i type="logical" name="LCHARG"> F  </i>
  <v type="int" name="KPOINT_BSE">    -1     0     0     0</v>
 </incar>
 <kpoints>
  <generation param="Gamma">
   <v type="int" name="divisions">       8        8        1 </v>
   <v name="usershift">      0.00000000       0.00000000       0.00000000 </v>
   <v name="genvec1">      0.12500000       0.00000000       0.00000000 </v>
   <v name="genvec2">     -0.00000000       0.12500000       0.00000000 </v>
   <v name="genvec3">      0.00000000       0.00000000       1.00000000 </v>
   <v name="shift">      0.00000000       0.00000000       0.00000000 </v>
  </generation>
  <varray name="kpointlist" >
   <v>       0.00000000       0.00000000       0.00000000 </v>
   <v>       0.12500000       0.00000000       0.00000000 </v>
   <v>       0.25000000       0.00000000       0.00000000 </v>
   <v>       0.37500000       0.00000000       0.00000000 </v>
   <v>       0.50000000       0.00000000       0.00000000 </v>
   <v>       0.00000000       0.12500000       0.00000000 </v>
   <v>       0.12500000       0.12500000       0.00000000 </v>
   <v>       0.25000000       0.12500000       0.00000000 </v>
   <v>       0.37500000       0.12500000       0.00000000 </v>
   <v>       0.50000000       0.12500000       0.00000000 </v>
   <v>      -0.37500000       0.12500000       0.00000000 </v>
   <v>      -0.25000000       0.12500000       0.00000000 </v>
   <v>      -0.12500000       0.12500000       0.00000000 </v>
   <v>       0.00000000       0.25000000       0.00000000 </v>
   <v>       0.12500000       0.25000000       0.00000000 </v>
   <v>       0.25000000       0.25000000       0.00000000 </v>
   <v>       0.37500000       0.25000000       0.00000000 </v>
   <v>       0.50000000       0.25000000       0.00000000 </v>
   <v>      -0.37500000       0.25000000       0.00000000 </v>
   <v>      -0.25000000       0.25000000       0.00000000 </v>
   <v>      -0.12500000       0.25000000       0.00000000 </v>
   <v>      -0.00000000       0.37500000       0.00000000 </v>
   <v>       0.12500000       0.37500000       0.00000000 </v>
   <v>       0.25000000       0.37500000       0.00000000 </v>
   <v>       0.37500000       0.37500000       0.00000000 </v>
   <v>       0.50000000       0.37500000       0.00000000 </v>
   <v>      -0.37500000       0.37500000       0.00000000 </v>
   <v>      -0.25000000       0.37500000       0.00000000 </v>
   <v>      -0.12500000       0.37500000       0.00000000 </v>
   <v>       0.00000000       0.50000000       0.00000000 </v>
   <v>       0.12500000       0.50000000       0.00000000 </v>
   <v>       0.25000000       0.50000000       0.00000000 </v>
   <v>       0.37500000       0.50000000       0.00000000 </v>
   <v>       0.50000000       0.50000000       0.00000000 </v>
  </varray>
  <varray name="weights" >
   <v>       0.01562500 </v>
   <v>       0.03125000 </v>
   <v>       0.03125000 </v>
   <v>       0.03125000 </v>
   <v>       0.01562500 </v>
   <v>       0.03125000 </v>
   <v>       0.03125000 </v>
   <v>       0.03125000 </v>
   <v>       0.03125000 </v>
   <v>       0.03125000 </v>
   <v>       0.03125000 </v>
   <v>       0.03125000 </v>
   <v>       0.03125000 </v>
   <v>       0.03125000 </v>
   <v>       0.03125000 </v>
   <v>       0.03125000 </v>
   <v>       0.03125000 </v>
   <v>       0.03125000 </v>
   <v>       0.03125000 </v>
   <v>       0.03125000 </v>
   <v>       0.03125000 </v>
   <v>       0.03125000 </v>
   <v>       0.03125000 </v>
   <v>       0.03125000 </v>
   <v>       0.03125000 </v>
   <v>       0.03125000 </v>
   <v>       0.03125000 </v>
   <v>       0.03125000 </v>
   <v>       0.03125000 </v>
   <v>       0.01562500 </v>
   <v>       0.03125000 </v>
   <v>       0.03125000 </v>
   <v>       0.03125000 </v>
   <v>       0.01562500 </v>
  </varray>
 </kpoints>
 <parameters>
  <separator name="general" >
   <i type="string" name="SYSTEM">unknown system</i>
   <i type="logical" name="LCOMPAT"> F  </i>
  </separator>
  <separator name="electronic" >
   <i type="string" name="PREC">normal</i>
   <i name="ENMAX">    280.00000000</i>
   <i name="ENAUG">    373.43800000</i>
   <i name="EDIFF">      0.00010000</i>
   <i type="int" name="IALGO">    38</i>
   <i type="int" name="IWAVPR">    11</i>
   <i type="int" name="NBANDS">   120</i>
   <i name="NELECT">    159.00000000</i>
   <i type="int" name="TURBO">     0</i>
   <i type="int" name="IRESTART">     0</i>
   <i type="int" name="NREBOOT">     0</i>
   <i type="int" name="NMIN">     0</i>
   <i name="EREF">      0.00000000</i>
   <separator name="electronic smearing" >
    <i type="int" name="ISMEAR">     0</i>
    <i name="SIGMA">      0.20000000</i>
    <i name="KSPACING">      0.50000000</i>
    <i type="logical" name="KGAMMA"> T  </i>
   </separator>
   <separator name="electronic projectors" >
    <i type="logical" name="LREAL"> F  </i>
    <v name="ROPT">      0.00000000      0.00000000      0.00000000      0.00000000</v>
    <i type="int" name="LMAXPAW">  -100</i>
    <i type="int" name="LMAXMIX">     2</i>
    <i type="logical" name="NLSPLINE"> F  </i>
   </separator>
   <separator name="electronic startup" >
    <i type="int" name="ISTART">     0</i>
    <i type="int" name="ICHARG">     2</i>
    <i type="int" name="INIWAV">     1</i>
   </separator>
   <separator name="electronic spin" >
    <i type="int" name="ISPIN">     1</i>
    <i type="logical" name="LNONCOLLINEAR"> F  </i>
    <v name="MAGMOM">      1.00000000      1.00000000      1.00000000      1.00000000      1.00000000      1.00000000      1.00000000      1.00000000      1.00000000      1.00000000      1.00000000      1.00000000      1.00000000      1.00000000      1.00000000      1.00000000      1.00000000      1.00000000      1.00000000      1.00000000
      1.00000000      1.00000000      1.00000000      1.00000000      1.00000000      1.00000000      1.00000000</v>
    <i name="NUPDOWN">     -1.00000000</i>
    <i type="logical" name="LSORBIT"> F  </i>
    <v name="SAXIS">      0.00000000      0.00000000      1.00000000</v>
    <i type="logical" name="LSPIRAL"> F  </i>
    <v name="QSPIRAL">      0.00000000      0.00000000      0.00000000</v>
    <i type="logical" name="LZEROZ"> F  </i>
   </separator>
   <separator name="electronic exchange-correlation" >
    <i type="logical" name="LASPH"> F  </i>
    <i type="logical" name="LMETAGGA"> F  </i>
   </separator>
   <separator name="electronic convergence" >
    <i type="int" name="NELM">    60</i>
    <i type="int" name="NELMDL">    -5</i>
    <i type="int" name="NELMIN">     2</i>
    <i name="ENINI">    280.00000000</i>
    <separator name="electronic convergence detail" >
     <i type="logical" name="LDIAG"> T  </i>
     <i type="logical" name="LSUBROT"> F  </i>
     <i name="WEIMIN">      0.00100000</i>
     <i name="EBREAK">      0.00000021</i>
     <i name="DEPER">      0.30000000</i>
     <i type="int" name="NRMM">     4</i>
     <i name="TIME">      0.40000000</i>
    </separator>
   </separator>
   <separator name="electronic mixer" >
    <i name="AMIX">      0.40000000</i>
    <i name="BMIX">      1.00000000</i>
    <i name="AMIN">      0.10000000</i>
    <i name="AMIX_MAG">      1.60000000</i>
    <i name="BMIX_MAG">      1.00000000</i>
    <separator name="electronic mixer details" >
     <i type="int" name="IMIX">     4</i>
     <i type="logical" name="MIXFIRST"> F  </i>
     <i type="int" name="MAXMIX">   -45</i>
     <i name="WC">    100.00000000</i>
     <i type="int" name="INIMIX">     1</i>
     <i type="int" name="MIXPRE">     1</i>
     <i type="int" name="MREMOVE">     5</i>
    </separator>
   </separator>
   <separator name="electronic dipolcorrection" >
    <i type="logical" name="LDIPOL"> F  </i>
    <i type="logical" name="LMONO"> F  </i>
    <i type="int" name="IDIPOL">     0</i>
    <i name="EPSILON">      1.00000000</i>
    <v name="DIPOL">   -100.00000000   -100.00000000   -100.00000000</v>
    <i name="EFIELD">      0.00000000</i>
   </separator>
  </separator>
  <separator name="grids" >
   <i type="int" name="NGX">    42</i>
   <i type="int" name="NGY">    42</i>
   <i type="int" name="NGZ">   126</i>
   <i type="int" name="NGXF">    84</i>
   <i type="int" name="NGYF">    84</i>
   <i type="int" name="NGZF">   252</i>
   <i type="logical" name="ADDGRID"> F  </i>
  </separator>
  <separator name="ionic" >
   <i type="int" name="NSW">   100</i>
   <i type="int" name="IBRION">     1</i>
   <i type="int" name="ISIF">     3</i>
   <i name="PSTRESS">      0.00000000</i>
   <i name="EDIFFG">      0.00100000</i>
   <i type="int" name="NFREE">     0</i>
   <i name="POTIM">      0.50000000</i>
   <i name="SMASS">     -3.00000000</i>
   <i name="SCALEE">      1.00000000</i>
  </separator>
  <separator name="ionic md" >
   <i name="TEBEG">      0.00010000</i>
   <i name="TEEND">      0.00010000</i>
   <i type="int" name="NBLOCK">     1</i>
   <i type="int" name="KBLOCK">   100</i>
   <i type="int" name="NPACO">   256</i>
   <i name="APACO">     16.00000000</i>
  </separator>
  <separator name="symmetry" >
   <i type="int" name="ISYM">     0</i>
   <i name="SYMPREC">      0.00000001</i>
  </separator>
  <separator name="dos" >
   <i type="logical" name="LORBIT"> F  </i>
   <v name="RWIGS">     -1.00000000     -1.00000000     -1.00000000     -1.00000000</v>
   <i type="int" name="NEDOS">   301</i>
   <i name="EMIN">     10.00000000</i>
   <i name="EMAX">    -10.00000000</i>
   <i name="EFERMI">      0.00000000</i>
  </separator>
  <separator name="writing" >
   <i type="int" name="NWRITE">     2</i>
   <i type="logical" name="LWAVE"> F  </i>
   <i type="logical" name="LCHARG"> F  </i>
   <i type="logical" name="LPARD"> F  </i>
   <i type="logical" name="LVTOT"> F  </i>
   <i type="logical" name="LVHAR"> F  </i>
   <i type="logical" name="LELF"> F  </i>
   <i type="logical" name="LOPTICS"> F  </i>
   <v name="STM">      0.00000000      0.00000000      0.00000000      0.00000000      0.00000000      0.00000000      0.00000000</v>
  </separator>
  <separator name="performance" >
   <i type="int" name="NPAR">    40</i>
   <i type="int" name="NSIM">     4</i>
   <i type="int" name="NBLK">    -1</i>
   <i type="logical" name="LPLANE"> F  </i>
   <i type="logical" name="LSCALAPACK"> T  </i>
   <i type="logical" name="LSCAAWARE"> F  </i>
   <i type="logical" name="LSCALU"> F  </i>
   <i type="logical" name="LASYNC"> F  </i>
   <i type="logical" name="LORBITALREAL"> F  </i>
  </separator>
  <separator name="miscellaneous" >
   <i type="int" name="IDIOT">     3</i>
   <i type="logical" name="LMUSIC"> F  </i>
   <v name="POMASS">     50.94100000     95.94000000    183.85000000     32.06600000</v>
   <v name="DARWINR">      0.00000000      0.00000000      0.00000000      0.00000000</v>
   <v name="DARWINV">      1.00000000      1.00000000      1.00000000      1.00000000</v>
   <i type="logical" name="LCORR"> T  </i>
  </separator>
  <i type="logical" name="GGA_COMPAT"> T  </i>
  <i type="logical" name="LBERRY"> F  </i>
  <i type="int" name="ICORELEVEL">     0</i>
  <i type="logical" name="LDAU"> F  </i>
  <i type="int" name="I_CONSTRAINED_M">     0</i>
  <separator name="electronic exchange-correlation" >
   <i type="string" name="GGA">--</i>
   <i type="int" name="VOSKOWN">     0</i>
   <i type="logical" name="LHFCALC"> F  </i>
   <i type="string" name="PRECFOCK"></i>
   <i type="logical" name="LSYMGRAD"> F  </i>
   <i type="logical" name="LHFONE"> F  </i>
   <i type="logical" name="LRHFCALC"> F  </i>
   <i type="logical" name="LTHOMAS"> F  </i>
   <i type="logical" name="LMODELHF"> F  </i>
   <i name="ENCUT4O">     -1.00000000</i>
   <i type="int" name="EXXOEP">     0</i>
   <i type="int" name="FOURORBIT">     0</i>
   <i name="AEXX">      0.00000000</i>
   <i name="HFALPHA">      0.00000000</i>
   <i name="MCALPHA">      0.00000000</i>
   <i name="ALDAX">      1.00000000</i>
   <i name="AGGAX">      1.00000000</i>
   <i name="ALDAC">      1.00000000</i>
   <i name="AGGAC">      1.00000000</i>
   <i type="int" name="NKREDX">     1</i>
   <i type="int" name="NKREDY">     1</i>
   <i type="int" name="NKREDZ">     1</i>
   <i type="logical" name="SHIFTRED"> F  </i>
   <i type="logical" name="ODDONLY"> F  </i>
   <i type="logical" name="EVENONLY"> F  </i>
   <i type="int" name="LMAXFOCK">     0</i>
   <i type="int" name="NMAXFOCKAE">     0</i>
   <i type="logical" name="LFOCKAEDFT"> F  </i>
   <i name="HFSCREEN">      0.00000000</i>
   <i name="HFSCREENC">      0.00000000</i>
   <i type="int" name="NBANDSGWLOW">     0</i>
  </separator>
  <separator name="vdW DFT" >
   <i type="logical" name="LUSE_VDW"> F  </i>
   <i name="Zab_VDW">     -0.84910000</i>
   <i name="PARAM1">      0.12340000</i>
   <i name="PARAM2">      1.00000000</i>
   <i name="PARAM3">      0.00000000</i>
  </separator>
  <separator name="model GW" >
   <i type="int" name="MODEL_GW">     0</i>
   <i name="MODEL_EPS0">     58.26239943</i>
   <i name="MODEL_ALPHA">      1.00000000</i>
  </separator>
  <separator name="linear response parameters" >
   <i type="logical" name="LEPSILON"> F  </i>
   <i type="logical" name="LRPA"> F  </i>
   <i type="logical" name="LNABLA"> F  </i>
   <i type="logical" name="LVEL"> F  </i>
   <i type="int" name="KINTER">     0</i>
   <i name="CSHIFT">      0.10000000</i>
   <i name="OMEGAMAX">     -1.00000000</i>
   <i name="DEG_THRESHOLD">      0.00200000</i>
  </separator>
  <separator name="orbital magnetization" >
   <i type="logical" name="NUCIND"> F  </i>
   <v name="MAGPOS">      0.00000000      0.00000000      0.00000000</v>
   <i type="logical" name="LNICSALL"> T  </i>
   <i type="logical" name="ORBITALMAG"> F  </i>
   <i type="logical" name="LMAGBLOCH"> F  </i>
   <i type="logical" name="LCHIMAG"> F  </i>
   <i type="logical" name="LGAUGE"> T  </i>
   <i type="int" name="MAGATOM">     0</i>
   <v name="MAGDIPOL">      0.00000000      0.00000000      0.00000000</v>
   <v name="AVECCONST">      0.00000000      0.00000000      0.00000000</v>
  </separator>
  <separator name="response functions" >
   <i type="logical" name="LADDER"> F  </i>
   <i type="logical" name="LFXC"> F  </i>
   <i type="logical" name="LHARTREE"> T  </i>
   <i type="int" name="IBSE">     0</i>
   <v type="int" name="KPOINT">    -1     0     0     0</v>
   <i type="logical" name="LTCTE"> F  </i>
   <i type="logical" name="LTETE"> F  </i>
   <i type="logical" name="LTRIPLET"> F  </i>
   <i type="logical" name="LFXCEPS"> F  </i>
   <i type="logical" name="LFXHEG"> F  </i>
   <i type="int" name="NATURALO">     0</i>
   <i type="logical" name="L2ORDER"> F  </i>
   <i type="logical" name="LUSEW"> F  </i>
   <i name="ENCUTGW">     -2.00000000</i>
   <i name="ENCUTGWSOFT">     -2.00000000</i>
   <i name="ENCUTLF">     -1.00000000</i>
   <i type="int" name="LMAXMP2">    -1</i>
   <i name="SCISSOR">      0.00000000</i>
   <i type="int" name="NOMEGA">     0</i>
   <i type="int" name="NOMEGAR">     0</i>
   <i type="int" name="NBANDSGW">    -1</i>
   <i type="int" name="NBANDSO">    -1</i>
   <i type="int" name="NBANDSV">    -1</i>
   <i type="int" name="NELM">     1</i>
   <i type="int" name="NELMHF">     1</i>
   <i type="int" name="DIM">     3</i>
   <i type="int" name="ANTIRES">     0</i>
   <i name="OMEGAMAX">    -30.00000000</i>
   <i name="OMEGAMIN">    -30.00000000</i>
   <i name="OMEGATL">   -200.00000000</i>
   <i type="int" name="OMEGAGRID">     0</i>
   <i name="CSHIFT">     -0.10000000</i>
   <i type="logical" name="SELFENERGY"> F  </i>
   <i type="logical" name="LSPECTRAL"> F  </i>
   <i type="logical" name="LSPECTRALGW"> F  </i>
   <i type="logical" name="LSINGLES"> F  </i>
   <i type="logical" name="LFERMIGW"> F  </i>
   <i type="logical" name="ODDONLYGW"> F  </i>
   <i type="logical" name="EVENONLYGW"> F  </i>
   <i type="int" name="NKREDLFX">     1</i>
   <i type="int" name="NKREDLFY">     1</i>
   <i type="int" name="NKREDLFZ">     1</i>
   <i type="int" name="MAXMEM">  1800</i>
   <i type="int" name="TELESCOPE">     0</i>
   <i type="int" name="TAUPAR">     1</i>
   <i type="int" name="OMEGAPAR">    -1</i>
   <i name="LAMBDA">      1.00000000</i>
  </separator>
  <separator name="External order field" >
   <i name="OFIELD_KAPPA">      0.00000000</i>
   <v name="OFIELD_K">      0.00000000      0.00000000      0.00000000</v>
   <i name="OFIELD_Q6_NEAR">      0.00000000</i>
   <i name="OFIELD_Q6_FAR">      0.00000000</i>
   <i name="OFIELD_A">      0.00000000</i>
  </separator>
 </parameters>
 <atominfo>
  <atoms>      27 </atoms>
  <types>       4 </types>
  <array name="atoms" >
   <dimension dim="1">ion</dimension>
   <field type="string">element</field>
   <field type="int">atomtype</field>
   <set>
    <rc><c>V </c><c>   1</c></rc>
    <rc><c>V </c><c>   1</c></rc>
    <rc><c>V </c><c>   1</c></rc>
    <rc><c>Mo</c><c>   2</c></rc>
    <rc><c>Mo</c><c>   2</c></rc>
    <rc><c>Mo</c><c>   2</c></rc>
    <rc><c>W </c><c>   3</c></rc>
    <rc><c>W </c><c>   3</c></rc>
    <rc><c>W </c><c>   3</c></rc>
    <rc><c>S </c><c>   4</c></rc>
    <rc><c>S </c><c>   4</c></rc>
    <rc><c>S </c><c>   4</c></rc>
    <rc><c>S </c><c>   4</c></rc>
    <rc><c>S </c><c>   4</c></rc>
    <rc><c>S </c><c>   4</c></rc>
    <rc><c>S </c><c>   4</c></rc>
    <rc><c>S </c><c>   4</c></rc>
    <rc><c>S </c><c>   4</c></rc>
    <rc><c>S </c><c>   4</c></rc>
    <rc><c>S </c><c>   4</c></rc>
    <rc><c>S </c><c>   4</c></rc>
    <rc><c>S </c><c>   4</c></rc>
    <rc><c>S </c><c>   4</c></rc>
    <rc><c>S </c><c>   4</c></rc>
    <rc><c>S </c><c>   4</c></rc>
    <rc><c>S </c><c>   4</c></rc>
    <rc><c>S </c><c>   4</c></rc>
   </set>
  </array>
  <array name="atomtypes" >
   <dimension dim="1">type</dimension>
   <field type="int">atomspertype</field>
   <field type="string">element</field>
   <field>mass</field>
   <field>valence</field>
   <field type="string">pseudopotential</field>
   <set>
    <rc><c>   3</c><c>V </c><c>     50.94100000</c><c>      5.00000000</c><c> PAW_PBE V 08Apr2002                    </c></rc>
    <rc><c>   3</c><c>Mo</c><c>     95.94000000</c><c>      6.00000000</c><c> PAW_PBE Mo 08Apr2002                   </c></rc>
    <rc><c>   3</c><c>W </c><c>    183.85000000</c><c>      6.00000000</c><c> PAW_PBE W 08Apr2002                    </c></rc>
    <rc><c>  18</c><c>S </c><c>     32.06600000</c><c>      6.00000000</c><c>  PAW_PBE S 17Jan2003                   </c></rc>
   </set>
  </array>
 </atominfo>
 <structure name="initialpos" >
  <crystal>
   <varray name="basis" >
    <v>       8.66999996       5.03999989       0.00000000 </v>
    <v>      -8.66999982       5.04000013       0.00000000 </v>
    <v>       0.00000000       0.00000000      30.00000000 </v>
   </varray>
   <i name="volume">   2621.80797419 </i>
   <varray name="rec_basis" >
    <v>       0.05767013       0.09920635       0.00000000 </v>
    <v>      -0.05767013       0.09920635       0.00000000 </v>
    <v>       0.00000000       0.00000000       0.03333333 </v>
   </varray>
  </crystal>
  <varray name="positions" >
   <v>       0.66666669       0.00000000       0.00000000 </v>
   <v>       0.33333334       0.33333334       0.00000000 </v>
   <v>       0.66666669       0.33333334       0.00000000 </v>
   <v>       0.00000000       0.66666669       0.00000000 </v>
   <v>       0.33333334       0.66666669       0.00000000 </v>
   <v>       0.66666669       0.66666669       0.00000000 </v>
   <v>       0.00000000       0.00000000       0.00000000 </v>
   <v>       1.00000000       0.33333334       0.00000000 </v>
   <v>       0.33333334       0.00000000       0.00000000 </v>
   <v>       0.11068511       0.22244981       0.95539999 </v>
   <v>       0.22244981       0.11068511       0.04460000 </v>
   <v>       0.11068511       0.55578315       0.95539999 </v>
   <v>       0.22244981       0.44401845       0.04460000 </v>
   <v>       0.11068511       0.88911647       0.95539999 </v>
   <v>       0.22244981       0.77735180       0.04460000 </v>
   <v>       0.44401845       0.22244981       0.95539999 </v>
   <v>       0.55578315       0.11068511       0.04460000 </v>
   <v>       0.44401845       0.55578315       0.95539999 </v>
   <v>       0.55578315       0.44401845       0.04460000 </v>
   <v>       0.44401845       0.88911647       0.95539999 </v>
   <v>       0.55578315       0.77735180       0.04460000 </v>
   <v>       0.77735180       0.22244981       0.95539999 </v>
   <v>       0.88911647       0.11068511       0.04460000 </v>
   <v>       0.77735180       0.55578315       0.95539999 </v>
   <v>       0.88911647       0.44401845       0.04460000 </v>
   <v>       0.77735180       0.88911647       0.95539999 </v>
   <v>       0.88911647       0.77735180       0.04460000 </v>
  </varray>
 </structure>
 <calculation>
  <scstep>
   <time name="dav">   21.68   21.74</time>
   <time name="total">   21.72   21.78</time>
   <energy>
    <i name="alphaZ">     81.65567618 </i>
    <i name="ewald">  41890.25210944 </i>
    <i name="hartreedc"> -47722.88005504 </i>
    <i name="XCdc">   -242.92955953 </i>
    <i name="pawpsdc">   3467.42045192 </i>
    <i name="pawaedc">  -2871.19716117 </i>
    <i name="eentropy">     -0.53066729 </i>
    <i name="bandstr">   -238.93724603 </i>
    <i name="atom">   6761.44252427 </i>
    <i name="e_fr_energy">   1124.29607274 </i>
    <i name="e_wo_entrp">   1124.82674003 </i>
    <i name="e_0_energy">   1124.56140639 </i>
   </energy>
  </scstep>
  <scstep>
   <time name="dav">   28.80   28.87</time>
   <time name="total">   28.80   28.88</time>
   <energy>
    <i name="e_fr_energy">     -6.29991530 </i>
    <i name="e_wo_entrp">     -6.10609199 </i>
    <i name="e_0_energy">     -6.20300365 </i>
   </energy>
  </scstep>
  <scstep>
   <time name="dav">   27.45   27.52</time>
   <time name="total">   27.45   27.52</time>
   <energy>
    <i name="e_fr_energy">   -200.08248513 </i>
    <i name="e_wo_entrp">   -199.80939254 </i>
    <i name="e_0_energy">   -199.94593883 </i>
   </energy>
  </scstep>
  <scstep>
   <time name="dav">   30.10   30.17</time>
   <time name="total">   30.10   30.18</time>
   <energy>
    <i name="e_fr_energy">   -208.96109704 </i>
    <i name="e_wo_entrp">   -208.66177275 </i>
    <i name="e_0_energy">   -208.81143489 </i>
   </energy>
  </scstep>
  <scstep>
   <time name="dav">   28.64   28.71</time>
   <time name="total">   29.10   29.18</time>
   <energy>
    <i name="e_fr_energy">   -209.27639230 </i>
    <i name="e_wo_entrp">   -208.98031064 </i>
    <i name="e_0_energy">   -209.12835147 </i>
   </energy>
  </scstep>
  <scstep>
   <time name="dav">   31.13   31.21</time>
   <time name="total">   31.64   31.72</time>
   <energy>
    <i name="e_fr_energy">   -237.14887891 </i>
    <i name="e_wo_entrp">   -236.88008243 </i>
    <i name="e_0_energy">   -237.01448067 </i>
   </energy>
  </scstep>
  <scstep>
   <time name="dav">   31.92   31.99</time>
   <time name="total">   32.42   32.50</time>
   <energy>
    <i name="e_fr_energy">   -196.66279475 </i>
    <i name="e_wo_entrp">   -196.32734489 </i>
    <i name="e_0_energy">   -196.49506982 </i>
   </energy>
  </scstep>
  <scstep>
   <time name="dav">   29.18   29.25</time>
   <time name="total">   29.70   29.78</time>
   <energy>
    <i name="e_fr_energy">   -190.08297277 </i>
    <i name="e_wo_entrp">   -189.81421400 </i>
    <i name="e_0_energy">   -189.94859339 </i>
   </energy>
  </scstep>
  <scstep>
   <time name="dav">   29.88   29.95</time>
   <time name="total">   30.40   30.48</time>
   <energy>
    <i name="e_fr_energy">   -188.31830268 </i>
    <i name="e_wo_entrp">   -187.98900254 </i>
    <i name="e_0_energy">   -188.15365261 </i>
   </energy>
  </scstep>
  <scstep>
   <time name="dav">   32.09   32.18</time>
   <time name="total">   32.62   32.72</time>
   <energy>
    <i name="e_fr_energy">   -187.12727751 </i>
    <i name="e_wo_entrp">   -186.78498415 </i>
    <i name="e_0_energy">   -186.95613083 </i>
   </energy>
  </scstep>
  <scstep>
   <time name="dav">   30.90   30.97</time>
   <time name="total">   31.43   31.51</time>
   <energy>
    <i name="e_fr_energy">   -187.01254558 </i>
    <i name="e_wo_entrp">   -186.66385150 </i>
    <i name="e_0_energy">   -186.83819854 </i>
   </energy>
  </scstep>
  <scstep>
   <time name="dav">   31.78   31.86</time>
   <time name="total">   32.32   32.41</time>
   <energy>
    <i name="e_fr_energy">   -187.03101286 </i>
    <i name="e_wo_entrp">   -186.69740720 </i>
    <i name="e_0_energy">   -186.86421003 </i>
   </energy>
  </scstep>
  <scstep>
   <time name="dav">   32.01   32.09</time>
   <time name="total">   32.55   32.64</time>
   <energy>
    <i name="e_fr_energy">   -186.93362616 </i>
    <i name="e_wo_entrp">   -186.59753549 </i>
    <i name="e_0_energy">   -186.76558083 </i>
   </energy>
  </scstep>
  <scstep>
   <time name="dav">   31.59   31.67</time>
   <time name="total">   32.13   32.21</time>
   <energy>
    <i name="e_fr_energy">   -186.90391014 </i>
    <i name="e_wo_entrp">   -186.56286417 </i>
    <i name="e_0_energy">   -186.73338715 </i>
   </energy>
  </scstep>
  <scstep>
   <time name="dav">   30.76   30.84</time>
   <time name="total">   31.30   31.38</time>
   <energy>
    <i name="e_fr_energy">   -186.89829917 </i>
    <i name="e_wo_entrp">   -186.55529002 </i>
    <i name="e_0_energy">   -186.72679460 </i>
   </energy>
  </scstep>
  <scstep>
   <time name="dav">   31.87   31.94</time>
   <time name="total">   32.40   32.49</time>
   <energy>
    <i name="e_fr_energy">   -186.89181658 </i>
    <i name="e_wo_entrp">   -186.54844273 </i>
    <i name="e_0_energy">   -186.72012966 </i>
   </energy>
  </scstep>
  <scstep>
   <time name="dav">   31.24   31.33</time>
   <time name="total">   31.78   31.87</time>
   <energy>
    <i name="e_fr_energy">   -186.88911795 </i>
    <i name="e_wo_entrp">   -186.54781186 </i>
    <i name="e_0_energy">   -186.71846490 </i>
   </energy>
  </scstep>
  <scstep>
   <time name="dav">   28.64   28.71</time>
   <time name="total">   29.18   29.26</time>
   <energy>
    <i name="e_fr_energy">   -186.88858587 </i>
    <i name="e_wo_entrp">   -186.54738667 </i>
    <i name="e_0_energy">   -186.71798627 </i>
   </energy>
  </scstep>
  <scstep>
   <time name="dav">   27.47   27.54</time>
   <time name="total">   28.00   28.08</time>
   <energy>
    <i name="e_fr_energy">   -186.88837618 </i>
    <i name="e_wo_entrp">   -186.54673357 </i>
    <i name="e_0_energy">   -186.71755488 </i>
   </energy>
  </scstep>
  <scstep>
   <time name="dav">   23.37   23.43</time>
   <time name="total">   23.91   23.98</time>
   <energy>
    <i name="e_fr_energy">   -186.88926189 </i>
    <i name="e_wo_entrp">   -186.54793688 </i>
    <i name="e_0_energy">   -186.71859939 </i>
   </energy>
  </scstep>
  <scstep>
   <time name="dav">   21.89   21.95</time>
   <time name="total">   22.43   22.49</time>
   <energy>
    <i name="e_fr_energy">   -186.89020440 </i>
    <i name="e_wo_entrp">   -186.54874897 </i>
    <i name="e_0_energy">   -186.71947669 </i>
   </energy>
  </scstep>
  <scstep>
   <time name="dav">   17.92   17.97</time>
   <time name="total">   18.46   18.51</time>
   <energy>
    <i name="e_fr_energy">   -186.89095356 </i>
    <i name="e_wo_entrp">   -186.54954264 </i>
    <i name="e_0_energy">   -186.72024810 </i>
   </energy>
  </scstep>
  <scstep>
   <time name="dav">   20.51   20.56</time>
   <time name="total">   21.05   21.11</time>
   <energy>
    <i name="e_fr_energy">   -186.89209281 </i>
    <i name="e_wo_entrp">   -186.55079415 </i>
    <i name="e_0_energy">   -186.72144348 </i>
   </energy>
  </scstep>
  <scstep>
   <time name="dav">   19.00   19.04</time>
   <time name="total">   19.54   19.59</time>
   <energy>
    <i name="e_fr_energy">   -186.89267367 </i>
    <i name="e_wo_entrp">   -186.55131295 </i>
    <i name="e_0_energy">   -186.72199331 </i>
   </energy>
  </scstep>
  <scstep>
   <time name="dav">   16.30   16.34</time>
   <time name="total">   16.83   16.88</time>
   <energy>
    <i name="e_fr_energy">   -186.89304044 </i>
    <i name="e_wo_entrp">   -186.55165393 </i>
    <i name="e_0_energy">   -186.72234718 </i>
   </energy>
  </scstep>
  <scstep>
   <time name="dav">   18.90   18.95</time>
   <time name="total">   19.44   19.49</time>
   <energy>
    <i name="e_fr_energy">   -186.89328718 </i>
    <i name="e_wo_entrp">   -186.55192337 </i>
    <i name="e_0_energy">   -186.72260527 </i>
   </energy>
  </scstep>
  <scstep>
   <time name="dav">   20.02   20.07</time>
   <time name="total">   20.06   20.33</time>
   <energy>
    <i name="alphaZ">     81.65567618 </i>
    <i name="ewald">  41890.25210944 </i>
    <i name="hartreedc"> -47833.18054224 </i>
    <i name="XCdc">   -231.59805612 </i>
    <i name="pawpsdc">   4192.17140593 </i>
    <i name="pawaedc">  -3610.19604110 </i>
    <i name="eentropy">     -0.34136702 </i>
    <i name="bandstr">  -1437.09908919 </i>
    <i name="atom">   6761.44252427 </i>
    <i name="e_fr_energy">   -186.89337985 </i>
    <i name="e_wo_entrp">   -186.55201284 </i>
    <i name="e_0_energy">   -186.72269634 </i>
   </energy>
  </scstep>
  <structure>
   <crystal>
    <varray name="basis" >
     <v>       8.66999996       5.03999989       0.00000000 </v>
     <v>      -8.66999982       5.04000013       0.00000000 </v>
     <v>       0.00000000       0.00000000      30.00000000 </v>
    </varray>
    <i name="volume">   2621.80797419 </i>
    <varray name="rec_basis" >
     <v>       0.05767013       0.09920635       0.00000000 </v>
     <v>      -0.05767013       0.09920635       0.00000000 </v>
     <v>       0.00000000       0.00000000       0.03333333 </v>
    </varray>
   </crystal>
   <varray name="positions" >
    <v>       0.66666669       0.00000000       0.00000000 </v>
    <v>       0.33333334       0.33333334       0.00000000 </v>
    <v>       0.66666669       0.33333334       0.00000000 </v>
    <v>       0.00000000       0.66666669       0.00000000 </v>
    <v>       0.33333334       0.66666669       0.00000000 </v>
    <v>       0.66666669       0.66666669       0.00000000 </v>
    <v>       0.00000000       0.00000000       0.00000000 </v>
    <v>       1.00000000       0.33333334       0.00000000 </v>
    <v>       0.33333334       0.00000000       0.00000000 </v>
    <v>       0.11068511       0.22244981       0.95539999 </v>
    <v>       0.22244981       0.11068511       0.04460000 </v>
    <v>       0.11068511       0.55578315       0.95539999 </v>
    <v>       0.22244981       0.44401845       0.04460000 </v>
    <v>       0.11068511       0.88911647       0.95539999 </v>
    <v>       0.22244981       0.77735180       0.04460000 </v>
    <v>       0.44401845       0.22244981       0.95539999 </v>
    <v>       0.55578315       0.11068511       0.04460000 </v>
    <v>       0.44401845       0.55578315       0.95539999 </v>
    <v>       0.55578315       0.44401845       0.04460000 </v>
    <v>       0.44401845       0.88911647       0.95539999 </v>
    <v>       0.55578315       0.77735180       0.04460000 </v>
    <v>       0.77735180       0.22244981       0.95539999 </v>
    <v>       0.88911647       0.11068511       0.04460000 </v>
    <v>       0.77735180       0.55578315       0.95539999 </v>
    <v>       0.88911647       0.44401845       0.04460000 </v>
    <v>       0.77735180       0.88911647       0.95539999 </v>
    <v>       0.88911647       0.77735180       0.04460000 </v>
   </varray>
  </structure>
  <varray name="forces" >
   <v>       0.14529859      -0.31852710      -0.08000302 </v>
   <v>      -0.14948209       0.39298899       0.08827772 </v>
   <v>      -0.20396607       0.27399580      -0.00840305 </v>
   <v>      -0.01701502       0.01582183      -0.02392472 </v>
   <v>       0.01633645      -0.00974709       0.11169143 </v>
   <v>       0.01315250      -0.03712469       0.01479081 </v>
   <v>       0.26571566      -0.47667858      -0.11556071 </v>
   <v>      -0.32131631       0.38301963      -0.03412462 </v>
   <v>       0.28244730      -0.30127610       0.00405735 </v>
   <v>       0.46884929       0.55579454      -2.11916339 </v>
   <v>      -0.48162767       0.60745711       2.15699700 </v>
   <v>       0.19153835      -0.15706696      -2.88301858 </v>
   <v>       0.68763549      -0.13511765       2.16009202 </v>
   <v>       0.03251582       0.12294099      -2.94149689 </v>
   <v>      -0.19126993       0.14285635       2.90530977 </v>
   <v>      -0.24240020       0.52680530      -1.38726545 </v>
   <v>       0.23320126       0.51956851       1.39673666 </v>
   <v>       0.53137062      -0.68313647      -2.14267438 </v>
   <v>       0.31402759      -0.68735908       1.44227042 </v>
   <v>       0.36872945       0.73550521      -2.18002150 </v>
   <v>      -0.52574665       0.67710822       2.14577746 </v>
   <v>      -0.22052032      -0.53135627      -1.40935865 </v>
   <v>      -0.47511331      -0.56172422       2.11453062 </v>
   <v>       0.52661195      -0.68546669      -2.14099979 </v>
   <v>      -0.36815388      -0.68950278       2.17489232 </v>
   <v>      -0.69213085       0.17799093      -2.15327069 </v>
   <v>      -0.18868802       0.14223027       2.90386183 </v>
  </varray>
  <varray name="stress" >
   <v>       7.27674806      -0.12088264      -1.59975441 </v>
   <v>      -0.12088261       4.48885856      -0.03812061 </v>
   <v>      -1.59975420      -0.03812073      30.27880781 </v>
  </varray>
  <energy>
   <i name="e_fr_energy">   -186.89337985 </i>
   <i name="e_wo_entrp">   -186.72269634 </i>
   <i name="e_0_energy">     -0.34136702 </i>
  </energy>
  <time name="totalsc">  778.18  780.55</time>
 </calculation>
 <calculation>
  <scstep>
   <time name="dav">   21.60   21.65</time>
   <time name="total">   22.14   22.20</time>
   <energy>
    <i name="alphaZ">     78.91875787 </i>
    <i name="ewald">  39379.22656350 </i>
    <i name="hartreedc"> -45336.81265090 </i>
    <i name="XCdc">   -239.05311702 </i>
    <i name="pawpsdc">   4192.14988643 </i>
    <i name="pawaedc">  -3610.17475282 </i>
    <i name="eentropy">     -0.27870750 </i>
    <i name="bandstr">  -1412.95080788 </i>
    <i name="atom">   6761.44252427 </i>
    <i name="e_fr_energy">   -187.53230405 </i>
    <i name="e_wo_entrp">   -187.25359654 </i>
    <i name="e_0_energy">   -187.39295029 </i>
   </energy>
  </scstep>
  <scstep>
   <time name="dav">   30.21   30.28</time>
   <time name="total">   30.75   30.83</time>
   <energy>
    <i name="e_fr_energy">   -189.48967503 </i>
    <i name="e_wo_entrp">   -189.15958696 </i>
    <i name="e_0_energy">   -189.32463100 </i>
   </energy>
  </scstep>
  <scstep>
   <time name="dav">   30.35   30.42</time>
   <time name="total">   30.90   30.99</time>
   <energy>
    <i name="e_fr_energy">   -189.37297294 </i>
    <i name="e_wo_entrp">   -189.10198842 </i>
    <i name="e_0_energy">   -189.23748068 </i>
   </energy>
  </scstep>
  <scstep>
   <time name="dav">   30.55   30.62</time>
   <time name="total">   31.09   31.17</time>
   <energy>
    <i name="e_fr_energy">   -188.78751405 </i>
    <i name="e_wo_entrp">   -188.50857616 </i>
    <i name="e_0_energy">   -188.64804511 </i>
   </energy>
  </scstep>
  <scstep>
   <time name="dav">   30.23   30.31</time>
   <time name="total">   30.78   30.86</time>
   <energy>
    <i name="e_fr_energy">   -188.92815736 </i>
    <i name="e_wo_entrp">   -188.63656825 </i>
    <i name="e_0_energy">   -188.78236280 </i>
   </energy>
  </scstep>
  <scstep>
   <time name="dav">   31.08   31.15</time>
   <time name="total">   31.62   31.71</time>
   <energy>
    <i name="e_fr_energy">   -188.75147429 </i>
    <i name="e_wo_entrp">   -188.47583760 </i>
    <i name="e_0_energy">   -188.61365594 </i>
   </energy>
  </scstep>
  <scstep>
   <time name="dav">   29.15   29.22</time>
   <time name="total">   29.69   29.77</time>
   <energy>
    <i name="e_fr_energy">   -188.71988405 </i>
    <i name="e_wo_entrp">   -188.44006796 </i>
    <i name="e_0_energy">   -188.57997600 </i>
   </energy>
  </scstep>
  <scstep>
   <time name="dav">   31.61   31.68</time>
   <time name="total">   32.15   32.24</time>
   <energy>
    <i name="e_fr_energy">   -188.71154964 </i>
    <i name="e_wo_entrp">   -188.43405413 </i>
    <i name="e_0_energy">   -188.57280188 </i>
   </energy>
  </scstep>
  <scstep>
   <time name="dav">   29.39   29.46</time>
   <time name="total">   29.94   30.02</time>
   <energy>
    <i name="e_fr_energy">   -188.70004418 </i>
    <i name="e_wo_entrp">   -188.42297164 </i>
    <i name="e_0_energy">   -188.56150791 </i>
   </energy>
  </scstep>
  <scstep>
   <time name="dav">   31.37   31.44</time>
   <time name="total">   31.92   32.00</time>
   <energy>
    <i name="e_fr_energy">   -188.69953408 </i>
    <i name="e_wo_entrp">   -188.42271963 </i>
    <i name="e_0_energy">   -188.56112686 </i>
   </energy>
  </scstep>
  <scstep>
   <time name="dav">   28.94   29.01</time>
   <time name="total">   29.49   29.57</time>
   <energy>
    <i name="e_fr_energy">   -188.69912737 </i>
    <i name="e_wo_entrp">   -188.42260812 </i>
    <i name="e_0_energy">   -188.56086775 </i>
   </energy>
  </scstep>
  <scstep>
   <time name="dav">   29.63   29.70</time>
   <time name="total">   29.67   29.74</time>
   <energy>
    <i name="alphaZ">     78.91875787 </i>
    <i name="ewald">  39379.22656350 </i>
    <i name="hartreedc"> -45347.67724395 </i>
    <i name="XCdc">   -237.96446699 </i>
    <i name="pawpsdc">   3952.20653192 </i>
    <i name="pawaedc">  -3366.74418930 </i>
    <i name="eentropy">     -0.27655459 </i>
    <i name="bandstr">  -1407.83113573 </i>
    <i name="atom">   6761.44252427 </i>
    <i name="e_fr_energy">   -188.69921301 </i>
    <i name="e_wo_entrp">   -188.42265842 </i>
    <i name="e_0_energy">   -188.56093571 </i>
   </energy>
  </scstep>
  <structure>
   <crystal>
    <varray name="basis" >
     <v>       8.85268367       5.10308467       0.00000000 </v>
     <v>      -8.85624625       5.10921364       0.00000000 </v>
     <v>       0.00000000       0.00000000      30.00000000 </v>
    </varray>
    <i name="volume">   2712.73279905 </i>
    <varray name="rec_basis" >
     <v>       0.05650258       0.09794086       0.00000000 </v>
     <v>      -0.05643480       0.09790146       0.00000000 </v>
     <v>       0.00000000       0.00000000       0.03333333 </v>
    </varray>
   </crystal>
   <varray name="positions" >
    <v>       0.66554647      -0.00192871      -0.00012865 </v>
    <v>       0.33479830       0.33563006       0.00014196 </v>
    <v>       0.66741056       0.33521215      -0.00001351 </v>
    <v>       0.00002838       0.66678975      -0.00003847 </v>
    <v>       0.33333214       0.66657459       0.00017961 </v>
    <v>       0.66652560       0.66645242       0.00002378 </v>
    <v>      -0.00154211      -0.00302064      -0.00018583 </v>
    <v>       1.00093917       0.33606042      -0.00005488 </v>
    <v>       0.33267726      -0.00222771       0.00000652 </v>
    <v>       0.11464954       0.22380542       0.95199219 </v>
    <v>       0.22401712       0.11493235       0.04806864 </v>
    <v>       0.11046628       0.55449854       0.95076384 </v>
    <v>       0.22371625       0.44145867       0.04807362 </v>
    <v>       0.11136397       0.88961439       0.95066980 </v>
    <v>       0.22260137       0.77856765       0.04927199 </v>
    <v>       0.44586534       0.22564548       0.95316914 </v>
    <v>       0.55891860       0.11252295       0.04684607 </v>
    <v>       0.44222734       0.55103532       0.95195438 </v>
    <v>       0.55336714       0.43985509       0.04691930 </v>
    <v>       0.44856443       0.89161071       0.95189432 </v>
    <v>       0.55756107       0.78205513       0.04805060 </v>
    <v>       0.77419521       0.22052027       0.95313362 </v>
    <v>       0.88510623       0.10931855       0.04800035 </v>
    <v>       0.77553629       0.55103741       0.95195707 </v>
    <v>       0.88479226       0.44174277       0.04809742 </v>
    <v>       0.77627804       0.89189395       0.95193734 </v>
    <v>       0.88927222       0.77855747       0.04926967 </v>
   </varray>
  </structure>
  <varray name="forces" >
   <v>       0.15129847      -0.29424246       0.07235989 </v>
   <v>      -0.19586204       0.34954423      -0.05446699 </v>
   <v>      -0.14210295       0.27496341      -0.08520715 </v>
   <v>      -0.03088055       0.21362204      -0.01309234 </v>
   <v>      -0.11303716      -0.11856264       0.03994496 </v>
   <v>      -0.00164988       0.15159779      -0.00491156 </v>
   <v>       0.39683504      -0.48872592       0.06323885 </v>
   <v>      -0.29293946       0.48494821      -0.08043907 </v>
   <v>       0.18793333      -0.52607039       0.09702232 </v>
   <v>      -0.05133719      -0.06858020       0.25824750 </v>
   <v>       0.06007327      -0.06578541      -0.23384709 </v>
   <v>       0.05521116      -0.10239300      -0.13862872 </v>
   <v>      -0.01820092      -0.09240356       0.11482169 </v>
   <v>      -0.06529078       0.08321662      -0.14912091 </v>
   <v>      -0.05284697       0.11084160       0.17075590 </v>
   <v>       0.07253087      -0.07869641       0.24645477 </v>
   <v>      -0.06327769      -0.07510652      -0.22938976 </v>
   <v>       0.02961599      -0.06447412      -0.02696674 </v>
   <v>       0.01247085      -0.04211934       0.03646940 </v>
   <v>      -0.09510711       0.05841764      -0.05673121 </v>
   <v>      -0.03206405       0.06713240       0.05886692 </v>
   <v>       0.05126644       0.07970091       0.19307047 </v>
   <v>       0.04868223       0.06918274      -0.29155995 </v>
   <v>       0.02902284      -0.08528146      -0.05346370 </v>
   <v>       0.10044583      -0.05025210       0.04843034 </v>
   <v>       0.01020620       0.09793164      -0.11958161 </v>
   <v>      -0.05099577       0.11159430       0.13772377 </v>
  </varray>
  <varray name="stress" >
   <v>     -19.96665410       0.02715685      -0.02845849 </v>
   <v>       0.02715683     -19.56000331       0.10806582 </v>
   <v>      -0.02845833       0.10806582      -1.78991792 </v>
  </varray>
  <energy>
   <i name="e_fr_energy">   -188.69921301 </i>
   <i name="e_wo_entrp">   -188.56093571 </i>
   <i name="e_0_energy">     -0.27655459 </i>
  </energy>
  <time name="totalsc">  402.02  403.08</time>
 </calculation>
 <calculation>
  <scstep>
   <time name="dav">   23.59   23.65</time>
   <time name="total">   24.13   24.19</time>
   <energy>
    <i name="alphaZ">     82.33585170 </i>
    <i name="ewald">  41298.32431553 </i>
    <i name="hartreedc"> -47297.25422227 </i>
    <i name="XCdc">   -233.85359572 </i>
    <i name="pawpsdc">   3950.62946315 </i>
    <i name="pawaedc">  -3365.14890851 </i>
    <i name="eentropy">     -0.23220370 </i>
    <i name="bandstr">  -1386.86364128 </i>
    <i name="atom">   6761.44252427 </i>
    <i name="e_fr_energy">   -190.62041684 </i>
    <i name="e_wo_entrp">   -190.38821314 </i>
    <i name="e_0_energy">   -190.50431499 </i>
   </energy>
  </scstep>
  <scstep>
   <time name="dav">   27.68   27.75</time>
   <time name="total">   28.20   28.27</time>
   <energy>
    <i name="e_fr_energy">   -190.57029743 </i>
    <i name="e_wo_entrp">   -190.34172190 </i>
    <i name="e_0_energy">   -190.45600967 </i>
   </energy>
  </scstep>
  <scstep>
   <time name="dav">   30.18   30.25</time>
   <time name="total">   30.71   30.79</time>
   <energy>
    <i name="e_fr_energy">   -190.10806032 </i>
    <i name="e_wo_entrp">   -189.85905448 </i>
    <i name="e_0_energy">   -189.98355740 </i>
   </energy>
  </scstep>
  <scstep>
   <time name="dav">   30.62   30.69</time>
   <time name="total">   31.16   31.24</time>
   <energy>
    <i name="e_fr_energy">   -189.89512068 </i>
    <i name="e_wo_entrp">   -189.66665035 </i>
    <i name="e_0_energy">   -189.78088552 </i>
   </energy>
  </scstep>
  <scstep>
   <time name="dav">   30.10   30.18</time>
   <time name="total">   30.64   30.72</time>
   <energy>
    <i name="e_fr_energy">   -189.84865079 </i>
    <i name="e_wo_entrp">   -189.61380935 </i>
    <i name="e_0_energy">   -189.73123007 </i>
   </energy>
  </scstep>
  <scstep>
   <time name="dav">   31.00   31.07</time>
   <time name="total">   31.52   31.61</time>
   <energy>
    <i name="e_fr_energy">   -189.79805757 </i>
    <i name="e_wo_entrp">   -189.56390079 </i>
    <i name="e_0_energy">   -189.68097918 </i>
   </energy>
  </scstep>
  <scstep>
   <time name="dav">   28.66   28.73</time>
   <time name="total">   29.19   29.27</time>
   <energy>
    <i name="e_fr_energy">   -189.79147627 </i>
    <i name="e_wo_entrp">   -189.55865938 </i>
    <i name="e_0_energy">   -189.67506783 </i>
   </energy>
  </scstep>
  <scstep>
   <time name="dav">   30.19   30.26</time>
   <time name="total">   30.72   30.80</time>
   <energy>
    <i name="e_fr_energy">   -189.79207269 </i>
    <i name="e_wo_entrp">   -189.55909996 </i>
    <i name="e_0_energy">   -189.67558633 </i>
   </energy>
  </scstep>
  <scstep>
   <time name="dav">   27.17   27.24</time>
   <time name="total">   27.70   27.78</time>
   <energy>
    <i name="e_fr_energy">   -189.79152724 </i>
    <i name="e_wo_entrp">   -189.55847293 </i>
    <i name="e_0_energy">   -189.67500008 </i>
   </energy>
  </scstep>
  <scstep>
   <time name="dav">   24.89   24.95</time>
   <time name="total">   25.42   25.49</time>
   <energy>
    <i name="e_fr_energy">   -189.79181355 </i>
    <i name="e_wo_entrp">   -189.55875630 </i>
    <i name="e_0_energy">   -189.67528493 </i>
   </energy>
  </scstep>
  <scstep>
   <time name="dav">   23.17   23.23</time>
   <time name="total">   23.70   23.77</time>
   <energy>
    <i name="e_fr_energy">   -189.79154045 </i>
    <i name="e_wo_entrp">   -189.55836783 </i>
    <i name="e_0_energy">   -189.67495414 </i>
   </energy>
  </scstep>
  <scstep>
   <time name="dav">   18.54   18.58</time>
   <time name="total">   18.57   18.63</time>
   <energy>
    <i name="alphaZ">     82.33585170 </i>
    <i name="ewald">  41298.32431553 </i>
    <i name="hartreedc"> -47270.59600257 </i>
    <i name="XCdc">   -235.24512667 </i>
    <i name="pawpsdc">   4038.66249462 </i>
    <i name="pawaedc">  -3454.37115114 </i>
    <i name="eentropy">     -0.23314701 </i>
    <i name="bandstr">  -1410.11132246 </i>
    <i name="atom">   6761.44252427 </i>
    <i name="e_fr_energy">   -189.79156372 </i>
    <i name="e_wo_entrp">   -189.55841672 </i>
    <i name="e_0_energy">   -189.67499022 </i>
   </energy>
  </scstep>
  <structure>
   <crystal>
    <varray name="basis" >
     <v>       8.66527282       4.99742492       0.00000000 </v>
     <v>      -8.66846565       5.00291639       0.00000000 </v>
     <v>       0.00000000       0.00000000      30.00000000 </v>
    </varray>
    <i name="volume">   2600.14924875 </i>
    <varray name="rec_basis" >
     <v>       0.05772264       0.10001502       0.00000000 </v>
     <v>      -0.05765929       0.09997818       0.00000000 </v>
     <v>       0.00000000       0.00000000       0.03333333 </v>
    </varray>
   </crystal>
   <varray name="positions" >
    <v>       0.66520349      -0.00256062      -0.00008784 </v>
    <v>       0.33519032       0.33639614       0.00011124 </v>
    <v>       0.66773038       0.33580334      -0.00006157 </v>
    <v>       0.00035288       0.66717312      -0.00004586 </v>
    <v>       0.33302759       0.66648612       0.00020214 </v>
    <v>       0.66677526       0.66670513       0.00002101 </v>
    <v>      -0.00197264      -0.00420920      -0.00015016 </v>
    <v>       1.00146278       0.33714351      -0.00010025 </v>
    <v>       0.33198511      -0.00327865       0.00006125 </v>
    <v>       0.11448681       0.22374083       0.95213785 </v>
    <v>       0.22396553       0.11476601       0.04793674 </v>
    <v>       0.11034938       0.55427620       0.95068565 </v>
    <v>       0.22354571       0.44132298       0.04813838 </v>
    <v>       0.11143945       0.88981460       0.95058569 </v>
    <v>       0.22273454       0.77880173       0.04936831 </v>
    <v>       0.44580426       0.22544586       0.95330815 </v>
    <v>       0.55873363       0.11245896       0.04671669 </v>
    <v>       0.44214880       0.55090023       0.95193917 </v>
    <v>       0.55330926       0.43977341       0.04693987 </v>
    <v>       0.44857031       0.89179831       0.95186232 </v>
    <v>       0.55764167       0.78219696       0.04808380 </v>
    <v>       0.77437631       0.22060335       0.95324251 </v>
    <v>       0.88526742       0.10938667       0.04783590 </v>
    <v>       0.77542270       0.55086842       0.95192692 </v>
    <v>       0.88480501       0.44156361       0.04812473 </v>
    <v>       0.77645009       0.89204643       0.95186989 </v>
    <v>       0.88940840       0.77879103       0.04934735 </v>
   </varray>
  </structure>
  <varray name="forces" >
   <v>       0.18518215      -0.29550999       0.08735215 </v>
   <v>      -0.23883961       0.33064089      -0.07663987 </v>
   <v>      -0.12357837       0.28338347      -0.08528305 </v>
   <v>      -0.04293215       0.27226803      -0.00645061 </v>
   <v>      -0.13637258      -0.16260520       0.01171909 </v>
   <v>      -0.01308796       0.21807275      -0.01205810 </v>
   <v>       0.43337304      -0.50186455       0.08360397 </v>
   <v>      -0.26682943       0.50698517      -0.06587077 </v>
   <v>       0.14649934      -0.58878814       0.08551285 </v>
   <v>       0.02551059       0.03957019      -0.20670488 </v>
   <v>      -0.01760566       0.05607294       0.24953387 </v>
   <v>       0.00841769      -0.01557329      -0.70254981 </v>
   <v>       0.09186730      -0.02362349       0.63346592 </v>
   <v>      -0.01843976       0.02056245      -0.73764113 </v>
   <v>      -0.00640994       0.02778038       0.74255159 </v>
   <v>       0.00508003       0.03376021      -0.18508641 </v>
   <v>       0.00866809       0.05962218       0.21061394 </v>
   <v>       0.06481653      -0.11178260      -0.50256374 </v>
   <v>       0.04355750      -0.09233574       0.48903230 </v>
   <v>       0.02857435       0.10888291      -0.56058039 </v>
   <v>      -0.06033934       0.12457881       0.54303748 </v>
   <v>      -0.01970720      -0.05330356      -0.24747750 </v>
   <v>      -0.02605034      -0.03012622       0.17099274 </v>
   <v>       0.05700503      -0.13917072      -0.53848419 </v>
   <v>      -0.02289610      -0.10414753       0.55555778 </v>
   <v>      -0.09892897       0.01526671      -0.63730455 </v>
   <v>      -0.00653422       0.02138394       0.70172132 </v>
  </varray>
  <varray name="stress" >
   <v>     -10.18019162       0.03557106      -0.04758694 </v>
   <v>       0.03557098      -9.86035009       0.12773517 </v>
   <v>      -0.04758701       0.12773528       6.47563734 </v>
  </varray>
  <energy>
   <i name="e_fr_energy">   -189.79156372 </i>
   <i name="e_wo_entrp">   -189.67499022 </i>
   <i name="e_0_energy">     -0.23314701 </i>
  </energy>
  <time name="totalsc">  373.50  374.49</time>
 </calculation>
 <calculation>
  <scstep>
   <time name="dav">   21.60   21.65</time>
   <time name="total">   22.12   22.17</time>
   <energy>
    <i name="alphaZ">     85.80324668 </i>
    <i name="ewald">  42825.18356147 </i>
    <i name="hartreedc"> -48841.80079164 </i>
    <i name="XCdc">   -232.96517297 </i>
    <i name="pawpsdc">   4038.77808445 </i>
    <i name="pawaedc">  -3454.48471030 </i>
    <i name="eentropy">     -0.19156580 </i>
    <i name="bandstr">  -1373.13275481 </i>
    <i name="atom">   6761.44252427 </i>
    <i name="e_fr_energy">   -191.36757864 </i>
    <i name="e_wo_entrp">   -191.17601284 </i>
    <i name="e_0_energy">   -191.27179574 </i>
   </energy>
  </scstep>
  <scstep>
   <time name="dav">   32.37   32.45</time>
   <time name="total">   32.89   32.97</time>
   <energy>
    <i name="e_fr_energy">   -191.18398143 </i>
    <i name="e_wo_entrp">   -190.99411260 </i>
    <i name="e_0_energy">   -191.08904701 </i>
   </energy>
  </scstep>
  <scstep>
   <time name="dav">   29.82   29.90</time>
   <time name="total">   30.34   30.43</time>
   <energy>
    <i name="e_fr_energy">   -191.33875729 </i>
    <i name="e_wo_entrp">   -191.11462502 </i>
    <i name="e_0_energy">   -191.22669116 </i>
   </energy>
  </scstep>
  <scstep>
   <time name="dav">   30.39   30.46</time>
   <time name="total">   30.90   30.98</time>
   <energy>
    <i name="e_fr_energy">   -190.93947384 </i>
    <i name="e_wo_entrp">   -190.74793745 </i>
    <i name="e_0_energy">   -190.84370565 </i>
   </energy>
  </scstep>
  <scstep>
   <time name="dav">   30.08   30.16</time>
   <time name="total">   30.60   30.69</time>
   <energy>
    <i name="e_fr_energy">   -190.90016808 </i>
    <i name="e_wo_entrp">   -190.70553515 </i>
    <i name="e_0_energy">   -190.80285162 </i>
   </energy>
  </scstep>
  <scstep>
   <time name="dav">   30.11   30.18</time>
   <time name="total">   30.63   30.71</time>
   <energy>
    <i name="e_fr_energy">   -190.80864997 </i>
    <i name="e_wo_entrp">   -190.61007161 </i>
    <i name="e_0_energy">   -190.70936079 </i>
   </energy>
  </scstep>
  <scstep>
   <time name="dav">   30.72   30.79</time>
   <time name="total">   31.23   31.31</time>
   <energy>
    <i name="e_fr_energy">   -190.79735541 </i>
    <i name="e_wo_entrp">   -190.60283708 </i>
    <i name="e_0_energy">   -190.70009625 </i>
   </energy>
  </scstep>
  <scstep>
   <time name="dav">   26.10   26.16</time>
   <time name="total">   26.62   26.69</time>
   <energy>
    <i name="e_fr_energy">   -190.79419654 </i>
    <i name="e_wo_entrp">   -190.59839035 </i>
    <i name="e_0_energy">   -190.69629344 </i>
   </energy>
  </scstep>
  <scstep>
   <time name="dav">   28.66   28.73</time>
   <time name="total">   29.18   29.26</time>
   <energy>
    <i name="e_fr_energy">   -190.79429687 </i>
    <i name="e_wo_entrp">   -190.59854369 </i>
    <i name="e_0_energy">   -190.69642028 </i>
   </energy>
  </scstep>
  <scstep>
   <time name="dav">   27.92   27.98</time>
   <time name="total">   28.43   28.51</time>
   <energy>
    <i name="e_fr_energy">   -190.79419818 </i>
    <i name="e_wo_entrp">   -190.59814974 </i>
    <i name="e_0_energy">   -190.69617396 </i>
   </energy>
  </scstep>
  <scstep>
   <time name="dav">   24.28   24.34</time>
   <time name="total">   24.80   24.87</time>
   <energy>
    <i name="e_fr_energy">   -190.79409312 </i>
    <i name="e_wo_entrp">   -190.59817013 </i>
    <i name="e_0_energy">   -190.69613163 </i>
   </energy>
  </scstep>
  <scstep>
   <time name="dav">   19.39   19.44</time>
   <time name="total">   19.43   19.48</time>
   <energy>
    <i name="alphaZ">     85.80324668 </i>
    <i name="ewald">  42825.18356147 </i>
    <i name="hartreedc"> -48813.22255151 </i>
    <i name="XCdc">   -234.29387535 </i>
    <i name="pawpsdc">   4063.81849721 </i>
    <i name="pawaedc">  -3479.69914598 </i>
    <i name="eentropy">     -0.19596966 </i>
    <i name="bandstr">  -1399.63037376 </i>
    <i name="atom">   6761.44252427 </i>
    <i name="e_fr_energy">   -190.79408663 </i>
    <i name="e_wo_entrp">   -190.59811696 </i>
    <i name="e_0_energy">   -190.69610179 </i>
   </energy>
  </scstep>
  <structure>
   <crystal>
    <varray name="basis" >
     <v>       8.48474041       4.89914769       0.00000000 </v>
     <v>      -8.48644751       4.90207033       0.00000000 </v>
     <v>       0.00000000       0.00000000      30.00000000 </v>
    </varray>
    <i name="volume">   2495.07461810 </i>
    <varray name="rec_basis" >
     <v>       0.05894097       0.10203840       0.00000000 </v>
     <v>      -0.05890583       0.10201788       0.00000000 </v>
     <v>       0.00000000       0.00000000       0.03333333 </v>
    </varray>
   </crystal>
   <varray name="positions" >
    <v>       0.66406877      -0.00512973       0.00010559 </v>
    <v>       0.33628745       0.33934134      -0.00006615 </v>
    <v>       0.66910531       0.33801659      -0.00023802 </v>
    <v>       0.00203114       0.66919552      -0.00005354 </v>
    <v>       0.33137336       0.66588444       0.00020234 </v>
    <v>       0.66824262       0.66829946      -0.00001001 </v>
    <v>      -0.00352808      -0.00899851       0.00004009 </v>
    <v>       1.00376463       0.34129576      -0.00022407 </v>
    <v>       0.32861266      -0.00758811       0.00022830 </v>
    <v>       0.11520820       0.22405605       0.95131435 </v>
    <v>       0.22444566       0.11559718       0.04886452 </v>
    <v>       0.11043203       0.55443304       0.94875236 </v>
    <v>       0.22406077       0.44085699       0.04989023 </v>
    <v>       0.11141238       0.88978550       0.94855888 </v>
    <v>       0.22274443       0.77872393       0.05139104 </v>
    <v>       0.44621794       0.22601730       0.95255782 </v>
    <v>       0.55957911       0.11303396       0.04752703 </v>
    <v>       0.44161580       0.54979788       0.95049471 </v>
    <v>       0.55280795       0.43886810       0.04833672 </v>
    <v>       0.44965983       0.89232428       0.95027381 </v>
    <v>       0.55830630       0.78337858       0.04961927 </v>
    <v>       0.77353622       0.22011062       0.95235547 </v>
    <v>       0.88462836       0.10915155       0.04858350 </v>
    <v>       0.77466318       0.54961685       0.95040014 </v>
    <v>       0.88375755       0.44103769       0.04970565 </v>
    <v>       0.77582383       0.89244954       0.95011089 </v>
    <v>       0.88935707       0.77865863       0.05127899 </v>
   </varray>
  </structure>
  <varray name="forces" >
   <v>       0.19156322      -0.31185542       0.07867460 </v>
   <v>      -0.30241961       0.37385458      -0.07225890 </v>
   <v>      -0.09727940       0.26718332      -0.04913806 </v>
   <v>      -0.04376269       0.33682401       0.01286299 </v>
   <v>      -0.16179784      -0.20844094      -0.02663509 </v>
   <v>      -0.02052989       0.25738138      -0.01361003 </v>
   <v>       0.51461582      -0.55378483       0.03821793 </v>
   <v>      -0.31113162       0.56599155      -0.00343443 </v>
   <v>       0.13647083      -0.60966666       0.02034655 </v>
   <v>       0.02010970      -0.03852811      -0.02707682 </v>
   <v>       0.00390301      -0.00384146       0.11073115 </v>
   <v>      -0.04957412       0.05711898      -0.53919521 </v>
   <v>       0.01352561       0.03718817       0.49130899 </v>
   <v>       0.02340861      -0.03427349      -0.59174463 </v>
   <v>       0.03974952      -0.05267839       0.59501011 </v>
   <v>       0.03928833      -0.04161993      -0.06212076 </v>
   <v>      -0.02187991      -0.02153436       0.08706895 </v>
   <v>       0.00342033       0.02110288      -0.35961943 </v>
   <v>      -0.00474921       0.01620584       0.38027577 </v>
   <v>       0.02084571      -0.01053825      -0.37325203 </v>
   <v>      -0.00986505      -0.01018916       0.39140861 </v>
   <v>       0.00453636       0.00311166      -0.14717311 </v>
   <v>       0.00449354       0.04073507      -0.01622740 </v>
   <v>       0.00907393      -0.00358852      -0.38740635 </v>
   <v>      -0.04636389       0.01531477       0.37921731 </v>
   <v>      -0.00953914      -0.01356559      -0.47969395 </v>
   <v>       0.05388785      -0.07790713       0.56346325 </v>
  </varray>
  <varray name="stress" >
   <v>      -5.86778170      -0.10308083      -0.01534061 </v>
   <v>      -0.10308086      -5.74633871      -0.01310474 </v>
   <v>      -0.01534058      -0.01310478       4.52002352 </v>
  </varray>
  <energy>
   <i name="e_fr_energy">   -190.79408663 </i>
   <i name="e_wo_entrp">   -190.69610179 </i>
   <i name="e_0_energy">     -0.19596966 </i>
  </energy>
  <time name="totalsc">  378.86  380.09</time>
 </calculation>
 <calculation>
  <scstep>
   <time name="dav">   21.67   21.72</time>
   <time name="total">   22.18   22.24</time>
   <energy>
    <i name="alphaZ">     90.21758825 </i>
    <i name="ewald">  44683.62476580 </i>
    <i name="hartreedc"> -50727.63064905 </i>
    <i name="XCdc">   -231.80637176 </i>
    <i name="pawpsdc">   4063.76859177 </i>
    <i name="pawaedc">  -3479.64515316 </i>
    <i name="eentropy">     -0.16451869 </i>
    <i name="bandstr">  -1352.06465982 </i>
    <i name="atom">   6761.44252427 </i>
    <i name="e_fr_energy">   -192.25788237 </i>
    <i name="e_wo_entrp">   -192.09336368 </i>
    <i name="e_0_energy">   -192.17562303 </i>
   </energy>
  </scstep>
  <scstep>
   <time name="dav">   27.45   27.52</time>
   <time name="total">   27.95   28.03</time>
   <energy>
    <i name="e_fr_energy">   -191.99314483 </i>
    <i name="e_wo_entrp">   -191.81645028 </i>
    <i name="e_0_energy">   -191.90479755 </i>
   </energy>
  </scstep>
  <scstep>
   <time name="dav">   29.95   30.02</time>
   <time name="total">   30.46   30.54</time>
   <energy>
    <i name="e_fr_energy">   -192.06669089 </i>
    <i name="e_wo_entrp">   -191.88561328 </i>
    <i name="e_0_energy">   -191.97615209 </i>
   </energy>
  </scstep>
  <scstep>
   <time name="dav">   29.50   29.58</time>
   <time name="total">   30.01   30.09</time>
   <energy>
    <i name="e_fr_energy">   -191.86575779 </i>
    <i name="e_wo_entrp">   -191.68721479 </i>
    <i name="e_0_energy">   -191.77648629 </i>
   </energy>
  </scstep>
  <scstep>
   <time name="dav">   30.38   30.45</time>
   <time name="total">   30.89   30.97</time>
   <energy>
    <i name="e_fr_energy">   -191.60236355 </i>
    <i name="e_wo_entrp">   -191.43235592 </i>
    <i name="e_0_energy">   -191.51735973 </i>
   </energy>
  </scstep>
  <scstep>
   <time name="dav">   30.88   30.95</time>
   <time name="total">   31.38   31.46</time>
   <energy>
    <i name="e_fr_energy">   -191.59168279 </i>
    <i name="e_wo_entrp">   -191.40923699 </i>
    <i name="e_0_energy">   -191.50045989 </i>
   </energy>
  </scstep>
  <scstep>
   <time name="dav">   30.22   30.29</time>
   <time name="total">   30.73   30.82</time>
   <energy>
    <i name="e_fr_energy">   -191.57343455 </i>
    <i name="e_wo_entrp">   -191.40674573 </i>
    <i name="e_0_energy">   -191.49009014 </i>
   </energy>
  </scstep>
  <scstep>
   <time name="dav">   28.79   28.86</time>
   <time name="total">   29.29   29.37</time>
   <energy>
    <i name="e_fr_energy">   -191.56600197 </i>
    <i name="e_wo_entrp">   -191.39432971 </i>
    <i name="e_0_energy">   -191.48016584 </i>
   </energy>
  </scstep>
  <scstep>
   <time name="dav">   29.62   29.69</time>
   <time name="total">   30.13   30.21</time>
   <energy>
    <i name="e_fr_energy">   -191.56516026 </i>
    <i name="e_wo_entrp">   -191.39309199 </i>
    <i name="e_0_energy">   -191.47912612 </i>
   </energy>
  </scstep>
  <scstep>
   <time name="dav">   28.34   28.40</time>
   <time name="total">   28.84   28.92</time>
   <energy>
    <i name="e_fr_energy">   -191.56513607 </i>
    <i name="e_wo_entrp">   -191.39293064 </i>
    <i name="e_0_energy">   -191.47903335 </i>
   </energy>
  </scstep>
  <scstep>
   <time name="dav">   27.14   27.21</time>
   <time name="total">   27.18   27.25</time>
   <energy>
    <i name="alphaZ">     90.21758825 </i>
    <i name="ewald">  44683.62476580 </i>
    <i name="hartreedc"> -50692.74539481 </i>
    <i name="XCdc">   -233.34823010 </i>
    <i name="pawpsdc">   4086.55415558 </i>
    <i name="pawaedc">  -3502.51608786 </i>
    <i name="eentropy">     -0.17242488 </i>
    <i name="bandstr">  -1384.62197205 </i>
    <i name="atom">   6761.44252427 </i>
    <i name="e_fr_energy">   -191.56507582 </i>
    <i name="e_wo_entrp">   -191.39265093 </i>
    <i name="e_0_energy">   -191.47886337 </i>
   </energy>
  </scstep>
  <structure>
   <crystal>
    <varray name="basis" >
     <v>       8.26826325       4.77487781       0.00000000 </v>
     <v>      -8.27559899       4.78754929       0.00000000 </v>
     <v>       0.00000000       0.00000000      30.00000000 </v>
    </varray>
    <i name="volume">   2372.99075579 </i>
    <varray name="rec_basis" >
     <v>       0.06052551       0.10462239       0.00000000 </v>
     <v>      -0.06036531       0.10452965       0.00000000 </v>
     <v>       0.00000000       0.00000000       0.03333333 </v>
    </varray>
   </crystal>
   <varray name="positions" >
    <v>       0.66165183      -0.01038826       0.00044283 </v>
    <v>       0.33861490       0.34601553      -0.00038235 </v>
    <v>       0.67177634       0.34206667      -0.00045596 </v>
    <v>       0.00593374       0.67376236      -0.00000541 </v>
    <v>       0.32756716       0.66442275       0.00008732 </v>
    <v>       0.67140048       0.67177451      -0.00007125 </v>
    <v>      -0.00667354      -0.01946919       0.00023923 </v>
    <v>       1.00860149       0.35040682      -0.00025709 </v>
    <v>       0.32182848      -0.01620170       0.00033412 </v>
    <v>       0.11545960       0.22374889       0.95064309 </v>
    <v>       0.22473231       0.11613280       0.04986981 </v>
    <v>       0.11089460       0.55565032       0.94592385 </v>
    <v>       0.22498057       0.44105803       0.05246873 </v>
    <v>       0.11110230       0.88906333       0.94550309 </v>
    <v>       0.22230158       0.77764510       0.05444416 </v>
    <v>       0.44629323       0.22582557       0.95180913 </v>
    <v>       0.55983995       0.11330451       0.04838519 </v>
    <v>       0.44165832       0.54955299       0.94849037 </v>
    <v>       0.55274411       0.43867308       0.05038293 </v>
    <v>       0.45024486       0.89217701       0.94816222 </v>
    <v>       0.55840814       0.78381530       0.05176518 </v>
    <v>       0.77297761       0.21977488       0.95126672 </v>
    <v>       0.88459762       0.10936912       0.04908167 </v>
    <v>       0.77439115       0.54902723       0.94826983 </v>
    <v>       0.88306988       0.44138554       0.05183866 </v>
    <v>       0.77512134       0.89242707       0.94757184 </v>
    <v>       0.88869638       0.77719420       0.05419197 </v>
   </varray>
  </structure>
  <varray name="forces" >
   <v>       0.18615572      -0.40834336      -0.00897463 </v>
   <v>      -0.34746706       0.50371585       0.04932490 </v>
   <v>      -0.11764210       0.32952491      -0.02121168 </v>
   <v>       0.03068086       0.08731789       0.07901289 </v>
   <v>      -0.11352115      -0.12369293       0.01335495 </v>
   <v>       0.05152909       0.11407585       0.05251435 </v>
   <v>       0.34945480      -0.39525968      -0.11750881 </v>
   <v>      -0.31985935       0.49522606       0.07011582 </v>
   <v>       0.14598575      -0.44077308      -0.04603366 </v>
   <v>      -0.00688195      -0.18583288       0.34412466 </v>
   <v>       0.03286902      -0.12000881      -0.20992780 </v>
   <v>      -0.14191639       0.11663561      -0.26953624 </v>
   <v>      -0.06237118       0.07681827       0.16915264 </v>
   <v>       0.03649338      -0.06170841      -0.29678882 </v>
   <v>       0.08528411      -0.09189822       0.25980398 </v>
   <v>       0.04447005      -0.15091731       0.23270225 </v>
   <v>      -0.05482729      -0.16234323      -0.17176464 </v>
   <v>      -0.09129941       0.18858394      -0.11833077 </v>
   <v>      -0.05414891       0.08747249       0.05424258 </v>
   <v>      -0.01967701      -0.10768828      -0.09687884 </v>
   <v>       0.04446563      -0.15493697       0.07288913 </v>
   <v>       0.07213114       0.10614355       0.15131229 </v>
   <v>       0.11120897       0.17991224      -0.35739487 </v>
   <v>      -0.04967789       0.14828667      -0.08479771 </v>
   <v>      -0.04181989       0.13716361       0.10956471 </v>
   <v>       0.08190943       0.00293039      -0.14366765 </v>
   <v>       0.14847164      -0.17040415       0.28470094 </v>
  </varray>
  <varray name="stress" >
   <v>      -0.24959199      -0.18157540       0.33038633 </v>
   <v>      -0.18157527       0.18151241      -0.33553540 </v>
   <v>       0.33038632      -0.33553547      -0.50980232 </v>
  </varray>
  <energy>
   <i name="e_fr_energy">   -191.56507582 </i>
   <i name="e_wo_entrp">   -191.47886337 </i>
   <i name="e_0_energy">     -0.17242488 </i>
  </energy>
  <time name="totalsc">  361.61  362.56</time>
 </calculation>
 <calculation>
  <scstep>
   <time name="dav">   21.64   21.69</time>
   <time name="total">   22.15   22.20</time>
   <energy>
    <i name="alphaZ">     90.25089325 </i>
    <i name="ewald">  44682.05960787 </i>
    <i name="hartreedc"> -50692.15764503 </i>
    <i name="XCdc">   -233.40104746 </i>
    <i name="pawpsdc">   4086.90571479 </i>
    <i name="pawaedc">  -3502.86392072 </i>
    <i name="eentropy">     -0.16566673 </i>
    <i name="bandstr">  -1383.75927233 </i>
    <i name="atom">   6761.44252427 </i>
    <i name="e_fr_energy">   -191.68881208 </i>
    <i name="e_wo_entrp">   -191.52314535 </i>
    <i name="e_0_energy">   -191.60597872 </i>
   </energy>
  </scstep>
  <scstep>
   <time name="dav">   30.93   31.01</time>
   <time name="total">   31.44   31.52</time>
   <energy>
    <i name="e_fr_energy">   -191.75306224 </i>
    <i name="e_wo_entrp">   -191.56784521 </i>
    <i name="e_0_energy">   -191.66045372 </i>
   </energy>
  </scstep>
  <scstep>
   <time name="dav">   30.53   30.61</time>
   <time name="total">   31.04   31.12</time>
   <energy>
    <i name="e_fr_energy">   -191.70956421 </i>
    <i name="e_wo_entrp">   -191.54377797 </i>
    <i name="e_0_energy">   -191.62667109 </i>
   </energy>
  </scstep>
  <scstep>
   <time name="dav">   28.74   28.81</time>
   <time name="total">   29.25   29.32</time>
   <energy>
    <i name="e_fr_energy">   -191.70876102 </i>
    <i name="e_wo_entrp">   -191.53990934 </i>
    <i name="e_0_energy">   -191.62433518 </i>
   </energy>
  </scstep>
  <scstep>
   <time name="dav">   28.80   28.87</time>
   <time name="total">   29.30   29.38</time>
   <energy>
    <i name="e_fr_energy">   -191.70555007 </i>
    <i name="e_wo_entrp">   -191.53676706 </i>
    <i name="e_0_energy">   -191.62115856 </i>
   </energy>
  </scstep>
  <scstep>
   <time name="dav">   28.28   28.35</time>
   <time name="total">   28.79   28.87</time>
   <energy>
    <i name="e_fr_energy">   -191.70526756 </i>
    <i name="e_wo_entrp">   -191.53581873 </i>
    <i name="e_0_energy">   -191.62054315 </i>
   </energy>
  </scstep>
  <scstep>
   <time name="dav">   28.51   28.58</time>
   <time name="total">   29.01   29.09</time>
   <energy>
    <i name="e_fr_energy">   -191.70471178 </i>
    <i name="e_wo_entrp">   -191.53593931 </i>
    <i name="e_0_energy">   -191.62032555 </i>
   </energy>
  </scstep>
  <scstep>
   <time name="dav">   23.82   23.88</time>
   <time name="total">   24.33   24.40</time>
   <energy>
    <i name="e_fr_energy">   -191.70449433 </i>
    <i name="e_wo_entrp">   -191.53540905 </i>
    <i name="e_0_energy">   -191.61995169 </i>
   </energy>
  </scstep>
  <scstep>
   <time name="dav">   17.45   17.50</time>
   <time name="total">   17.49   17.54</time>
   <energy>
    <i name="alphaZ">     90.25089325 </i>
    <i name="ewald">  44682.05960787 </i>
    <i name="hartreedc"> -50692.99296309 </i>
    <i name="XCdc">   -233.38507635 </i>
    <i name="pawpsdc">   4086.18613861 </i>
    <i name="pawaedc">  -3502.11673831 </i>
    <i name="eentropy">     -0.16880778 </i>
    <i name="bandstr">  -1382.98006686 </i>
    <i name="atom">   6761.44252427 </i>
    <i name="e_fr_energy">   -191.70448839 </i>
    <i name="e_wo_entrp">   -191.53568061 </i>
    <i name="e_0_energy">   -191.62008450 </i>
   </energy>
  </scstep>
  <structure>
   <crystal>
    <varray name="basis" >
     <v>       8.25961792       4.77272156       0.00000000 </v>
     <v>      -8.27162220       4.79348472       0.00000000 </v>
     <v>       0.00000000       0.00000000      30.00000000 </v>
    </varray>
    <i name="volume">   2372.11505867 </i>
    <varray name="rec_basis" >
     <v>       0.06062292       0.10461072       0.00000000 </v>
     <v>      -0.06036033       0.10445890       0.00000000 </v>
     <v>       0.00000000       0.00000000       0.03333333 </v>
    </varray>
   </crystal>
   <varray name="positions" >
    <v>       0.66010330      -0.01305057       0.00043047 </v>
    <v>       0.34017305       0.34964699      -0.00030431 </v>
    <v>       0.67312719       0.34411808      -0.00049189 </v>
    <v>       0.00649464       0.67414643       0.00012328 </v>
    <v>       0.32657681       0.66411704       0.00010826 </v>
    <v>       0.67215495       0.67222688       0.00001367 </v>
    <v>      -0.00767829      -0.02257815       0.00004973 </v>
    <v>       1.01021457       0.35392924      -0.00014344 </v>
    <v>       0.31996705      -0.01893265       0.00026009 </v>
    <v>       0.11449549       0.22282150       0.95119569 </v>
    <v>       0.22422029       0.11543048       0.04953739 </v>
    <v>       0.11107415       0.55667074       0.94546514 </v>
    <v>       0.22519571       0.44163365       0.05276249 </v>
    <v>       0.11089304       0.88863633       0.94499859 </v>
    <v>       0.22208137       0.77691834       0.05488848 </v>
    <v>       0.44565647       0.22492694       0.95218044 </v>
    <v>       0.55885466       0.11264188       0.04811364 </v>
    <v>       0.44235005       0.55077912       0.94828303 </v>
    <v>       0.55302912       0.43927515       0.05048622 </v>
    <v>       0.44964363       0.89168575       0.94798884 </v>
    <v>       0.55775099       0.78289973       0.05189964 </v>
    <v>       0.77372565       0.22009994       0.95150362 </v>
    <v>       0.88584084       0.10995899       0.04850641 </v>
    <v>       0.77499794       0.54992334       0.94811612 </v>
    <v>       0.88363942       0.44220908       0.05203278 </v>
    <v>       0.77537156       0.89220113       0.94731972 </v>
    <v>       0.88826078       0.77587909       0.05467581 </v>
   </varray>
  </structure>
  <varray name="forces" >
   <v>       0.17708059      -0.44424094       0.00168597 </v>
   <v>      -0.32405258       0.50477936       0.00806332 </v>
   <v>      -0.13734191       0.37832356      -0.06399229 </v>
   <v>       0.03101078       0.04746292       0.03100024 </v>
   <v>      -0.13755972      -0.08911851      -0.02958999 </v>
   <v>       0.08260662       0.10595938       0.03463151 </v>
   <v>       0.33556470      -0.42988667      -0.02692700 </v>
   <v>      -0.30932335       0.48807197       0.00166015 </v>
   <v>       0.18158045      -0.43673178      -0.01739181 </v>
   <v>      -0.00063258      -0.11935686       0.37899699 </v>
   <v>       0.00666988      -0.08309019      -0.26397774 </v>
   <v>      -0.09595052       0.09805656      -0.19610825 </v>
   <v>      -0.05038052       0.07216623       0.18395119 </v>
   <v>       0.05632217      -0.06870089      -0.24013026 </v>
   <v>       0.06680004      -0.06973759       0.20960295 </v>
   <v>       0.01458953      -0.10870114       0.29475298 </v>
   <v>      -0.03144974      -0.11817924      -0.23026420 </v>
   <v>      -0.07608720       0.14539439      -0.08076762 </v>
   <v>      -0.03293264       0.04742827       0.07716084 </v>
   <v>       0.00706902      -0.06458618      -0.11613929 </v>
   <v>       0.03529940      -0.10998549       0.06951942 </v>
   <v>       0.06438987       0.08665639       0.22380910 </v>
   <v>       0.06496211       0.13847850      -0.39662800 </v>
   <v>      -0.03796291       0.09631279      -0.06718358 </v>
   <v>      -0.03885205       0.06959801       0.16085058 </v>
   <v>       0.05692814      -0.02997221      -0.13370488 </v>
   <v>       0.09165243      -0.10640064       0.18711966 </v>
  </varray>
  <varray name="stress" >
   <v>       0.09053932      -0.08465138       0.15076536 </v>
   <v>      -0.08465140       0.16651172      -0.24022890 </v>
   <v>       0.15076527      -0.24022881      -1.11608579 </v>
  </varray>
  <energy>
   <i name="e_fr_energy">   -191.70448839 </i>
   <i name="e_wo_entrp">   -191.62008450 </i>
   <i name="e_0_energy">     -0.16880778 </i>
  </energy>
  <time name="totalsc">  284.38  285.14</time>
 </calculation>
 <calculation>
  <scstep>
   <time name="dav">   21.70   21.75</time>
   <time name="total">   22.21   22.26</time>
   <energy>
    <i name="alphaZ">     90.12808447 </i>
    <i name="ewald">  44629.11789189 </i>
    <i name="hartreedc"> -50638.43257882 </i>
    <i name="XCdc">   -233.47111303 </i>
    <i name="pawpsdc">   4086.20926814 </i>
    <i name="pawaedc">  -3502.14010917 </i>
    <i name="eentropy">     -0.16268414 </i>
    <i name="bandstr">  -1384.52245855 </i>
    <i name="atom">   6761.44252427 </i>
    <i name="e_fr_energy">   -191.83117494 </i>
    <i name="e_wo_entrp">   -191.66849080 </i>
    <i name="e_0_energy">   -191.74983287 </i>
   </energy>
  </scstep>
  <scstep>
   <time name="dav">   31.07   31.15</time>
   <time name="total">   31.58   31.66</time>
   <energy>
    <i name="e_fr_energy">   -191.87708194 </i>
    <i name="e_wo_entrp">   -191.70223523 </i>
    <i name="e_0_energy">   -191.78965858 </i>
   </energy>
  </scstep>
  <scstep>
   <time name="dav">   30.63   30.70</time>
   <time name="total">   31.14   31.22</time>
   <energy>
    <i name="e_fr_energy">   -191.85211247 </i>
    <i name="e_wo_entrp">   -191.69078713 </i>
    <i name="e_0_energy">   -191.77144980 </i>
   </energy>
  </scstep>
  <scstep>
   <time name="dav">   28.81   28.88</time>
   <time name="total">   29.32   29.39</time>
   <energy>
    <i name="e_fr_energy">   -191.84849347 </i>
    <i name="e_wo_entrp">   -191.68403437 </i>
    <i name="e_0_energy">   -191.76626392 </i>
   </energy>
  </scstep>
  <scstep>
   <time name="dav">   29.74   29.81</time>
   <time name="total">   30.25   30.33</time>
   <energy>
    <i name="e_fr_energy">   -191.84799765 </i>
    <i name="e_wo_entrp">   -191.68381392 </i>
    <i name="e_0_energy">   -191.76590578 </i>
   </energy>
  </scstep>
  <scstep>
   <time name="dav">   29.23   29.30</time>
   <time name="total">   29.73   29.81</time>
   <energy>
    <i name="e_fr_energy">   -191.84701559 </i>
    <i name="e_wo_entrp">   -191.68288375 </i>
    <i name="e_0_energy">   -191.76494967 </i>
   </energy>
  </scstep>
  <scstep>
   <time name="dav">   25.69   25.75</time>
   <time name="total">   26.20   26.27</time>
   <energy>
    <i name="e_fr_energy">   -191.84608241 </i>
    <i name="e_wo_entrp">   -191.68194576 </i>
    <i name="e_0_energy">   -191.76401409 </i>
   </energy>
  </scstep>
  <scstep>
   <time name="dav">   20.28   20.33</time>
   <time name="total">   20.31   20.37</time>
   <energy>
    <i name="alphaZ">     90.12808447 </i>
    <i name="ewald">  44629.11789189 </i>
    <i name="hartreedc"> -50640.02603300 </i>
    <i name="XCdc">   -233.40746011 </i>
    <i name="pawpsdc">   4088.51741810 </i>
    <i name="pawaedc">  -3504.46953963 </i>
    <i name="eentropy">     -0.16397011 </i>
    <i name="bandstr">  -1382.98502124 </i>
    <i name="atom">   6761.44252427 </i>
    <i name="e_fr_energy">   -191.84610535 </i>
    <i name="e_wo_entrp">   -191.68213524 </i>
[...]
      <set comment="kpoint 31">
       <r>  -17.5257    1.0000 </r>
       <r>  -17.3025    1.0000 </r>
       <r>  -16.9089    1.0000 </r>
       <r>  -16.7053    1.0000 </r>
       <r>  -16.4954    1.0000 </r>
       <r>  -16.4359    1.0000 </r>
       <r>  -16.3340    1.0000 </r>
       <r>  -16.2461    1.0000 </r>
       <r>  -16.0655    1.0000 </r>
       <r>  -15.9980    1.0000 </r>
       <r>  -15.9590    1.0000 </r>
       <r>  -15.8640    1.0000 </r>
       <r>  -15.7749    1.0000 </r>
       <r>  -15.6774    1.0000 </r>
       <r>  -15.6045    1.0000 </r>
       <r>  -15.5568    1.0000 </r>
       <r>  -15.3167    1.0000 </r>
       <r>  -15.2390    1.0000 </r>
       <r>   -9.8026    1.0000 </r>
       <r>   -9.5091    1.0000 </r>
       <r>   -9.2793    1.0000 </r>
       <r>   -9.0118    1.0000 </r>
       <r>   -8.9110    1.0000 </r>
       <r>   -8.6822    1.0000 </r>
       <r>   -8.5404    1.0000 </r>
       <r>   -8.4586    1.0000 </r>
       <r>   -8.4044    1.0000 </r>
       <r>   -8.3210    1.0000 </r>
       <r>   -8.2913    1.0000 </r>
       <r>   -8.2155    1.0000 </r>
       <r>   -8.1554    1.0000 </r>
       <r>   -8.1055    1.0000 </r>
       <r>   -8.0354    1.0000 </r>
       <r>   -7.8810    1.0000 </r>
       <r>   -7.7666    1.0000 </r>
       <r>   -7.7089    1.0000 </r>
       <r>   -7.6281    1.0000 </r>
       <r>   -7.3963    1.0000 </r>
       <r>   -7.3598    1.0000 </r>
       <r>   -7.2213    1.0000 </r>
       <r>   -7.1688    1.0000 </r>
       <r>   -7.1155    1.0000 </r>
       <r>   -7.0695    1.0000 </r>
       <r>   -6.8616    1.0000 </r>
       <r>   -6.8457    1.0000 </r>
       <r>   -6.7778    1.0000 </r>
       <r>   -6.6293    1.0000 </r>
       <r>   -6.5997    1.0000 </r>
       <r>   -6.5355    1.0000 </r>
       <r>   -6.4882    1.0000 </r>
       <r>   -6.4112    1.0000 </r>
       <r>   -6.3795    1.0000 </r>
       <r>   -6.2576    1.0000 </r>
       <r>   -6.2081    1.0000 </r>
       <r>   -6.1232    1.0000 </r>
       <r>   -6.0582    1.0000 </r>
       <r>   -6.0128    1.0000 </r>
       <r>   -5.9307    1.0000 </r>
       <r>   -5.8774    1.0000 </r>
       <r>   -5.7680    1.0000 </r>
       <r>   -5.6571    1.0000 </r>
       <r>   -5.5772    1.0000 </r>
       <r>   -5.4962    1.0000 </r>
       <r>   -5.4242    1.0000 </r>
       <r>   -5.3025    1.0000 </r>
       <r>   -5.2059    1.0000 </r>
       <r>   -5.0787    1.0000 </r>
       <r>   -4.8362    1.0000 </r>
       <r>   -4.8157    1.0000 </r>
       <r>   -4.5884    1.0000 </r>
       <r>   -4.5602    1.0000 </r>
       <r>   -4.4642    1.0000 </r>
       <r>   -4.3528    1.0000 </r>
       <r>   -4.2495    1.0000 </r>
       <r>   -4.1532    1.0000 </r>
       <r>   -4.0935    1.0000 </r>
       <r>   -4.0101    1.0000 </r>
       <r>   -3.6850    0.9995 </r>
       <r>   -3.5364    0.9869 </r>
       <r>   -3.1032    0.2001 </r>
       <r>   -2.9663    0.0352 </r>
       <r>   -2.7972    0.0013 </r>
       <r>   -2.6748    0.0001 </r>
       <r>   -2.5536    0.0000 </r>
       <r>   -2.4617    0.0000 </r>
       <r>   -2.3684    0.0000 </r>
       <r>   -2.0719    0.0000 </r>
       <r>   -2.0316    0.0000 </r>
       <r>   -1.9968    0.0000 </r>
       <r>   -1.8723    0.0000 </r>
       <r>   -1.6967    0.0000 </r>
       <r>   -1.5822    0.0000 </r>
       <r>   -1.5050    0.0000 </r>
       <r>   -1.4319    0.0000 </r>
       <r>   -1.3206    0.0000 </r>
       <r>   -1.1953    0.0000 </r>
       <r>   -1.0717    0.0000 </r>
       <r>   -1.0456    0.0000 </r>
       <r>   -0.9705    0.0000 </r>
       <r>   -0.8930    0.0000 </r>
       <r>   -0.8407    0.0000 </r>
       <r>   -0.7039    0.0000 </r>
       <r>   -0.6516    0.0000 </r>
       <r>   -0.6226    0.0000 </r>
       <r>   -0.4426    0.0000 </r>
       <r>   -0.2942    0.0000 </r>
       <r>   -0.1639    0.0000 </r>
       <r>   -0.0164    0.0000 </r>
       <r>    0.0461    0.0000 </r>
       <r>    0.1175    0.0000 </r>
       <r>    0.4487    0.0000 </r>
       <r>    0.7106    0.0000 </r>
       <r>    0.8006    0.0000 </r>
       <r>    0.8992    0.0000 </r>
       <r>    1.0612    0.0000 </r>
       <r>    1.2102    0.0000 </r>
       <r>    1.2820    0.0000 </r>
       <r>    2.1310    0.0000 </r>
       <r>    2.3167    0.0000 </r>
       <r>    2.3803    0.0000 </r>
      </set>
      <set comment="kpoint 32">
       <r>  -17.5362    1.0000 </r>
       <r>  -17.2270    1.0000 </r>
       <r>  -17.0315    1.0000 </r>
       <r>  -16.6986    1.0000 </r>
       <r>  -16.4599    1.0000 </r>
       <r>  -16.3722    1.0000 </r>
       <r>  -16.3287    1.0000 </r>
       <r>  -16.2489    1.0000 </r>
       <r>  -16.1230    1.0000 </r>
       <r>  -16.0442    1.0000 </r>
       <r>  -15.9430    1.0000 </r>
       <r>  -15.8567    1.0000 </r>
       <r>  -15.7760    1.0000 </r>
       <r>  -15.6781    1.0000 </r>
       <r>  -15.5724    1.0000 </r>
       <r>  -15.5175    1.0000 </r>
       <r>  -15.3502    1.0000 </r>
       <r>  -15.2429    1.0000 </r>
       <r>   -9.7471    1.0000 </r>
       <r>   -9.5763    1.0000 </r>
       <r>   -9.3962    1.0000 </r>
       <r>   -8.9727    1.0000 </r>
       <r>   -8.7385    1.0000 </r>
       <r>   -8.6280    1.0000 </r>
       <r>   -8.5317    1.0000 </r>
       <r>   -8.4607    1.0000 </r>
       <r>   -8.4099    1.0000 </r>
       <r>   -8.3781    1.0000 </r>
       <r>   -8.3031    1.0000 </r>
       <r>   -8.2452    1.0000 </r>
       <r>   -8.1327    1.0000 </r>
       <r>   -8.1018    1.0000 </r>
       <r>   -8.0477    1.0000 </r>
       <r>   -7.9169    1.0000 </r>
       <r>   -7.7987    1.0000 </r>
       <r>   -7.7756    1.0000 </r>
       <r>   -7.6261    1.0000 </r>
       <r>   -7.4362    1.0000 </r>
       <r>   -7.3497    1.0000 </r>
       <r>   -7.2437    1.0000 </r>
       <r>   -7.1986    1.0000 </r>
       <r>   -7.1415    1.0000 </r>
       <r>   -7.0237    1.0000 </r>
       <r>   -6.8828    1.0000 </r>
       <r>   -6.8416    1.0000 </r>
       <r>   -6.7182    1.0000 </r>
       <r>   -6.6567    1.0000 </r>
       <r>   -6.5975    1.0000 </r>
       <r>   -6.5156    1.0000 </r>
       <r>   -6.4563    1.0000 </r>
       <r>   -6.4011    1.0000 </r>
       <r>   -6.3597    1.0000 </r>
       <r>   -6.2656    1.0000 </r>
       <r>   -6.2246    1.0000 </r>
       <r>   -6.1295    1.0000 </r>
       <r>   -6.0231    1.0000 </r>
       <r>   -5.9673    1.0000 </r>
       <r>   -5.8845    1.0000 </r>
       <r>   -5.8449    1.0000 </r>
       <r>   -5.7037    1.0000 </r>
       <r>   -5.6189    1.0000 </r>
       <r>   -5.5800    1.0000 </r>
       <r>   -5.4993    1.0000 </r>
       <r>   -5.4146    1.0000 </r>
       <r>   -5.3710    1.0000 </r>
       <r>   -5.1952    1.0000 </r>
       <r>   -5.1447    1.0000 </r>
       <r>   -4.8634    1.0000 </r>
       <r>   -4.7578    1.0000 </r>
       <r>   -4.6593    1.0000 </r>
       <r>   -4.5092    1.0000 </r>
       <r>   -4.4722    1.0000 </r>
       <r>   -4.4030    1.0000 </r>
       <r>   -4.2662    1.0000 </r>
       <r>   -4.1939    1.0000 </r>
       <r>   -4.0938    1.0000 </r>
       <r>   -3.9342    1.0000 </r>
       <r>   -3.6699    0.9992 </r>
       <r>   -3.5305    0.9854 </r>
       <r>   -3.1569    0.3223 </r>
       <r>   -2.9073    0.0130 </r>
       <r>   -2.8299    0.0028 </r>
       <r>   -2.7217    0.0002 </r>
       <r>   -2.5653    0.0000 </r>
       <r>   -2.5052    0.0000 </r>
       <r>   -2.3646    0.0000 </r>
       <r>   -2.1141    0.0000 </r>
       <r>   -2.0620    0.0000 </r>
       <r>   -2.0121    0.0000 </r>
       <r>   -1.9392    0.0000 </r>
       <r>   -1.6968    0.0000 </r>
       <r>   -1.5317    0.0000 </r>
       <r>   -1.4290    0.0000 </r>
       <r>   -1.4018    0.0000 </r>
       <r>   -1.2828    0.0000 </r>
       <r>   -1.1825    0.0000 </r>
       <r>   -1.0775    0.0000 </r>
       <r>   -0.9854    0.0000 </r>
       <r>   -0.9545    0.0000 </r>
       <r>   -0.8641    0.0000 </r>
       <r>   -0.7980    0.0000 </r>
       <r>   -0.7370    0.0000 </r>
       <r>   -0.6527    0.0000 </r>
       <r>   -0.6344    0.0000 </r>
       <r>   -0.4922    0.0000 </r>
       <r>   -0.3409    0.0000 </r>
       <r>   -0.2240    0.0000 </r>
       <r>   -0.0330    0.0000 </r>
       <r>    0.0370    0.0000 </r>
       <r>    0.1809    0.0000 </r>
       <r>    0.4816    0.0000 </r>
       <r>    0.5931    0.0000 </r>
       <r>    0.8222    0.0000 </r>
       <r>    0.9132    0.0000 </r>
       <r>    1.0601    0.0000 </r>
       <r>    1.1834    0.0000 </r>
       <r>    1.3963    0.0000 </r>
       <r>    2.1089    0.0000 </r>
       <r>    2.2797    0.0000 </r>
       <r>    2.5789    0.0000 </r>
      </set>
      <set comment="kpoint 33">
       <r>  -17.5110    1.0000 </r>
       <r>  -17.3053    1.0000 </r>
       <r>  -16.9296    1.0000 </r>
       <r>  -16.6893    1.0000 </r>
       <r>  -16.5011    1.0000 </r>
       <r>  -16.4757    1.0000 </r>
       <r>  -16.3362    1.0000 </r>
       <r>  -16.1883    1.0000 </r>
       <r>  -16.1454    1.0000 </r>
       <r>  -16.0633    1.0000 </r>
       <r>  -15.8757    1.0000 </r>
       <r>  -15.8264    1.0000 </r>
       <r>  -15.7803    1.0000 </r>
       <r>  -15.6788    1.0000 </r>
       <r>  -15.5753    1.0000 </r>
       <r>  -15.4768    1.0000 </r>
       <r>  -15.3638    1.0000 </r>
       <r>  -15.2829    1.0000 </r>
       <r>   -9.7879    1.0000 </r>
       <r>   -9.4677    1.0000 </r>
       <r>   -9.3830    1.0000 </r>
       <r>   -8.9405    1.0000 </r>
       <r>   -8.8194    1.0000 </r>
       <r>   -8.7358    1.0000 </r>
       <r>   -8.6191    1.0000 </r>
       <r>   -8.5665    1.0000 </r>
       <r>   -8.4311    1.0000 </r>
       <r>   -8.3204    1.0000 </r>
       <r>   -8.2579    1.0000 </r>
       <r>   -8.1722    1.0000 </r>
       <r>   -8.1143    1.0000 </r>
       <r>   -8.0569    1.0000 </r>
       <r>   -7.9635    1.0000 </r>
       <r>   -7.8988    1.0000 </r>
       <r>   -7.8356    1.0000 </r>
       <r>   -7.7800    1.0000 </r>
       <r>   -7.6213    1.0000 </r>
       <r>   -7.4649    1.0000 </r>
       <r>   -7.3752    1.0000 </r>
       <r>   -7.3164    1.0000 </r>
       <r>   -7.1425    1.0000 </r>
       <r>   -7.0714    1.0000 </r>
       <r>   -6.9652    1.0000 </r>
       <r>   -6.8812    1.0000 </r>
       <r>   -6.8364    1.0000 </r>
       <r>   -6.7677    1.0000 </r>
       <r>   -6.6962    1.0000 </r>
       <r>   -6.5672    1.0000 </r>
       <r>   -6.5160    1.0000 </r>
       <r>   -6.5027    1.0000 </r>
       <r>   -6.4149    1.0000 </r>
       <r>   -6.3367    1.0000 </r>
       <r>   -6.2658    1.0000 </r>
       <r>   -6.2262    1.0000 </r>
       <r>   -6.0757    1.0000 </r>
       <r>   -6.0162    1.0000 </r>
       <r>   -5.9890    1.0000 </r>
       <r>   -5.9581    1.0000 </r>
       <r>   -5.8691    1.0000 </r>
       <r>   -5.6947    1.0000 </r>
       <r>   -5.6439    1.0000 </r>
       <r>   -5.5626    1.0000 </r>
       <r>   -5.5167    1.0000 </r>
       <r>   -5.4017    1.0000 </r>
       <r>   -5.2800    1.0000 </r>
       <r>   -5.2167    1.0000 </r>
       <r>   -4.9575    1.0000 </r>
       <r>   -4.8771    1.0000 </r>
       <r>   -4.8028    1.0000 </r>
       <r>   -4.7147    1.0000 </r>
       <r>   -4.5487    1.0000 </r>
       <r>   -4.4704    1.0000 </r>
       <r>   -4.3839    1.0000 </r>
       <r>   -4.2784    1.0000 </r>
       <r>   -4.1488    1.0000 </r>
       <r>   -4.1102    1.0000 </r>
       <r>   -3.8428    1.0000 </r>
       <r>   -3.7206    0.9998 </r>
       <r>   -3.5782    0.9941 </r>
       <r>   -3.1496    0.3039 </r>
       <r>   -2.9663    0.0352 </r>
       <r>   -2.8538    0.0046 </r>
       <r>   -2.7205    0.0002 </r>
       <r>   -2.6020    0.0000 </r>
       <r>   -2.5280    0.0000 </r>
       <r>   -2.3531    0.0000 </r>
       <r>   -2.1666    0.0000 </r>
       <r>   -2.0947    0.0000 </r>
       <r>   -2.0208    0.0000 </r>
       <r>   -1.9293    0.0000 </r>
       <r>   -1.7084    0.0000 </r>
       <r>   -1.5081    0.0000 </r>
       <r>   -1.3592    0.0000 </r>
       <r>   -1.3347    0.0000 </r>
       <r>   -1.2540    0.0000 </r>
       <r>   -1.1839    0.0000 </r>
       <r>   -1.0779    0.0000 </r>
       <r>   -0.9738    0.0000 </r>
       <r>   -0.8925    0.0000 </r>
       <r>   -0.8574    0.0000 </r>
       <r>   -0.7820    0.0000 </r>
       <r>   -0.7541    0.0000 </r>
       <r>   -0.6777    0.0000 </r>
       <r>   -0.6272    0.0000 </r>
       <r>   -0.4967    0.0000 </r>
       <r>   -0.3938    0.0000 </r>
       <r>   -0.3273    0.0000 </r>
       <r>   -0.0624    0.0000 </r>
       <r>   -0.0212    0.0000 </r>
       <r>    0.2413    0.0000 </r>
       <r>    0.4578    0.0000 </r>
       <r>    0.5777    0.0000 </r>
       <r>    0.8810    0.0000 </r>
       <r>    0.9428    0.0000 </r>
       <r>    1.0491    0.0000 </r>
       <r>    1.1984    0.0000 </r>
       <r>    1.5221    0.0000 </r>
       <r>    2.1474    0.0000 </r>
       <r>    2.3077    0.0000 </r>
       <r>    2.4144    0.0000 </r>
      </set>
      <set comment="kpoint 34">
       <r>  -17.4742    1.0000 </r>
       <r>  -17.3774    1.0000 </r>
       <r>  -16.7952    1.0000 </r>
       <r>  -16.6806    1.0000 </r>
       <r>  -16.6477    1.0000 </r>
       <r>  -16.4924    1.0000 </r>
       <r>  -16.3214    1.0000 </r>
       <r>  -16.1863    1.0000 </r>
       <r>  -16.1502    1.0000 </r>
       <r>  -16.0547    1.0000 </r>
       <r>  -15.8259    1.0000 </r>
       <r>  -15.8224    1.0000 </r>
       <r>  -15.7782    1.0000 </r>
       <r>  -15.6800    1.0000 </r>
       <r>  -15.5796    1.0000 </r>
       <r>  -15.4626    1.0000 </r>
       <r>  -15.3514    1.0000 </r>
       <r>  -15.3246    1.0000 </r>
       <r>   -9.8177    1.0000 </r>
       <r>   -9.3749    1.0000 </r>
       <r>   -9.3149    1.0000 </r>
       <r>   -8.9668    1.0000 </r>
       <r>   -8.9343    1.0000 </r>
       <r>   -8.8147    1.0000 </r>
       <r>   -8.6690    1.0000 </r>
       <r>   -8.5921    1.0000 </r>
       <r>   -8.4311    1.0000 </r>
       <r>   -8.2979    1.0000 </r>
       <r>   -8.2321    1.0000 </r>
       <r>   -8.1505    1.0000 </r>
       <r>   -8.1017    1.0000 </r>
       <r>   -8.0196    1.0000 </r>
       <r>   -7.9167    1.0000 </r>
       <r>   -7.8678    1.0000 </r>
       <r>   -7.8520    1.0000 </r>
       <r>   -7.7346    1.0000 </r>
       <r>   -7.6143    1.0000 </r>
       <r>   -7.5148    1.0000 </r>
       <r>   -7.3975    1.0000 </r>
       <r>   -7.3455    1.0000 </r>
       <r>   -7.1178    1.0000 </r>
       <r>   -7.0398    1.0000 </r>
       <r>   -6.9861    1.0000 </r>
       <r>   -6.8648    1.0000 </r>
       <r>   -6.8170    1.0000 </r>
       <r>   -6.7054    1.0000 </r>
       <r>   -6.6184    1.0000 </r>
       <r>   -6.6020    1.0000 </r>
       <r>   -6.5395    1.0000 </r>
       <r>   -6.5119    1.0000 </r>
       <r>   -6.4328    1.0000 </r>
       <r>   -6.3885    1.0000 </r>
       <r>   -6.2834    1.0000 </r>
       <r>   -6.2587    1.0000 </r>
       <r>   -6.1790    1.0000 </r>
       <r>   -6.0395    1.0000 </r>
       <r>   -5.9993    1.0000 </r>
       <r>   -5.8417    1.0000 </r>
       <r>   -5.8227    1.0000 </r>
       <r>   -5.8001    1.0000 </r>
       <r>   -5.6329    1.0000 </r>
       <r>   -5.5942    1.0000 </r>
       <r>   -5.4869    1.0000 </r>
       <r>   -5.4133    1.0000 </r>
       <r>   -5.2145    1.0000 </r>
       <r>   -5.1187    1.0000 </r>
       <r>   -4.9963    1.0000 </r>
       <r>   -4.9060    1.0000 </r>
       <r>   -4.8299    1.0000 </r>
       <r>   -4.6039    1.0000 </r>
       <r>   -4.5610    1.0000 </r>
       <r>   -4.5280    1.0000 </r>
       <r>   -4.3187    1.0000 </r>
       <r>   -4.2877    1.0000 </r>
       <r>   -4.2123    1.0000 </r>
       <r>   -4.0754    1.0000 </r>
       <r>   -3.7980    1.0000 </r>
       <r>   -3.7441    0.9999 </r>
       <r>   -3.6296    0.9980 </r>
       <r>   -3.1128    0.2196 </r>
       <r>   -3.0039    0.0614 </r>
       <r>   -2.9017    0.0117 </r>
       <r>   -2.6964    0.0001 </r>
       <r>   -2.6250    0.0000 </r>
       <r>   -2.5313    0.0000 </r>
       <r>   -2.3485    0.0000 </r>
       <r>   -2.1925    0.0000 </r>
       <r>   -2.1094    0.0000 </r>
       <r>   -2.0104    0.0000 </r>
       <r>   -1.9180    0.0000 </r>
       <r>   -1.7152    0.0000 </r>
       <r>   -1.5001    0.0000 </r>
       <r>   -1.3322    0.0000 </r>
       <r>   -1.3008    0.0000 </r>
       <r>   -1.2402    0.0000 </r>
       <r>   -1.1808    0.0000 </r>
       <r>   -1.0828    0.0000 </r>
       <r>   -0.9828    0.0000 </r>
       <r>   -0.8964    0.0000 </r>
       <r>   -0.8363    0.0000 </r>
       <r>   -0.7959    0.0000 </r>
       <r>   -0.7431    0.0000 </r>
       <r>   -0.6286    0.0000 </r>
       <r>   -0.6048    0.0000 </r>
       <r>   -0.5780    0.0000 </r>
       <r>   -0.4243    0.0000 </r>
       <r>   -0.3346    0.0000 </r>
       <r>   -0.0925    0.0000 </r>
       <r>   -0.0605    0.0000 </r>
       <r>    0.2646    0.0000 </r>
       <r>    0.4424    0.0000 </r>
       <r>    0.5893    0.0000 </r>
       <r>    0.9287    0.0000 </r>
       <r>    0.9516    0.0000 </r>
       <r>    1.0328    0.0000 </r>
       <r>    1.2227    0.0000 </r>
       <r>    1.5774    0.0000 </r>
       <r>    2.2304    0.0000 </r>
       <r>    2.2699    0.0000 </r>
       <r>    2.3944    0.0000 </r>
      </set>
     </set>
    </set>
   </array>
  </eigenvalues>
  <separator name="orbital magnetization" >
   <v name="MAGDIPOLOUT">      0.00000000      0.00000000      0.00000000</v>
  </separator>
 </calculation>
 <structure name="finalpos" >
  <crystal>
   <varray name="basis" >
    <v>       8.30847347       4.80331688       0.00000000 </v>
    <v>      -8.32134756       4.82565660       0.00000000 </v>
    <v>       0.00000000       0.00000000      30.00000000 </v>
   </varray>
   <i name="volume">   2401.91727023 </i>
   <varray name="rec_basis" >
    <v>       0.06027256       0.10393382       0.00000000 </v>
    <v>      -0.05999353       0.10377302       0.00000000 </v>
    <v>       0.00000000       0.00000000       0.03333333 </v>
   </varray>
  </crystal>
  <varray name="positions" >
   <v>       0.64776761      -0.03865456      -0.00248489 </v>
   <v>       0.35382508       0.37299282       0.00241738 </v>
   <v>       0.68316453       0.36582974       0.00149783 </v>
   <v>       0.00426159       0.67155407       0.00025504 </v>
   <v>       0.31318345       0.66650559       0.00009397 </v>
   <v>       0.68761475       0.67056975       0.00012863 </v>
   <v>      -0.01483943      -0.03689458      -0.00174698 </v>
   <v>       1.01536230       0.36922953       0.00138639 </v>
   <v>       0.31291263      -0.03532989      -0.00146837 </v>
   <v>       0.11564723       0.22388335       0.95692714 </v>
   <v>       0.22391443       0.11507121       0.04478341 </v>
   <v>       0.10965251       0.55932697       0.94385978 </v>
   <v>       0.22520556       0.44779366       0.05506132 </v>
   <v>       0.10959867       0.88583171       0.94273457 </v>
   <v>       0.21786094       0.77423696       0.05661237 </v>
   <v>       0.44452210       0.22516976       0.95765164 </v>
   <v>       0.55798439       0.11025386       0.04228533 </v>
   <v>       0.44719078       0.56057787       0.94991207 </v>
   <v>       0.55814502       0.44474705       0.05359158 </v>
   <v>       0.44457421       0.88641688       0.94500746 </v>
   <v>       0.55349323       0.77376773       0.05045518 </v>
   <v>       0.77391626       0.21963340       0.95638389 </v>
   <v>       0.88504410       0.10900926       0.04277981 </v>
   <v>       0.77804609       0.55213482       0.94607764 </v>
   <v>       0.88441241       0.44399368       0.05483616 </v>
   <v>       0.77557680       0.88602788       0.94457286 </v>
   <v>       0.89017722       0.77453594       0.05638870 </v>
  </varray>
 </structure>
</modeling>
