       N       E                     dE             d eps       ncg     rms          rms(c)
DAV:   1     0.112406733666E+04    0.11241E+04   -0.35862E+04  8160   0.577E+02
DAV:   2    -0.673474633404E+01   -0.11308E+04   -0.10907E+04 11440   0.173E+02
DAV:   3    -0.200053079113E+03   -0.19332E+03   -0.18634E+03 10880   0.817E+01
DAV:   4    -0.208927547271E+03   -0.88745E+01   -0.86073E+01 12280   0.258E+01
DAV:   5    -0.209224083059E+03   -0.29654E+00   -0.29568E+00 11520   0.343E+00    0.274E+01
DAV:   6    -0.236382635418E+03   -0.27159E+02   -0.11178E+02 12640   0.602E+01    0.592E+01
DAV:   7    -0.196824282462E+03    0.39558E+02   -0.17561E+02 13360   0.151E+02    0.206E+01
DAV:   8    -0.190299665973E+03    0.65246E+01   -0.21181E+01 11640   0.135E+01    0.140E+01
DAV:   9    -0.188295638178E+03    0.20040E+01   -0.37462E+00 12200   0.644E+00    0.935E+00
DAV:  10    -0.187100762799E+03    0.11949E+01   -0.17493E+00 13280   0.770E+00    0.325E+00
DAV:  11    -0.187014398478E+03    0.86364E-01   -0.66152E-01 12360   0.235E+00    0.243E+00
DAV:  12    -0.186975073571E+03    0.39325E-01   -0.37895E-01 13000   0.255E+00    0.275E+00
DAV:  13    -0.186929754638E+03    0.45319E-01   -0.19372E-01 13280   0.280E+00    0.205E+00
DAV:  14    -0.186892040900E+03    0.37714E-01   -0.95420E-02 13080   0.182E+00    0.616E-01
DAV:  15    -0.186887564953E+03    0.44759E-02   -0.15754E-02 12160   0.438E-01    0.501E-01
DAV:  16    -0.186887484179E+03    0.80774E-04   -0.11159E-02 13200   0.532E-01    0.602E-01
DAV:  17    -0.186885051817E+03    0.24324E-02   -0.10344E-02 12920   0.539E-01    0.281E-01
DAV:  18    -0.186883990054E+03    0.10618E-02   -0.25785E-03 12560   0.224E-01    0.187E-01
DAV:  19    -0.186883788124E+03    0.20193E-03   -0.87366E-04 11160   0.149E-01    0.478E-02
DAV:  20    -0.186884652871E+03   -0.86475E-03   -0.84807E-04  9320   0.589E-02    0.463E-02
DAV:  21    -0.186885406705E+03   -0.75383E-03   -0.22881E-04  8200   0.513E-02    0.334E-02
DAV:  22    -0.186886261595E+03   -0.85489E-03   -0.11983E-04  7280   0.317E-02    0.384E-02
DAV:  23    -0.186887504937E+03   -0.12433E-02   -0.15286E-04  7440   0.482E-02    0.221E-02
DAV:  24    -0.186888039884E+03   -0.53495E-03   -0.29799E-05  6840   0.234E-02    0.518E-03
DAV:  25    -0.186888447108E+03   -0.40722E-03   -0.20645E-05  5440   0.101E-02    0.515E-03
DAV:  26    -0.186888684569E+03   -0.23746E-03   -0.92175E-06  6840   0.796E-03    0.164E-03
DAV:  27    -0.186888770569E+03   -0.86000E-04   -0.31553E-06  7200   0.388E-03
   1 F= -.18688877E+03 E0= -.18671738E+03  d E =-.186889E+03
       N       E                     dE             d eps       ncg     rms          rms(c)
DAV:   1    -0.187544140494E+03   -0.65546E+00   -0.27353E+02  8160   0.352E+01    0.470E+00
DAV:   2    -0.189651388978E+03   -0.21072E+01   -0.20592E+01 12320   0.160E+01    0.103E+01
DAV:   3    -0.189341448456E+03    0.30994E+00   -0.45719E+00 12400   0.127E+01    0.619E+00
DAV:   4    -0.188806424312E+03    0.53502E+00   -0.57732E-01 12600   0.429E+00    0.187E+00
DAV:   5    -0.188958664663E+03   -0.15224E+00   -0.52312E-01 12360   0.371E+00    0.588E+00
DAV:   6    -0.188779361667E+03    0.17930E+00   -0.85427E-01 12800   0.448E+00    0.215E+00
DAV:   7    -0.188765911387E+03    0.13450E-01   -0.20560E-01 11640   0.227E+00    0.225E+00
DAV:   8    -0.188735933377E+03    0.29978E-01   -0.12742E-01 13000   0.213E+00    0.147E+00
DAV:   9    -0.188715990771E+03    0.19943E-01   -0.35907E-02 12400   0.950E-01    0.341E-01
DAV:  10    -0.188715278696E+03    0.71207E-03   -0.45759E-03 10880   0.224E-01    0.197E-01
DAV:  11    -0.188714769608E+03    0.50909E-03   -0.25211E-03 12480   0.163E-01    0.101E-01
DAV:  12    -0.188714913202E+03   -0.14359E-03   -0.78843E-04 11760   0.838E-02    0.891E-02
DAV:  13    -0.188714846903E+03    0.66300E-04   -0.25115E-04  7840   0.579E-02
   2 F= -.18871485E+03 E0= -.18857532E+03  d E =-.182608E+01
       N       E                     dE             d eps       ncg     rms          rms(c)
DAV:   1    -0.190645793746E+03   -0.19309E+01   -0.31670E+01  9080   0.143E+01    0.442E+00
DAV:   2    -0.190564727643E+03    0.81066E-01   -0.27497E+00 11120   0.928E+00    0.704E+00
DAV:   3    -0.190135619309E+03    0.42911E+00   -0.13625E+00 12320   0.856E+00    0.427E+00
DAV:   4    -0.189923214204E+03    0.21241E+00   -0.76153E-01 12760   0.437E+00    0.253E+00
DAV:   5    -0.189899996152E+03    0.23218E-01   -0.37913E-01 12240   0.307E+00    0.281E+00
DAV:   6    -0.189825939577E+03    0.74057E-01   -0.15559E-01 12360   0.251E+00    0.856E-01
DAV:   7    -0.189817295464E+03    0.86441E-02   -0.17673E-02 11760   0.629E-01    0.246E-01
DAV:   8    -0.189818318742E+03   -0.10233E-02   -0.50529E-03 12520   0.393E-01    0.402E-01
DAV:   9    -0.189817192106E+03    0.11266E-02   -0.27218E-03 11280   0.331E-01    0.138E-01
DAV:  10    -0.189817455101E+03   -0.26300E-03   -0.92232E-04 10080   0.122E-01    0.128E-01
DAV:  11    -0.189817239775E+03    0.21533E-03   -0.45098E-04  8640   0.765E-02    0.206E-02
DAV:  12    -0.189817262742E+03   -0.22967E-04   -0.76856E-05  6880   0.289E-02
   3 F= -.18981726E+03 E0= -.18969786E+03  d E =-.110242E+01
       N       E                     dE             d eps       ncg     rms          rms(c)
DAV:   1    -0.191415398618E+03   -0.15982E+01   -0.82487E+01  8160   0.206E+01    0.459E+00
DAV:   2    -0.191225890917E+03    0.18951E+00   -0.54481E+00 13160   0.749E+00    0.439E+00
DAV:   3    -0.191375638216E+03   -0.14975E+00   -0.16033E+00 12240   0.895E+00    0.657E+00
DAV:   4    -0.190998377688E+03    0.37726E+00   -0.13953E+00 12320   0.777E+00    0.299E+00
DAV:   5    -0.190920684808E+03    0.77693E-01   -0.39188E-01 12400   0.345E+00    0.252E+00
DAV:   6    -0.190869098900E+03    0.51586E-01   -0.21000E-01 12400   0.305E+00    0.160E+00
DAV:   7    -0.190846224986E+03    0.22874E-01   -0.61275E-02 12640   0.138E+00    0.418E-01
DAV:   8    -0.190844485978E+03    0.17390E-02   -0.85228E-03 11520   0.453E-01    0.348E-01
DAV:   9    -0.190843670093E+03    0.81589E-03   -0.27863E-03 10800   0.352E-01    0.176E-01
DAV:  10    -0.190843889712E+03   -0.21962E-03   -0.13620E-03 11240   0.161E-01    0.113E-01
DAV:  11    -0.190843701785E+03    0.18793E-03   -0.59737E-04 10320   0.887E-02    0.434E-02
DAV:  12    -0.190843708689E+03   -0.69036E-05   -0.10242E-04  7000   0.394E-02
   4 F= -.19084371E+03 E0= -.19073574E+03  d E =-.102645E+01
       N       E                     dE             d eps       ncg     rms          rms(c)
DAV:   1    -0.192145058357E+03   -0.13014E+01   -0.17163E+02  8160   0.290E+01    0.547E+00
DAV:   2    -0.191923615945E+03    0.22144E+00   -0.90969E+00 10880   0.769E+00    0.341E+00
DAV:   3    -0.191798602138E+03    0.12501E+00   -0.14608E+00 11840   0.609E+00    0.369E+00
DAV:   4    -0.191820978462E+03   -0.22376E-01   -0.10786E+00 12360   0.756E+00    0.435E+00
DAV:   5    -0.191551678127E+03    0.26930E+00   -0.43847E-01 12360   0.453E+00    0.812E-01
DAV:   6    -0.191541856978E+03    0.98211E-02   -0.79875E-02 11320   0.114E+00    0.523E-01
DAV:   7    -0.191545631381E+03   -0.37744E-02   -0.34579E-02 11880   0.109E+00    0.963E-01
DAV:   8    -0.191537327463E+03    0.83039E-02   -0.18470E-02 11560   0.827E-01    0.170E-01
DAV:   9    -0.191537848767E+03   -0.52130E-03   -0.24580E-03 11520   0.239E-01    0.231E-01
DAV:  10    -0.191537736763E+03    0.11200E-03   -0.26496E-03 11120   0.330E-01    0.214E-01
DAV:  11    -0.191537366760E+03    0.37000E-03   -0.10871E-03 10120   0.192E-01    0.544E-02
DAV:  12    -0.191537336165E+03    0.30595E-04   -0.11663E-04  6000   0.453E-02
   5 F= -.19153734E+03 E0= -.19142675E+03  d E =-.693627E+00
       N       E                     dE             d eps       ncg     rms          rms(c)
DAV:   1    -0.191610855008E+03   -0.73488E-01   -0.52856E+00  8160   0.486E+00    0.639E-01
DAV:   2    -0.191663205941E+03   -0.52351E-01   -0.28026E-01 13440   0.274E+00    0.205E+00
DAV:   3    -0.191622156422E+03    0.41050E-01   -0.98041E-02 12520   0.206E+00    0.458E-01
DAV:   4    -0.191625076653E+03   -0.29202E-02   -0.21507E-02 10280   0.918E-01    0.765E-01
DAV:   5    -0.191619159745E+03    0.59169E-02   -0.13259E-02 11120   0.742E-01    0.231E-01
DAV:   6    -0.191619901610E+03   -0.74186E-03   -0.52922E-03 11120   0.387E-01    0.382E-01
DAV:   7    -0.191618947259E+03    0.95435E-03   -0.46462E-03 11200   0.440E-01    0.217E-01
DAV:   8    -0.191618445912E+03    0.50135E-03   -0.10006E-03  9880   0.174E-01    0.337E-02
DAV:   9    -0.191618455946E+03   -0.10034E-04   -0.97897E-05  6320   0.345E-02
   6 F= -.19161846E+03 E0= -.19150693E+03  d E =-.811198E-01
       N       E                     dE             d eps       ncg     rms          rms(c)
DAV:   1    -0.191691765413E+03   -0.73320E-01   -0.53736E+00  8160   0.488E+00    0.541E-01
DAV:   2    -0.191726357137E+03   -0.34592E-01   -0.17941E-01 13040   0.190E+00    0.170E+00
DAV:   3    -0.191699048514E+03    0.27309E-01   -0.78492E-02 12480   0.178E+00    0.493E-01
DAV:   4    -0.191699617439E+03   -0.56893E-03   -0.15615E-02 10960   0.749E-01    0.563E-01
DAV:   5    -0.191696374890E+03    0.32425E-02   -0.79681E-03 11120   0.606E-01    0.202E-01
DAV:   6    -0.191696436313E+03   -0.61423E-04   -0.30438E-03 11440   0.290E-01    0.257E-01
DAV:   7    -0.191696443147E+03   -0.68340E-05   -0.34484E-03 10560   0.377E-01    0.264E-01
DAV:   8    -0.191695759571E+03    0.68358E-03   -0.12359E-03  9120   0.212E-01    0.282E-02
DAV:   9    -0.191695783911E+03   -0.24341E-04   -0.85868E-05  5960   0.331E-02
   7 F= -.19169578E+03 E0= -.19158440E+03  d E =-.773280E-01
       N       E                     dE             d eps       ncg     rms          rms(c)
DAV:   1    -0.191763543936E+03   -0.67784E-01   -0.43802E+00  8160   0.444E+00    0.547E-01
DAV:   2    -0.191807055205E+03   -0.43511E-01   -0.19227E-01 11720   0.233E+00    0.204E+00
DAV:   3    -0.191769322041E+03    0.37733E-01   -0.93579E-02 12440   0.192E+00    0.396E-01
DAV:   4    -0.191770745308E+03   -0.14233E-02   -0.13402E-02 11400   0.743E-01    0.565E-01
DAV:   5    -0.191767479693E+03    0.32656E-02   -0.82353E-03 11080   0.609E-01    0.230E-01
DAV:   6    -0.191768175397E+03   -0.69570E-03   -0.45106E-03 11720   0.404E-01    0.385E-01
DAV:   7    -0.191767121059E+03    0.10543E-02   -0.36586E-03 11200   0.395E-01    0.148E-01
DAV:   8    -0.191766807613E+03    0.31345E-03   -0.61523E-04  9680   0.121E-01    0.211E-02
DAV:   9    -0.191766820199E+03   -0.12586E-04   -0.65712E-05  6840   0.259E-02
   8 F= -.19176682E+03 E0= -.19165676E+03  d E =-.710363E-01
       N       E                     dE             d eps       ncg     rms          rms(c)
DAV:   1    -0.191905442154E+03   -0.13863E+00   -0.34590E+01  8160   0.125E+01    0.144E+00
DAV:   2    -0.192195243648E+03   -0.28980E+00   -0.13613E+00 11440   0.577E+00    0.540E+00
DAV:   3    -0.191960544706E+03    0.23470E+00   -0.72764E-01 12320   0.516E+00    0.112E+00
DAV:   4    -0.191973400882E+03   -0.12856E-01   -0.95719E-02 12200   0.202E+00    0.178E+00
DAV:   5    -0.191943293100E+03    0.30108E-01   -0.67458E-02 11360   0.173E+00    0.654E-01
DAV:   6    -0.191944674232E+03   -0.13811E-02   -0.22990E-02 11800   0.102E+00    0.790E-01
DAV:   7    -0.191939982917E+03    0.46913E-02   -0.19560E-02 11720   0.104E+00    0.385E-01
DAV:   8    -0.191937510831E+03    0.24721E-02   -0.39851E-03 11160   0.360E-01    0.616E-02
DAV:   9    -0.191937539834E+03   -0.29004E-04   -0.56739E-04 10200   0.724E-02
   9 F= -.19193754E+03 E0= -.19183378E+03  d E =-.170720E+00
       N       E                     dE             d eps       ncg     rms          rms(c)
DAV:   1    -0.191975541580E+03   -0.38031E-01   -0.23690E+00  8160   0.331E+00    0.480E-01
DAV:   2    -0.191994693832E+03   -0.19152E-01   -0.11753E-01 12200   0.164E+00    0.136E+00
DAV:   3    -0.191978698473E+03    0.15995E-01   -0.44470E-02 12320   0.140E+00    0.388E-01
DAV:   4    -0.191979470624E+03   -0.77215E-03   -0.96589E-03 12240   0.676E-01    0.538E-01
DAV:   5    -0.191977075973E+03    0.23947E-02   -0.81949E-03 11200   0.628E-01    0.305E-01
DAV:   6    -0.191977388469E+03   -0.31250E-03   -0.40494E-03 11520   0.442E-01    0.354E-01
DAV:   7    -0.191976194367E+03    0.11941E-02   -0.24165E-03 10920   0.357E-01    0.683E-02
DAV:   8    -0.191976131805E+03    0.62562E-04   -0.16709E-04  6160   0.659E-02
  10 F= -.19197613E+03 E0= -.19187338E+03  d E =-.385920E-01
       N       E                     dE             d eps       ncg     rms          rms(c)
DAV:   1    -0.192031247460E+03   -0.55053E-01   -0.89066E+00  8160   0.629E+00    0.689E-01
DAV:   2    -0.192087631256E+03   -0.56384E-01   -0.29682E-01 11760   0.254E+00    0.222E+00
DAV:   3    -0.192045222034E+03    0.42409E-01   -0.11218E-01 12280   0.223E+00    0.556E-01
DAV:   4    -0.192048545832E+03   -0.33238E-02   -0.18993E-02 11240   0.910E-01    0.881E-01
DAV:   5    -0.192041562790E+03    0.69830E-02   -0.14110E-02 10840   0.841E-01    0.284E-01
DAV:   6    -0.192041542722E+03    0.20067E-04   -0.36911E-03 12160   0.333E-01    0.237E-01
DAV:   7    -0.192041103285E+03    0.43944E-03   -0.25607E-03 11880   0.389E-01    0.178E-01
DAV:   8    -0.192040687251E+03    0.41603E-03   -0.70054E-04  9600   0.193E-01    0.300E-02
DAV:   9    -0.192040688224E+03   -0.97354E-06   -0.10083E-04  6800   0.374E-02
  11 F= -.19204069E+03 E0= -.19194069E+03  d E =-.645564E-01
       N       E                     dE             d eps       ncg     rms          rms(c)
DAV:   1    -0.192054908193E+03   -0.14221E-01   -0.60494E-01  8160   0.165E+00    0.173E-01
DAV:   2    -0.192055861975E+03   -0.95378E-03   -0.15166E-02 13320   0.426E-01    0.216E-01
DAV:   3    -0.192055760892E+03    0.10108E-03   -0.25754E-03 12280   0.370E-01    0.209E-01
DAV:   4    -0.192055449159E+03    0.31173E-03   -0.13931E-03  9960   0.248E-01    0.163E-01
DAV:   5    -0.192055379431E+03    0.69729E-04   -0.10511E-03  9120   0.227E-01    0.146E-01
DAV:   6    -0.192055222580E+03    0.15685E-03   -0.55933E-04  8720   0.151E-01    0.721E-02
DAV:   7    -0.192055230371E+03   -0.77911E-05   -0.25181E-04  8360   0.122E-01
  12 F= -.19205523E+03 E0= -.19195563E+03  d E =-.145421E-01
       N       E                     dE             d eps       ncg     rms          rms(c)
DAV:   1    -0.192057594602E+03   -0.23720E-02   -0.12287E-02  8160   0.247E-01    0.285E-02
DAV:   2    -0.192057655458E+03   -0.60856E-04   -0.36756E-04  9920   0.797E-02
  13 F= -.19205766E+03 E0= -.19195803E+03  d E =-.242509E-02
       N       E                     dE             d eps       ncg     rms          rms(c)
DAV:   1    -0.192086133876E+03   -0.28539E-01   -0.19567E+00  8160   0.293E+00    0.290E-01
DAV:   2    -0.192092243819E+03   -0.61099E-02   -0.50594E-02 11520   0.816E-01    0.627E-01
DAV:   3    -0.192089291948E+03    0.29519E-02   -0.12169E-02 12440   0.760E-01    0.316E-01
DAV:   4    -0.192089076799E+03    0.21515E-03   -0.31356E-03 11480   0.376E-01    0.301E-01
DAV:   5    -0.192088372757E+03    0.70404E-03   -0.22747E-03  9920   0.347E-01    0.167E-01
DAV:   6    -0.192088607772E+03   -0.23501E-03   -0.12624E-03 10360   0.258E-01    0.207E-01
DAV:   7    -0.192088167003E+03    0.44077E-03   -0.84774E-04 10040   0.235E-01    0.503E-02
DAV:   8    -0.192088129712E+03    0.37291E-04   -0.78571E-05  5920   0.528E-02
  14 F= -.19208813E+03 E0= -.19199021E+03  d E =-.304743E-01
       N       E                     dE             d eps       ncg     rms          rms(c)
DAV:   1    -0.192079865876E+03    0.83011E-02   -0.17540E-01  8160   0.895E-01    0.117E-01
DAV:   2    -0.192080343637E+03   -0.47776E-03   -0.68064E-03 11480   0.278E-01    0.189E-01
DAV:   3    -0.192080355872E+03   -0.12235E-04   -0.19176E-03 10400   0.292E-01    0.207E-01
DAV:   4    -0.192079938199E+03    0.41767E-03   -0.66885E-04  8160   0.170E-01    0.478E-02
DAV:   5    -0.192079999850E+03   -0.61651E-04   -0.25765E-04  7040   0.119E-01
  15 F= -.19208000E+03 E0= -.19198158E+03  d E =0.812986E-02
       N       E                     dE             d eps       ncg     rms          rms(c)
DAV:   1    -0.192110487943E+03   -0.30550E-01   -0.20141E+00  8160   0.301E+00    0.311E-01
DAV:   2    -0.192115776772E+03   -0.52888E-02   -0.50623E-02 11600   0.867E-01    0.601E-01
DAV:   3    -0.192113100715E+03    0.26761E-02   -0.11345E-02 12560   0.783E-01    0.320E-01
DAV:   4    -0.192111970052E+03    0.11307E-02   -0.24113E-03 11400   0.314E-01    0.124E-01
DAV:   5    -0.192112049011E+03   -0.78959E-04   -0.14306E-03 11960   0.225E-01    0.188E-01
DAV:   6    -0.192111968589E+03    0.80421E-04   -0.14531E-03 10240   0.278E-01    0.170E-01
DAV:   7    -0.192111793380E+03    0.17521E-03   -0.69292E-04  8320   0.182E-01    0.108E-01
DAV:   8    -0.192111673512E+03    0.11987E-03   -0.18498E-04  6480   0.111E-01    0.180E-02
DAV:   9    -0.192111675495E+03   -0.19827E-05   -0.28774E-05  6800   0.240E-02
  16 F= -.19211168E+03 E0= -.19201486E+03  d E =-.316756E-01
       N       E                     dE             d eps       ncg     rms          rms(c)
DAV:   1    -0.192137215783E+03   -0.25542E-01   -0.13246E+00  8160   0.243E+00    0.230E-01
DAV:   2    -0.192139396617E+03   -0.21808E-02   -0.32785E-02 11800   0.523E-01    0.219E-01
DAV:   3    -0.192140392384E+03   -0.99577E-03   -0.47197E-03 12200   0.488E-01    0.401E-01
DAV:   4    -0.192139042271E+03    0.13501E-02   -0.29503E-03 10160   0.394E-01    0.185E-01
DAV:   5    -0.192138911011E+03    0.13126E-03   -0.11228E-03  9600   0.250E-01    0.150E-01
DAV:   6    -0.192138792693E+03    0.11832E-03   -0.74360E-04 10400   0.182E-01    0.890E-02
DAV:   7    -0.192138777608E+03    0.15084E-04   -0.38258E-04  8760   0.153E-01
  17 F= -.19213878E+03 E0= -.19204337E+03  d E =-.271021E-01
       N       E                     dE             d eps       ncg     rms          rms(c)
DAV:   1    -0.192133197812E+03    0.55949E-02   -0.56996E-02  8160   0.526E-01    0.684E-02
DAV:   2    -0.192133536436E+03   -0.33862E-03   -0.23525E-03 11480   0.217E-01    0.162E-01
DAV:   3    -0.192133283130E+03    0.25331E-03   -0.59130E-04  8800   0.188E-01    0.649E-02
DAV:   4    -0.192133316957E+03   -0.33828E-04   -0.20815E-04  6680   0.107E-01
  18 F= -.19213332E+03 E0= -.19203753E+03  d E =0.546065E-02
       N       E                     dE             d eps       ncg     rms          rms(c)
DAV:   1    -0.192116873895E+03    0.16409E-01   -0.53197E-01  8160   0.156E+00    0.175E-01
DAV:   2    -0.192118809611E+03   -0.19357E-02   -0.15579E-02 12520   0.509E-01    0.390E-01
DAV:   3    -0.192117689577E+03    0.11200E-02   -0.41870E-03 11720   0.447E-01    0.187E-01
DAV:   4    -0.192117669989E+03    0.19588E-04   -0.11430E-03  9840   0.229E-01    0.195E-01
DAV:   5    -0.192117359177E+03    0.31081E-03   -0.80975E-04  8800   0.227E-01    0.942E-02
DAV:   6    -0.192117366022E+03   -0.68454E-05   -0.36664E-04  8560   0.116E-01
  19 F= -.19211737E+03 E0= -.19202080E+03  d E =0.159509E-01
       N       E                     dE             d eps       ncg     rms          rms(c)
DAV:   1    -0.192142468587E+03   -0.25109E-01   -0.16705E+00  8160   0.272E+00    0.251E-01
DAV:   2    -0.192145112249E+03   -0.26437E-02   -0.41793E-02 11880   0.575E-01    0.194E-01
DAV:   3    -0.192146183212E+03   -0.10710E-02   -0.49201E-03 11200   0.459E-01    0.416E-01
DAV:   4    -0.192144646914E+03    0.15363E-02   -0.29603E-03 10400   0.408E-01    0.153E-01
DAV:   5    -0.192144788055E+03   -0.14114E-03   -0.13100E-03  9720   0.239E-01    0.204E-01
DAV:   6    -0.192144485797E+03    0.30226E-03   -0.11155E-03 10200   0.243E-01    0.100E-01
DAV:   7    -0.192144449138E+03    0.36658E-04   -0.39892E-04  8480   0.146E-01
  20 F= -.19214445E+03 E0= -.19204908E+03  d E =-.270831E-01
       N       E                     dE             d eps       ncg     rms          rms(c)
DAV:   1    -0.192155208746E+03   -0.10723E-01   -0.22281E-01  8160   0.104E+00    0.129E-01
DAV:   2    -0.192155587693E+03   -0.37895E-03   -0.66058E-03 11640   0.248E-01    0.166E-01
DAV:   3    -0.192155787749E+03   -0.20006E-03   -0.18463E-03 10960   0.297E-01    0.237E-01
DAV:   4    -0.192155310259E+03    0.47749E-03   -0.89904E-04  8560   0.206E-01    0.753E-02
DAV:   5    -0.192155330433E+03   -0.20174E-04   -0.32268E-04  8080   0.135E-01
  21 F= -.19215533E+03 E0= -.19206112E+03  d E =-.108813E-01
       N       E                     dE             d eps       ncg     rms          rms(c)
DAV:   1    -0.192125948218E+03    0.29362E-01   -0.15491E+00  8160   0.267E+00    0.287E-01
DAV:   2    -0.192130607587E+03   -0.46594E-02   -0.42222E-02 12160   0.734E-01    0.571E-01
DAV:   3    -0.192128539753E+03    0.20678E-02   -0.96839E-03 12240   0.706E-01    0.357E-01
DAV:   4    -0.192127879999E+03    0.65975E-03   -0.35315E-03 10960   0.377E-01    0.251E-01
DAV:   5    -0.192127527337E+03    0.35266E-03   -0.22259E-03  9600   0.352E-01    0.197E-01
DAV:   6    -0.192127221356E+03    0.30598E-03   -0.11038E-03 10080   0.223E-01    0.886E-02
DAV:   7    -0.192127229779E+03   -0.84236E-05   -0.46267E-04  9160   0.159E-01
  22 F= -.19212723E+03 E0= -.19203089E+03  d E =0.281007E-01
       N       E                     dE             d eps       ncg     rms          rms(c)
DAV:   1    -0.192121956355E+03    0.52650E-02   -0.11436E+00  8160   0.231E+00    0.287E-01
DAV:   2    -0.192123817645E+03   -0.18613E-02   -0.26044E-02 12480   0.579E-01    0.445E-01
DAV:   3    -0.192123629221E+03    0.18842E-03   -0.98673E-03 11360   0.665E-01    0.435E-01
DAV:   4    -0.192122269094E+03    0.13601E-02   -0.39986E-03 11440   0.408E-01    0.226E-01
DAV:   5    -0.192122006947E+03    0.26215E-03   -0.19389E-03 10040   0.334E-01    0.197E-01
DAV:   6    -0.192121738960E+03    0.26799E-03   -0.10307E-03 10080   0.229E-01    0.103E-01
DAV:   7    -0.192121694687E+03    0.44273E-04   -0.44595E-04  9080   0.168E-01
  23 F= -.19212169E+03 E0= -.19202422E+03  d E =0.553509E-02
       N       E                     dE             d eps       ncg     rms          rms(c)
DAV:   1    -0.192153468641E+03   -0.31730E-01   -0.27402E+00  8160   0.359E+00    0.421E-01
DAV:   2    -0.192158037166E+03   -0.45685E-02   -0.80773E-02 11800   0.909E-01    0.507E-01
DAV:   3    -0.192159268994E+03   -0.12318E-02   -0.15177E-02 11960   0.926E-01    0.618E-01
DAV:   4    -0.192155671157E+03    0.35978E-02   -0.76824E-03 11760   0.648E-01    0.322E-01
DAV:   5    -0.192155734110E+03   -0.62952E-04   -0.47636E-03 10240   0.490E-01    0.355E-01
DAV:   6    -0.192154949956E+03    0.78415E-03   -0.34186E-03 11120   0.387E-01    0.200E-01
DAV:   7    -0.192154669127E+03    0.28083E-03   -0.13050E-03  9840   0.283E-01    0.118E-01
DAV:   8    -0.192154481059E+03    0.18807E-03   -0.28608E-04  8480   0.124E-01    0.233E-02
DAV:   9    -0.192154474138E+03    0.69209E-05   -0.39896E-05  6480   0.252E-02
  24 F= -.19215447E+03 E0= -.19205860E+03  d E =-.327795E-01
       N       E                     dE             d eps       ncg     rms          rms(c)
DAV:   1    -0.192173039953E+03   -0.18559E-01   -0.94209E-01  8160   0.205E+00    0.198E-01
DAV:   2    -0.192175123021E+03   -0.20831E-02   -0.25029E-02 11200   0.490E-01    0.292E-01
DAV:   3    -0.192175212142E+03   -0.89121E-04   -0.41406E-03 12520   0.459E-01    0.313E-01
DAV:   4    -0.192174352962E+03    0.85918E-03   -0.16287E-03  9680   0.273E-01    0.118E-01
DAV:   5    -0.192174436969E+03   -0.84007E-04   -0.80313E-04  9320   0.216E-01
  25 F= -.19217444E+03 E0= -.19207894E+03  d E =-.199628E-01
       N       E                     dE             d eps       ncg     rms          rms(c)
DAV:   1    -0.192179682307E+03   -0.53293E-02   -0.11441E-01  8160   0.767E-01    0.125E-01
DAV:   2    -0.192180605609E+03   -0.92330E-03   -0.48128E-03 11600   0.414E-01    0.293E-01
DAV:   3    -0.192179615540E+03    0.99007E-03   -0.16663E-03 10200   0.348E-01    0.880E-02
DAV:   4    -0.192179645603E+03   -0.30062E-04   -0.42724E-04  8480   0.150E-01
  26 F= -.19217965E+03 E0= -.19208519E+03  d E =-.520863E-02
       N       E                     dE             d eps       ncg     rms          rms(c)
DAV:   1    -0.192197788524E+03   -0.18173E-01   -0.12568E+00  8160   0.244E+00    0.376E-01
DAV:   2    -0.192205216297E+03   -0.74278E-02   -0.53795E-02 12320   0.123E+00    0.854E-01
DAV:   3    -0.192197822825E+03    0.73935E-02   -0.16074E-02 11880   0.999E-01    0.277E-01
DAV:   4    -0.192199475539E+03   -0.16527E-02   -0.63376E-03 12240   0.595E-01    0.556E-01
DAV:   5    -0.192196656828E+03    0.28187E-02   -0.50442E-03 10920   0.538E-01    0.166E-01
DAV:   6    -0.192196708431E+03   -0.51603E-04   -0.17735E-03 10840   0.254E-01    0.192E-01
DAV:   7    -0.192196385222E+03    0.32321E-03   -0.96478E-04  9280   0.244E-01    0.839E-02
DAV:   8    -0.192196299451E+03    0.85771E-04   -0.14978E-04  6640   0.838E-02
  27 F= -.19219630E+03 E0= -.19210204E+03  d E =-.166538E-01
       N       E                     dE             d eps       ncg     rms          rms(c)
DAV:   1    -0.192220221676E+03   -0.23836E-01   -0.13869E+00  8160   0.252E+00    0.302E-01
DAV:   2    -0.192224619998E+03   -0.43983E-02   -0.45989E-02 11400   0.861E-01    0.524E-01
DAV:   3    -0.192222949336E+03    0.16707E-02   -0.91241E-03 12240   0.730E-01    0.367E-01
DAV:   4    -0.192222610312E+03    0.33902E-03   -0.43959E-03 11200   0.478E-01    0.337E-01
DAV:   5    -0.192221628376E+03    0.98194E-03   -0.24963E-03 10280   0.399E-01    0.150E-01
DAV:   6    -0.192221447797E+03    0.18058E-03   -0.89067E-04 10280   0.159E-01    0.674E-02
DAV:   7    -0.192221391039E+03    0.56758E-04   -0.25309E-04  8440   0.915E-02
  28 F= -.19222139E+03 E0= -.19212914E+03  d E =-.250916E-01
       N       E                     dE             d eps       ncg     rms          rms(c)
DAV:   1    -0.192232162644E+03   -0.10715E-01   -0.25711E-01  8160   0.109E+00    0.137E-01
DAV:   2    -0.192233156566E+03   -0.99392E-03   -0.90032E-03 11200   0.356E-01    0.276E-01
DAV:   3    -0.192232650796E+03    0.50577E-03   -0.20752E-03 11760   0.345E-01    0.159E-01
DAV:   4    -0.192232521431E+03    0.12937E-03   -0.65456E-04  8560   0.175E-01    0.117E-01
DAV:   5    -0.192232433050E+03    0.88381E-04   -0.41816E-04  8440   0.160E-01
  29 F= -.19223243E+03 E0= -.19214070E+03  d E =-.110420E-01
       N       E                     dE             d eps       ncg     rms          rms(c)
DAV:   1    -0.192246270103E+03   -0.13749E-01   -0.40995E-01  8160   0.141E+00    0.214E-01
DAV:   2    -0.192246656154E+03   -0.38605E-03   -0.15220E-02 11320   0.406E-01    0.234E-01
DAV:   3    -0.192247350158E+03   -0.69400E-03   -0.39406E-03 12160   0.475E-01    0.372E-01
DAV:   4    -0.192246076946E+03    0.12732E-02   -0.23956E-03 10080   0.368E-01    0.140E-01
DAV:   5    -0.192246174212E+03   -0.97266E-04   -0.10954E-03  9600   0.258E-01    0.176E-01
DAV:   6    -0.192245850689E+03    0.32352E-03   -0.68028E-04  8960   0.192E-01    0.600E-02
DAV:   7    -0.192245850428E+03    0.26105E-06   -0.18424E-04  6880   0.112E-01
  30 F= -.19224585E+03 E0= -.19215523E+03  d E =-.134174E-01
       N       E                     dE             d eps       ncg     rms          rms(c)
DAV:   1    -0.192269631311E+03   -0.23781E-01   -0.12167E+00  8160   0.236E+00    0.288E-01
DAV:   2    -0.192275276445E+03   -0.56451E-02   -0.41418E-02 11280   0.886E-01    0.650E-01
DAV:   3    -0.192271664487E+03    0.36120E-02   -0.95624E-03 11800   0.747E-01    0.288E-01
DAV:   4    -0.192271583538E+03    0.80949E-04   -0.28841E-03 11400   0.411E-01    0.287E-01
DAV:   5    -0.192270820398E+03    0.76314E-03   -0.17776E-03 10040   0.351E-01    0.133E-01
DAV:   6    -0.192270845861E+03   -0.25463E-04   -0.83187E-04 10200   0.200E-01
  31 F= -.19227085E+03 E0= -.19218222E+03  d E =-.249954E-01
       N       E                     dE             d eps       ncg     rms          rms(c)
DAV:   1    -0.192290836156E+03   -0.20016E-01   -0.81814E-01  8160   0.195E+00    0.243E-01
DAV:   2    -0.192294732384E+03   -0.38962E-02   -0.27056E-02 11240   0.680E-01    0.538E-01
DAV:   3    -0.192292191753E+03    0.25406E-02   -0.65790E-03 12240   0.636E-01    0.238E-01
DAV:   4    -0.192292498157E+03   -0.30640E-03   -0.22047E-03 10520   0.375E-01    0.288E-01
DAV:   5    -0.192291558683E+03    0.93947E-03   -0.13087E-03  9720   0.309E-01    0.633E-02
DAV:   6    -0.192291566091E+03   -0.74074E-05   -0.23280E-04  7640   0.620E-02
  32 F= -.19229157E+03 E0= -.19220503E+03  d E =-.207202E-01
       N       E                     dE             d eps       ncg     rms          rms(c)
DAV:   1    -0.192305831710E+03   -0.14273E-01   -0.38990E-01  8160   0.135E+00    0.168E-01
DAV:   2    -0.192307512291E+03   -0.16806E-02   -0.12723E-02 11240   0.464E-01    0.347E-01
DAV:   3    -0.192306492527E+03    0.10198E-02   -0.32015E-03 11800   0.442E-01    0.177E-01
DAV:   4    -0.192306441739E+03    0.50788E-04   -0.10182E-03  9760   0.235E-01    0.164E-01
DAV:   5    -0.192306195101E+03    0.24664E-03   -0.55377E-04  8640   0.197E-01    0.784E-02
DAV:   6    -0.192306185399E+03    0.97022E-05   -0.22828E-04  7800   0.112E-01
  33 F= -.19230619E+03 E0= -.19222079E+03  d E =-.146193E-01
       N       E                     dE             d eps       ncg     rms          rms(c)
DAV:   1    -0.192287110767E+03    0.19084E-01   -0.72360E-01  8160   0.183E+00    0.229E-01
DAV:   2    -0.192290559806E+03   -0.34490E-02   -0.23106E-02 11040   0.692E-01    0.522E-01
DAV:   3    -0.192288139245E+03    0.24206E-02   -0.72285E-03 12240   0.656E-01    0.232E-01
DAV:   4    -0.192287906729E+03    0.23252E-03   -0.18697E-03 11120   0.294E-01    0.197E-01
DAV:   5    -0.192287695683E+03    0.21105E-03   -0.11712E-03 10120   0.272E-01    0.158E-01
DAV:   6    -0.192287463496E+03    0.23219E-03   -0.53013E-04  8680   0.173E-01    0.686E-02
DAV:   7    -0.192287521344E+03   -0.57848E-04   -0.30967E-04  9160   0.147E-01
  34 F= -.19228752E+03 E0= -.19220051E+03  d E =0.186641E-01
       N       E                     dE             d eps       ncg     rms          rms(c)
DAV:   1    -0.192305015446E+03   -0.17552E-01   -0.77391E-01  8160   0.188E+00    0.228E-01
DAV:   2    -0.192308777066E+03   -0.37616E-02   -0.27364E-02 11000   0.722E-01    0.522E-01
DAV:   3    -0.192306372615E+03    0.24045E-02   -0.60857E-03 12040   0.613E-01    0.226E-01
DAV:   4    -0.192306245412E+03    0.12720E-03   -0.17582E-03 10120   0.321E-01    0.212E-01
DAV:   5    -0.192305832594E+03    0.41282E-03   -0.10519E-03  9960   0.273E-01    0.106E-01
DAV:   6    -0.192305767064E+03    0.65529E-04   -0.46460E-04  9440   0.131E-01
  35 F= -.19230577E+03 E0= -.19221999E+03  d E =-.182457E-01
       N       E                     dE             d eps       ncg     rms          rms(c)
DAV:   1    -0.192320221559E+03   -0.14389E-01   -0.42513E-01  8160   0.142E+00    0.187E-01
DAV:   2    -0.192321662543E+03   -0.14410E-02   -0.12882E-02 11280   0.458E-01    0.343E-01
DAV:   3    -0.192320801475E+03    0.86107E-03   -0.34277E-03 12320   0.476E-01    0.216E-01
DAV:   4    -0.192320720294E+03    0.81181E-04   -0.13090E-03  9800   0.278E-01    0.195E-01
DAV:   5    -0.192320315311E+03    0.40498E-03   -0.72852E-04  8640   0.233E-01    0.704E-02
DAV:   6    -0.192320317874E+03   -0.25629E-05   -0.25840E-04  7720   0.103E-01
  36 F= -.19232032E+03 E0= -.19223602E+03  d E =-.145508E-01
       N       E                     dE             d eps       ncg     rms          rms(c)
DAV:   1    -0.192353938395E+03   -0.33623E-01   -0.23550E+00  8160   0.333E+00    0.421E-01
DAV:   2    -0.192365065103E+03   -0.11127E-01   -0.78178E-02 11120   0.120E+00    0.886E-01
DAV:   3    -0.192357534195E+03    0.75309E-02   -0.19282E-02 11960   0.113E+00    0.393E-01
DAV:   4    -0.192357084580E+03    0.44961E-03   -0.51874E-03 11520   0.527E-01    0.367E-01
DAV:   5    -0.192355851055E+03    0.12335E-02   -0.31012E-03 11400   0.466E-01    0.188E-01
DAV:   6    -0.192355839594E+03    0.11461E-04   -0.14276E-03 10520   0.285E-01    0.178E-01
DAV:   7    -0.192355675944E+03    0.16365E-03   -0.10535E-03 10640   0.283E-01    0.136E-01
DAV:   8    -0.192355433280E+03    0.24266E-03   -0.29716E-04  8600   0.131E-01    0.192E-02
DAV:   9    -0.192355434391E+03   -0.11114E-05   -0.40096E-05  6640   0.229E-02
  37 F= -.19235543E+03 E0= -.19227355E+03  d E =-.351165E-01
       N       E                     dE             d eps       ncg     rms          rms(c)
DAV:   1    -0.192379615398E+03   -0.24182E-01   -0.12687E+00  8160   0.242E+00    0.318E-01
DAV:   2    -0.192388946928E+03   -0.93315E-02   -0.44932E-02 11040   0.111E+00    0.851E-01
DAV:   3    -0.192381072536E+03    0.78744E-02   -0.13678E-02 12160   0.972E-01    0.227E-01
DAV:   4    -0.192381250271E+03   -0.17773E-03   -0.25270E-03 11480   0.372E-01    0.273E-01
DAV:   5    -0.192380525396E+03    0.72487E-03   -0.16441E-03 10400   0.343E-01    0.134E-01
DAV:   6    -0.192380495890E+03    0.29506E-04   -0.68605E-04 10240   0.199E-01
  38 F= -.19238050E+03 E0= -.19230039E+03  d E =-.250615E-01
       N       E                     dE             d eps       ncg     rms          rms(c)
DAV:   1    -0.192400451439E+03   -0.19926E-01   -0.89202E-01  8160   0.205E+00    0.273E-01
DAV:   2    -0.192406285440E+03   -0.58340E-02   -0.30706E-02 11600   0.873E-01    0.668E-01
DAV:   3    -0.192401496718E+03    0.47887E-02   -0.85124E-03 11760   0.779E-01    0.210E-01
DAV:   4    -0.192401992023E+03   -0.49530E-03   -0.23350E-03 11240   0.389E-01    0.302E-01
DAV:   5    -0.192400975688E+03    0.10163E-02   -0.14585E-03 10120   0.330E-01    0.738E-02
DAV:   6    -0.192401057165E+03   -0.81477E-04   -0.37273E-04  8960   0.123E-01
  39 F= -.19240106E+03 E0= -.19232200E+03  d E =-.205613E-01
       N       E                     dE             d eps       ncg     rms          rms(c)
DAV:   1    -0.192436909396E+03   -0.35934E-01   -0.34376E+00  8160   0.401E+00    0.514E-01
DAV:   2    -0.192454560639E+03   -0.17651E-01   -0.11122E-01 11720   0.156E+00    0.112E+00
DAV:   3    -0.192441211635E+03    0.13349E-01   -0.28905E-02 11800   0.142E+00    0.430E-01
DAV:   4    -0.192440779121E+03    0.43251E-03   -0.69919E-03 11480   0.619E-01    0.407E-01
DAV:   5    -0.192439144790E+03    0.16343E-02   -0.42269E-03 12040   0.559E-01    0.220E-01
DAV:   6    -0.192438914710E+03    0.23008E-03   -0.18410E-03 10440   0.299E-01    0.171E-01
DAV:   7    -0.192438926683E+03   -0.11973E-04   -0.13053E-03 10880   0.310E-01    0.184E-01
DAV:   8    -0.192438526661E+03    0.40002E-03   -0.49432E-04  8480   0.189E-01    0.263E-02
DAV:   9    -0.192438524890E+03    0.17710E-05   -0.49185E-05  6360   0.294E-02
  40 F= -.19243852E+03 E0= -.19236147E+03  d E =-.374677E-01
       N       E                     dE             d eps       ncg     rms          rms(c)
DAV:   1    -0.192476227696E+03   -0.37701E-01   -0.64214E+00  8160   0.546E+00    0.686E-01
DAV:   2    -0.192511391090E+03   -0.35163E-01   -0.20699E-01 11440   0.233E+00    0.154E+00
DAV:   3    -0.192483047652E+03    0.28343E-01   -0.52042E-02 11640   0.194E+00    0.492E-01
DAV:   4    -0.192482899500E+03    0.14815E-03   -0.12290E-02 12240   0.811E-01    0.521E-01
DAV:   5    -0.192480536907E+03    0.23626E-02   -0.78970E-03 12040   0.774E-01    0.326E-01
DAV:   6    -0.192479423659E+03    0.11132E-02   -0.32528E-03 10760   0.378E-01    0.152E-01
DAV:   7    -0.192479715799E+03   -0.29214E-03   -0.17008E-03 11760   0.325E-01    0.239E-01
DAV:   8    -0.192479080729E+03    0.63507E-03   -0.82652E-04  9440   0.251E-01    0.381E-02
DAV:   9    -0.192479069869E+03    0.10860E-04   -0.65282E-05  6000   0.421E-02
  41 F= -.19247907E+03 E0= -.19240397E+03  d E =-.405450E-01
       N       E                     dE             d eps       ncg     rms          rms(c)
DAV:   1    -0.192484268360E+03   -0.51876E-02   -0.16935E-01  8160   0.945E-01    0.205E-01
DAV:   2    -0.192484831243E+03   -0.56288E-03   -0.11919E-02 11440   0.519E-01    0.317E-01
DAV:   3    -0.192483942002E+03    0.88924E-03   -0.30606E-03 11320   0.485E-01    0.168E-01
DAV:   4    -0.192483523983E+03    0.41802E-03   -0.97035E-04 10240   0.229E-01    0.106E-01
DAV:   5    -0.192483626277E+03   -0.10229E-03   -0.79332E-04 10320   0.231E-01    0.159E-01
DAV:   6    -0.192483316017E+03    0.31026E-03   -0.45134E-04  8400   0.176E-01    0.218E-02
DAV:   7    -0.192483321821E+03   -0.58034E-05   -0.53666E-05  5760   0.372E-02
  42 F= -.19248332E+03 E0= -.19240796E+03  d E =-.425195E-02
       N       E                     dE             d eps       ncg     rms          rms(c)
DAV:   1    -0.192490575007E+03   -0.72590E-02   -0.41370E-01  8160   0.137E+00    0.193E-01
DAV:   2    -0.192493809219E+03   -0.32342E-02   -0.17792E-02 10520   0.745E-01    0.481E-01
DAV:   3    -0.192491104723E+03    0.27045E-02   -0.49308E-03 12040   0.592E-01    0.125E-01
DAV:   4    -0.192491104718E+03    0.48312E-08   -0.85073E-04  9600   0.217E-01
  43 F= -.19249110E+03 E0= -.19241622E+03  d E =-.778290E-02
       N       E                     dE             d eps       ncg     rms          rms(c)
DAV:   1    -0.192497983669E+03   -0.68789E-02   -0.65644E-01  8160   0.174E+00    0.225E-01
DAV:   2    -0.192500183331E+03   -0.21997E-02   -0.21926E-02 11880   0.545E-01    0.355E-01
DAV:   3    -0.192499269869E+03    0.91346E-03   -0.54600E-03 12000   0.589E-01    0.268E-01
DAV:   4    -0.192498583363E+03    0.68651E-03   -0.16958E-03 11120   0.306E-01    0.110E-01
DAV:   5    -0.192498442586E+03    0.14078E-03   -0.60501E-04 10360   0.161E-01    0.928E-02
DAV:   6    -0.192498483371E+03   -0.40785E-04   -0.49397E-04  9760   0.181E-01
  44 F= -.19249848E+03 E0= -.19242367E+03  d E =-.737865E-02
       N       E                     dE             d eps       ncg     rms          rms(c)
DAV:   1    -0.192503314991E+03   -0.48724E-02   -0.60229E-01  8160   0.167E+00    0.233E-01
DAV:   2    -0.192507188036E+03   -0.38730E-02   -0.27519E-02 11400   0.744E-01    0.505E-01
DAV:   3    -0.192504583438E+03    0.26046E-02   -0.70408E-03 12120   0.685E-01    0.201E-01
DAV:   4    -0.192504215635E+03    0.36780E-03   -0.11847E-03 10840   0.238E-01    0.121E-01
DAV:   5    -0.192504096008E+03    0.11963E-03   -0.58771E-04 10000   0.210E-01    0.100E-01
DAV:   6    -0.192504036992E+03    0.59016E-04   -0.38815E-04  8440   0.150E-01
  45 F= -.19250404E+03 E0= -.19242938E+03  d E =-.555362E-02
       N       E                     dE             d eps       ncg     rms          rms(c)
DAV:   1    -0.192506683000E+03   -0.25870E-02   -0.19228E+00  8160   0.296E+00    0.351E-01
DAV:   2    -0.192515411592E+03   -0.87286E-02   -0.75049E-02 11360   0.107E+00    0.642E-01
DAV:   3    -0.192511550202E+03    0.38614E-02   -0.13651E-02 11720   0.959E-01    0.344E-01
DAV:   4    -0.192510566805E+03    0.98340E-03   -0.33905E-03 12200   0.436E-01    0.213E-01
DAV:   5    -0.192510181157E+03    0.38565E-03   -0.15768E-03 10400   0.341E-01    0.152E-01
DAV:   6    -0.192510034661E+03    0.14650E-03   -0.89307E-04 10440   0.201E-01    0.899E-02
DAV:   7    -0.192509952895E+03    0.81765E-04   -0.40408E-04  9600   0.120E-01
  46 F= -.19250995E+03 E0= -.19243573E+03  d E =-.591590E-02
       N       E                     dE             d eps       ncg     rms          rms(c)
DAV:   1    -0.192510487869E+03   -0.45321E-03   -0.82862E-02  8160   0.616E-01    0.867E-02
DAV:   2    -0.192510983149E+03   -0.49528E-03   -0.42218E-03 12520   0.298E-01    0.172E-01
DAV:   3    -0.192510658568E+03    0.32458E-03   -0.72702E-04 10160   0.233E-01    0.639E-02
DAV:   4    -0.192510634554E+03    0.24014E-04   -0.15845E-04  6200   0.101E-01
  47 F= -.19251063E+03 E0= -.19243661E+03  d E =-.681658E-03
