   27   27  100    1
  0.9710400E+02  0.1002848E-08  0.1002848E-08  0.3000000E-08  0.5000000E-15
  1.000000000000000E-004
  CAR 
 unknown system                          
    159     34    120
 
  0.0000000E+00  0.0000000E+00  0.0000000E+00  0.1562500E-01
    1      -17.825788   1.000000
    2      -16.775853   1.000000
    3      -16.608117   1.000000
    4      -16.596111   1.000000
    5      -16.535716   1.000000
    6      -16.525138   1.000000
    7      -16.417582   1.000000
    8      -16.255989   1.000000
    9      -16.199789   1.000000
   10      -16.152328   1.000000
   11      -16.105473   1.000000
   12      -15.939280   1.000000
   13      -15.909391   1.000000
   14      -15.644937   1.000000
   15      -15.595958   1.000000
   16      -15.493775   1.000000
   17      -15.272523   1.000000
   18      -15.218743   1.000000
   19       -9.308815   1.000000
   20       -9.045294   1.000000
   21       -8.938249   1.000000
   22       -8.851955   1.000000
   23       -8.726461   1.000000
   24       -8.709554   1.000000
   25       -8.692023   1.000000
   26       -8.669050   1.000000
   27       -8.541785   1.000000
   28       -8.480213   1.000000
   29       -8.467256   1.000000
   30       -8.416443   1.000000
   31       -8.346689   1.000000
   32       -8.160663   1.000000
   33       -8.066757   1.000000
   34       -8.000177   1.000000
   35       -7.805239   1.000000
   36       -7.742649   1.000000
   37       -7.684034   1.000000
   38       -7.518895   1.000000
   39       -7.506115   1.000000
   40       -7.379343   1.000000
   41       -7.336390   1.000000
   42       -7.209720   1.000000
   43       -7.068154   1.000000
   44       -6.941331   1.000000
   45       -6.866987   1.000000
   46       -6.798530   1.000000
   47       -6.739424   1.000000
   48       -6.666278   1.000000
   49       -6.606152   1.000000
   50       -6.527620   1.000000
   51       -6.442100   1.000000
   52       -6.262245   1.000000
   53       -6.223483   1.000000
   54       -6.173420   1.000000
   55       -6.152682   1.000000
   56       -6.064741   1.000000
   57       -5.999879   1.000000
   58       -5.900291   1.000000
   59       -5.881996   1.000000
   60       -5.634702   1.000000
   61       -5.610940   1.000000
   62       -5.351003   1.000000
   63       -5.303490   1.000000
   64       -5.077920   1.000000
   65       -5.022088   1.000000
   66       -4.924289   1.000000
   67       -4.899903   1.000000
   68       -4.828997   1.000000
   69       -4.762532   1.000000
   70       -4.707254   1.000000
   71       -4.682333   1.000000
   72       -4.667922   1.000000
   73       -4.459895   1.000000
   74       -4.373855   1.000000
   75       -4.306164   1.000000
   76       -3.974164   1.000000
   77       -3.785344   0.999968
   78       -3.608396   0.996957
   79       -3.499433   0.975731
   80       -3.191320   0.418373
   81       -3.173699   0.370450
   82       -2.853371   0.004720
   83       -2.767990   0.000688
   84       -2.630485   0.000015
   85       -2.572329   0.000002
   86       -2.491410   0.000000
   87       -2.246022   0.000000
   88       -2.225086   0.000000
   89       -2.204979   0.000000
   90       -2.065628   0.000000
   91       -1.705675   0.000000
   92       -1.629443   0.000000
   93       -1.380622   0.000000
   94       -1.206058   0.000000
   95       -1.074797   0.000000
   96       -0.995049   0.000000
   97       -0.950001   0.000000
   98       -0.904413   0.000000
   99       -0.822512   0.000000
  100       -0.635041   0.000000
  101       -0.597417   0.000000
  102       -0.528626   0.000000
  103       -0.384002   0.000000
  104       -0.285485   0.000000
  105       -0.225233   0.000000
  106       -0.157210   0.000000
  107       -0.103761   0.000000
  108       -0.054727   0.000000
  109        0.068935   0.000000
  110        0.231819   0.000000
  111        0.295278   0.000000
  112        0.410750   0.000000
  113        0.827845   0.000000
  114        0.947785   0.000000
  115        1.004391   0.000000
  116        1.143404   0.000000
  117        1.217199   0.000000
  118        1.653886   0.000000
  119        1.846497   0.000000
  120        2.170457   0.000000
 
  0.1250000E+00  0.2775558E-16  0.0000000E+00  0.3125000E-01
    1      -17.801136   1.000000
    2      -16.782685   1.000000
    3      -16.731938   1.000000
    4      -16.651365   1.000000
    5      -16.543068   1.000000
    6      -16.466898   1.000000
    7      -16.384348   1.000000
    8      -16.297648   1.000000
    9      -16.197388   1.000000
   10      -16.081946   1.000000
   11      -16.031678   1.000000
   12      -15.973735   1.000000
   13      -15.863889   1.000000
   14      -15.642422   1.000000
   15      -15.594879   1.000000
   16      -15.499219   1.000000
   17      -15.291752   1.000000
   18      -15.225466   1.000000
   19       -9.311956   1.000000
   20       -9.103987   1.000000
   21       -9.079164   1.000000
   22       -8.969212   1.000000
   23       -8.802628   1.000000
   24       -8.732028   1.000000
   25       -8.678887   1.000000
   26       -8.649441   1.000000
   27       -8.547053   1.000000
   28       -8.527210   1.000000
   29       -8.449870   1.000000
   30       -8.301164   1.000000
   31       -8.210473   1.000000
   32       -8.027111   1.000000
   33       -7.975135   1.000000
   34       -7.880168   1.000000
   35       -7.850897   1.000000
   36       -7.730827   1.000000
   37       -7.686317   1.000000
   38       -7.534890   1.000000
   39       -7.447125   1.000000
   40       -7.402518   1.000000
   41       -7.330145   1.000000
   42       -7.203688   1.000000
   43       -7.120855   1.000000
   44       -6.978691   1.000000
   45       -6.889548   1.000000
   46       -6.808301   1.000000
   47       -6.753340   1.000000
   48       -6.665519   1.000000
   49       -6.594190   1.000000
   50       -6.514659   1.000000
   51       -6.442456   1.000000
   52       -6.308508   1.000000
   53       -6.254629   1.000000
   54       -6.181119   1.000000
   55       -6.091268   1.000000
   56       -6.068892   1.000000
   57       -6.025980   1.000000
   58       -5.890572   1.000000
   59       -5.771577   1.000000
   60       -5.603086   1.000000
   61       -5.569084   1.000000
   62       -5.357420   1.000000
   63       -5.321804   1.000000
   64       -5.217151   1.000000
   65       -5.100955   1.000000
   66       -5.025569   1.000000
   67       -4.949470   1.000000
   68       -4.875265   1.000000
   69       -4.820446   1.000000
   70       -4.668401   1.000000
   71       -4.623865   1.000000
   72       -4.513516   1.000000
   73       -4.399674   1.000000
   74       -4.327031   1.000000
   75       -4.285262   1.000000
   76       -3.917904   1.000000
   77       -3.827332   0.999991
   78       -3.690247   0.999553
   79       -3.495737   0.974202
   80       -3.412449   0.912698
   81       -2.967148   0.036631
   82       -2.871065   0.006744
   83       -2.755514   0.000505
   84       -2.610730   0.000008
   85       -2.563949   0.000002
   86       -2.487795   0.000000
   87       -2.253273   0.000000
   88       -2.199299   0.000000
   89       -2.170626   0.000000
   90       -2.065192   0.000000
   91       -1.703582   0.000000
   92       -1.609446   0.000000
   93       -1.379902   0.000000
   94       -1.212186   0.000000
   95       -1.090961   0.000000
   96       -0.990543   0.000000
   97       -0.957468   0.000000
   98       -0.901760   0.000000
   99       -0.836710   0.000000
  100       -0.701714   0.000000
  101       -0.634707   0.000000
  102       -0.595327   0.000000
  103       -0.486079   0.000000
  104       -0.362283   0.000000
  105       -0.293692   0.000000
  106       -0.145295   0.000000
  107       -0.112616   0.000000
  108        0.031630   0.000000
  109        0.043196   0.000000
  110        0.228157   0.000000
  111        0.290566   0.000000
  112        0.464215   0.000000
  113        0.755844   0.000000
  114        0.897162   0.000000
  115        1.045402   0.000000
  116        1.197948   0.000000
  117        1.301996   0.000000
  118        1.698532   0.000000
  119        1.885274   0.000000
  120        2.205812   0.000000
 
  0.2500000E+00  0.5551115E-16  0.0000000E+00  0.3125000E-01
    1      -17.729258   1.000000
    2      -16.963317   1.000000
    3      -16.764584   1.000000
    4      -16.703150   1.000000
    5      -16.596801   1.000000
    6      -16.438859   1.000000
    7      -16.383597   1.000000
    8      -16.236155   1.000000
    9      -16.162673   1.000000
   10      -16.028797   1.000000
   11      -16.012841   1.000000
   12      -15.897850   1.000000
   13      -15.809549   1.000000
   14      -15.626662   1.000000
   15      -15.587327   1.000000
   16      -15.506927   1.000000
   17      -15.337446   1.000000
   18      -15.248691   1.000000
   19       -9.490694   1.000000
   20       -9.206653   1.000000
   21       -9.158904   1.000000
   22       -9.086709   1.000000
   23       -8.947342   1.000000
   24       -8.812011   1.000000
   25       -8.663133   1.000000
   26       -8.590194   1.000000
   27       -8.493967   1.000000
   28       -8.448501   1.000000
   29       -8.364147   1.000000
   30       -8.202975   1.000000
   31       -8.106798   1.000000
   32       -8.051227   1.000000
   33       -7.917028   1.000000
   34       -7.785477   1.000000
   35       -7.732822   1.000000
   36       -7.632169   1.000000
   37       -7.584815   1.000000
   38       -7.545366   1.000000
   39       -7.461259   1.000000
   40       -7.377623   1.000000
   41       -7.281476   1.000000
   42       -7.196441   1.000000
   43       -7.132140   1.000000
   44       -7.025603   1.000000
   45       -6.921313   1.000000
   46       -6.830063   1.000000
   47       -6.728282   1.000000
   48       -6.684395   1.000000
   49       -6.538337   1.000000
   50       -6.510762   1.000000
   51       -6.428817   1.000000
   52       -6.329224   1.000000
   53       -6.296287   1.000000
   54       -6.185283   1.000000
   55       -6.117865   1.000000
   56       -6.063786   1.000000
   57       -5.924553   1.000000
   58       -5.842394   1.000000
   59       -5.715419   1.000000
   60       -5.646347   1.000000
   61       -5.547765   1.000000
   62       -5.515945   1.000000
   63       -5.454203   1.000000
   64       -5.249515   1.000000
   65       -5.183458   1.000000
   66       -5.157785   1.000000
   67       -5.027989   1.000000
   68       -4.894293   1.000000
   69       -4.812880   1.000000
   70       -4.613350   1.000000
   71       -4.484234   1.000000
   72       -4.451202   1.000000
   73       -4.329544   1.000000
   74       -4.260372   1.000000
   75       -4.160453   1.000000
   76       -4.091899   1.000000
   77       -3.925373   1.000000
   78       -3.737338   0.999871
   79       -3.528610   0.985332
   80       -3.390234   0.885022
   81       -2.953873   0.029711
   82       -2.837663   0.003397
   83       -2.704539   0.000132
   84       -2.606483   0.000007
   85       -2.524198   0.000000
   86       -2.464045   0.000000
   87       -2.249465   0.000000
   88       -2.168157   0.000000
   89       -2.113356   0.000000
   90       -2.026000   0.000000
   91       -1.694942   0.000000
   92       -1.546164   0.000000
   93       -1.379776   0.000000
   94       -1.235357   0.000000
   95       -1.146742   0.000000
   96       -1.032247   0.000000
   97       -0.974132   0.000000
   98       -0.913953   0.000000
   99       -0.874511   0.000000
  100       -0.846559   0.000000
  101       -0.755863   0.000000
  102       -0.648809   0.000000
  103       -0.627279   0.000000
  104       -0.461980   0.000000
  105       -0.377413   0.000000
  106       -0.200295   0.000000
  107       -0.133601   0.000000
  108       -0.042535   0.000000
  109       -0.002112   0.000000
  110        0.175795   0.000000
  111        0.359956   0.000000
  112        0.544481   0.000000
  113        0.689147   0.000000
  114        0.893663   0.000000
  115        1.124672   0.000000
  116        1.248996   0.000000
  117        1.472415   0.000000
  118        1.822715   0.000000
  119        1.997015   0.000000
  120        2.310595   0.000000
 
  0.3750000E+00  0.0000000E+00  0.0000000E+00  0.3125000E-01
    1      -17.620434   1.000000
    2      -17.170907   1.000000
    3      -16.783009   1.000000
    4      -16.709061   1.000000
    5      -16.646650   1.000000
    6      -16.462563   1.000000
    7      -16.361836   1.000000
    8      -16.171488   1.000000
    9      -16.130697   1.000000
   10      -16.035820   1.000000
   11      -15.937275   1.000000
   12      -15.861992   1.000000
   13      -15.772091   1.000000
   14      -15.621512   1.000000
   15      -15.579842   1.000000
   16      -15.476551   1.000000
   17      -15.377071   1.000000
   18      -15.287897   1.000000
   19       -9.703281   1.000000
   20       -9.293849   1.000000
   21       -9.216294   1.000000
   22       -9.084425   1.000000
   23       -9.001019   1.000000
   24       -8.882216   1.000000
   25       -8.615848   1.000000
   26       -8.528073   1.000000
   27       -8.433672   1.000000
   28       -8.329172   1.000000
   29       -8.315417   1.000000
   30       -8.230092   1.000000
   31       -8.100717   1.000000
   32       -8.006631   1.000000
   33       -7.939068   1.000000
   34       -7.834640   1.000000
   35       -7.749582   1.000000
   36       -7.652399   1.000000
   37       -7.587816   1.000000
   38       -7.517779   1.000000
   39       -7.391518   1.000000
   40       -7.299049   1.000000
   41       -7.192288   1.000000
   42       -7.112749   1.000000
   43       -7.063932   1.000000
   44       -6.990214   1.000000
   45       -6.914121   1.000000
   46       -6.771116   1.000000
   47       -6.708742   1.000000
   48       -6.604363   1.000000
   49       -6.542419   1.000000
   50       -6.504125   1.000000
   51       -6.341985   1.000000
   52       -6.318890   1.000000
   53       -6.267620   1.000000
   54       -6.172858   1.000000
   55       -6.086066   1.000000
   56       -6.044217   1.000000
   57       -6.010885   1.000000
   58       -5.991774   1.000000
   59       -5.840049   1.000000
   60       -5.708302   1.000000
   61       -5.649339   1.000000
   62       -5.557932   1.000000
   63       -5.489965   1.000000
   64       -5.311923   1.000000
   65       -5.207805   1.000000
   66       -5.074713   1.000000
   67       -5.034836   1.000000
   68       -4.864887   1.000000
   69       -4.798547   1.000000
   70       -4.701659   1.000000
   71       -4.529158   1.000000
   72       -4.416605   1.000000
   73       -4.337190   1.000000
   74       -4.269156   1.000000
   75       -4.154576   1.000000
   76       -4.054502   1.000000
   77       -3.935990   1.000000
   78       -3.746387   0.999900
   79       -3.573185   0.993687
   80       -3.216893   0.489936
   81       -3.003723   0.062691
   82       -2.848301   0.004250
   83       -2.665632   0.000044
   84       -2.621886   0.000012
   85       -2.493230   0.000000
   86       -2.413309   0.000000
   87       -2.220231   0.000000
   88       -2.147882   0.000000
   89       -2.084192   0.000000
   90       -1.952587   0.000000
   91       -1.677099   0.000000
   92       -1.464862   0.000000
   93       -1.391097   0.000000
   94       -1.277564   0.000000
   95       -1.218485   0.000000
   96       -1.132376   0.000000
   97       -1.046226   0.000000
   98       -0.957374   0.000000
   99       -0.907239   0.000000
  100       -0.889812   0.000000
  101       -0.844273   0.000000
  102       -0.757965   0.000000
  103       -0.620569   0.000000
  104       -0.522920   0.000000
  105       -0.427300   0.000000
  106       -0.309211   0.000000
  107       -0.254676   0.000000
  108       -0.096471   0.000000
  109       -0.037933   0.000000
  110        0.109977   0.000000
  111        0.376444   0.000000
  112        0.599756   0.000000
  113        0.697598   0.000000
  114        0.950520   0.000000
  115        1.186049   0.000000
  116        1.300975   0.000000
  117        1.603547   0.000000
  118        2.007803   0.000000
  119        2.172207   0.000000
  120        2.480033   0.000000
 
  0.5000000E+00  0.1110223E-15  0.0000000E+00  0.1562500E-01
    1      -17.538470   1.000000
    2      -17.287837   1.000000
    3      -16.794553   1.000000
    4      -16.694644   1.000000
    5      -16.674380   1.000000
    6      -16.474903   1.000000
    7      -16.351174   1.000000
    8      -16.157722   1.000000
    9      -16.118172   1.000000
   10      -16.016993   1.000000
   11      -15.912980   1.000000
   12      -15.862165   1.000000
   13      -15.736208   1.000000
   14      -15.659878   1.000000
   15      -15.563530   1.000000
   16      -15.462301   1.000000
   17      -15.363094   1.000000
   18      -15.325953   1.000000
   19       -9.782159   1.000000
   20       -9.332596   1.000000
   21       -9.238811   1.000000
   22       -9.111340   1.000000
   23       -8.961409   1.000000
   24       -8.898793   1.000000
   25       -8.588175   1.000000
   26       -8.530166   1.000000
   27       -8.444736   1.000000
   28       -8.287877   1.000000
   29       -8.255973   1.000000
   30       -8.179741   1.000000
   31       -8.124080   1.000000
   32       -8.018387   1.000000
   33       -7.968109   1.000000
   34       -7.862436   1.000000
   35       -7.743039   1.000000
   36       -7.725663   1.000000
   37       -7.603426   1.000000
   38       -7.488532   1.000000
   39       -7.408579   1.000000
   40       -7.323028   1.000000
   41       -7.198346   1.000000
   42       -7.029136   1.000000
   43       -6.989899   1.000000
   44       -6.920711   1.000000
   45       -6.750747   1.000000
   46       -6.710056   1.000000
   47       -6.640854   1.000000
   48       -6.611617   1.000000
   49       -6.534344   1.000000
   50       -6.472761   1.000000
   51       -6.434645   1.000000
   52       -6.352637   1.000000
   53       -6.322398   1.000000
   54       -6.266715   1.000000
   55       -6.172177   1.000000
   56       -6.052621   1.000000
   57       -6.019721   1.000000
   58       -5.823556   1.000000
   59       -5.810864   1.000000
   60       -5.719168   1.000000
   61       -5.687495   1.000000
   62       -5.554699   1.000000
   63       -5.543011   1.000000
   64       -5.401040   1.000000
   65       -5.216815   1.000000
   66       -5.065969   1.000000
   67       -5.032674   1.000000
   68       -4.941116   1.000000
   69       -4.837999   1.000000
   70       -4.641462   1.000000
   71       -4.540077   1.000000
   72       -4.452571   1.000000
   73       -4.327138   1.000000
   74       -4.272554   1.000000
   75       -4.201925   1.000000
   76       -3.987553   1.000000
   77       -3.854006   0.999996
   78       -3.772808   0.999953
   79       -3.611443   0.997151
   80       -3.097029   0.191387
   81       -3.013139   0.071326
   82       -2.918274   0.016308
   83       -2.661668   0.000039
   84       -2.614759   0.000009
   85       -2.482700   0.000000
   86       -2.388056   0.000000
   87       -2.200599   0.000000
   88       -2.137296   0.000000
   89       -2.073551   0.000000
   90       -1.926575   0.000000
   91       -1.664106   0.000000
   92       -1.427978   0.000000
   93       -1.400088   0.000000
   94       -1.294626   0.000000
   95       -1.247084   0.000000
   96       -1.185435   0.000000
   97       -1.091599   0.000000
   98       -0.989813   0.000000
   99       -0.940698   0.000000
  100       -0.885235   0.000000
  101       -0.850378   0.000000
  102       -0.793092   0.000000
  103       -0.596933   0.000000
  104       -0.555140   0.000000
  105       -0.445029   0.000000
  106       -0.369214   0.000000
  107       -0.312221   0.000000
  108       -0.133099   0.000000
  109       -0.037048   0.000000
  110        0.085041   0.000000
  111        0.375847   0.000000
  112        0.620133   0.000000
  113        0.706305   0.000000
  114        0.979187   0.000000
  115        1.207585   0.000000
  116        1.324122   0.000000
  117        1.652235   0.000000
  118        2.227253   0.000000
  119        2.257932   0.000000
  120        2.397910   0.000000
 
  0.0000000E+00  0.1250000E+00  0.0000000E+00  0.3125000E-01
    1      -17.799985   1.000000
    2      -16.785092   1.000000
    3      -16.757885   1.000000
    4      -16.626822   1.000000
    5      -16.546817   1.000000
    6      -16.437029   1.000000
    7      -16.376333   1.000000
    8      -16.327948   1.000000
    9      -16.209598   1.000000
   10      -16.086192   1.000000
   11      -16.020169   1.000000
   12      -15.968172   1.000000
   13      -15.865126   1.000000
   14      -15.640375   1.000000
   15      -15.593792   1.000000
   16      -15.503794   1.000000
   17      -15.291080   1.000000
   18      -15.224679   1.000000
   19       -9.293591   1.000000
   20       -9.182265   1.000000
   21       -9.084386   1.000000
   22       -8.961044   1.000000
   23       -8.777365   1.000000
   24       -8.722411   1.000000
   25       -8.670326   1.000000
   26       -8.622022   1.000000
   27       -8.543946   1.000000
   28       -8.463248   1.000000
   29       -8.396263   1.000000
   30       -8.377549   1.000000
   31       -8.269589   1.000000
   32       -8.009013   1.000000
   33       -7.969353   1.000000
   34       -7.948782   1.000000
   35       -7.808842   1.000000
   36       -7.734110   1.000000
   37       -7.695471   1.000000
   38       -7.553335   1.000000
   39       -7.443523   1.000000
   40       -7.382185   1.000000
   41       -7.296685   1.000000
   42       -7.256491   1.000000
   43       -7.091897   1.000000
   44       -6.978386   1.000000
   45       -6.908845   1.000000
   46       -6.800252   1.000000
   47       -6.729096   1.000000
   48       -6.664721   1.000000
   49       -6.615066   1.000000
   50       -6.500294   1.000000
   51       -6.439802   1.000000
   52       -6.302861   1.000000
   53       -6.236427   1.000000
   54       -6.196779   1.000000
   55       -6.138176   1.000000
   56       -6.046697   1.000000
   57       -5.991412   1.000000
   58       -5.899350   1.000000
   59       -5.792497   1.000000
   60       -5.617086   1.000000
   61       -5.553733   1.000000
   62       -5.368609   1.000000
   63       -5.337378   1.000000
   64       -5.207324   1.000000
   65       -5.081354   1.000000
   66       -5.035450   1.000000
   67       -4.912778   1.000000
   68       -4.875802   1.000000
   69       -4.818502   1.000000
   70       -4.679560   1.000000
   71       -4.606549   1.000000
   72       -4.540518   1.000000
   73       -4.448685   1.000000
   74       -4.341264   1.000000
   75       -4.238166   1.000000
   76       -3.913615   1.000000
   77       -3.820387   0.999989
   78       -3.711017   0.999739
   79       -3.482337   0.967969
   80       -3.415170   0.915713
   81       -2.967135   0.036623
   82       -2.877642   0.007673
   83       -2.759160   0.000553
   84       -2.611010   0.000008
   85       -2.560710   0.000002
   86       -2.481687   0.000000
   87       -2.256059   0.000000
   88       -2.196697   0.000000
   89       -2.167744   0.000000
   90       -2.057778   0.000000
   91       -1.707638   0.000000
   92       -1.608900   0.000000
   93       -1.381259   0.000000
   94       -1.213630   0.000000
   95       -1.079738   0.000000
   96       -1.013130   0.000000
   97       -0.957503   0.000000
   98       -0.896626   0.000000
   99       -0.822765   0.000000
  100       -0.690949   0.000000
  101       -0.630533   0.000000
  102       -0.565088   0.000000
  103       -0.458998   0.000000
  104       -0.364324   0.000000
  105       -0.323231   0.000000
  106       -0.255512   0.000000
  107       -0.116597   0.000000
  108        0.018442   0.000000
  109        0.059217   0.000000
  110        0.261689   0.000000
  111        0.381151   0.000000
  112        0.473631   0.000000
  113        0.753549   0.000000
  114        0.923472   0.000000
  115        1.018687   0.000000
  116        1.154950   0.000000
  117        1.285094   0.000000
  118        1.699113   0.000000
  119        1.884507   0.000000
  120        2.206010   0.000000
 
  0.1250000E+00  0.1250000E+00  0.0000000E+00  0.3125000E-01
    1      -17.750567   1.000000
    2      -16.894160   1.000000
    3      -16.779171   1.000000
    4      -16.737847   1.000000
    5      -16.509264   1.000000
    6      -16.425058   1.000000
    7      -16.405644   1.000000
    8      -16.272502   1.000000
    9      -16.168391   1.000000
   10      -16.084769   1.000000
   11      -16.025351   1.000000
   12      -15.884278   1.000000
   13      -15.815140   1.000000
   14      -15.622469   1.000000
   15      -15.580891   1.000000
   16      -15.506153   1.000000
   17      -15.330624   1.000000
   18      -15.249134   1.000000
   19       -9.372851   1.000000
   20       -9.304083   1.000000
   21       -9.151246   1.000000
   22       -9.064678   1.000000
   23       -8.859440   1.000000
   24       -8.746129   1.000000
   25       -8.640358   1.000000
   26       -8.563095   1.000000
   27       -8.520473   1.000000
   28       -8.471208   1.000000
   29       -8.436241   1.000000
   30       -8.288923   1.000000
   31       -8.169816   1.000000
   32       -8.052439   1.000000
   33       -7.930887   1.000000
   34       -7.809030   1.000000
   35       -7.692130   1.000000
   36       -7.651984   1.000000
   37       -7.594202   1.000000
   38       -7.529875   1.000000
   39       -7.478378   1.000000
   40       -7.328676   1.000000
   41       -7.275137   1.000000
   42       -7.240658   1.000000
   43       -7.152231   1.000000
   44       -7.009380   1.000000
   45       -6.938183   1.000000
   46       -6.862438   1.000000
   47       -6.743708   1.000000
   48       -6.680373   1.000000
   49       -6.542881   1.000000
   50       -6.518328   1.000000
   51       -6.407464   1.000000
   52       -6.379311   1.000000
   53       -6.300363   1.000000
   54       -6.190627   1.000000
   55       -6.120768   1.000000
   56       -6.041795   1.000000
   57       -5.919694   1.000000
   58       -5.763552   1.000000
   59       -5.729175   1.000000
   60       -5.644261   1.000000
   61       -5.531946   1.000000
   62       -5.493432   1.000000
   63       -5.320353   1.000000
   64       -5.266162   1.000000
   65       -5.227581   1.000000
   66       -5.144391   1.000000
   67       -5.054198   1.000000
   68       -4.871765   1.000000
   69       -4.813890   1.000000
   70       -4.654543   1.000000
   71       -4.508525   1.000000
   72       -4.468849   1.000000
   73       -4.346753   1.000000
   74       -4.274930   1.000000
   75       -4.167210   1.000000
   76       -4.011457   1.000000
   77       -3.884213   0.999999
   78       -3.695358   0.999607
   79       -3.617674   0.997513
   80       -3.386879   0.880352
   81       -2.968866   0.037616
   82       -2.859528   0.005353
   83       -2.716646   0.000184
   84       -2.588080   0.000004
   85       -2.550564   0.000001
   86       -2.469082   0.000000
   87       -2.296135   0.000000
   88       -2.180486   0.000000
   89       -2.111961   0.000000
   90       -2.029857   0.000000
   91       -1.700149   0.000000
   92       -1.555131   0.000000
   93       -1.380444   0.000000
   94       -1.227781   0.000000
   95       -1.112389   0.000000
   96       -1.043053   0.000000
   97       -0.955322   0.000000
   98       -0.911497   0.000000
   99       -0.844853   0.000000
  100       -0.714877   0.000000
  101       -0.701918   0.000000
  102       -0.662801   0.000000
  103       -0.550537   0.000000
  104       -0.438201   0.000000
  105       -0.408679   0.000000
  106       -0.270975   0.000000
  107       -0.182803   0.000000
  108       -0.007926   0.000000
  109        0.021416   0.000000
  110        0.237582   0.000000
  111        0.404114   0.000000
  112        0.571929   0.000000
  113        0.618041   0.000000
  114        0.895300   0.000000
  115        1.092655   0.000000
  116        1.221489   0.000000
  117        1.463958   0.000000
  118        1.784984   0.000000
  119        1.957649   0.000000
  120        2.276561   0.000000
 
  0.2500000E+00  0.1250000E+00  0.0000000E+00  0.3125000E-01
    1      -17.657610   1.000000
    2      -17.070621   1.000000
    3      -16.891193   1.000000
    4      -16.718671   1.000000
    5      -16.519292   1.000000
    6      -16.438633   1.000000
    7      -16.370711   1.000000
    8      -16.210420   1.000000
    9      -16.133390   1.000000
   10      -16.065149   1.000000
   11      -16.009094   1.000000
   12      -15.839237   1.000000
   13      -15.782830   1.000000
   14      -15.594273   1.000000
   15      -15.555709   1.000000
   16      -15.495451   1.000000
   17      -15.371538   1.000000
   18      -15.289888   1.000000
   19       -9.592991   1.000000
   20       -9.427948   1.000000
   21       -9.244254   1.000000
   22       -9.042789   1.000000
   23       -8.879416   1.000000
   24       -8.784015   1.000000
   25       -8.595531   1.000000
   26       -8.544179   1.000000
   27       -8.434048   1.000000
   28       -8.383213   1.000000
   29       -8.349115   1.000000
   30       -8.257741   1.000000
   31       -8.131766   1.000000
   32       -8.093983   1.000000
   33       -7.955612   1.000000
   34       -7.884913   1.000000
   35       -7.797166   1.000000
   36       -7.659167   1.000000
   37       -7.484309   1.000000
   38       -7.391953   1.000000
   39       -7.350878   1.000000
   40       -7.269016   1.000000
   41       -7.230711   1.000000
   42       -7.174590   1.000000
   43       -7.143818   1.000000
   44       -7.015254   1.000000
   45       -6.909576   1.000000
   46       -6.827474   1.000000
   47       -6.702574   1.000000