 vasp.5.4.1 05Feb16 (build Jul 05 2020 17:13:04) complex                        
  
 executed on           IFC91_ompi date 2024.07.19  20:50:41
 running on   40 total cores
 distrk:  each k-point on   40 cores,    1 groups
 distr:  one band on NCORES_PER_BAND=   1 cores,   40 groups


--------------------------------------------------------------------------------------------------------


 INCAR:
 POTCAR:   PAW_PBE V 08Apr2002                    
 POTCAR:   PAW_PBE Mo 08Apr2002                   
 POTCAR:   PAW_PBE W 08Apr2002                    
 POTCAR:    PAW_PBE S 17Jan2003                   

 ----------------------------------------------------------------------------- 
|                                                                             |
|           W    W    AA    RRRRR   N    N  II  N    N   GGGG   !!!           |
|           W    W   A  A   R    R  NN   N  II  NN   N  G    G  !!!           |
|           W    W  A    A  R    R  N N  N  II  N N  N  G       !!!           |
|           W WW W  AAAAAA  RRRRR   N  N N  II  N  N N  G  GGG   !            |
|           WW  WW  A    A  R   R   N   NN  II  N   NN  G    G                |
|           W    W  A    A  R    R  N    N  II  N    N   GGGG   !!!           |
|                                                                             |
|      For optimal performance we recommend to set                            |
|        NCORE= 4 - approx SQRT( number of cores)                             |
|      NCORE specifies how many cores store one orbital (NPAR=cpu/NCORE).     |
|      This setting can  greatly improve the performance of VASP for DFT.     |
|      The default, NPAR=number of cores might be grossly inefficient         |
|      on modern multi-core architectures or massively parallel machines.     |
|      Do your own testing !!!!                                               |
|      Unfortunately you need to use the default for GW and RPA calculations. |
|      (for HF NCORE is supported but not extensively tested yet)             |
|                                                                             |
 ----------------------------------------------------------------------------- 

 POTCAR:   PAW_PBE V 08Apr2002                    
   VRHFIN =V: p6 d4 s1                                                          
   LEXCH  = PE                                                                  
   EATOM  =   170.8679 eV,   12.5584 Ry                                         
                                                                                
   TITEL  = PAW_PBE V 08Apr2002                                                 
   LULTRA =        F    use ultrasoft PP ?                                      
   IUNSCR =        1    unscreen: 0-lin 1-nonlin 2-no                           
   RPACOR =    2.000    partial core radius                                     
   POMASS =   50.941; ZVAL   =    5.000    mass and valenz                      
   RCORE  =    2.700    outmost cutoff radius                                   
   RWIGS  =    2.500; RWIGS  =    1.323    wigner-seitz radius (au A)           
   ENMAX  =  192.543; ENMIN  =  144.408 eV                                      
   RCLOC  =    1.779    cutoff for local pot                                    
   LCOR   =        T    correct aug charges                                     
   LPAW   =        T    paw PP                                                  
   EAUG   =  358.662                                                            
   DEXC   =    -.034                                                            
   RMAX   =    3.323    core radius for proj-oper                               
   RAUG   =    1.300    factor for augmentation sphere                          
   RDEP   =    2.762    radius for radial grids                                 
   QCUT   =   -3.762; QGAM   =    7.524    optimization parameters              
                                                                                
   Description                                                                  
     l     E      TYP  RCUT    TYP  RCUT                                        
     2   .000     23  2.700                                                     
     2   .000     23  2.700                                                     
     0   .000     23  2.700                                                     
     0  2.000     23  2.700                                                     
     1   .000     23  2.700                                                     
     1  2.000     23  2.700                                                     
     3   .000      7   .000                                                     
  local pseudopotential read in
  partial core-charges read in
  atomic valenz-charges read in
  non local Contribution for L=           2  read in
    real space projection operators read in
  non local Contribution for L=           2  read in
    real space projection operators read in
  non local Contribution for L=           0  read in
    real space projection operators read in
  non local Contribution for L=           0  read in
    real space projection operators read in
  non local Contribution for L=           1  read in
    real space projection operators read in
  non local Contribution for L=           1  read in
    real space projection operators read in
    PAW grid and wavefunctions read in
 
   number of l-projection  operators is LMAX  =           6
   number of lm-projection operators is LMMAX =          18
 
 POTCAR:   PAW_PBE Mo 08Apr2002                   
   VRHFIN =Mo: 4p5s4d                                                           
   LEXCH  = PE                                                                  
   EATOM  =   217.5180 eV,   15.9871 Ry                                         
                                                                                
   TITEL  = PAW_PBE Mo 08Apr2002                                                
   LULTRA =        F    use ultrasoft PP ?                                      
   IUNSCR =        1    unscreen: 0-lin 1-nonlin 2-no                           
   RPACOR =    2.200    partial core radius                                     
   POMASS =   95.940; ZVAL   =    6.000    mass and valenz                      
   RCORE  =    2.750    outmost cutoff radius                                   
   RWIGS  =    2.750; RWIGS  =    1.455    wigner-seitz radius (au A)           
   ENMAX  =  224.584; ENMIN  =  168.438 eV                                      
   RCLOC  =    2.111    cutoff for local pot                                    
   LCOR   =        T    correct aug charges                                     
   LPAW   =        T    paw PP                                                  
   EAUG   =  345.278                                                            
   DEXC   =    -.088                                                            
   RMAX   =    3.077    core radius for proj-oper                               
   RAUG   =    1.300    factor for augmentation sphere                          
   RDEP   =    2.815    radius for radial grids                                 
   QCUT   =   -4.063; QGAM   =    8.126    optimization parameters              
                                                                                
   Description                                                                  
     l     E      TYP  RCUT    TYP  RCUT                                        
     2   .000     23  2.500                                                     
     2   .000     23  2.500                                                     
     0   .000     23  2.600                                                     
     0  1.000     23  2.600                                                     
     1   .400     23  2.750                                                     
     1  2.000     23  2.750                                                     
     3   .000      7   .000                                                     
  local pseudopotential read in
  partial core-charges read in
  atomic valenz-charges read in
  non local Contribution for L=           2  read in
    real space projection operators read in
  non local Contribution for L=           2  read in
    real space projection operators read in
  non local Contribution for L=           0  read in
    real space projection operators read in
  non local Contribution for L=           0  read in
    real space projection operators read in
  non local Contribution for L=           1  read in
    real space projection operators read in
  non local Contribution for L=           1  read in
    real space projection operators read in
    PAW grid and wavefunctions read in
 
   number of l-projection  operators is LMAX  =           6
   number of lm-projection operators is LMMAX =          18
 
 POTCAR:   PAW_PBE W 08Apr2002                    
   VRHFIN =W : 6s5d                                                             
   LEXCH  = PE                                                                  
   EATOM  =   204.6100 eV,   15.0384 Ry                                         
                                                                                
   TITEL  = PAW_PBE W 08Apr2002                                                 
   LULTRA =        F    use ultrasoft PP ?                                      
   IUNSCR =        1    unscreen: 0-lin 1-nonlin 2-no                           
   RPACOR =    2.330    partial core radius                                     
   POMASS =  183.850; ZVAL   =    6.000    mass and valenz                      
   RCORE  =    2.750    outmost cutoff radius                                   
   RWIGS  =    2.750; RWIGS  =    1.455    wigner-seitz radius (au A)           
   ENMAX  =  223.057; ENMIN  =  167.293 eV                                      
   RCLOC  =    2.147    cutoff for local pot                                    
   LCOR   =        T    correct aug charges                                     
   LPAW   =        T    paw PP                                                  
   EAUG   =  373.438                                                            
   DEXC   =    -.060                                                            
   RMAX   =    3.087    core radius for proj-oper                               
   RAUG   =    1.300    factor for augmentation sphere                          
   RDEP   =    2.886    radius for radial grids                                 
   QCUT   =   -4.049; QGAM   =    8.098    optimization parameters              
                                                                                
   Description                                                                  
     l     E      TYP  RCUT    TYP  RCUT                                        
     2   .000     23  2.500                                                     
     2   .000     23  2.500                                                     
     0   .000     23  2.500                                                     
     0   .000     23  2.500                                                     
     1   .200     23  2.750                                                     
     1  2.000     23  2.750                                                     
     3   .000      7   .000                                                     
  local pseudopotential read in
  partial core-charges read in
  atomic valenz-charges read in
  non local Contribution for L=           2  read in
    real space projection operators read in
  non local Contribution for L=           2  read in
    real space projection operators read in
  non local Contribution for L=           0  read in
    real space projection operators read in
  non local Contribution for L=           0  read in
    real space projection operators read in
  non local Contribution for L=           1  read in
    real space projection operators read in
  non local Contribution for L=           1  read in
    real space projection operators read in
    PAW grid and wavefunctions read in
 
   number of l-projection  operators is LMAX  =           6
   number of lm-projection operators is LMMAX =          18
 
 POTCAR:    PAW_PBE S 17Jan2003                   
   VRHFIN =S : s2p4                                                             
   LEXCH  = PE                                                                  
   EATOM  =   276.8230 eV,   20.3459 Ry                                         
                                                                                
   TITEL  = PAW_PBE S 17Jan2003                                                 
   LULTRA =        F    use ultrasoft PP ?                                      
   IUNSCR =        1    unscreen: 0-lin 1-nonlin 2-no                           
   RPACOR =    1.500    partial core radius                                     
   POMASS =   32.066; ZVAL   =    6.000    mass and valenz                      
   RCORE  =    1.900    outmost cutoff radius                                   
   RWIGS  =    2.200; RWIGS  =    1.164    wigner-seitz radius (au A)           
   ENMAX  =  280.000; ENMIN  =  194.016 eV                                      
   ICORE  =        2    local potential                                         
   LCOR   =        T    correct aug charges                                     
   LPAW   =        T    paw PP                                                  
   EAUG   =  335.092                                                            
   DEXC   =     .000                                                            
   RMAX   =    2.867    core radius for proj-oper                               
   RAUG   =    1.300    factor for augmentation sphere                          
   RDEP   =    1.954    radius for radial grids                                 
   QCUT   =   -4.360; QGAM   =    8.721    optimization parameters              
                                                                                
   Description                                                                  
     l     E      TYP  RCUT    TYP  RCUT                                        
     0   .000     23  1.900                                                     
     0   .000     23  1.900                                                     
     1   .000     23  1.900                                                     
     1   .000     23  1.900                                                     
     2   .000     23  1.900                                                     
  local pseudopotential read in
  partial core-charges read in
  atomic valenz-charges read in
  non local Contribution for L=           0  read in
    real space projection operators read in
  non local Contribution for L=           0  read in
    real space projection operators read in
  non local Contribution for L=           1  read in
    real space projection operators read in
  non local Contribution for L=           1  read in
    real space projection operators read in
    PAW grid and wavefunctions read in
 
   number of l-projection  operators is LMAX  =           4
   number of lm-projection operators is LMMAX =           8
 

 ----------------------------------------------------------------------------- 
|                                                                             |
|  ADVICE TO THIS USER RUNNING 'VASP/VAMP'   (HEAR YOUR MASTER'S VOICE ...):  |
|                                                                             |
|      You have a (more or less) 'large supercell' and for larger cells       |
|      it might be more efficient to use real space projection operators      |
|      So try LREAL= Auto  in the INCAR   file.                               |
|      Mind: If you want to do a very accurate calculations keep the          |
|      reciprocal projection scheme          (i.e. LREAL=.FALSE.)             |
|                                                                             |
 ----------------------------------------------------------------------------- 

 PAW_PBE V 08Apr2002                    :
 energy of atom  1       EATOM= -170.8679
 kinetic energy error for atom=    0.0047 (will be added to EATOM!!)
 PAW_PBE Mo 08Apr2002                   :
 energy of atom  2       EATOM= -217.5180
 kinetic energy error for atom=    0.0215 (will be added to EATOM!!)
 PAW_PBE W 08Apr2002                    :
 energy of atom  3       EATOM= -204.6100
 kinetic energy error for atom=    0.0205 (will be added to EATOM!!)
  PAW_PBE S 17Jan2003                   :
 energy of atom  4       EATOM= -276.8230
 kinetic energy error for atom=    0.0122 (will be added to EATOM!!)
 
 
 POSCAR: crystal structure from VMoWS2 with Hexag
  positions in cartesian coordinates
  No initial velocities read in
 exchange correlation table for  LEXCH =        8
   RHO(1)=    0.500       N(1)  =     2000
   RHO(2)=  100.500       N(2)  =     4000
 


--------------------------------------------------------------------------------------------------------


 ion  position               nearest neighbor table
   1  0.000  0.667  0.000-  27 2.34  12 2.34  14 2.36  15 2.36  24 2.36  25 2.36
   2  0.333  0.000  0.000-  11 2.34  20 2.34  17 2.36  16 2.36  15 2.36  14 2.36
   3  0.000  0.000  0.000-  23 2.34  14 2.34  11 2.36  10 2.36  27 2.36  26 2.36
   4  0.667  0.333  0.000-  19 2.34  22 2.34  25 2.36  24 2.36  17 2.36  16 2.36   5 3.34   9 3.34
                             8 3.34   6 3.34
   5  1.000  0.333  0.000-  25 2.34  10 2.34  13 2.36  12 2.36  22 2.36  23 2.36   4 3.34   6 3.34
                             8 3.36   7 3.36
   6  0.333  0.333  0.000-  13 2.34  16 2.34  19 2.36  18 2.36  11 2.36  10 2.36   7 3.34   5 3.34
                             4 3.34   9 3.36
   7  0.333  0.667  0.000-  15 2.34  18 2.34  20 2.36  21 2.36  13 2.36  12 2.36   6 3.34   9 3.34
                             8 3.36   5 3.36
   8  0.667  0.000  0.000-  17 2.34  26 2.34  23 2.36  22 2.36  21 2.36  20 2.36   9 3.34   4 3.34
                             5 3.36   7 3.36
   9  0.667  0.667  0.000-  21 2.34  24 2.34  27 2.36  26 2.36  19 2.36  18 2.36   8 3.34   4 3.34
                             7 3.34   6 3.36
  10  0.111  0.222  0.955-   5 2.34   3 2.36   6 2.36
  11  0.222  0.111  0.045-   2 2.34   3 2.36   6 2.36
  12  0.111  0.556  0.955-   1 2.34   5 2.36   7 2.36
  13  0.222  0.444  0.045-   6 2.34   5 2.36   7 2.36
  14  0.111  0.889  0.955-   3 2.34   1 2.36   2 2.36
  15  0.222  0.777  0.045-   7 2.34   1 2.36   2 2.36
  16  0.444  0.222  0.955-   6 2.34   2 2.36   4 2.36
  17  0.556  0.111  0.045-   8 2.34   2 2.36   4 2.36
  18  0.444  0.556  0.955-   7 2.34   6 2.36   9 2.36
  19  0.556  0.444  0.045-   4 2.34   6 2.36   9 2.36
  20  0.444  0.889  0.955-   2 2.34   7 2.36   8 2.36
  21  0.556  0.777  0.045-   9 2.34   7 2.36   8 2.36
  22  0.777  0.222  0.955-   4 2.34   8 2.36   5 2.36
  23  0.889  0.111  0.045-   3 2.34   8 2.36   5 2.36
  24  0.777  0.556  0.955-   9 2.34   4 2.36   1 2.36
  25  0.889  0.444  0.045-   5 2.34   4 2.36   1 2.36
  26  0.777  0.889  0.955-   8 2.34   9 2.36   3 2.36
  27  0.889  0.777  0.045-   1 2.34   9 2.36   3 2.36
 

IMPORTANT INFORMATION: All symmetrisations will be switched off!
NOSYMM: (Re-)initialisation of all symmetry stuff for point group C_1.

 
 
 KPOINTS: K-POINTS 	#supercell of CrS2 in hexagona

Automatic generation of k-mesh.
Space group operators:
 irot       det(A)        alpha          n_x          n_y          n_z        tau_x        tau_y        tau_z
    1     1.000000     0.000000     1.000000     0.000000     0.000000     0.000000     0.000000     0.000000
 
 Subroutine IBZKPT returns following result:
 ===========================================
 
 Found     34 irreducible k-points:
 
 Following reciprocal coordinates:
            Coordinates               Weight
  0.000000  0.000000  0.000000      1.000000
  0.125000  0.000000  0.000000      2.000000
  0.250000  0.000000  0.000000      2.000000
  0.375000  0.000000  0.000000      2.000000
  0.500000  0.000000  0.000000      1.000000
  0.000000  0.125000  0.000000      2.000000
  0.125000  0.125000  0.000000      2.000000
  0.250000  0.125000  0.000000      2.000000
  0.375000  0.125000  0.000000      2.000000
  0.500000  0.125000  0.000000      2.000000
 -0.375000  0.125000  0.000000      2.000000
 -0.250000  0.125000  0.000000      2.000000
 -0.125000  0.125000  0.000000      2.000000
  0.000000  0.250000  0.000000      2.000000
  0.125000  0.250000  0.000000      2.000000
  0.250000  0.250000  0.000000      2.000000
  0.375000  0.250000  0.000000      2.000000
  0.500000  0.250000  0.000000      2.000000
 -0.375000  0.250000  0.000000      2.000000
 -0.250000  0.250000  0.000000      2.000000
 -0.125000  0.250000  0.000000      2.000000
 -0.000000  0.375000  0.000000      2.000000
  0.125000  0.375000  0.000000      2.000000
  0.250000  0.375000  0.000000      2.000000
  0.375000  0.375000  0.000000      2.000000
  0.500000  0.375000  0.000000      2.000000
 -0.375000  0.375000  0.000000      2.000000
 -0.250000  0.375000  0.000000      2.000000
 -0.125000  0.375000  0.000000      2.000000
  0.000000  0.500000  0.000000      1.000000
  0.125000  0.500000  0.000000      2.000000
  0.250000  0.500000  0.000000      2.000000
  0.375000  0.500000  0.000000      2.000000
  0.500000  0.500000  0.000000      1.000000
 
 Following cartesian coordinates:
            Coordinates               Weight
  0.000000  0.000000  0.000000      1.000000
  0.007209  0.012401  0.000000      2.000000
  0.014418  0.024802  0.000000      2.000000
  0.021626  0.037202  0.000000      2.000000
  0.028835  0.049603  0.000000      1.000000
 -0.007209  0.012401  0.000000      2.000000
  0.000000  0.024802  0.000000      2.000000
  0.007209  0.037202  0.000000      2.000000
  0.014418  0.049603  0.000000      2.000000
  0.021626  0.062004  0.000000      2.000000
 -0.028835 -0.024802  0.000000      2.000000
 -0.021626 -0.012401  0.000000      2.000000
 -0.014418  0.000000  0.000000      2.000000
 -0.014418  0.024802  0.000000      2.000000
 -0.007209  0.037202  0.000000      2.000000
  0.000000  0.049603  0.000000      2.000000
  0.007209  0.062004  0.000000      2.000000
  0.014418  0.074405  0.000000      2.000000
 -0.036044 -0.012401  0.000000      2.000000
 -0.028835  0.000000  0.000000      2.000000
 -0.021626  0.012401  0.000000      2.000000
 -0.021626  0.037202  0.000000      2.000000
 -0.014418  0.049603  0.000000      2.000000
 -0.007209  0.062004  0.000000      2.000000
  0.000000  0.074405  0.000000      2.000000
  0.007209  0.086806  0.000000      2.000000
 -0.043253  0.000000  0.000000      2.000000
 -0.036044  0.012401  0.000000      2.000000
 -0.028835  0.024802  0.000000      2.000000
 -0.028835  0.049603  0.000000      1.000000
 -0.021626  0.062004  0.000000      2.000000
 -0.014418  0.074405  0.000000      2.000000
 -0.007209  0.086806  0.000000      2.000000
  0.000000  0.099206  0.000000      1.000000
 


--------------------------------------------------------------------------------------------------------




 Dimension of arrays:
   k-points           NKPTS =     34   k-points in BZ     NKDIM =     34   number of bands    NBANDS=    120
   number of dos      NEDOS =    301   number of ions     NIONS =     27
   non local maximal  LDIM  =      6   non local SUM 2l+1 LMDIM =     18
   total plane-waves  NPLWV = 222264
   max r-space proj   IRMAX =      1   max aug-charges    IRDMAX=   5642
   dimension x,y,z NGX =    42 NGY =   42 NGZ =  126
   dimension x,y,z NGXF=    84 NGYF=   84 NGZF=  252
   support grid    NGXF=    84 NGYF=   84 NGZF=  252
   ions per type =               3   3   3  18
 NGX,Y,Z   is equivalent  to a cutoff of   6.96,  6.96,  6.98 a.u.
 NGXF,Y,Z  is equivalent  to a cutoff of  13.92, 13.92, 13.96 a.u.


 I would recommend the setting:
   dimension x,y,z NGX =    41 NGY =   41 NGZ =  123
 SYSTEM =  unknown system                          
 POSCAR =  crystal structure from VMoWS2 with Hexag

 Startparameter for this run:
   NWRITE =      2    write-flag & timer
   PREC   = normal    normal or accurate (medium, high low for compatibility)
   ISTART =      0    job   : 0-new  1-cont  2-samecut
   ICHARG =      2    charge: 1-file 2-atom 10-const
   ISPIN  =      1    spin polarized calculation?
   LNONCOLLINEAR =      F non collinear calculations
   LSORBIT =      F    spin-orbit coupling
   INIWAV =      1    electr: 0-lowe 1-rand  2-diag
   LASPH  =      F    aspherical Exc in radial PAW
   METAGGA=      F    non-selfconsistent MetaGGA calc.

 Electronic Relaxation 1
   ENCUT  =  280.0 eV  20.58 Ry    4.54 a.u.  13.68 13.68 40.93*2*pi/ulx,y,z
   ENINI  =  280.0     initial cutoff
   ENAUG  =  373.4 eV  augmentation charge cutoff
   NELM   =     60;   NELMIN=  2; NELMDL= -5     # of ELM steps 
   EDIFF  = 0.1E-03   stopping-criterion for ELM
   LREAL  =      F    real-space projection
   NLSPLINE    = F    spline interpolate recip. space projectors
   LCOMPAT=      F    compatible to vasp.4.4
   GGA_COMPAT  = T    GGA compatible to vasp.4.4-vasp.4.6
   LMAXPAW     = -100 max onsite density
   LMAXMIX     =    2 max onsite mixed and CHGCAR
   VOSKOWN=      0    Vosko Wilk Nusair interpolation
   ROPT   =    0.00000   0.00000   0.00000   0.00000
 Ionic relaxation
   EDIFFG = 0.1E-02   stopping-criterion for IOM
   NSW    =    100    number of steps for IOM
   NBLOCK =      1;   KBLOCK =    100    inner block; outer block 
   IBRION =      1    ionic relax: 0-MD 1-quasi-New 2-CG
   NFREE  =      0    steps in history (QN), initial steepest desc. (CG)
   ISIF   =      3    stress and relaxation
   IWAVPR =     11    prediction:  0-non 1-charg 2-wave 3-comb
   ISYM   =      0    0-nonsym 1-usesym 2-fastsym
   LCORR  =      T    Harris-Foulkes like correction to forces

   POTIM  = 0.5000    time-step for ionic-motion
   TEIN   =    0.0    initial temperature
   TEBEG  =    0.0;   TEEND  =   0.0 temperature during run
   SMASS  =  -3.00    Nose mass-parameter (am)
   estimated Nose-frequenzy (Omega)   =  0.10E-29 period in steps =****** mass=  -0.230E-26a.u.
   SCALEE = 1.0000    scale energy and forces
   NPACO  =    256;   APACO  = 16.0  distance and # of slots for P.C.
   PSTRESS=    0.0 pullay stress

  Mass of Ions in am
   POMASS =  50.94 95.94183.85 32.07
  Ionic Valenz
   ZVAL   =   5.00  6.00  6.00  6.00
  Atomic Wigner-Seitz radii
   RWIGS  =  -1.00 -1.00 -1.00 -1.00
  virtual crystal weights 
   VCA    =   1.00  1.00  1.00  1.00
   NELECT =     159.0000    total number of electrons
   NUPDOWN=      -1.0000    fix difference up-down

 DOS related values:
   EMIN   =  10.00;   EMAX   =-10.00  energy-range for DOS
   EFERMI =   0.00
   ISMEAR =     0;   SIGMA  =   0.20  broadening in eV -4-tet -1-fermi 0-gaus

 Electronic relaxation 2 (details)
   IALGO  =     38    algorithm
   LDIAG  =      T    sub-space diagonalisation (order eigenvalues)
   LSUBROT=      F    optimize rotation matrix (better conditioning)
   TURBO    =      0    0=normal 1=particle mesh
   IRESTART =      0    0=no restart 2=restart with 2 vectors
   NREBOOT  =      0    no. of reboots
   NMIN     =      0    reboot dimension
   EREF     =   0.00    reference energy to select bands
   IMIX   =      4    mixing-type and parameters
     AMIX     =   0.40;   BMIX     =  1.00
     AMIX_MAG =   1.60;   BMIX_MAG =  1.00
     AMIN     =   0.10
     WC   =   100.;   INIMIX=   1;  MIXPRE=   1;  MAXMIX= -45

 Intra band minimization:
   WEIMIN = 0.0010     energy-eigenvalue tresh-hold
   EBREAK =  0.21E-06  absolut break condition
   DEPER  =   0.30     relativ break condition  

   TIME   =   0.40     timestep for ELM

  volume/ion in A,a.u.               =      97.10       655.29
  Fermi-wavevector in a.u.,A,eV,Ry     =   0.643191  1.215456  5.628665  0.413695
  Thomas-Fermi vector in A             =   1.710110
 
 Write flags
   LWAVE  =      F    write WAVECAR
   LCHARG =      F    write CHGCAR
   LVTOT  =      F    write LOCPOT, total local potential
   LVHAR  =      F    write LOCPOT, Hartree potential only
   LELF   =      F    write electronic localiz. function (ELF)
   LORBIT =      0    0 simple, 1 ext, 2 COOP (PROOUT)


 Dipole corrections
   LMONO  =      F    monopole corrections only (constant potential shift)
   LDIPOL =      F    correct potential (dipole corrections)
   IDIPOL =      0    1-x, 2-y, 3-z, 4-all directions 
   EPSILON=  1.0000000 bulk dielectric constant

 Exchange correlation treatment:
   GGA     =    --    GGA type
   LEXCH   =     8    internal setting for exchange type
   VOSKOWN=      0    Vosko Wilk Nusair interpolation
   LHFCALC =     F    Hartree Fock is set to
   LHFONE  =     F    Hartree Fock one center treatment
   AEXX    =    0.0000 exact exchange contribution

 Linear response parameters
   LEPSILON=     F    determine dielectric tensor
   LRPA    =     F    only Hartree local field effects (RPA)
   LNABLA  =     F    use nabla operator in PAW spheres
   LVEL    =     F    velocity operator in full k-point grid
   LINTERFAST=   F  fast interpolation
   KINTER  =     0    interpolate to denser k-point grid
   CSHIFT  =0.1000    complex shift for real part using Kramers Kronig
   OMEGAMAX=  -1.0    maximum frequency
   DEG_THRESHOLD= 0.2000000E-02 threshold for treating states as degnerate
   RTIME   =    0.100 relaxation time in fs

 Orbital magnetization related:
   ORBITALMAG=     F  switch on orbital magnetization
   LCHIMAG   =     F  perturbation theory with respect to B field
   DQ        =  0.001000  dq finite difference perturbation B field



--------------------------------------------------------------------------------------------------------


 quasi-Newton-method for relaxation of ions
 charge density and potential will be updated during run
 non-spin polarized calculation
 Variant of blocked Davidson
 Davidson routine will perform the subspace rotation
 perform sub-space diagonalisation
    after iterative eigenvector-optimisation
 modified Broyden-mixing scheme, WC =      100.0
 initial mixing is a Kerker type mixing with AMIX =  0.4000 and BMIX =      1.0000
 Hartree-type preconditioning will be used
 using additional bands           40
 reciprocal scheme for non local part
 use partial core corrections
 calculate Harris-corrections to forces 
   (improved forces if not selfconsistent)
 use gradient corrections 
 use of overlap-Matrix (Vanderbilt PP)
 Gauss-broadening in eV      SIGMA  =   0.20


--------------------------------------------------------------------------------------------------------


  energy-cutoff  :      280.00
  volume of cell :     2621.81
      direct lattice vectors                 reciprocal lattice vectors
     8.669999960  5.039999894  0.000000000     0.057670129  0.099206348  0.000000000
    -8.669999821  5.040000133  0.000000000    -0.057670126  0.099206350  0.000000000
     0.000000000  0.000000000 30.000000000     0.000000000  0.000000000  0.033333333

  length of vectors
    10.028484344 10.028484344 30.000000000     0.114750788  0.114750788  0.033333333


 
 k-points in units of 2pi/SCALE and weight: K-POINTS 	#supercell of CrS2 in hexagona
   0.00000000  0.00000000  0.00000000       0.016
   0.00720877  0.01240079  0.00000000       0.031
   0.01441753  0.02480159  0.00000000       0.031
   0.02162630  0.03720238  0.00000000       0.031
   0.02883506  0.04960317  0.00000000       0.016
  -0.00720877  0.01240079  0.00000000       0.031
   0.00000000  0.02480159  0.00000000       0.031
   0.00720877  0.03720238  0.00000000       0.031
   0.01441753  0.04960317  0.00000000       0.031
   0.02162630  0.06200397  0.00000000       0.031
  -0.02883506 -0.02480159  0.00000000       0.031
  -0.02162630 -0.01240079  0.00000000       0.031
  -0.01441753  0.00000000  0.00000000       0.031
  -0.01441753  0.02480159  0.00000000       0.031
  -0.00720877  0.03720238  0.00000000       0.031
   0.00000000  0.04960317  0.00000000       0.031
   0.00720877  0.06200397  0.00000000       0.031
   0.01441753  0.07440476  0.00000000       0.031
  -0.03604383 -0.01240079  0.00000000       0.031
  -0.02883506  0.00000000  0.00000000       0.031
  -0.02162630  0.01240079  0.00000000       0.031
  -0.02162630  0.03720238  0.00000000       0.031
  -0.01441753  0.04960317  0.00000000       0.031
  -0.00720877  0.06200397  0.00000000       0.031
   0.00000000  0.07440476  0.00000000       0.031
   0.00720877  0.08680556  0.00000000       0.031
  -0.04325260  0.00000000  0.00000000       0.031
  -0.03604383  0.01240079  0.00000000       0.031
  -0.02883506  0.02480159  0.00000000       0.031
  -0.02883506  0.04960317  0.00000000       0.016
  -0.02162630  0.06200397  0.00000000       0.031
  -0.01441753  0.07440476  0.00000000       0.031
  -0.00720876  0.08680556  0.00000000       0.031
   0.00000000  0.09920635  0.00000000       0.016
 
 k-points in reciprocal lattice and weights: K-POINTS 	#supercell of CrS2 in hexagona
   0.00000000  0.00000000  0.00000000       0.016
   0.12500000  0.00000000  0.00000000       0.031
   0.25000000  0.00000000  0.00000000       0.031
   0.37500000  0.00000000  0.00000000       0.031
   0.50000000  0.00000000  0.00000000       0.016
   0.00000000  0.12500000  0.00000000       0.031
   0.12500000  0.12500000  0.00000000       0.031
   0.25000000  0.12500000  0.00000000       0.031
   0.37500000  0.12500000  0.00000000       0.031
   0.50000000  0.12500000  0.00000000       0.031
  -0.37500000  0.12500000  0.00000000       0.031
  -0.25000000  0.12500000  0.00000000       0.031
  -0.12500000  0.12500000  0.00000000       0.031
   0.00000000  0.25000000  0.00000000       0.031
   0.12500000  0.25000000  0.00000000       0.031
   0.25000000  0.25000000  0.00000000       0.031
   0.37500000  0.25000000  0.00000000       0.031
   0.50000000  0.25000000  0.00000000       0.031
  -0.37500000  0.25000000  0.00000000       0.031
  -0.25000000  0.25000000  0.00000000       0.031
  -0.12500000  0.25000000  0.00000000       0.031
  -0.00000000  0.37500000  0.00000000       0.031
   0.12500000  0.37500000  0.00000000       0.031
   0.25000000  0.37500000  0.00000000       0.031
   0.37500000  0.37500000  0.00000000       0.031
   0.50000000  0.37500000  0.00000000       0.031
  -0.37500000  0.37500000  0.00000000       0.031
  -0.25000000  0.37500000  0.00000000       0.031
  -0.12500000  0.37500000  0.00000000       0.031
   0.00000000  0.50000000  0.00000000       0.016
   0.12500000  0.50000000  0.00000000       0.031
   0.25000000  0.50000000  0.00000000       0.031
   0.37500000  0.50000000  0.00000000       0.031
   0.50000000  0.50000000  0.00000000       0.016
 
 position of ions in fractional coordinates (direct lattice) 
   0.00000000  0.66666669  0.00000000
   0.33333334  0.00000000  0.00000000
   0.00000000  0.00000000  0.00000000
   0.66666669  0.33333334  0.00000000
   1.00000000  0.33333334  0.00000000
   0.33333334  0.33333334  0.00000000
   0.33333334  0.66666669  0.00000000
   0.66666669  0.00000000  0.00000000
   0.66666669  0.66666669  0.00000000
   0.11068511  0.22244981  0.95539999
   0.22244981  0.11068511  0.04460000
   0.11068511  0.55578315  0.95539999
   0.22244981  0.44401845  0.04460000
   0.11068511  0.88911647  0.95539999
   0.22244981  0.77735180  0.04460000
   0.44401845  0.22244981  0.95539999
   0.55578315  0.11068511  0.04460000
   0.44401845  0.55578315  0.95539999
   0.55578315  0.44401845  0.04460000
   0.44401845  0.88911647  0.95539999
   0.55578315  0.77735180  0.04460000
   0.77735180  0.22244981  0.95539999
   0.88911647  0.11068511  0.04460000
   0.77735180  0.55578315  0.95539999
   0.88911647  0.44401845  0.04460000
   0.77735180  0.88911647  0.95539999
   0.88911647  0.77735180  0.04460000
 
 position of ions in cartesian coordinates  (Angst):
  -5.78000005  3.36000019  0.00000000
   2.89000007  1.68000002  0.00000000
   0.00000000  0.00000000  0.00000000
   2.89000012  5.04000012  0.00000000
   5.77999993  6.71999999  0.00000000
   0.00000005  3.36000011  0.00000000
  -2.88999998  5.04000020  0.00000000
   5.78000015  3.36000003  0.00000000
   0.00000009  6.72000022  0.00000000
  -0.96899991  1.67900001 28.66199970
   0.96899995  1.67899998  1.33799996
  -3.85899993  3.35900011 28.66199970
  -1.92100007  3.35900008  1.33799996
  -6.74899970  5.03900005 28.66199970
  -4.81100010  5.03900017  1.33799996
   1.92100017  3.35900003 28.66199970
   3.85900003  3.35900000  1.33799996
  -0.96899986  5.03900012 28.66199970
   0.96900000  5.03900009  1.33799996
  -3.85899963  6.71900006 28.66199970
  -1.92100003  6.71900019  1.33799996
   4.81100024  5.03900004 28.66199970
   6.74899984  5.03899987  1.33799996
   1.92100021  6.71900014 28.66199970
   3.85899981  6.71899996  1.33799996
  -0.96899956  8.39900008 28.66199970
   0.96899979  8.39900005  1.33799996
 


--------------------------------------------------------------------------------------------------------


 k-point  1 :   0.0000 0.0000 0.0000  plane waves:   27959
 k-point  2 :   0.1250 0.0000 0.0000  plane waves:   27889
 k-point  3 :   0.2500 0.0000 0.0000  plane waves:   27875
 k-point  4 :   0.3750 0.0000 0.0000  plane waves:   27893
 k-point  5 :   0.5000 0.0000 0.0000  plane waves:   27932
 k-point  6 :   0.0000 0.1250 0.0000  plane waves:   27889
 k-point  7 :   0.1250 0.1250 0.0000  plane waves:   27906
 k-point  8 :   0.2500 0.1250 0.0000  plane waves:   27898
 k-point  9 :   0.3750 0.1250 0.0000  plane waves:   27888
 k-point 10 :   0.5000 0.1250 0.0000  plane waves:   27873
 k-point 11 :  -0.3750 0.1250 0.0000  plane waves:   27874
 k-point 12 :  -0.2500 0.1250 0.0000  plane waves:   27895
 k-point 13 :  -0.1250 0.1250 0.0000  plane waves:   27879
 k-point 14 :   0.0000 0.2500 0.0000  plane waves:   27875
 k-point 15 :   0.1250 0.2500 0.0000  plane waves:   27898
 k-point 16 :   0.2500 0.2500 0.0000  plane waves:   27920
 k-point 17 :   0.3750 0.2500 0.0000  plane waves:   27901
 k-point 18 :   0.5000 0.2500 0.0000  plane waves:   27875
 k-point 19 :  -0.3750 0.2500 0.0000  plane waves:   27894
 k-point 20 :  -0.2500 0.2500 0.0000  plane waves:   27870
 k-point 21 :  -0.1250 0.2500 0.0000  plane waves:   27895
 k-point 22 :  -0.0000 0.3750 0.0000  plane waves:   27893
 k-point 23 :   0.1250 0.3750 0.0000  plane waves:   27888
 k-point 24 :   0.2500 0.3750 0.0000  plane waves:   27901
 k-point 25 :   0.3750 0.3750 0.0000  plane waves:   27860
 k-point 26 :   0.5000 0.3750 0.0000  plane waves:   27895
 k-point 27 :  -0.3750 0.3750 0.0000  plane waves:   27858
 k-point 28 :  -0.2500 0.3750 0.0000  plane waves:   27894
 k-point 29 :  -0.1250 0.3750 0.0000  plane waves:   27874
 k-point 30 :   0.0000 0.5000 0.0000  plane waves:   27932
 k-point 31 :   0.1250 0.5000 0.0000  plane waves:   27873
 k-point 32 :   0.2500 0.5000 0.0000  plane waves:   27875
 k-point 33 :   0.3750 0.5000 0.0000  plane waves:   27895
 k-point 34 :   0.5000 0.5000 0.0000  plane waves:   27910

 maximum and minimum number of plane-waves per node :     27959    27858

 maximum number of plane-waves:     27959
 maximum index in each direction: 
   IXMAX=   14   IYMAX=   13   IZMAX=   40
   IXMIN=  -14   IYMIN=  -14   IZMIN=  -40

 WARNING: aliasing errors must be expected set NGX to  58 to avoid them
 WARNING: aliasing errors must be expected set NGY to  56 to avoid them
 WARNING: aliasing errors must be expected set NGZ to 162 to avoid them
 aliasing errors are usually negligible using standard VASP settings
 and one can safely disregard these warnings

 serial   3D FFT for wavefunctions

 total amount of memory used by VASP on root node   650782. kBytes
========================================================================

   base      :      30000. kBytes
   nonl-proj :     559647. kBytes
   fftplans  :       2414. kBytes
   grid      :      12150. kBytes
   one-center:        419. kBytes
   wavefun   :      46152. kBytes
 
     INWAV:  cpu time    0.0000: real time    0.0000
 Broyden mixing: mesh for mixing (old mesh)
   NGX = 27   NGY = 27   NGZ = 81
  (NGX  = 84   NGY  = 84   NGZ  =252)
  gives a total of  59049 points

 initial charge density was supplied:
 charge density of overlapping atoms calculated
 number of electron     159.0000000 magnetization 
 keeping initial charge density in first step


--------------------------------------------------------------------------------------------------------


 Maximum index for augmentation-charges          146 (set IRDMAX)


--------------------------------------------------------------------------------------------------------


 First call to EWALD:  gamma=   0.129
 Maximum number of real-space cells 4x 4x 2
 Maximum number of reciprocal cells 2x 2x 5

 FEWALD executed in parallel
    FEWALD:  cpu time    0.0021: real time    0.0021


----------------------------------------- Iteration    1(   1)  ---------------------------------------


    POTLOK:  cpu time    0.0387: real time    0.0388
    SETDIJ:  cpu time    0.0031: real time    0.0032
     EDDAV:  cpu time   22.2149: real time   22.2827
       DOS:  cpu time    0.0012: real time    0.0012
    --------------------------------------------
      LOOP:  cpu time   22.2630: real time   22.3330

 eigenvalue-minimisations  :  8160
 total energy-change (2. order) : 0.1125658E+04  (-0.3598110E+04)
 number of electron     159.0000000 magnetization 
 augmentation part      159.0000000 magnetization 

 Free energy of the ion-electron system (eV)
  ---------------------------------------------------
  alpha Z        PSCENC =        81.65567618
  Ewald energy   TEWEN  =     41891.17177387
  -Hartree energ DENC   =    -47723.81767225
  -exchange      EXHF   =         0.00000000
  -V(xc)+E(xc)   XCENC  =      -242.92468723
  PAW double counting   =      3467.42045192    -2871.19716117
  entropy T*S    EENTRO =        -0.53846410
  eigenvalues    EBANDS =      -237.55447601
  atomic energy  EATOM  =      6761.44252427
  Solvation  Ediel_sol  =         0.00000000
  ---------------------------------------------------
  free energy    TOTEN  =      1125.65796548 eV

  energy without entropy =     1126.19642958  energy(sigma->0) =     1125.92719753


--------------------------------------------------------------------------------------------------------




----------------------------------------- Iteration    1(   2)  ---------------------------------------


     EDDAV:  cpu time   28.7919: real time   28.8615
       DOS:  cpu time    0.0010: real time    0.0010
    --------------------------------------------
      LOOP:  cpu time   28.7940: real time   28.8713

 eigenvalue-minimisations  : 11240
 total energy-change (2. order) :-0.1125716E+04  (-0.1081786E+04)
 number of electron     159.0000000 magnetization 
 augmentation part      159.0000000 magnetization 

 Free energy of the ion-electron system (eV)
  ---------------------------------------------------
  alpha Z        PSCENC =        81.65567618
  Ewald energy   TEWEN  =     41891.17177387
  -Hartree energ DENC   =    -47723.81767225
  -exchange      EXHF   =         0.00000000
  -V(xc)+E(xc)   XCENC  =      -242.92468723
  PAW double counting   =      3467.42045192    -2871.19716117
  entropy T*S    EENTRO =        -0.21194886
  eigenvalues    EBANDS =     -1363.59669740
  atomic energy  EATOM  =      6761.44252427
  Solvation  Ediel_sol  =         0.00000000
  ---------------------------------------------------
  free energy    TOTEN  =        -0.05774067 eV

  energy without entropy =        0.15420820  energy(sigma->0) =        0.04823376


--------------------------------------------------------------------------------------------------------




----------------------------------------- Iteration    1(   3)  ---------------------------------------


     EDDAV:  cpu time   28.1519: real time   28.2200
       DOS:  cpu time    0.0010: real time    0.0010
    --------------------------------------------
      LOOP:  cpu time   28.1537: real time   28.2278

 eigenvalue-minimisations  : 10880
 total energy-change (2. order) :-0.1995204E+03  (-0.1915534E+03)
 number of electron     159.0000000 magnetization 
 augmentation part      159.0000000 magnetization 

 Free energy of the ion-electron system (eV)
  ---------------------------------------------------
  alpha Z        PSCENC =        81.65567618
  Ewald energy   TEWEN  =     41891.17177387
  -Hartree energ DENC   =    -47723.81767225
  -exchange      EXHF   =         0.00000000
  -V(xc)+E(xc)   XCENC  =      -242.92468723
  PAW double counting   =      3467.42045192    -2871.19716117
  entropy T*S    EENTRO =        -0.26359451
  eigenvalues    EBANDS =     -1563.06540202
  atomic energy  EATOM  =      6761.44252427
  Solvation  Ediel_sol  =         0.00000000
  ---------------------------------------------------
  free energy    TOTEN  =      -199.57809093 eV

  energy without entropy =     -199.31449642  energy(sigma->0) =     -199.44629368


--------------------------------------------------------------------------------------------------------




----------------------------------------- Iteration    1(   4)  ---------------------------------------


     EDDAV:  cpu time   30.4009: real time   30.4743
       DOS:  cpu time    0.0010: real time    0.0010
    --------------------------------------------
      LOOP:  cpu time   30.4031: real time   30.4820

 eigenvalue-minimisations  : 11960
 total energy-change (2. order) :-0.9375389E+01  (-0.9084705E+01)
 number of electron     159.0000000 magnetization 
 augmentation part      159.0000000 magnetization 

 Free energy of the ion-electron system (eV)
  ---------------------------------------------------
  alpha Z        PSCENC =        81.65567618
  Ewald energy   TEWEN  =     41891.17177387
  -Hartree energ DENC   =    -47723.81767225
  -exchange      EXHF   =         0.00000000
  -V(xc)+E(xc)   XCENC  =      -242.92468723
  PAW double counting   =      3467.42045192    -2871.19716117
  entropy T*S    EENTRO =        -0.29179869
  eigenvalues    EBANDS =     -1572.41258706
  atomic energy  EATOM  =      6761.44252427
  Solvation  Ediel_sol  =         0.00000000
  ---------------------------------------------------
  free energy    TOTEN  =      -208.95348016 eV

  energy without entropy =     -208.66168147  energy(sigma->0) =     -208.80758081


--------------------------------------------------------------------------------------------------------




----------------------------------------- Iteration    1(   5)  ---------------------------------------


     EDDAV:  cpu time   29.7396: real time   29.8118
       DOS:  cpu time    0.0011: real time    0.0011
    CHARGE:  cpu time    0.4654: real time    0.4666
    MIXING:  cpu time    0.0018: real time    0.0020
    --------------------------------------------
      LOOP:  cpu time   30.2091: real time   30.2885

 eigenvalue-minimisations  : 11680
 total energy-change (2. order) :-0.3508225E+00  (-0.3498689E+00)
 number of electron     159.0000110 magnetization 
 augmentation part       -9.8026429 magnetization 

 Broyden mixing:
  rms(total) = 0.27509E+01    rms(broyden)= 0.27504E+01
  rms(prec ) = 0.29367E+01
  weight for this iteration     100.00

 Free energy of the ion-electron system (eV)
  ---------------------------------------------------
  alpha Z        PSCENC =        81.65567618
  Ewald energy   TEWEN  =     41891.17177387
  -Hartree energ DENC   =    -47723.81767225
  -exchange      EXHF   =         0.00000000
  -V(xc)+E(xc)   XCENC  =      -242.92468723
  PAW double counting   =      3467.42045192    -2871.19716117
  entropy T*S    EENTRO =        -0.28819097
  eigenvalues    EBANDS =     -1572.76701726
  atomic energy  EATOM  =      6761.44252427
  Solvation  Ediel_sol  =         0.00000000
  ---------------------------------------------------
  free energy    TOTEN  =      -209.30430264 eV

  energy without entropy =     -209.01611166  energy(sigma->0) =     -209.16020715


--------------------------------------------------------------------------------------------------------




----------------------------------------- Iteration    1(   6)  ---------------------------------------


    POTLOK:  cpu time    0.0341: real time    0.0342
    SETDIJ:  cpu time    0.0026: real time    0.0026
     EDDAV:  cpu time   31.4442: real time   31.5201
       DOS:  cpu time    0.0009: real time    0.0009
    CHARGE:  cpu time    0.4641: real time    0.4653
    MIXING:  cpu time    0.0013: real time    0.0016
    --------------------------------------------
      LOOP:  cpu time   31.9483: real time   32.0325

 eigenvalue-minimisations  : 12560
 total energy-change (2. order) :-0.2856763E+02  (-0.1080352E+02)
 number of electron     159.0000107 magnetization 
 augmentation part        7.0794275 magnetization 

 Broyden mixing:
  rms(total) = 0.59491E+01    rms(broyden)= 0.59485E+01
  rms(prec ) = 0.65604E+01
  weight for this iteration     100.00

 eigenvalues of (default mixing * dielectric matrix)
  average eigenvalue GAMMA=   0.2937
  0.2937

 Free energy of the ion-electron system (eV)
  ---------------------------------------------------
  alpha Z        PSCENC =        81.65567618
  Ewald energy   TEWEN  =     41891.17177387
  -Hartree energ DENC   =    -47702.22909393
  -exchange      EXHF   =         0.00000000
  -V(xc)+E(xc)   XCENC  =      -233.61720950
  PAW double counting   =      3676.56560403    -3082.65708735
  entropy T*S    EENTRO =        -0.25235398
  eigenvalues    EBANDS =     -1629.95176423
  atomic energy  EATOM  =      6761.44252427
  Solvation  Ediel_sol  =         0.00000000
  ---------------------------------------------------
  free energy    TOTEN  =      -237.87193064 eV

  energy without entropy =     -237.61957667  energy(sigma->0) =     -237.74575365


--------------------------------------------------------------------------------------------------------




----------------------------------------- Iteration    1(   7)  ---------------------------------------


    POTLOK:  cpu time    0.0313: real time    0.0314
    SETDIJ:  cpu time    0.0024: real time    0.0024
     EDDAV:  cpu time   33.4187: real time   33.4993
       DOS:  cpu time    0.0002: real time    0.0011
    CHARGE:  cpu time    0.4684: real time    0.4695
    MIXING:  cpu time    0.0012: real time    0.0012
    --------------------------------------------
      LOOP:  cpu time   33.9240: real time   34.0144

 eigenvalue-minimisations  : 13440
 total energy-change (2. order) : 0.4130330E+02  (-0.1752299E+02)
 number of electron     159.0000088 magnetization 
 augmentation part       -6.2619737 magnetization 

 Broyden mixing:
  rms(total) = 0.20020E+01    rms(broyden)= 0.20000E+01
  rms(prec ) = 0.22236E+01
  weight for this iteration     100.00

 eigenvalues of (default mixing * dielectric matrix)
  average eigenvalue GAMMA=   0.5521
  0.8931  0.2112

 Free energy of the ion-electron system (eV)
  ---------------------------------------------------
  alpha Z        PSCENC =        81.65567618
  Ewald energy   TEWEN  =     41891.17177387
  -Hartree energ DENC   =    -47739.22548047
  -exchange      EXHF   =         0.00000000
  -V(xc)+E(xc)   XCENC  =      -234.98813608
  PAW double counting   =      3763.81809971    -3177.85316874
  entropy T*S    EENTRO =        -0.35589881
  eigenvalues    EBANDS =     -1542.23401880
  atomic energy  EATOM  =      6761.44252427
  Solvation  Ediel_sol  =         0.00000000
  ---------------------------------------------------
  free energy    TOTEN  =      -196.56862885 eV

  energy without entropy =     -196.21273004  energy(sigma->0) =     -196.39067944


--------------------------------------------------------------------------------------------------------




----------------------------------------- Iteration    1(   8)  ---------------------------------------


    POTLOK:  cpu time    0.0293: real time    0.0306
    SETDIJ:  cpu time    0.0027: real time    0.0028
     EDDAV:  cpu time   30.1978: real time   30.2709
       DOS:  cpu time    0.0011: real time    0.0011
    CHARGE:  cpu time    0.4761: real time    0.4772
    MIXING:  cpu time    0.0011: real time    0.0011
    --------------------------------------------
      LOOP:  cpu time   30.7103: real time   30.7927

 eigenvalue-minimisations  : 11920
 total energy-change (2. order) : 0.7096795E+01  (-0.1763534E+01)
 number of electron     159.0000095 magnetization 
 augmentation part       -6.3733064 magnetization 

 Broyden mixing:
  rms(total) = 0.12523E+01    rms(broyden)= 0.12520E+01
  rms(prec ) = 0.13527E+01
  weight for this iteration     100.00

 eigenvalues of (default mixing * dielectric matrix)
  average eigenvalue GAMMA=   0.5861
  1.1354  0.2312  0.3916

 Free energy of the ion-electron system (eV)
  ---------------------------------------------------
  alpha Z        PSCENC =        81.65567618
  Ewald energy   TEWEN  =     41891.17177387
  -Hartree energ DENC   =    -47762.34019696
  -exchange      EXHF   =         0.00000000
  -V(xc)+E(xc)   XCENC  =      -235.00363508
  PAW double counting   =      3907.15785540    -3322.82417976
  entropy T*S    EENTRO =        -0.31143640
  eigenvalues    EBANDS =     -1510.42021575
  atomic energy  EATOM  =      6761.44252427
  Solvation  Ediel_sol  =         0.00000000
  ---------------------------------------------------
  free energy    TOTEN  =      -189.47183424 eV

  energy without entropy =     -189.16039784  energy(sigma->0) =     -189.31611604


--------------------------------------------------------------------------------------------------------




----------------------------------------- Iteration    1(   9)  ---------------------------------------


    POTLOK:  cpu time    0.0320: real time    0.0321
    SETDIJ:  cpu time    0.0032: real time    0.0032
     EDDAV:  cpu time   33.6864: real time   33.7669
       DOS:  cpu time    0.0012: real time    0.0012
    CHARGE:  cpu time    0.4861: real time    0.4873
    MIXING:  cpu time    0.0012: real time    0.0012
    --------------------------------------------
      LOOP:  cpu time   34.2111: real time   34.3009

 eigenvalue-minimisations  : 13520
 total energy-change (2. order) : 0.1344031E+01  (-0.3030763E+00)
 number of electron     159.0000091 magnetization 
 augmentation part       -5.5503416 magnetization 

 Broyden mixing:
  rms(total) = 0.91180E+00    rms(broyden)= 0.91157E+00
  rms(prec ) = 0.98907E+00
  weight for this iteration     100.00

 eigenvalues of (default mixing * dielectric matrix)
  average eigenvalue GAMMA=   0.7414
  1.8136  0.6218  0.2200  0.3103

 Free energy of the ion-electron system (eV)
  ---------------------------------------------------
  alpha Z        PSCENC =        81.65567618
  Ewald energy   TEWEN  =     41891.17177387
  -Hartree energ DENC   =    -47766.98408167
  -exchange      EXHF   =         0.00000000
  -V(xc)+E(xc)   XCENC  =      -234.10935766
  PAW double counting   =      3977.17244062    -3393.71038616
  entropy T*S    EENTRO =        -0.32134885
  eigenvalues    EBANDS =     -1504.44504343
  atomic energy  EATOM  =      6761.44252427
  Solvation  Ediel_sol  =         0.00000000
  ---------------------------------------------------
  free energy    TOTEN  =      -188.12780282 eV

  energy without entropy =     -187.80645397  energy(sigma->0) =     -187.96712840


--------------------------------------------------------------------------------------------------------




----------------------------------------- Iteration    1(  10)  ---------------------------------------


    POTLOK:  cpu time    0.0309: real time    0.0312
    SETDIJ:  cpu time    0.0024: real time    0.0024
     EDDAV:  cpu time   33.4270: real time   33.5090
       DOS:  cpu time    0.0011: real time    0.0011
    CHARGE:  cpu time    0.4994: real time    0.5006
    MIXING:  cpu time    0.0013: real time    0.0013
    --------------------------------------------
      LOOP:  cpu time   33.9634: real time   34.0544

 eigenvalue-minimisations  : 13440
 total energy-change (2. order) : 0.1191781E+01  (-0.1725554E+00)
 number of electron     159.0000092 magnetization 
 augmentation part       -4.2545281 magnetization 

 Broyden mixing:
  rms(total) = 0.21517E+00    rms(broyden)= 0.21459E+00
  rms(prec ) = 0.22707E+00
  weight for this iteration     100.00

 eigenvalues of (default mixing * dielectric matrix)
  average eigenvalue GAMMA=   0.8385
  1.8539  1.1882  0.6411  0.2205  0.2890

 Free energy of the ion-electron system (eV)
  ---------------------------------------------------
  alpha Z        PSCENC =        81.65567618
  Ewald energy   TEWEN  =     41891.17177387
  -Hartree energ DENC   =    -47780.20513625
  -exchange      EXHF   =         0.00000000
  -V(xc)+E(xc)   XCENC  =      -232.57247780
  PAW double counting   =      4105.43243733    -3523.57596773
  entropy T*S    EENTRO =        -0.35107566
  eigenvalues    EBANDS =     -1489.93377645
  atomic energy  EATOM  =      6761.44252427
  Solvation  Ediel_sol  =         0.00000000
  ---------------------------------------------------
  free energy    TOTEN  =      -186.93602223 eV

  energy without entropy =     -186.58494658  energy(sigma->0) =     -186.76048441


--------------------------------------------------------------------------------------------------------




----------------------------------------- Iteration    1(  11)  ---------------------------------------


    POTLOK:  cpu time    0.0315: real time    0.0316
    SETDIJ:  cpu time    0.0025: real time    0.0025
     EDDAV:  cpu time   33.8327: real time   33.9145
       DOS:  cpu time    0.0011: real time    0.0011
    CHARGE:  cpu time    0.5014: real time    0.5026
    MIXING:  cpu time    0.0013: real time    0.0013
    --------------------------------------------
      LOOP:  cpu time   34.3714: real time   34.4630

 eigenvalue-minimisations  : 13600
 total energy-change (2. order) :-0.8899087E-01  (-0.5895044E-01)
 number of electron     159.0000090 magnetization 
 augmentation part       -4.4478789 magnetization 

 Broyden mixing:
  rms(total) = 0.36996E+00    rms(broyden)= 0.36974E+00
  rms(prec ) = 0.40953E+00
  weight for this iteration     100.00

 eigenvalues of (default mixing * dielectric matrix)
  average eigenvalue GAMMA=   0.8534
  1.8601  1.8601  0.6389  0.2185  0.2841  0.2584

 Free energy of the ion-electron system (eV)
  ---------------------------------------------------
  alpha Z        PSCENC =        81.65567618
  Ewald energy   TEWEN  =     41891.17177387
  -Hartree energ DENC   =    -47790.10320425
  -exchange      EXHF   =         0.00000000
  -V(xc)+E(xc)   XCENC  =      -232.24348660
  PAW double counting   =      4151.65358161    -3569.91371995
  entropy T*S    EENTRO =        -0.33815159
  eigenvalues    EBANDS =     -1480.35000665
  atomic energy  EATOM  =      6761.44252427
  Solvation  Ediel_sol  =         0.00000000
  ---------------------------------------------------
  free energy    TOTEN  =      -187.02501311 eV

  energy without entropy =     -186.68686152  energy(sigma->0) =     -186.85593731


--------------------------------------------------------------------------------------------------------




----------------------------------------- Iteration    1(  12)  ---------------------------------------


    POTLOK:  cpu time    0.0314: real time    0.0317
    SETDIJ:  cpu time    0.0025: real time    0.0025
     EDDAV:  cpu time   32.1696: real time   32.2475
       DOS:  cpu time    0.0011: real time    0.0011
    CHARGE:  cpu time    0.4994: real time    0.5006
    MIXING:  cpu time    0.0013: real time    0.0014
    --------------------------------------------
      LOOP:  cpu time   32.7065: real time   32.7934

 eigenvalue-minimisations  : 12840
 total energy-change (2. order) : 0.7676979E-01  (-0.7023137E-01)
 number of electron     159.0000088 magnetization 
 augmentation part       -4.4525398 magnetization 

 Broyden mixing:
  rms(total) = 0.32628E+00    rms(broyden)= 0.32607E+00
  rms(prec ) = 0.36156E+00
  weight for this iteration     100.00

 eigenvalues of (default mixing * dielectric matrix)
  average eigenvalue GAMMA=   0.8067
  1.9638  1.9638  0.6386  0.3979  0.2983  0.2197  0.1650

 Free energy of the ion-electron system (eV)
  ---------------------------------------------------
  alpha Z        PSCENC =        81.65567618
  Ewald energy   TEWEN  =     41891.17177387
  -Hartree energ DENC   =    -47797.32403073
  -exchange      EXHF   =         0.00000000
  -V(xc)+E(xc)   XCENC  =      -232.04151314
  PAW double counting   =      4179.48186308    -3597.72366750
  entropy T*S    EENTRO =        -0.33230461
  eigenvalues    EBANDS =     -1473.27856474
  atomic energy  EATOM  =      6761.44252427
  Solvation  Ediel_sol  =         0.00000000
  ---------------------------------------------------
  free energy    TOTEN  =      -186.94824332 eV

  energy without entropy =     -186.61593871  energy(sigma->0) =     -186.78209101


--------------------------------------------------------------------------------------------------------




----------------------------------------- Iteration    1(  13)  ---------------------------------------


    POTLOK:  cpu time    0.0313: real time    0.0317
    SETDIJ:  cpu time    0.0024: real time    0.0024
     EDDAV:  cpu time   33.2594: real time   33.3392
       DOS:  cpu time    0.0010: real time    0.0010
    CHARGE:  cpu time    0.5019: real time    0.5031
    MIXING:  cpu time    0.0014: real time    0.0014
    --------------------------------------------
      LOOP:  cpu time   33.7986: real time   33.8877

 eigenvalue-minimisations  : 13320
 total energy-change (2. order) : 0.8281913E-01  (-0.2450688E-01)
 number of electron     159.0000088 magnetization 
 augmentation part       -4.3724220 magnetization 

 Broyden mixing:
  rms(total) = 0.18240E+00    rms(broyden)= 0.18226E+00
  rms(prec ) = 0.20464E+00
  weight for this iteration     100.00

 eigenvalues of (default mixing * dielectric matrix)
  average eigenvalue GAMMA=   0.7914
  2.2285  1.7369  0.8117  0.6356  0.2994  0.2200  0.2564  0.1430

 Free energy of the ion-electron system (eV)
  ---------------------------------------------------
  alpha Z        PSCENC =        81.65567618
  Ewald energy   TEWEN  =     41891.17177387
  -Hartree energ DENC   =    -47800.43501802
  -exchange      EXHF   =         0.00000000
  -V(xc)+E(xc)   XCENC  =      -231.95928522
  PAW double counting   =      4187.94183130    -3606.15309950
  entropy T*S    EENTRO =        -0.33548459
  eigenvalues    EBANDS =     -1470.19434248
  atomic energy  EATOM  =      6761.44252427
  Solvation  Ediel_sol  =         0.00000000
  ---------------------------------------------------
  free energy    TOTEN  =      -186.86542419 eV

  energy without entropy =     -186.52993960  energy(sigma->0) =     -186.69768190


--------------------------------------------------------------------------------------------------------




----------------------------------------- Iteration    1(  14)  ---------------------------------------


    POTLOK:  cpu time    0.0311: real time    0.0312
    SETDIJ:  cpu time    0.0024: real time    0.0024
     EDDAV:  cpu time   32.7711: real time   32.8494
       DOS:  cpu time    0.0011: real time    0.0011
    CHARGE:  cpu time    0.5010: real time    0.5022
    MIXING:  cpu time    0.0015: real time    0.0015
    --------------------------------------------
      LOOP:  cpu time   33.3091: real time   33.3969

 eigenvalue-minimisations  : 13120
 total energy-change (2. order) : 0.3829386E-01  (-0.9117307E-02)
 number of electron     159.0000089 magnetization 
 augmentation part       -4.1396798 magnetization 

 Broyden mixing:
  rms(total) = 0.60725E-01    rms(broyden)= 0.60531E-01
  rms(prec ) = 0.68513E-01
  weight for this iteration     100.00

 eigenvalues of (default mixing * dielectric matrix)
  average eigenvalue GAMMA=   0.7799
  2.2359  1.7977  0.9591  0.5844  0.5304  0.2982  0.2203  0.2521  0.1412

 Free energy of the ion-electron system (eV)
  ---------------------------------------------------
  alpha Z        PSCENC =        81.65567618
  Ewald energy   TEWEN  =     41891.17177387
  -Hartree energ DENC   =    -47804.05538349
  -exchange      EXHF   =         0.00000000
  -V(xc)+E(xc)   XCENC  =      -231.87463505
  PAW double counting   =      4191.91958411    -3610.07318672
  entropy T*S    EENTRO =        -0.34340280
  eigenvalues    EBANDS =     -1466.67008071
  atomic energy  EATOM  =      6761.44252427
  Solvation  Ediel_sol  =         0.00000000
  ---------------------------------------------------
  free energy    TOTEN  =      -186.82713033 eV

  energy without entropy =     -186.48372754  energy(sigma->0) =     -186.65542893


--------------------------------------------------------------------------------------------------------




----------------------------------------- Iteration    1(  15)  ---------------------------------------


    POTLOK:  cpu time    0.0324: real time    0.0325
    SETDIJ:  cpu time    0.0025: real time    0.0025
     EDDAV:  cpu time   29.5747: real time   29.6463
       DOS:  cpu time    0.0010: real time    0.0010
    CHARGE:  cpu time    0.5019: real time    0.5031
    MIXING:  cpu time    0.0007: real time    0.0016
    --------------------------------------------
      LOOP:  cpu time   30.1151: real time   30.1966

 eigenvalue-minimisations  : 11600
 total energy-change (2. order) : 0.3917542E-02  (-0.1026429E-02)
 number of electron     159.0000089 magnetization 
 augmentation part       -4.1625939 magnetization 

 Broyden mixing:
  rms(total) = 0.29604E-01    rms(broyden)= 0.29584E-01
  rms(prec ) = 0.34445E-01
  weight for this iteration     100.00

 eigenvalues of (default mixing * dielectric matrix)
  average eigenvalue GAMMA=   0.8566
  2.3857  2.1025  1.3723  0.7392  0.6649  0.3913  0.2982  0.2202  0.2504  0.1413

 Free energy of the ion-electron system (eV)
  ---------------------------------------------------
  alpha Z        PSCENC =        81.65567618
  Ewald energy   TEWEN  =     41891.17177387
  -Hartree energ DENC   =    -47806.92766216
  -exchange      EXHF   =         0.00000000
  -V(xc)+E(xc)   XCENC  =      -231.83203773
  PAW double counting   =      4193.05365799    -3611.16650932
  entropy T*S    EENTRO =        -0.34228969
  eigenvalues    EBANDS =     -1463.87834620
  atomic energy  EATOM  =      6761.44252427
  Solvation  Ediel_sol  =         0.00000000
  ---------------------------------------------------
  free energy    TOTEN  =      -186.82321279 eV

  energy without entropy =     -186.48092310  energy(sigma->0) =     -186.65206795


--------------------------------------------------------------------------------------------------------




----------------------------------------- Iteration    1(  16)  ---------------------------------------


    POTLOK:  cpu time    0.0309: real time    0.0310
    SETDIJ:  cpu time    0.0024: real time    0.0024
     EDDAV:  cpu time   32.2754: real time   32.3554
       DOS:  cpu time    0.0010: real time    0.0010
    CHARGE:  cpu time    0.5026: real time    0.5038
    MIXING:  cpu time    0.0017: real time    0.0017
    --------------------------------------------
      LOOP:  cpu time   32.8150: real time   32.9046

 eigenvalue-minimisations  : 12920
 total energy-change (2. order) : 0.1492635E-02  (-0.5254844E-03)
 number of electron     159.0000089 magnetization 
 augmentation part       -4.2181187 magnetization 

 Broyden mixing:
  rms(total) = 0.21759E-01    rms(broyden)= 0.21733E-01
  rms(prec ) = 0.25336E-01
  weight for this iteration     100.00

 eigenvalues of (default mixing * dielectric matrix)
  average eigenvalue GAMMA=   0.8459
  2.3463  2.2133  1.3865  0.8772  0.6031  0.6031  0.3667  0.2972  0.2202  0.2504
  0.1413

 Free energy of the ion-electron system (eV)
  ---------------------------------------------------
  alpha Z        PSCENC =        81.65567618
  Ewald energy   TEWEN  =     41891.17177387
  -Hartree energ DENC   =    -47813.08484003
  -exchange      EXHF   =         0.00000000
  -V(xc)+E(xc)   XCENC  =      -231.75108706
  PAW double counting   =      4195.00701577    -3613.05331561
  entropy T*S    EENTRO =        -0.34089097
  eigenvalues    EBANDS =     -1457.86857658
  atomic energy  EATOM  =      6761.44252427
  Solvation  Ediel_sol  =         0.00000000
  ---------------------------------------------------
  free energy    TOTEN  =      -186.82172015 eV

  energy without entropy =     -186.48082919  energy(sigma->0) =     -186.65127467


--------------------------------------------------------------------------------------------------------




----------------------------------------- Iteration    1(  17)  ---------------------------------------


    POTLOK:  cpu time    0.0316: real time    0.0317
    SETDIJ:  cpu time    0.0025: real time    0.0025
     EDDAV:  cpu time   33.3066: real time   33.3875
       DOS:  cpu time    0.0011: real time    0.0011
    CHARGE:  cpu time    0.5022: real time    0.5034
    MIXING:  cpu time    0.0017: real time    0.0017
    --------------------------------------------
      LOOP:  cpu time   33.8466: real time   33.9351

 eigenvalue-minimisations  : 13360
 total energy-change (2. order) :-0.6110600E-03  (-0.3940455E-03)
 number of electron     159.0000089 magnetization 
 augmentation part       -4.1979924 magnetization 

 Broyden mixing:
  rms(total) = 0.38893E-01    rms(broyden)= 0.38879E-01
  rms(prec ) = 0.43451E-01
  weight for this iteration     100.00

 eigenvalues of (default mixing * dielectric matrix)
  average eigenvalue GAMMA=   0.8209
  2.3027  2.3027  1.3701  1.1410  0.6593  0.6593  0.3773  0.2975  0.2202  0.2504
  0.1413  0.1285

 Free energy of the ion-electron system (eV)
  ---------------------------------------------------
  alpha Z        PSCENC =        81.65567618
  Ewald energy   TEWEN  =     41891.17177387
  -Hartree energ DENC   =    -47815.48209376
  -exchange      EXHF   =         0.00000000
  -V(xc)+E(xc)   XCENC  =      -231.72621735
  PAW double counting   =      4194.93954178    -3612.97000968
  entropy T*S    EENTRO =        -0.34130233
  eigenvalues    EBANDS =     -1455.51222421
  atomic energy  EATOM  =      6761.44252427
  Solvation  Ediel_sol  =         0.00000000
  ---------------------------------------------------
  free energy    TOTEN  =      -186.82233121 eV

  energy without entropy =     -186.48102889  energy(sigma->0) =     -186.65168005


--------------------------------------------------------------------------------------------------------




----------------------------------------- Iteration    1(  18)  ---------------------------------------


    POTLOK:  cpu time    0.0315: real time    0.0318
    SETDIJ:  cpu time    0.0023: real time    0.0023
     EDDAV:  cpu time   28.9222: real time   28.9913
       DOS:  cpu time    0.0010: real time    0.0011
    CHARGE:  cpu time    0.5026: real time    0.5038
    MIXING:  cpu time    0.0027: real time    0.0027
    --------------------------------------------
      LOOP:  cpu time   29.4635: real time   29.5418

 eigenvalue-minimisations  : 11320
 total energy-change (2. order) : 0.1273912E-02  (-0.2694137E-03)
 number of electron     159.0000089 magnetization 
 augmentation part       -4.1856799 magnetization 

 Broyden mixing:
  rms(total) = 0.73615E-02    rms(broyden)= 0.73185E-02
  rms(prec ) = 0.10079E-01
  weight for this iteration     100.00

 eigenvalues of (default mixing * dielectric matrix)
  average eigenvalue GAMMA=   0.8850
  2.5116  2.5116  1.5072  1.3107  0.9703  0.6421  0.6421  0.3751  0.2976  0.2202
  0.2504  0.1413  0.1243

 Free energy of the ion-electron system (eV)
  ---------------------------------------------------
  alpha Z        PSCENC =        81.65567618
  Ewald energy   TEWEN  =     41891.17177387
  -Hartree energ DENC   =    -47817.28135468
  -exchange      EXHF   =         0.00000000
  -V(xc)+E(xc)   XCENC  =      -231.70902396
  PAW double counting   =      4194.72421134    -3612.74434142
  entropy T*S    EENTRO =        -0.34158664
  eigenvalues    EBANDS =     -1453.73893626
  atomic energy  EATOM  =      6761.44252427
  Solvation  Ediel_sol  =         0.00000000
  ---------------------------------------------------
  free energy    TOTEN  =      -186.82105730 eV

  energy without entropy =     -186.47947066  energy(sigma->0) =     -186.65026398


--------------------------------------------------------------------------------------------------------




----------------------------------------- Iteration    1(  19)  ---------------------------------------


    POTLOK:  cpu time    0.0312: real time    0.0312
    SETDIJ:  cpu time    0.0024: real time    0.0024
     EDDAV:  cpu time   27.5730: real time   27.6395
       DOS:  cpu time    0.0010: real time    0.0010
    CHARGE:  cpu time    0.5018: real time    0.5030
    MIXING:  cpu time    0.0019: real time    0.0019
    --------------------------------------------
      LOOP:  cpu time   28.1122: real time   28.1882

 eigenvalue-minimisations  : 10720
 total energy-change (2. order) :-0.6124589E-03  (-0.7698548E-04)
 number of electron     159.0000089 magnetization 
 augmentation part       -4.1979265 magnetization 

 Broyden mixing:
  rms(total) = 0.84360E-02    rms(broyden)= 0.84301E-02
  rms(prec ) = 0.10378E-01
  weight for this iteration     100.00

 eigenvalues of (default mixing * dielectric matrix)
  average eigenvalue GAMMA=   0.8775
  2.6377  2.6377  1.5904  1.3928  0.9968  0.6469  0.6469  0.3755  0.2202  0.2505
  0.2976  0.3265  0.1413  0.1242

 Free energy of the ion-electron system (eV)
  ---------------------------------------------------
  alpha Z        PSCENC =        81.65567618
  Ewald energy   TEWEN  =     41891.17177387
  -Hartree energ DENC   =    -47822.32076087
  -exchange      EXHF   =         0.00000000
  -V(xc)+E(xc)   XCENC  =      -231.66905143
  PAW double counting   =      4193.44069092    -3611.43995494
  entropy T*S    EENTRO =        -0.34114906
  eigenvalues    EBANDS =     -1448.76141870
  atomic energy  EATOM  =      6761.44252427
  Solvation  Ediel_sol  =         0.00000000
  ---------------------------------------------------
  free energy    TOTEN  =      -186.82166976 eV

  energy without entropy =     -186.48052070  energy(sigma->0) =     -186.65109523


--------------------------------------------------------------------------------------------------------




----------------------------------------- Iteration    1(  20)  ---------------------------------------


    POTLOK:  cpu time    0.0311: real time    0.0314
    SETDIJ:  cpu time    0.0025: real time    0.0025
     EDDAV:  cpu time   22.0069: real time   22.0596
       DOS:  cpu time    0.0011: real time    0.0011
    CHARGE:  cpu time    0.5020: real time    0.5032
    MIXING:  cpu time    0.0019: real time    0.0019
    --------------------------------------------
      LOOP:  cpu time   22.5467: real time   22.6091

 eigenvalue-minimisations  :  8040
 total energy-change (2. order) :-0.3170880E-03  (-0.3324446E-04)
 number of electron     159.0000089 magnetization 
 augmentation part       -4.1984973 magnetization 

 Broyden mixing:
  rms(total) = 0.60510E-02    rms(broyden)= 0.60443E-02
  rms(prec ) = 0.75164E-02
  weight for this iteration     100.00

 eigenvalues of (default mixing * dielectric matrix)
  average eigenvalue GAMMA=   0.9478
  3.2298  2.5461  1.8676  1.6329  0.9941  0.9941  0.6445  0.6445  0.3754  0.2976
  0.2202  0.1413  0.2505  0.2541  0.1242

 Free energy of the ion-electron system (eV)
  ---------------------------------------------------
  alpha Z        PSCENC =        81.65567618
  Ewald energy   TEWEN  =     41891.17177387
  -Hartree energ DENC   =    -47824.37307513
  -exchange      EXHF   =         0.00000000
  -V(xc)+E(xc)   XCENC  =      -231.65339393
  PAW double counting   =      4193.01002611    -3611.00408390
  entropy T*S    EENTRO =        -0.34107242
  eigenvalues    EBANDS =     -1446.73036190
  atomic energy  EATOM  =      6761.44252427
  Solvation  Ediel_sol  =         0.00000000
  ---------------------------------------------------
  free energy    TOTEN  =      -186.82198685 eV

  energy without entropy =     -186.48091443  energy(sigma->0) =     -186.65145064


--------------------------------------------------------------------------------------------------------




----------------------------------------- Iteration    1(  21)  ---------------------------------------


    POTLOK:  cpu time    0.0321: real time    0.0322
    SETDIJ:  cpu time    0.0030: real time    0.0030
     EDDAV:  cpu time   22.1453: real time   22.1987
       DOS:  cpu time    0.0010: real time    0.0010
    CHARGE:  cpu time    0.5013: real time    0.5026
    MIXING:  cpu time    0.0019: real time    0.0019
    --------------------------------------------
      LOOP:  cpu time   22.6856: real time   22.7474

 eigenvalue-minimisations  :  8120
 total energy-change (2. order) :-0.1129862E-02  (-0.3117163E-04)
 number of electron     159.0000089 magnetization 
 augmentation part       -4.1885205 magnetization 

 Broyden mixing:
  rms(total) = 0.28995E-02    rms(broyden)= 0.28948E-02
  rms(prec ) = 0.37590E-02
  weight for this iteration     100.00

 eigenvalues of (default mixing * dielectric matrix)
  average eigenvalue GAMMA=   0.9809
  3.6556  2.4773  2.1427  1.6240  1.0742  1.0742  0.7192  0.6324  0.6324  0.3754
  0.2976  0.2202  0.1413  0.2504  0.2532  0.1242

 Free energy of the ion-electron system (eV)
  ---------------------------------------------------
  alpha Z        PSCENC =        81.65567618
  Ewald energy   TEWEN  =     41891.17177387
  -Hartree energ DENC   =    -47828.27172039
  -exchange      EXHF   =         0.00000000
  -V(xc)+E(xc)   XCENC  =      -231.62558142
  PAW double counting   =      4192.47431170    -3610.46702237
  entropy T*S    EENTRO =        -0.34121340
  eigenvalues    EBANDS =     -1442.86186516
  atomic energy  EATOM  =      6761.44252427
  Solvation  Ediel_sol  =         0.00000000
  ---------------------------------------------------
  free energy    TOTEN  =      -186.82311671 eV

  energy without entropy =     -186.48190331  energy(sigma->0) =     -186.65251001


--------------------------------------------------------------------------------------------------------




----------------------------------------- Iteration    1(  22)  ---------------------------------------


    POTLOK:  cpu time    0.0310: real time    0.0311
    SETDIJ:  cpu time    0.0025: real time    0.0025
     EDDAV:  cpu time   19.2741: real time   19.3204
       DOS:  cpu time    0.0011: real time    0.0011
    CHARGE:  cpu time    0.5022: real time    0.5034
    MIXING:  cpu time    0.0020: real time    0.0020
    --------------------------------------------
      LOOP:  cpu time   19.8138: real time   19.8688

 eigenvalue-minimisations  :  6720
 total energy-change (2. order) :-0.7567682E-03  (-0.8524944E-05)
 number of electron     159.0000089 magnetization 
 augmentation part       -4.1892470 magnetization 

 Broyden mixing:
  rms(total) = 0.26028E-02    rms(broyden)= 0.26009E-02
  rms(prec ) = 0.32318E-02
  weight for this iteration     100.00

 eigenvalues of (default mixing * dielectric matrix)
  average eigenvalue GAMMA=   1.0689
  4.7920  2.4970  2.4970  1.6589  1.3892  1.0497  0.9587  0.6403  0.6403  0.3753
  0.3867  0.2976  0.2202  0.1413  0.2504  0.2531  0.1242

 Free energy of the ion-electron system (eV)
  ---------------------------------------------------
  alpha Z        PSCENC =        81.65567618
  Ewald energy   TEWEN  =     41891.17177387
  -Hartree energ DENC   =    -47830.03205345
[...]
    104      -0.5481      0.00000
    105      -0.4522      0.00000
    106      -0.3605      0.00000
    107      -0.2795      0.00000
    108      -0.1094      0.00000
    109       0.0386      0.00000
    110       0.1558      0.00000
    111       0.3653      0.00000
    112       0.5877      0.00000
    113       0.7523      0.00000
    114       0.9999      0.00000
    115       1.1379      0.00000
    116       1.2800      0.00000
    117       1.5087      0.00000
    118       2.1584      0.00000
    119       2.3182      0.00000
    120       2.4254      0.00000

 k-point    34 :       0.5000    0.5000    0.0000
  band No.  band energies     occupation 
      1     -17.5061      2.00000
      2     -17.3496      2.00000
      3     -16.7455      2.00000
      4     -16.7167      2.00000
      5     -16.5825      2.00000
      6     -16.5514      2.00000
      7     -16.2779      2.00000
      8     -16.1985      2.00000
      9     -16.1175      2.00000
     10     -16.0825      2.00000
     11     -15.8794      2.00000
     12     -15.8342      2.00000
     13     -15.7690      2.00000
     14     -15.6983      2.00000
     15     -15.6422      2.00000
     16     -15.4313      2.00000
     17     -15.3392      2.00000
     18     -15.2154      2.00000
     19      -9.8144      2.00000
     20      -9.3526      2.00000
     21      -9.3030      2.00000
     22      -9.0082      2.00000
     23      -8.9405      2.00000
     24      -8.8322      2.00000
     25      -8.6782      2.00000
     26      -8.6620      2.00000
     27      -8.4410      2.00000
     28      -8.2932      2.00000
     29      -8.2300      2.00000
     30      -8.1332      2.00000
     31      -8.0828      2.00000
     32      -8.0131      2.00000
     33      -7.9230      2.00000
     34      -7.8470      2.00000
     35      -7.7457      2.00000
     36      -7.6826      2.00000
     37      -7.6427      2.00000
     38      -7.5957      2.00000
     39      -7.4670      2.00000
     40      -7.3365      2.00000
     41      -7.0927      2.00000
     42      -7.0720      2.00000
     43      -7.0022      2.00000
     44      -6.8532      2.00000
     45      -6.8259      2.00000
     46      -6.7130      2.00000
     47      -6.6510      2.00000
     48      -6.5894      2.00000
     49      -6.5210      2.00000
     50      -6.4613      2.00000
     51      -6.4128      2.00000
     52      -6.3458      2.00000
     53      -6.2693      2.00000
     54      -6.1826      2.00000
     55      -6.1111      2.00000
     56      -6.0969      2.00000
     57      -6.0100      2.00000
     58      -5.8463      2.00000
     59      -5.8155      2.00000
     60      -5.7923      2.00000
     61      -5.6313      2.00000
     62      -5.5980      2.00000
     63      -5.5342      2.00000
     64      -5.4101      2.00000
     65      -5.2242      2.00000
     66      -5.0684      2.00000
     67      -5.0007      2.00000
     68      -4.9547      2.00000
     69      -4.8329      2.00000
     70      -4.6300      2.00000
     71      -4.5769      2.00000
     72      -4.4469      2.00000
     73      -4.3365      2.00000
     74      -4.1781      2.00000
     75      -4.0392      2.00000
     76      -4.0111      2.00000
     77      -3.8589      1.99998
     78      -3.6823      1.99787
     79      -3.4709      1.88520
     80      -3.3384      1.47812
     81      -2.9908      0.06915
     82      -2.9516      0.03620
     83      -2.6599      0.00003
     84      -2.6096      0.00001
     85      -2.4588      0.00000
     86      -2.3418      0.00000
     87      -2.1856      0.00000
     88      -2.1027      0.00000
     89      -1.9261      0.00000
     90      -1.8456      0.00000
     91      -1.6566      0.00000
     92      -1.5652      0.00000
     93      -1.3887      0.00000
     94      -1.3665      0.00000
     95      -1.1990      0.00000
     96      -1.0877      0.00000
     97      -1.0722      0.00000
     98      -0.9965      0.00000
     99      -0.9298      0.00000
    100      -0.8948      0.00000
    101      -0.8218      0.00000
    102      -0.7086      0.00000
    103      -0.6305      0.00000
    104      -0.5993      0.00000
    105      -0.4800      0.00000
    106      -0.4063      0.00000
    107      -0.2970      0.00000
    108      -0.1159      0.00000
    109       0.0211      0.00000
    110       0.1987      0.00000
    111       0.2769      0.00000
    112       0.5866      0.00000
    113       0.7726      0.00000
    114       1.0461      0.00000
    115       1.1423      0.00000
    116       1.3265      0.00000
    117       1.5707      0.00000
    118       2.2529      0.00000
    119       2.2667      0.00000
    120       2.4068      0.00000


--------------------------------------------------------------------------------------------------------


 soft charge-density along one line, spin component           1
         0         1         2         3         4         5         6         7         8         9
 total charge-density along one line
 
 pseudopotential strength for first ion, spin component:           1
 -7.170   0.005   0.026  -0.024  -0.002   0.659  -0.002  -0.008
  0.005  -7.062  -0.012  -0.019   0.024  -0.002   0.626   0.004
  0.026  -0.012  -7.025   0.007   0.014  -0.008   0.004   0.617
 -0.024  -0.019   0.007  -7.083   0.022   0.007   0.006  -0.002
 -0.002   0.024   0.014   0.022  -7.168   0.001  -0.007  -0.004
  0.659  -0.002  -0.008   0.007   0.001   0.337   0.001   0.002
 -0.002   0.626   0.004   0.006  -0.007   0.001   0.347  -0.001
 -0.008   0.004   0.617  -0.002  -0.004   0.002  -0.001   0.349
  0.007   0.006  -0.002   0.632  -0.006  -0.002  -0.002   0.001
  0.001  -0.007  -0.004  -0.006   0.658  -0.000   0.002   0.001
  0.008   0.008  -0.021  -0.004   0.004  -0.002  -0.002   0.005
  0.003   0.002  -0.007  -0.001   0.001  -0.001  -0.001   0.002
  0.004   0.002   0.002  -0.002   0.007  -0.000  -0.000   0.000
 -0.002  -0.010   0.000   0.006  -0.001   0.000   0.001  -0.000
 -0.007  -0.002  -0.001  -0.001   0.004   0.000   0.000  -0.000
  0.003   0.001   0.001  -0.002   0.005  -0.000  -0.000  -0.000
 -0.002  -0.007  -0.001   0.004  -0.001   0.000   0.001   0.000
 -0.005  -0.002  -0.001  -0.001   0.003   0.001   0.000   0.000
 total augmentation occupancy for first ion, spin component:           1
  0.792   0.152   0.060  -0.021  -0.064   0.442   0.210   0.004   0.005  -0.007  -0.038   0.001  -0.005  -0.040   0.008  -0.002
  0.152   1.045  -0.030   0.024   0.022   0.209   0.639  -0.025   0.010  -0.005   0.007  -0.003   0.040  -0.055  -0.043   0.002
  0.060  -0.030   0.888   0.017   0.033   0.003  -0.025   0.354   0.014   0.001   0.132   0.005  -0.052  -0.004   0.029  -0.003
 -0.021   0.024   0.017   1.072  -0.128   0.005   0.010   0.015   0.650  -0.214  -0.004   0.002  -0.044   0.032  -0.010  -0.002
 -0.064   0.022   0.033  -0.128   0.864  -0.007  -0.005   0.002  -0.216   0.450  -0.022   0.000  -0.009  -0.023  -0.005  -0.003
  0.442   0.209   0.003   0.005  -0.007   0.381   0.217  -0.004   0.001   0.004   0.009   0.001   0.013  -0.055  -0.020  -0.000
  0.210   0.639  -0.025   0.010  -0.005   0.217   0.576  -0.017   0.004  -0.001  -0.009  -0.002   0.040  -0.078  -0.053   0.003
  0.004  -0.025   0.354   0.015   0.002  -0.004  -0.017   0.281   0.010  -0.002   0.035   0.009  -0.021  -0.003   0.012  -0.004
  0.005   0.010   0.014   0.650  -0.216   0.001   0.004   0.010   0.581  -0.219   0.005   0.001  -0.053   0.045  -0.021  -0.004
 -0.007  -0.005   0.001  -0.214   0.450   0.004  -0.001  -0.002  -0.219   0.376   0.005   0.001   0.020  -0.032   0.010  -0.001
 -0.038   0.007   0.132  -0.004  -0.022   0.009  -0.009   0.035   0.005   0.005   1.371   0.141  -0.024   0.017   0.014  -0.002
  0.001  -0.003   0.005   0.002   0.000   0.001  -0.002   0.009   0.001   0.001   0.141   0.026  -0.008   0.000   0.005  -0.001
 -0.005   0.040  -0.052  -0.044  -0.009   0.013   0.040  -0.021  -0.053   0.020  -0.024  -0.008   0.361  -0.000  -0.009   0.027
 -0.040  -0.055  -0.004   0.032  -0.023  -0.055  -0.078  -0.003   0.045  -0.032   0.017   0.000  -0.000   0.415   0.000   0.000
  0.008  -0.043   0.029  -0.010  -0.005  -0.020  -0.053   0.012  -0.021   0.010   0.014   0.005  -0.009   0.000   0.351   0.000
 -0.002   0.002  -0.003  -0.002  -0.003  -0.000   0.003  -0.004  -0.004  -0.001  -0.002  -0.001   0.027   0.000   0.000   0.003
 -0.002   0.001   0.000  -0.001  -0.001  -0.004  -0.005  -0.000   0.003  -0.002   0.001   0.000   0.000   0.029  -0.000  -0.000
  0.003  -0.002   0.002  -0.000  -0.002   0.001  -0.004   0.003  -0.001  -0.001   0.001   0.000   0.000  -0.000   0.027   0.000


------------------------ aborting loop because EDIFF is reached ----------------------------------------


    CHARGE:  cpu time    0.4555: real time    0.4566
    FORLOC:  cpu time    0.0064: real time    0.0064
    FORNL :  cpu time    5.3644: real time    5.3772
    STRESS:  cpu time   32.5734: real time   32.6512
    FORCOR:  cpu time    0.0334: real time    0.0339
    FORHAR:  cpu time    0.0126: real time    0.0126
    MIXING:  cpu time    0.0011: real time    0.0011
    OFIELD:  cpu time    0.0000: real time    0.0000

  FORCE on cell =-STRESS in cart. coord.  units (eV):
  Direction    XX          YY          ZZ          XY          YZ          ZX
  --------------------------------------------------------------------------------------
  Alpha Z    89.52486    89.52486    89.52486
  Ewald   49363.69361 49318.11142-54281.38477    39.06809   -21.22365    12.03961
  Hartree 50069.09213 50040.05973-49701.04308    24.95647   -11.83626     6.79209
  E(xc)    -609.59691  -610.64851  -617.88086     0.91331     0.94875    -0.54249
  Local  ************************101419.87260   -57.17662    41.20794   -23.51138
  n-local  1213.61197  1215.52460  1248.92597    -1.68219     2.26292    -1.35478
  augment  -213.33152  -212.83705  -214.63574    -0.43985    -0.98004     0.56820
  Kinetic  2008.48786  2015.01899  2054.72092    -5.64136   -10.19108     5.90038
  Fock        0.00000     0.00000     0.00000     0.00000     0.00000     0.00000
  -------------------------------------------------------------------------------------
  Total       0.06383     0.07717    -1.90010    -0.00214     0.18859    -0.10838
  in kB       0.04277     0.05170    -1.27305    -0.00143     0.12635    -0.07261
  external pressure =       -0.39 kB  Pullay stress =        0.00 kB


 VOLUME and BASIS-vectors are now :
 -----------------------------------------------------------------------------
  energy-cutoff  :      280.00
  volume of cell :     2391.35
      direct lattice vectors                 reciprocal lattice vectors
     8.286376563  4.785298426  0.000000000     0.060493638  0.104220655  0.000000000
    -8.307611089  4.822053875  0.000000000    -0.060032533  0.103954264  0.000000000
     0.000000000  0.000000000 30.000000000     0.000000000  0.000000000  0.033333333

  length of vectors
     9.568861874  9.605654875 30.000000000     0.120504876  0.120043301  0.033333333


 FORCES acting on ions
    electron-ion (+dipol)            ewald-force                    non-local-force                 convergence-correction
 -----------------------------------------------------------------------------------------------
   0.132E+02 -.230E+02 0.127E+02   -.139E+02 0.243E+02 -.125E+02   0.763E+00 -.132E+01 -.287E+00   0.176E-02 0.212E-01 -.130E-01
   -.114E+02 0.215E+02 -.151E+02   0.119E+02 -.230E+02 0.148E+02   -.500E+00 0.148E+01 0.236E+00   0.921E-03 0.413E-02 0.173E-01
   -.128E+02 0.204E+02 -.150E+02   0.139E+02 -.216E+02 0.148E+02   -.103E+01 0.118E+01 0.238E+00   0.133E-01 0.192E-01 0.152E-01
   0.599E+01 0.295E+01 -.192E+01   -.577E+01 -.277E+01 0.193E+01   -.249E+00 -.111E+00 -.218E-01   0.724E-02 -.788E-01 0.326E-02
   -.605E+01 -.416E+01 -.195E+01   0.579E+01 0.402E+01 0.197E+01   0.223E+00 0.162E+00 -.224E-01   0.345E-01 -.231E-01 -.165E-02
   -.602E+01 0.117E+02 -.357E+01   0.589E+01 -.115E+02 0.356E+01   0.105E+00 -.184E+00 0.885E-02   0.369E-01 -.370E-01 0.223E-02
   0.185E+02 -.270E+02 0.230E+02   -.191E+02 0.277E+02 -.228E+02   0.571E+00 -.707E+00 -.222E+00   -.997E-02 0.259E-01 -.323E-02
   -.172E+02 0.298E+02 -.190E+02   0.176E+02 -.304E+02 0.189E+02   -.381E+00 0.654E+00 0.168E+00   -.232E-01 -.196E-01 0.411E-02
   0.144E+02 -.297E+02 0.229E+02   -.147E+02 0.306E+02 -.227E+02   0.322E+00 -.833E+00 -.218E+00   -.225E-01 0.156E-02 -.780E-03
   -.979E+01 0.116E+02 0.589E+03   0.108E+02 -.132E+02 -.592E+03   -.104E+01 0.159E+01 0.311E+01   0.197E-01 -.169E-01 0.142E-01
   -.115E+02 0.202E+02 -.586E+03   0.120E+02 -.212E+02 0.590E+03   -.591E+00 0.102E+01 -.322E+01   0.597E-01 -.222E-02 -.631E-01
   0.128E+02 -.200E+02 0.606E+03   -.134E+02 0.206E+02 -.609E+03   0.580E+00 -.642E+00 0.366E+01   0.259E-01 0.179E-01 -.279E-01
   0.675E+01 -.688E+01 -.612E+03   -.722E+01 0.820E+01 0.616E+03   0.458E+00 -.130E+01 -.351E+01   0.946E-02 -.616E-02 0.102E-01
   -.377E+01 0.646E+01 0.481E+03   0.365E+01 -.635E+01 -.486E+03   0.117E+00 -.214E+00 0.457E+01   -.129E-02 0.961E-01 0.279E-01
   0.807E+01 -.113E+02 -.488E+03   -.841E+01 0.111E+02 0.493E+03   0.365E+00 0.773E-01 -.487E+01   -.214E-01 0.980E-01 -.103E-01
   -.541E+01 0.147E+02 0.590E+03   0.621E+01 -.164E+02 -.593E+03   -.832E+00 0.168E+01 0.312E+01   0.363E-01 -.682E-01 0.566E-01
   -.706E+01 0.239E+02 -.610E+03   0.742E+01 -.246E+02 0.614E+03   -.330E+00 0.760E+00 -.364E+01   -.286E-01 -.602E-01 -.551E-01
   0.110E+02 -.187E+02 0.633E+03   -.112E+02 0.190E+02 -.637E+03   0.205E+00 -.350E+00 0.403E+01   -.913E-02 -.103E-02 -.979E-02
   0.281E+01 -.949E+01 -.614E+03   -.373E+01 0.106E+02 0.617E+03   0.908E+00 -.102E+01 -.350E+01   0.706E-02 -.305E-01 0.160E-01
   -.134E+01 0.936E+01 0.497E+03   0.937E+00 -.899E+01 -.502E+03   0.450E+00 -.389E+00 0.505E+01   -.602E-01 0.191E-01 0.426E-01
   0.635E+01 -.108E+02 -.505E+03   -.614E+01 0.105E+02 0.511E+03   -.175E+00 0.295E+00 -.525E+01   -.267E-01 0.131E-01 0.758E-03
   -.746E+01 0.128E+02 0.621E+03   0.813E+01 -.140E+02 -.624E+03   -.680E+00 0.114E+01 0.348E+01   0.106E-01 -.278E-01 -.347E-03
   -.173E+02 0.179E+02 -.610E+03   0.178E+02 -.186E+02 0.613E+03   -.494E+00 0.663E+00 -.365E+01   0.126E-01 -.719E-02 -.170E-01
   0.108E+02 -.213E+02 0.606E+03   -.110E+02 0.221E+02 -.609E+03   0.268E+00 -.827E+00 0.366E+01   -.170E-01 -.149E-01 -.380E-01
   0.844E+01 -.148E+02 -.607E+03   -.914E+01 0.160E+02 0.610E+03   0.676E+00 -.121E+01 -.319E+01   0.217E-01 -.292E-01 0.459E-01
   -.738E+01 0.570E+01 0.497E+03   0.728E+01 -.513E+01 -.502E+03   0.118E+00 -.582E+00 0.505E+01   -.140E-01 0.199E-01 0.654E-02
   0.579E+01 -.128E+02 -.489E+03   -.549E+01 0.131E+02 0.494E+03   -.245E+00 -.275E+00 -.487E+01   -.380E-01 0.385E-01 0.195E-01
 -----------------------------------------------------------------------------------------------
   0.390E+00 -.672E+00 0.327E-01   -.888E-14 0.355E-13 0.568E-12   -.419E+00 0.726E+00 -.792E-01   0.257E-01 -.482E-01 0.420E-01
 
 
 POSITION                                       TOTAL-FORCE (eV/Angst)
 -----------------------------------------------------------------------------------
     -5.40531      2.98241     -0.04937         0.010181     -0.019298     -0.034725
      2.62374      1.84574      0.05506         0.001180     -0.000583      0.029740
     -0.14835      0.24571      0.05466        -0.003445      0.000968      0.030332
      2.80174      4.82271      0.00580        -0.021369     -0.009149     -0.004305
      5.46674      6.36142      0.00588         0.007001      0.004145     -0.004404
     -0.03935      3.26889      0.01030         0.005385      0.020882     -0.004782
     -2.59509      4.53653     -0.07046        -0.004343     -0.001712     -0.019397
      5.35783      3.47738      0.06149        -0.000963      0.001990      0.017470
      0.13137      6.11202     -0.07012         0.003793      0.006570     -0.019210
     -0.91962      1.58622     28.42588         0.015443     -0.010147      0.011186
      0.92450      1.58841      1.59532        -0.011171      0.019774      0.032461
     -3.72643      3.18367     28.34595         0.016212     -0.014449     -0.025684
     -1.83676      3.16126      1.64591        -0.005916      0.013324     -0.009713
     -6.47031      4.82842     28.73963        -0.001263     -0.000826      0.023248
     -4.62805      4.80824      1.28250        -0.001490     -0.015248     -0.014214
      1.84875      3.18365     28.42304         0.002524     -0.020198      0.002958
      3.64212      3.19905      1.66683         0.003306      0.010057      0.022660
     -0.89790      4.74647     28.25727        -0.000298      0.004948     -0.011814
      0.94255      4.76832      1.64894        -0.008833      0.016804     -0.000085
     -3.71421      6.41019     28.69023        -0.008762      0.007104      0.007296
     -1.86223      6.41549      1.33127         0.002090     -0.004650     -0.011588
      4.57701      4.82963     28.33340         0.004105     -0.010659      0.011417
      6.45651      4.82474      1.66646        -0.011953      0.002584      0.023223
      1.86791      6.41485     28.34559         0.003189     -0.019982     -0.026401
      3.65368      6.42913      1.62463        -0.005857      0.007744     -0.020841
     -0.93153      8.01751     28.69066        -0.001768      0.013005      0.008588
      0.91233      8.00832      1.28326         0.013021     -0.002998     -0.013417
 -----------------------------------------------------------------------------------
    total drift:                               -0.003879      0.005056     -0.004497


--------------------------------------------------------------------------------------------------------



  FREE ENERGIE OF THE ION-ELECTRON SYSTEM (eV)
  ---------------------------------------------------
  free  energy   TOTEN  =      -192.33622109 eV

  energy  without entropy=     -192.20263176  energy(sigma->0) =     -192.26942642
 
 d Force = 0.2080143E-03[ 0.151E-03, 0.265E-03]  d Energy = 0.1044000E-03 0.104E-03
 d Force =-0.6398972E-01[-0.644E-01,-0.636E-01]  d Ewald  = 0.9223045E+01-0.929E+01


--------------------------------------------------------------------------------------------------------


    POTLOK:  cpu time    0.0347: real time    0.0347


--------------------------------------------------------------------------------------------------------


 Quasi-Newton relaxation of ions (Broydens 2nd method)
  g(Force)  = 0.739E-03   g(Stress)= 0.179E-04

 retain information from N=  2 steps
 eigenvalues of (default step * inverse Hessian matrix)
  average eigenvalue of G=   2.7670
 eigenvalue spectrum of G is  2.0404  3.4936


--------------------------------------------------------------------------------------------------------


  
 reached required accuracy - stopping structural energy minimisation
     LOOP+:  cpu time  136.3712: real time  136.7166
    4ORBIT:  cpu time    0.0000: real time    0.0000

 total amount of memory used by VASP on root node   650782. kBytes
========================================================================

   base      :      30000. kBytes
   nonl-proj :     559647. kBytes
   fftplans  :       2414. kBytes
   grid      :      12150. kBytes
   one-center:        419. kBytes
   wavefun   :      46152. kBytes
 
  
  
 General timing and accounting informations for this job:
 ========================================================
  
                  Total CPU time used (sec):     6541.316
                            User time (sec):     6510.100
                          System time (sec):       31.216
                         Elapsed time (sec):     6558.398
  
                   Maximum memory used (kb):      743724.
                   Average memory used (kb):           0.
  
                          Minor page faults:      1048770
                          Major page faults:            2
                 Voluntary context switches:         4358
