   27   27  100    1
  0.9710400E+02  0.1002848E-08  0.1002848E-08  0.3000000E-08  0.5000000E-15
  1.000000000000000E-004
  CAR 
 unknown system                          
    159     34    120
 
  0.0000000E+00  0.0000000E+00  0.0000000E+00  0.1562500E-01
    1      -17.803119   1.000000
    2      -16.646826   1.000000
    3      -16.589184   1.000000
    4      -16.554529   1.000000
    5      -16.507625   1.000000
    6      -16.454592   1.000000
    7      -16.388583   1.000000
    8      -16.282748   1.000000
    9      -16.154544   1.000000
   10      -16.114970   1.000000
   11      -16.083421   1.000000
   12      -15.973348   1.000000
   13      -15.912367   1.000000
   14      -15.758084   1.000000
   15      -15.606286   1.000000
   16      -15.515296   1.000000
   17      -15.487311   1.000000
   18      -15.331710   1.000000
   19       -9.258070   1.000000
   20       -8.903227   1.000000
   21       -8.850888   1.000000
   22       -8.782354   1.000000
   23       -8.751067   1.000000
   24       -8.639524   1.000000
   25       -8.629572   1.000000
   26       -8.534777   1.000000
   27       -8.449163   1.000000
   28       -8.439264   1.000000
   29       -8.398199   1.000000
   30       -8.362262   1.000000
   31       -8.266200   1.000000
   32       -8.220166   1.000000
   33       -8.152941   1.000000
   34       -8.031155   1.000000
   35       -7.888477   1.000000
   36       -7.792756   1.000000
   37       -7.731889   1.000000
   38       -7.599505   1.000000
   39       -7.492076   1.000000
   40       -7.457689   1.000000
   41       -7.360965   1.000000
   42       -7.277223   1.000000
   43       -7.073228   1.000000
   44       -6.908010   1.000000
   45       -6.811989   1.000000
   46       -6.803658   1.000000
   47       -6.764070   1.000000
   48       -6.663802   1.000000
   49       -6.591416   1.000000
   50       -6.541485   1.000000
   51       -6.516277   1.000000
   52       -6.459626   1.000000
   53       -6.384145   1.000000
   54       -6.334161   1.000000
   55       -6.110113   1.000000
   56       -6.076492   1.000000
   57       -6.028168   1.000000
   58       -5.795696   1.000000
   59       -5.726024   1.000000
   60       -5.613035   1.000000
   61       -5.579670   1.000000
   62       -5.440958   1.000000
   63       -5.269796   1.000000
   64       -5.255287   1.000000
   65       -5.005021   1.000000
   66       -4.922102   1.000000
   67       -4.852377   1.000000
   68       -4.746140   1.000000
   69       -4.675425   1.000000
   70       -4.619718   1.000000
   71       -4.566867   1.000000
   72       -4.484692   1.000000
   73       -4.475532   1.000000
   74       -4.348875   1.000000
   75       -4.169204   1.000000
   76       -3.982796   1.000000
   77       -3.568911   0.996959
   78       -3.524534   0.992440
   79       -3.466733   0.978350
   80       -3.383561   0.924025
   81       -3.283903   0.766692
   82       -2.663567   0.000127
   83       -2.576277   0.000010
   84       -2.487679   0.000000
   85       -2.394089   0.000000
   86       -2.333014   0.000000
   87       -2.288712   0.000000
   88       -2.219318   0.000000
   89       -2.033003   0.000000
   90       -1.978056   0.000000
   91       -1.971131   0.000000
   92       -1.647444   0.000000
   93       -1.599645   0.000000
   94       -1.527554   0.000000
   95       -1.431621   0.000000
   96       -1.382229   0.000000
   97       -1.245256   0.000000
   98       -1.124490   0.000000
   99       -0.665533   0.000000
  100       -0.513168   0.000000
  101       -0.487613   0.000000
  102       -0.426237   0.000000
  103       -0.353192   0.000000
  104       -0.266075   0.000000
  105       -0.231777   0.000000
  106        0.079246   0.000000
  107        0.125679   0.000000
  108        0.149139   0.000000
  109        0.192910   0.000000
  110        0.229974   0.000000
  111        0.413614   0.000000
  112        0.609430   0.000000
  113        0.762463   0.000000
  114        0.905941   0.000000
  115        0.969882   0.000000
  116        1.019005   0.000000
  117        1.151079   0.000000
  118        1.666675   0.000000
  119        1.838169   0.000000
  120        2.179067   0.000000
 
  0.1250000E+00  0.2775558E-16  0.0000000E+00  0.3125000E-01
    1      -17.777154   1.000000
    2      -16.716359   1.000000
    3      -16.659002   1.000000
    4      -16.592644   1.000000
    5      -16.548161   1.000000
    6      -16.417475   1.000000
    7      -16.290540   1.000000
    8      -16.257893   1.000000
    9      -16.177771   1.000000
   10      -16.155882   1.000000
   11      -15.987737   1.000000
   12      -15.966840   1.000000
   13      -15.891200   1.000000
   14      -15.736436   1.000000
   15      -15.618807   1.000000
   16      -15.519803   1.000000
   17      -15.490761   1.000000
   18      -15.346833   1.000000
   19       -9.235996   1.000000
   20       -9.136933   1.000000
   21       -8.932196   1.000000
   22       -8.899277   1.000000
   23       -8.769551   1.000000
   24       -8.688516   1.000000
   25       -8.608535   1.000000
   26       -8.498732   1.000000
   27       -8.480873   1.000000
   28       -8.447761   1.000000
   29       -8.373687   1.000000
   30       -8.305919   1.000000
   31       -8.158429   1.000000
   32       -8.130626   1.000000
   33       -8.103780   1.000000
   34       -7.878378   1.000000
   35       -7.822627   1.000000
   36       -7.726810   1.000000
   37       -7.675790   1.000000
   38       -7.625274   1.000000
   39       -7.498034   1.000000
   40       -7.453315   1.000000
   41       -7.324513   1.000000
   42       -7.256226   1.000000
   43       -7.086643   1.000000
   44       -6.952160   1.000000
   45       -6.868040   1.000000
   46       -6.819028   1.000000
   47       -6.771003   1.000000
   48       -6.712612   1.000000
   49       -6.664761   1.000000
   50       -6.560886   1.000000
   51       -6.478682   1.000000
   52       -6.410712   1.000000
   53       -6.339730   1.000000
   54       -6.279025   1.000000
   55       -6.205372   1.000000
   56       -6.073532   1.000000
   57       -6.008849   1.000000
   58       -5.759670   1.000000
   59       -5.709497   1.000000
   60       -5.628826   1.000000
   61       -5.490708   1.000000
   62       -5.387421   1.000000
   63       -5.340034   1.000000
   64       -5.249224   1.000000
   65       -5.154953   1.000000
   66       -5.052677   1.000000
   67       -4.937018   1.000000
   68       -4.809753   1.000000
   69       -4.720898   1.000000
   70       -4.684879   1.000000
   71       -4.563325   1.000000
   72       -4.430017   1.000000
   73       -4.293356   1.000000
   74       -4.223259   1.000000
   75       -4.035046   1.000000
   76       -3.914764   1.000000
   77       -3.752430   0.999973
   78       -3.678507   0.999783
   79       -3.527285   0.992837
   80       -3.262075   0.716897
   81       -3.182533   0.504466
   82       -2.680786   0.000203
   83       -2.620056   0.000037
   84       -2.481722   0.000000
   85       -2.401424   0.000000
   86       -2.330897   0.000000
   87       -2.266244   0.000000
   88       -2.200726   0.000000
   89       -2.072472   0.000000
   90       -1.983322   0.000000
   91       -1.943248   0.000000
   92       -1.684781   0.000000
   93       -1.579275   0.000000
   94       -1.499942   0.000000
   95       -1.412805   0.000000
   96       -1.347886   0.000000
   97       -1.219975   0.000000
   98       -1.076696   0.000000
   99       -0.693950   0.000000
  100       -0.601059   0.000000
  101       -0.550345   0.000000
  102       -0.486710   0.000000
  103       -0.417326   0.000000
  104       -0.328048   0.000000
  105       -0.136168   0.000000
  106       -0.065642   0.000000
  107       -0.004458   0.000000
  108        0.057588   0.000000
  109        0.170271   0.000000
  110        0.255869   0.000000
  111        0.562366   0.000000
  112        0.686320   0.000000
  113        0.825682   0.000000
  114        0.878942   0.000000
  115        0.988253   0.000000
  116        1.034961   0.000000
  117        1.175659   0.000000
  118        1.710861   0.000000
  119        1.876009   0.000000
  120        2.214476   0.000000
 
  0.2500000E+00  0.5551115E-16  0.0000000E+00  0.3125000E-01
    1      -17.700485   1.000000
    2      -16.946222   1.000000
    3      -16.701977   1.000000
    4      -16.636346   1.000000
    5      -16.559124   1.000000
    6      -16.340276   1.000000
    7      -16.325059   1.000000
    8      -16.191501   1.000000
    9      -16.153754   1.000000
   10      -16.122320   1.000000
   11      -15.975298   1.000000
   12      -15.899734   1.000000
   13      -15.834305   1.000000
   14      -15.678900   1.000000
   15      -15.636252   1.000000
   16      -15.526066   1.000000
   17      -15.507480   1.000000
   18      -15.383828   1.000000
   19       -9.474365   1.000000
   20       -9.192259   1.000000
   21       -9.043832   1.000000
   22       -9.035838   1.000000
   23       -8.877373   1.000000
   24       -8.809050   1.000000
   25       -8.595538   1.000000
   26       -8.525819   1.000000
   27       -8.429436   1.000000
   28       -8.378474   1.000000
   29       -8.317661   1.000000
   30       -8.172578   1.000000
   31       -8.145517   1.000000
   32       -8.020936   1.000000
   33       -7.951522   1.000000
   34       -7.824202   1.000000
   35       -7.756684   1.000000
   36       -7.702107   1.000000
   37       -7.602384   1.000000
   38       -7.487358   1.000000
   39       -7.435244   1.000000
   40       -7.324984   1.000000
   41       -7.271576   1.000000
   42       -7.199411   1.000000
   43       -7.057771   1.000000
   44       -6.976137   1.000000
   45       -6.938944   1.000000
   46       -6.860033   1.000000
   47       -6.781514   1.000000
   48       -6.748499   1.000000
   49       -6.715074   1.000000
   50       -6.555657   1.000000
   51       -6.511369   1.000000
   52       -6.426343   1.000000
   53       -6.287367   1.000000
   54       -6.176974   1.000000
   55       -6.148452   1.000000
   56       -6.072457   1.000000
   57       -6.006918   1.000000
   58       -5.751997   1.000000
   59       -5.696006   1.000000
   60       -5.632649   1.000000
   61       -5.581036   1.000000
   62       -5.483961   1.000000
   63       -5.466129   1.000000
   64       -5.335428   1.000000
   65       -5.272156   1.000000
   66       -5.151433   1.000000
   67       -5.023503   1.000000
   68       -4.907652   1.000000
   69       -4.723264   1.000000
   70       -4.642079   1.000000
   71       -4.544342   1.000000
   72       -4.272890   1.000000
   73       -4.232079   1.000000
   74       -4.105489   1.000000
   75       -4.053005   1.000000
   76       -3.888949   1.000000
   77       -3.821481   0.999997
   78       -3.693072   0.999853
   79       -3.525501   0.992582
   80       -3.189048   0.522834
   81       -3.108701   0.304721
   82       -2.774039   0.002006
   83       -2.655775   0.000102
   84       -2.465692   0.000000
   85       -2.455360   0.000000
   86       -2.303053   0.000000
   87       -2.218887   0.000000
   88       -2.200709   0.000000
   89       -2.064986   0.000000
   90       -1.977927   0.000000
   91       -1.921998   0.000000
   92       -1.703834   0.000000
   93       -1.592340   0.000000
   94       -1.444544   0.000000
   95       -1.379013   0.000000
   96       -1.306151   0.000000
   97       -1.135247   0.000000
   98       -0.968225   0.000000
   99       -0.820463   0.000000
  100       -0.763867   0.000000
  101       -0.671322   0.000000
  102       -0.567196   0.000000
  103       -0.477898   0.000000
  104       -0.428548   0.000000
  105       -0.285086   0.000000
  106       -0.224085   0.000000
  107       -0.170000   0.000000
  108       -0.049890   0.000000
  109        0.146619   0.000000
  110        0.324418   0.000000
  111        0.597965   0.000000
  112        0.764200   0.000000
  113        0.862496   0.000000
  114        0.942508   0.000000
  115        1.003595   0.000000
  116        1.135150   0.000000
  117        1.319153   0.000000
  118        1.833877   0.000000
  119        1.985171   0.000000
  120        2.319631   0.000000
 
  0.3750000E+00  0.0000000E+00  0.0000000E+00  0.3125000E-01
    1      -17.578434   1.000000
    2      -17.173869   1.000000
    3      -16.741489   1.000000
    4      -16.670423   1.000000
    5      -16.531023   1.000000
    6      -16.390622   1.000000
    7      -16.299440   1.000000
    8      -16.170076   1.000000
    9      -16.091930   1.000000
   10      -16.064328   1.000000
   11      -15.966179   1.000000
   12      -15.893512   1.000000
   13      -15.751531   1.000000
   14      -15.667175   1.000000
   15      -15.629980   1.000000
   16      -15.548714   1.000000
   17      -15.506714   1.000000
   18      -15.410187   1.000000
   19       -9.707162   1.000000
   20       -9.248034   1.000000
   21       -9.155603   1.000000
   22       -9.020435   1.000000
   23       -8.957297   1.000000
   24       -8.838785   1.000000
   25       -8.586727   1.000000
   26       -8.525686   1.000000
   27       -8.379698   1.000000
   28       -8.309083   1.000000
   29       -8.275794   1.000000
   30       -8.193015   1.000000
   31       -8.124774   1.000000
   32       -7.975503   1.000000
   33       -7.924243   1.000000
   34       -7.815948   1.000000
   35       -7.737017   1.000000
   36       -7.687224   1.000000
   37       -7.512428   1.000000
   38       -7.465252   1.000000
   39       -7.350258   1.000000
   40       -7.313400   1.000000
   41       -7.229172   1.000000
   42       -7.131579   1.000000
   43       -6.984115   1.000000
   44       -6.971637   1.000000
   45       -6.902581   1.000000
   46       -6.769074   1.000000
   47       -6.729239   1.000000
   48       -6.700424   1.000000
   49       -6.649996   1.000000
   50       -6.564411   1.000000
   51       -6.423010   1.000000
   52       -6.316105   1.000000
   53       -6.270745   1.000000
   54       -6.208153   1.000000
   55       -6.023234   1.000000
   56       -6.006556   1.000000
   57       -5.992617   1.000000
   58       -5.954245   1.000000
   59       -5.884633   1.000000
   60       -5.784372   1.000000
   61       -5.685331   1.000000
   62       -5.661790   1.000000
   63       -5.590827   1.000000
   64       -5.485006   1.000000
   65       -5.202689   1.000000
   66       -5.089187   1.000000
   67       -4.970344   1.000000
   68       -4.900661   1.000000
   69       -4.798449   1.000000
   70       -4.676887   1.000000
   71       -4.606726   1.000000
   72       -4.396051   1.000000
   73       -4.250122   1.000000
   74       -4.046815   1.000000
   75       -4.007110   1.000000
   76       -3.818972   0.999997
   77       -3.719659   0.999930
   78       -3.558960   0.996240
   79       -3.449748   0.971329
   80       -3.170232   0.469797
   81       -3.109579   0.306897
   82       -2.888794   0.019421
   83       -2.666394   0.000137
   84       -2.522163   0.000002
   85       -2.467448   0.000000
   86       -2.289541   0.000000
   87       -2.210673   0.000000
   88       -2.138671   0.000000
   89       -2.008346   0.000000
   90       -1.972015   0.000000
   91       -1.901958   0.000000
   92       -1.699850   0.000000
   93       -1.599635   0.000000
   94       -1.439362   0.000000
   95       -1.349624   0.000000
   96       -1.306044   0.000000
   97       -1.039691   0.000000
   98       -0.997139   0.000000
   99       -0.884580   0.000000
  100       -0.840744   0.000000
  101       -0.715883   0.000000
  102       -0.647527   0.000000
  103       -0.561997   0.000000
  104       -0.542188   0.000000
  105       -0.415535   0.000000
  106       -0.368765   0.000000
  107       -0.312412   0.000000
  108       -0.084027   0.000000
  109        0.117634   0.000000
  110        0.359019   0.000000
  111        0.492065   0.000000
  112        0.838079   0.000000
  113        0.908144   0.000000
  114        0.963438   0.000000
  115        1.062994   0.000000
  116        1.249515   0.000000
  117        1.484867   0.000000
  118        2.019054   0.000000
  119        2.158650   0.000000
  120        2.491785   0.000000
 
  0.5000000E+00  0.1110223E-15  0.0000000E+00  0.1562500E-01
    1      -17.462589   1.000000
    2      -17.326554   1.000000
    3      -16.756004   1.000000
    4      -16.682704   1.000000
    5      -16.506456   1.000000
    6      -16.425967   1.000000
    7      -16.295837   1.000000
    8      -16.148147   1.000000
    9      -16.068308   1.000000
   10      -16.038025   1.000000
   11      -15.982522   1.000000
   12      -15.876784   1.000000
   13      -15.712129   1.000000
   14      -15.661849   1.000000
   15      -15.633011   1.000000
   16      -15.589662   1.000000
   17      -15.498430   1.000000
   18      -15.406598   1.000000
   19       -9.790427   1.000000
   20       -9.283402   1.000000
   21       -9.198151   1.000000
   22       -9.012451   1.000000
   23       -8.984855   1.000000
   24       -8.763879   1.000000
   25       -8.650385   1.000000
   26       -8.537836   1.000000
   27       -8.344106   1.000000
   28       -8.327790   1.000000
   29       -8.214245   1.000000
   30       -8.172518   1.000000
   31       -8.139545   1.000000
   32       -7.964413   1.000000
   33       -7.899963   1.000000
   34       -7.839225   1.000000
   35       -7.760372   1.000000
   36       -7.608328   1.000000
   37       -7.568766   1.000000
   38       -7.533057   1.000000
   39       -7.377140   1.000000
   40       -7.312299   1.000000
   41       -7.185264   1.000000
   42       -7.029172   1.000000
   43       -6.919866   1.000000
   44       -6.915715   1.000000
   45       -6.805011   1.000000
   46       -6.786970   1.000000
   47       -6.712789   1.000000
   48       -6.595935   1.000000
   49       -6.585882   1.000000
   50       -6.549695   1.000000
   51       -6.450776   1.000000
   52       -6.363554   1.000000
   53       -6.276028   1.000000
   54       -6.191547   1.000000
   55       -6.117468   1.000000
   56       -6.024668   1.000000
   57       -5.943277   1.000000
   58       -5.906552   1.000000
   59       -5.840471   1.000000
   60       -5.834197   1.000000
   61       -5.751195   1.000000
   62       -5.727320   1.000000
   63       -5.545881   1.000000
   64       -5.511483   1.000000
   65       -5.475434   1.000000
   66       -5.067476   1.000000
   67       -4.996753   1.000000
   68       -4.885863   1.000000
   69       -4.834729   1.000000
   70       -4.688504   1.000000
   71       -4.529621   1.000000
   72       -4.453642   1.000000
   73       -4.323322   1.000000
   74       -3.996496   1.000000
   75       -3.951647   1.000000
   76       -3.762676   0.999981
   77       -3.671471   0.999738
   78       -3.600747   0.998503
   79       -3.282310   0.763229
   80       -3.205111   0.567828
   81       -3.144644   0.398698
   82       -2.940367   0.044455
   83       -2.667765   0.000142
   84       -2.550486   0.000004
   85       -2.475361   0.000000
   86       -2.279181   0.000000
   87       -2.212027   0.000000
   88       -2.108657   0.000000
   89       -1.984481   0.000000
   90       -1.946346   0.000000
   91       -1.903742   0.000000
   92       -1.694783   0.000000
   93       -1.597055   0.000000
   94       -1.450218   0.000000
   95       -1.347232   0.000000
   96       -1.317308   0.000000
   97       -1.058301   0.000000
   98       -0.996644   0.000000
   99       -0.902499   0.000000
  100       -0.835821   0.000000
  101       -0.699120   0.000000
  102       -0.677953   0.000000
  103       -0.615573   0.000000
  104       -0.598887   0.000000
  105       -0.483718   0.000000
  106       -0.391918   0.000000
  107       -0.361810   0.000000
  108       -0.106876   0.000000
  109        0.106607   0.000000
  110        0.370555   0.000000
  111        0.444612   0.000000
  112        0.846657   0.000000
  113        0.942016   0.000000
  114        0.971423   0.000000
  115        1.087728   0.000000
  116        1.296499   0.000000
  117        1.547191   0.000000
  118        2.241036   0.000000
  119        2.271337   0.000000
  120        2.391834   0.000000
 
  0.0000000E+00  0.1250000E+00  0.0000000E+00  0.3125000E-01
    1      -17.777449   1.000000
    2      -16.743737   1.000000
    3      -16.641619   1.000000
    4      -16.607139   1.000000
    5      -16.484250   1.000000
    6      -16.428618   1.000000
    7      -16.333243   1.000000
    8      -16.255675   1.000000
    9      -16.178027   1.000000
   10      -16.125842   1.000000
   11      -16.019999   1.000000
   12      -15.946855   1.000000
   13      -15.892566   1.000000
   14      -15.739737   1.000000
   15      -15.609907   1.000000
   16      -15.540907   1.000000
   17      -15.488408   1.000000
   18      -15.337964   1.000000
   19       -9.248550   1.000000
   20       -9.088127   1.000000
   21       -8.979729   1.000000
   22       -8.881975   1.000000
   23       -8.782115   1.000000
   24       -8.665586   1.000000
   25       -8.617798   1.000000
   26       -8.528288   1.000000
   27       -8.478190   1.000000
   28       -8.446847   1.000000
   29       -8.340970   1.000000
   30       -8.265594   1.000000
   31       -8.230869   1.000000
   32       -8.150174   1.000000
   33       -8.046698   1.000000
   34       -7.885410   1.000000
   35       -7.789688   1.000000
   36       -7.731827   1.000000
   37       -7.724967   1.000000
   38       -7.608995   1.000000
   39       -7.528589   1.000000
   40       -7.425744   1.000000
   41       -7.348333   1.000000
   42       -7.250550   1.000000
   43       -7.065737   1.000000
   44       -7.012796   1.000000
   45       -6.821217   1.000000
   46       -6.802759   1.000000
   47       -6.787210   1.000000
   48       -6.691439   1.000000
   49       -6.609973   1.000000
   50       -6.576937   1.000000
   51       -6.502637   1.000000
   52       -6.417938   1.000000
   53       -6.370254   1.000000
   54       -6.298290   1.000000
   55       -6.144157   1.000000
   56       -6.105330   1.000000
   57       -6.001057   1.000000
   58       -5.792446   1.000000
   59       -5.709434   1.000000
   60       -5.588012   1.000000
   61       -5.514651   1.000000
   62       -5.400426   1.000000
   63       -5.343772   1.000000
   64       -5.251234   1.000000
   65       -5.110023   1.000000
   66       -5.049914   1.000000
   67       -4.926908   1.000000
   68       -4.873522   1.000000
   69       -4.775181   1.000000
   70       -4.638366   1.000000
   71       -4.553733   1.000000
   72       -4.417414   1.000000
   73       -4.301387   1.000000
   74       -4.127365   1.000000
   75       -4.087486   1.000000
   76       -3.920879   1.000000
   77       -3.799087   0.999994
   78       -3.680239   0.999793
   79       -3.505443   0.989120
   80       -3.256297   0.702910
   81       -3.132535   0.366047
   82       -2.660436   0.000116
   83       -2.614334   0.000031
   84       -2.539595   0.000003
   85       -2.411439   0.000000
   86       -2.356451   0.000000
   87       -2.267025   0.000000
   88       -2.201776   0.000000
   89       -2.092417   0.000000
   90       -1.972503   0.000000
   91       -1.882812   0.000000
   92       -1.662696   0.000000
   93       -1.594588   0.000000
   94       -1.545944   0.000000
   95       -1.397447   0.000000
   96       -1.328973   0.000000
   97       -1.212987   0.000000
   98       -1.101307   0.000000
   99       -0.686506   0.000000
  100       -0.604638   0.000000
  101       -0.561102   0.000000
  102       -0.471123   0.000000
  103       -0.449368   0.000000
  104       -0.319514   0.000000
  105       -0.189517   0.000000
  106       -0.020984   0.000000
  107        0.043958   0.000000
  108        0.125718   0.000000
  109        0.136657   0.000000
  110        0.204690   0.000000
  111        0.493837   0.000000
  112        0.678505   0.000000
  113        0.828243   0.000000
  114        0.876426   0.000000
  115        0.999262   0.000000
  116        1.085873   0.000000
  117        1.180897   0.000000
  118        1.709448   0.000000
  119        1.876425   0.000000
  120        2.214123   0.000000
 
  0.1250000E+00  0.1250000E+00  0.0000000E+00  0.3125000E-01
    1      -17.726010   1.000000
    2      -16.847682   1.000000
    3      -16.791554   1.000000
    4      -16.592547   1.000000
    5      -16.467641   1.000000
    6      -16.400629   1.000000
    7      -16.324545   1.000000
    8      -16.206584   1.000000
    9      -16.165733   1.000000
   10      -16.130823   1.000000
   11      -15.982281   1.000000
   12      -15.933971   1.000000
   13      -15.821292   1.000000
   14      -15.704581   1.000000
   15      -15.624495   1.000000
   16      -15.548995   1.000000
   17      -15.492748   1.000000
   18      -15.366908   1.000000
   19       -9.338450   1.000000
   20       -9.261201   1.000000
   21       -9.098531   1.000000
   22       -8.964074   1.000000
   23       -8.806337   1.000000
   24       -8.741346   1.000000
   25       -8.577785   1.000000
   26       -8.520479   1.000000
   27       -8.420976   1.000000
   28       -8.384975   1.000000
   29       -8.335051   1.000000
   30       -8.278076   1.000000
   31       -8.167800   1.000000
   32       -8.090276   1.000000
   33       -7.979235   1.000000
   34       -7.866414   1.000000
   35       -7.765854   1.000000
   36       -7.644564   1.000000
   37       -7.596612   1.000000
   38       -7.503898   1.000000
   39       -7.401280   1.000000
   40       -7.366958   1.000000
   41       -7.300085   1.000000
   42       -7.229887   1.000000
   43       -7.091602   1.000000
   44       -7.045808   1.000000
   45       -6.906484   1.000000
   46       -6.846539   1.000000
   47       -6.803300   1.000000
   48       -6.742718   1.000000
   49       -6.676281   1.000000
   50       -6.543006   1.000000
   51       -6.525188   1.000000
   52       -6.402363   1.000000
   53       -6.307680   1.000000
   54       -6.219901   1.000000
   55       -6.166704   1.000000
   56       -6.099944   1.000000
   57       -5.975278   1.000000
   58       -5.771248   1.000000
   59       -5.663537   1.000000
   60       -5.603068   1.000000
   61       -5.542499   1.000000
   62       -5.459660   1.000000
   63       -5.398364   1.000000
   64       -5.299535   1.000000
   65       -5.218393   1.000000
   66       -5.120596   1.000000
   67       -5.062178   1.000000
   68       -4.977378   1.000000
   69       -4.771703   1.000000
   70       -4.630078   1.000000
   71       -4.486838   1.000000
   72       -4.351596   1.000000
   73       -4.175124   1.000000
   74       -4.058666   1.000000
   75       -4.027354   1.000000
   76       -3.916402   1.000000
   77       -3.899124   1.000000
   78       -3.734843   0.999955
   79       -3.479220   0.982532
   80       -3.197744   0.547265
   81       -3.097204   0.276869
   82       -2.707494   0.000407
   83       -2.660355   0.000116
   84       -2.528767   0.000002
   85       -2.422309   0.000000
   86       -2.345584   0.000000
   87       -2.235277   0.000000
   88       -2.210978   0.000000
   89       -2.111783   0.000000
   90       -1.957391   0.000000
   91       -1.876364   0.000000
   92       -1.692469   0.000000
   93       -1.614139   0.000000
   94       -1.473934   0.000000
   95       -1.377370   0.000000
   96       -1.285693   0.000000
   97       -1.148783   0.000000
   98       -1.024576   0.000000
   99       -0.770519   0.000000
  100       -0.729986   0.000000
  101       -0.643568   0.000000
  102       -0.535444   0.000000
  103       -0.487791   0.000000
  104       -0.424379   0.000000
  105       -0.215242   0.000000
  106       -0.164285   0.000000
  107       -0.108634   0.000000
  108        0.016283   0.000000
  109        0.139464   0.000000
  110        0.245832   0.000000
  111        0.613783   0.000000
  112        0.725743   0.000000
  113        0.798496   0.000000
  114        0.898119   0.000000
  115        1.041492   0.000000
  116        1.127702   0.000000
  117        1.309227   0.000000
  118        1.793726   0.000000
  119        1.949359   0.000000
  120        2.284536   0.000000
 
  0.2500000E+00  0.1250000E+00  0.0000000E+00  0.3125000E-01
    1      -17.625985   1.000000
    2      -17.052059   1.000000
    3      -16.888069   1.000000
    4      -16.564941   1.000000
    5      -16.477459   1.000000
    6      -16.373145   1.000000
    7      -16.314730   1.000000
    8      -16.191719   1.000000
    9      -16.124426   1.000000
   10      -16.081624   1.000000
   11      -15.979013   1.000000
   12      -15.913259   1.000000
   13      -15.770259   1.000000
   14      -15.660210   1.000000
   15      -15.623132   1.000000
   16      -15.558488   1.000000
   17      -15.497371   1.000000
   18      -15.399952   1.000000
   19       -9.596456   1.000000
   20       -9.363074   1.000000
   21       -9.180556   1.000000
   22       -9.014812   1.000000
   23       -8.804265   1.000000
   24       -8.757332   1.000000
   25       -8.568352   1.000000
   26       -8.482475   1.000000
   27       -8.386624   1.000000
   28       -8.357498   1.000000
   29       -8.289864   1.000000
   30       -8.194095   1.000000
   31       -8.141710   1.000000
   32       -8.048848   1.000000
   33       -8.025523   1.000000
   34       -7.895087   1.000000
   35       -7.825152   1.000000
   36       -7.558693   1.000000
   37       -7.467666   1.000000
   38       -7.390444   1.000000
   39       -7.353460   1.000000
   40       -7.296564   1.000000
   41       -7.229714   1.000000
   42       -7.171180   1.000000
   43       -7.066931   1.000000
   44       -7.014718   1.000000
   45       -6.880188   1.000000
   46       -6.822707   1.000000
   47       -6.760136   1.000000