<?xml version="1.0" encoding="ISO-8859-1"?>
<modeling>
 <generator>
  <i name="program" type="string">vasp </i>
  <i name="version" type="string">5.4.1  </i>
  <i name="subversion" type="string">05Feb16 (build Jul 05 2020 17:13:04) complex                          parallel </i>
  <i name="platform" type="string">IFC91_ompi </i>
  <i name="date" type="string">2024 07 15 </i>
  <i name="time" type="string">13:28:14 </i>
 </generator>
 <incar>
  <i type="int" name="ISTART">     0</i>
  <i type="string" name="PREC">normal</i>
  <i type="string" name="ALGO"> Normal</i>
  <i type="int" name="ISPIN">     1</i>
  <i type="int" name="ICHARG">     2</i>
  <i type="int" name="IBRION">     1</i>
  <i type="int" name="NSW">   100</i>
  <i type="int" name="ISIF">     3</i>
  <i type="int" name="ISYM">     0</i>
  <i name="SYMPREC">      0.00000001</i>
  <i name="POTIM">      0.50000000</i>
  <i type="logical" name="LREAL"> F  </i>
  <i type="logical" name="LPLANE"> F  </i>
  <i type="int" name="ISMEAR">     0</i>
  <i type="logical" name="LWAVE"> F  </i>
  <i type="logical" name="LCHARG"> F  </i>
  <v type="int" name="KPOINT_BSE">    -1     0     0     0</v>
 </incar>
 <kpoints>
  <generation param="Gamma">
   <v type="int" name="divisions">       8        8        1 </v>
   <v name="usershift">      0.00000000       0.00000000       0.00000000 </v>
   <v name="genvec1">      0.12500000       0.00000000       0.00000000 </v>
   <v name="genvec2">     -0.00000000       0.12500000       0.00000000 </v>
   <v name="genvec3">      0.00000000       0.00000000       1.00000000 </v>
   <v name="shift">      0.00000000       0.00000000       0.00000000 </v>
  </generation>
  <varray name="kpointlist" >
   <v>       0.00000000       0.00000000       0.00000000 </v>
   <v>       0.12500000       0.00000000       0.00000000 </v>
   <v>       0.25000000       0.00000000       0.00000000 </v>
   <v>       0.37500000       0.00000000       0.00000000 </v>
   <v>       0.50000000       0.00000000       0.00000000 </v>
   <v>       0.00000000       0.12500000       0.00000000 </v>
   <v>       0.12500000       0.12500000       0.00000000 </v>
   <v>       0.25000000       0.12500000       0.00000000 </v>
   <v>       0.37500000       0.12500000       0.00000000 </v>
   <v>       0.50000000       0.12500000       0.00000000 </v>
   <v>      -0.37500000       0.12500000       0.00000000 </v>
   <v>      -0.25000000       0.12500000       0.00000000 </v>
   <v>      -0.12500000       0.12500000       0.00000000 </v>
   <v>       0.00000000       0.25000000       0.00000000 </v>
   <v>       0.12500000       0.25000000       0.00000000 </v>
   <v>       0.25000000       0.25000000       0.00000000 </v>
   <v>       0.37500000       0.25000000       0.00000000 </v>
   <v>       0.50000000       0.25000000       0.00000000 </v>
   <v>      -0.37500000       0.25000000       0.00000000 </v>
   <v>      -0.25000000       0.25000000       0.00000000 </v>
   <v>      -0.12500000       0.25000000       0.00000000 </v>
   <v>      -0.00000000       0.37500000       0.00000000 </v>
   <v>       0.12500000       0.37500000       0.00000000 </v>
   <v>       0.25000000       0.37500000       0.00000000 </v>
   <v>       0.37500000       0.37500000       0.00000000 </v>
   <v>       0.50000000       0.37500000       0.00000000 </v>
   <v>      -0.37500000       0.37500000       0.00000000 </v>
   <v>      -0.25000000       0.37500000       0.00000000 </v>
   <v>      -0.12500000       0.37500000       0.00000000 </v>
   <v>       0.00000000       0.50000000       0.00000000 </v>
   <v>       0.12500000       0.50000000       0.00000000 </v>
   <v>       0.25000000       0.50000000       0.00000000 </v>
   <v>       0.37500000       0.50000000       0.00000000 </v>
   <v>       0.50000000       0.50000000       0.00000000 </v>
  </varray>
  <varray name="weights" >
   <v>       0.01562500 </v>
   <v>       0.03125000 </v>
   <v>       0.03125000 </v>
   <v>       0.03125000 </v>
   <v>       0.01562500 </v>
   <v>       0.03125000 </v>
   <v>       0.03125000 </v>
   <v>       0.03125000 </v>
   <v>       0.03125000 </v>
   <v>       0.03125000 </v>
   <v>       0.03125000 </v>
   <v>       0.03125000 </v>
   <v>       0.03125000 </v>
   <v>       0.03125000 </v>
   <v>       0.03125000 </v>
   <v>       0.03125000 </v>
   <v>       0.03125000 </v>
   <v>       0.03125000 </v>
   <v>       0.03125000 </v>
   <v>       0.03125000 </v>
   <v>       0.03125000 </v>
   <v>       0.03125000 </v>
   <v>       0.03125000 </v>
   <v>       0.03125000 </v>
   <v>       0.03125000 </v>
   <v>       0.03125000 </v>
   <v>       0.03125000 </v>
   <v>       0.03125000 </v>
   <v>       0.03125000 </v>
   <v>       0.01562500 </v>
   <v>       0.03125000 </v>
   <v>       0.03125000 </v>
   <v>       0.03125000 </v>
   <v>       0.01562500 </v>
  </varray>
 </kpoints>
 <parameters>
  <separator name="general" >
   <i type="string" name="SYSTEM">unknown system</i>
   <i type="logical" name="LCOMPAT"> F  </i>
  </separator>
  <separator name="electronic" >
   <i type="string" name="PREC">normal</i>
   <i name="ENMAX">    280.00000000</i>
   <i name="ENAUG">    373.43800000</i>
   <i name="EDIFF">      0.00010000</i>
   <i type="int" name="IALGO">    38</i>
   <i type="int" name="IWAVPR">    11</i>
   <i type="int" name="NBANDS">   120</i>
   <i name="NELECT">    159.00000000</i>
   <i type="int" name="TURBO">     0</i>
   <i type="int" name="IRESTART">     0</i>
   <i type="int" name="NREBOOT">     0</i>
   <i type="int" name="NMIN">     0</i>
   <i name="EREF">      0.00000000</i>
   <separator name="electronic smearing" >
    <i type="int" name="ISMEAR">     0</i>
    <i name="SIGMA">      0.20000000</i>
    <i name="KSPACING">      0.50000000</i>
    <i type="logical" name="KGAMMA"> T  </i>
   </separator>
   <separator name="electronic projectors" >
    <i type="logical" name="LREAL"> F  </i>
    <v name="ROPT">      0.00000000      0.00000000      0.00000000      0.00000000</v>
    <i type="int" name="LMAXPAW">  -100</i>
    <i type="int" name="LMAXMIX">     2</i>
    <i type="logical" name="NLSPLINE"> F  </i>
   </separator>
   <separator name="electronic startup" >
    <i type="int" name="ISTART">     0</i>
    <i type="int" name="ICHARG">     2</i>
    <i type="int" name="INIWAV">     1</i>
   </separator>
   <separator name="electronic spin" >
    <i type="int" name="ISPIN">     1</i>
    <i type="logical" name="LNONCOLLINEAR"> F  </i>
    <v name="MAGMOM">      1.00000000      1.00000000      1.00000000      1.00000000      1.00000000      1.00000000      1.00000000      1.00000000      1.00000000      1.00000000      1.00000000      1.00000000      1.00000000      1.00000000      1.00000000      1.00000000      1.00000000      1.00000000      1.00000000      1.00000000
      1.00000000      1.00000000      1.00000000      1.00000000      1.00000000      1.00000000      1.00000000</v>
    <i name="NUPDOWN">     -1.00000000</i>
    <i type="logical" name="LSORBIT"> F  </i>
    <v name="SAXIS">      0.00000000      0.00000000      1.00000000</v>
    <i type="logical" name="LSPIRAL"> F  </i>
    <v name="QSPIRAL">      0.00000000      0.00000000      0.00000000</v>
    <i type="logical" name="LZEROZ"> F  </i>
   </separator>
   <separator name="electronic exchange-correlation" >
    <i type="logical" name="LASPH"> F  </i>
    <i type="logical" name="LMETAGGA"> F  </i>
   </separator>
   <separator name="electronic convergence" >
    <i type="int" name="NELM">    60</i>
    <i type="int" name="NELMDL">    -5</i>
    <i type="int" name="NELMIN">     2</i>
    <i name="ENINI">    280.00000000</i>
    <separator name="electronic convergence detail" >
     <i type="logical" name="LDIAG"> T  </i>
     <i type="logical" name="LSUBROT"> F  </i>
     <i name="WEIMIN">      0.00100000</i>
     <i name="EBREAK">      0.00000021</i>
     <i name="DEPER">      0.30000000</i>
     <i type="int" name="NRMM">     4</i>
     <i name="TIME">      0.40000000</i>
    </separator>
   </separator>
   <separator name="electronic mixer" >
    <i name="AMIX">      0.40000000</i>
    <i name="BMIX">      1.00000000</i>
    <i name="AMIN">      0.10000000</i>
    <i name="AMIX_MAG">      1.60000000</i>
    <i name="BMIX_MAG">      1.00000000</i>
    <separator name="electronic mixer details" >
     <i type="int" name="IMIX">     4</i>
     <i type="logical" name="MIXFIRST"> F  </i>
     <i type="int" name="MAXMIX">   -45</i>
     <i name="WC">    100.00000000</i>
     <i type="int" name="INIMIX">     1</i>
     <i type="int" name="MIXPRE">     1</i>
     <i type="int" name="MREMOVE">     5</i>
    </separator>
   </separator>
   <separator name="electronic dipolcorrection" >
    <i type="logical" name="LDIPOL"> F  </i>
    <i type="logical" name="LMONO"> F  </i>
    <i type="int" name="IDIPOL">     0</i>
    <i name="EPSILON">      1.00000000</i>
    <v name="DIPOL">   -100.00000000   -100.00000000   -100.00000000</v>
    <i name="EFIELD">      0.00000000</i>
   </separator>
  </separator>
  <separator name="grids" >
   <i type="int" name="NGX">    42</i>
   <i type="int" name="NGY">    42</i>
   <i type="int" name="NGZ">   126</i>
   <i type="int" name="NGXF">    84</i>
   <i type="int" name="NGYF">    84</i>
   <i type="int" name="NGZF">   252</i>
   <i type="logical" name="ADDGRID"> F  </i>
  </separator>
  <separator name="ionic" >
   <i type="int" name="NSW">   100</i>
   <i type="int" name="IBRION">     1</i>
   <i type="int" name="ISIF">     3</i>
   <i name="PSTRESS">      0.00000000</i>
   <i name="EDIFFG">      0.00100000</i>
   <i type="int" name="NFREE">     0</i>
   <i name="POTIM">      0.50000000</i>
   <i name="SMASS">     -3.00000000</i>
   <i name="SCALEE">      1.00000000</i>
  </separator>
  <separator name="ionic md" >
   <i name="TEBEG">      0.00010000</i>
   <i name="TEEND">      0.00010000</i>
   <i type="int" name="NBLOCK">     1</i>
   <i type="int" name="KBLOCK">   100</i>
   <i type="int" name="NPACO">   256</i>
   <i name="APACO">     16.00000000</i>
  </separator>
  <separator name="symmetry" >
   <i type="int" name="ISYM">     0</i>
   <i name="SYMPREC">      0.00000001</i>
  </separator>
  <separator name="dos" >
   <i type="logical" name="LORBIT"> F  </i>
   <v name="RWIGS">     -1.00000000     -1.00000000     -1.00000000     -1.00000000</v>
   <i type="int" name="NEDOS">   301</i>
   <i name="EMIN">     10.00000000</i>
   <i name="EMAX">    -10.00000000</i>
   <i name="EFERMI">      0.00000000</i>
  </separator>
  <separator name="writing" >
   <i type="int" name="NWRITE">     2</i>
   <i type="logical" name="LWAVE"> F  </i>
   <i type="logical" name="LCHARG"> F  </i>
   <i type="logical" name="LPARD"> F  </i>
   <i type="logical" name="LVTOT"> F  </i>
   <i type="logical" name="LVHAR"> F  </i>
   <i type="logical" name="LELF"> F  </i>
   <i type="logical" name="LOPTICS"> F  </i>
   <v name="STM">      0.00000000      0.00000000      0.00000000      0.00000000      0.00000000      0.00000000      0.00000000</v>
  </separator>
  <separator name="performance" >
   <i type="int" name="NPAR">    40</i>
   <i type="int" name="NSIM">     4</i>
   <i type="int" name="NBLK">    -1</i>
   <i type="logical" name="LPLANE"> F  </i>
   <i type="logical" name="LSCALAPACK"> T  </i>
   <i type="logical" name="LSCAAWARE"> F  </i>
   <i type="logical" name="LSCALU"> F  </i>
   <i type="logical" name="LASYNC"> F  </i>
   <i type="logical" name="LORBITALREAL"> F  </i>
  </separator>
  <separator name="miscellaneous" >
   <i type="int" name="IDIOT">     3</i>
   <i type="logical" name="LMUSIC"> F  </i>
   <v name="POMASS">     50.94100000     95.94000000    183.85000000     32.06600000</v>
   <v name="DARWINR">      0.00000000      0.00000000      0.00000000      0.00000000</v>
   <v name="DARWINV">      1.00000000      1.00000000      1.00000000      1.00000000</v>
   <i type="logical" name="LCORR"> T  </i>
  </separator>
  <i type="logical" name="GGA_COMPAT"> T  </i>
  <i type="logical" name="LBERRY"> F  </i>
  <i type="int" name="ICORELEVEL">     0</i>
  <i type="logical" name="LDAU"> F  </i>
  <i type="int" name="I_CONSTRAINED_M">     0</i>
  <separator name="electronic exchange-correlation" >
   <i type="string" name="GGA">--</i>
   <i type="int" name="VOSKOWN">     0</i>
   <i type="logical" name="LHFCALC"> F  </i>
   <i type="string" name="PRECFOCK"></i>
   <i type="logical" name="LSYMGRAD"> F  </i>
   <i type="logical" name="LHFONE"> F  </i>
   <i type="logical" name="LRHFCALC"> F  </i>
   <i type="logical" name="LTHOMAS"> F  </i>
   <i type="logical" name="LMODELHF"> F  </i>
   <i name="ENCUT4O">     -1.00000000</i>
   <i type="int" name="EXXOEP">     0</i>
   <i type="int" name="FOURORBIT">     0</i>
   <i name="AEXX">      0.00000000</i>
   <i name="HFALPHA">      0.00000000</i>
   <i name="MCALPHA">      0.00000000</i>
   <i name="ALDAX">      1.00000000</i>
   <i name="AGGAX">      1.00000000</i>
   <i name="ALDAC">      1.00000000</i>
   <i name="AGGAC">      1.00000000</i>
   <i type="int" name="NKREDX">     1</i>
   <i type="int" name="NKREDY">     1</i>
   <i type="int" name="NKREDZ">     1</i>
   <i type="logical" name="SHIFTRED"> F  </i>
   <i type="logical" name="ODDONLY"> F  </i>
   <i type="logical" name="EVENONLY"> F  </i>
   <i type="int" name="LMAXFOCK">     0</i>
   <i type="int" name="NMAXFOCKAE">     0</i>
   <i type="logical" name="LFOCKAEDFT"> F  </i>
   <i name="HFSCREEN">      0.00000000</i>
   <i name="HFSCREENC">      0.00000000</i>
   <i type="int" name="NBANDSGWLOW">     0</i>
  </separator>
  <separator name="vdW DFT" >
   <i type="logical" name="LUSE_VDW"> F  </i>
   <i name="Zab_VDW">     -0.84910000</i>
   <i name="PARAM1">      0.12340000</i>
   <i name="PARAM2">      1.00000000</i>
   <i name="PARAM3">      0.00000000</i>
  </separator>
  <separator name="model GW" >
   <i type="int" name="MODEL_GW">     0</i>
   <i name="MODEL_EPS0">     58.26239943</i>
   <i name="MODEL_ALPHA">      1.00000000</i>
  </separator>
  <separator name="linear response parameters" >
   <i type="logical" name="LEPSILON"> F  </i>
   <i type="logical" name="LRPA"> F  </i>
   <i type="logical" name="LNABLA"> F  </i>
   <i type="logical" name="LVEL"> F  </i>
   <i type="int" name="KINTER">     0</i>
   <i name="CSHIFT">      0.10000000</i>
   <i name="OMEGAMAX">     -1.00000000</i>
   <i name="DEG_THRESHOLD">      0.00200000</i>
  </separator>
  <separator name="orbital magnetization" >
   <i type="logical" name="NUCIND"> F  </i>
   <v name="MAGPOS">      0.00000000      0.00000000      0.00000000</v>
   <i type="logical" name="LNICSALL"> T  </i>
   <i type="logical" name="ORBITALMAG"> F  </i>
   <i type="logical" name="LMAGBLOCH"> F  </i>
   <i type="logical" name="LCHIMAG"> F  </i>
   <i type="logical" name="LGAUGE"> T  </i>
   <i type="int" name="MAGATOM">     0</i>
   <v name="MAGDIPOL">      0.00000000      0.00000000      0.00000000</v>
   <v name="AVECCONST">      0.00000000      0.00000000      0.00000000</v>
  </separator>
  <separator name="response functions" >
   <i type="logical" name="LADDER"> F  </i>
   <i type="logical" name="LFXC"> F  </i>
   <i type="logical" name="LHARTREE"> T  </i>
   <i type="int" name="IBSE">     0</i>
   <v type="int" name="KPOINT">    -1     0     0     0</v>
   <i type="logical" name="LTCTE"> F  </i>
   <i type="logical" name="LTETE"> F  </i>
   <i type="logical" name="LTRIPLET"> F  </i>
   <i type="logical" name="LFXCEPS"> F  </i>
   <i type="logical" name="LFXHEG"> F  </i>
   <i type="int" name="NATURALO">     0</i>
   <i type="logical" name="L2ORDER"> F  </i>
   <i type="logical" name="LUSEW"> F  </i>
   <i name="ENCUTGW">     -2.00000000</i>
   <i name="ENCUTGWSOFT">     -2.00000000</i>
   <i name="ENCUTLF">     -1.00000000</i>
   <i type="int" name="LMAXMP2">    -1</i>
   <i name="SCISSOR">      0.00000000</i>
   <i type="int" name="NOMEGA">     0</i>
   <i type="int" name="NOMEGAR">     0</i>
   <i type="int" name="NBANDSGW">    -1</i>
   <i type="int" name="NBANDSO">    -1</i>
   <i type="int" name="NBANDSV">    -1</i>
   <i type="int" name="NELM">     1</i>
   <i type="int" name="NELMHF">     1</i>
   <i type="int" name="DIM">     3</i>
   <i type="int" name="ANTIRES">     0</i>
   <i name="OMEGAMAX">    -30.00000000</i>
   <i name="OMEGAMIN">    -30.00000000</i>
   <i name="OMEGATL">   -200.00000000</i>
   <i type="int" name="OMEGAGRID">     0</i>
   <i name="CSHIFT">     -0.10000000</i>
   <i type="logical" name="SELFENERGY"> F  </i>
   <i type="logical" name="LSPECTRAL"> F  </i>
   <i type="logical" name="LSPECTRALGW"> F  </i>
   <i type="logical" name="LSINGLES"> F  </i>
   <i type="logical" name="LFERMIGW"> F  </i>
   <i type="logical" name="ODDONLYGW"> F  </i>
   <i type="logical" name="EVENONLYGW"> F  </i>
   <i type="int" name="NKREDLFX">     1</i>
   <i type="int" name="NKREDLFY">     1</i>
   <i type="int" name="NKREDLFZ">     1</i>
   <i type="int" name="MAXMEM">  1800</i>
   <i type="int" name="TELESCOPE">     0</i>
   <i type="int" name="TAUPAR">     1</i>
   <i type="int" name="OMEGAPAR">    -1</i>
   <i name="LAMBDA">      1.00000000</i>
  </separator>
  <separator name="External order field" >
   <i name="OFIELD_KAPPA">      0.00000000</i>
   <v name="OFIELD_K">      0.00000000      0.00000000      0.00000000</v>
   <i name="OFIELD_Q6_NEAR">      0.00000000</i>
   <i name="OFIELD_Q6_FAR">      0.00000000</i>
   <i name="OFIELD_A">      0.00000000</i>
  </separator>
 </parameters>
 <atominfo>
  <atoms>      27 </atoms>
  <types>       4 </types>
  <array name="atoms" >
   <dimension dim="1">ion</dimension>
   <field type="string">element</field>
   <field type="int">atomtype</field>
   <set>
    <rc><c>V </c><c>   1</c></rc>
    <rc><c>V </c><c>   1</c></rc>
    <rc><c>V </c><c>   1</c></rc>
    <rc><c>Mo</c><c>   2</c></rc>
    <rc><c>Mo</c><c>   2</c></rc>
    <rc><c>Mo</c><c>   2</c></rc>
    <rc><c>W </c><c>   3</c></rc>
    <rc><c>W </c><c>   3</c></rc>
    <rc><c>W </c><c>   3</c></rc>
    <rc><c>S </c><c>   4</c></rc>
    <rc><c>S </c><c>   4</c></rc>
    <rc><c>S </c><c>   4</c></rc>
    <rc><c>S </c><c>   4</c></rc>
    <rc><c>S </c><c>   4</c></rc>
    <rc><c>S </c><c>   4</c></rc>
    <rc><c>S </c><c>   4</c></rc>
    <rc><c>S </c><c>   4</c></rc>
    <rc><c>S </c><c>   4</c></rc>
    <rc><c>S </c><c>   4</c></rc>
    <rc><c>S </c><c>   4</c></rc>
    <rc><c>S </c><c>   4</c></rc>
    <rc><c>S </c><c>   4</c></rc>
    <rc><c>S </c><c>   4</c></rc>
    <rc><c>S </c><c>   4</c></rc>
    <rc><c>S </c><c>   4</c></rc>
    <rc><c>S </c><c>   4</c></rc>
    <rc><c>S </c><c>   4</c></rc>
   </set>
  </array>
  <array name="atomtypes" >
   <dimension dim="1">type</dimension>
   <field type="int">atomspertype</field>
   <field type="string">element</field>
   <field>mass</field>
   <field>valence</field>
   <field type="string">pseudopotential</field>
   <set>
    <rc><c>   3</c><c>V </c><c>     50.94100000</c><c>      5.00000000</c><c> PAW_PBE V 08Apr2002                    </c></rc>
    <rc><c>   3</c><c>Mo</c><c>     95.94000000</c><c>      6.00000000</c><c> PAW_PBE Mo 08Apr2002                   </c></rc>
    <rc><c>   3</c><c>W </c><c>    183.85000000</c><c>      6.00000000</c><c> PAW_PBE W 08Apr2002                    </c></rc>
    <rc><c>  18</c><c>S </c><c>     32.06600000</c><c>      6.00000000</c><c>  PAW_PBE S 17Jan2003                   </c></rc>
   </set>
  </array>
 </atominfo>
 <structure name="initialpos" >
  <crystal>
   <varray name="basis" >
    <v>       8.66999996       5.03999989       0.00000000 </v>
    <v>      -8.66999982       5.04000013       0.00000000 </v>
    <v>       0.00000000       0.00000000      30.00000000 </v>
   </varray>
   <i name="volume">   2621.80797419 </i>
   <varray name="rec_basis" >
    <v>       0.05767013       0.09920635       0.00000000 </v>
    <v>      -0.05767013       0.09920635       0.00000000 </v>
    <v>       0.00000000       0.00000000       0.03333333 </v>
   </varray>
  </crystal>
  <varray name="positions" >
   <v>       1.00000000       0.33333334       0.00000000 </v>
   <v>       0.00000000       0.66666669       0.00000000 </v>
   <v>       0.66666669       0.33333334       0.00000000 </v>
   <v>       0.00000000       0.00000000       0.00000000 </v>
   <v>       0.33333334       0.66666669       0.00000000 </v>
   <v>       0.33333334       0.00000000       0.00000000 </v>
   <v>       0.33333334       0.33333334       0.00000000 </v>
   <v>       0.66666669       0.00000000       0.00000000 </v>
   <v>       0.66666669       0.66666669       0.00000000 </v>
   <v>       0.11068511       0.22244981       0.95539999 </v>
   <v>       0.22244981       0.11068511       0.04460000 </v>
   <v>       0.11068511       0.55578315       0.95539999 </v>
   <v>       0.22244981       0.44401845       0.04460000 </v>
   <v>       0.11068511       0.88911647       0.95539999 </v>
   <v>       0.22244981       0.77735180       0.04460000 </v>
   <v>       0.44401845       0.22244981       0.95539999 </v>
   <v>       0.55578315       0.11068511       0.04460000 </v>
   <v>       0.44401845       0.55578315       0.95539999 </v>
   <v>       0.55578315       0.44401845       0.04460000 </v>
   <v>       0.44401845       0.88911647       0.95539999 </v>
   <v>       0.55578315       0.77735180       0.04460000 </v>
   <v>       0.77735180       0.22244981       0.95539999 </v>
   <v>       0.88911647       0.11068511       0.04460000 </v>
   <v>       0.77735180       0.55578315       0.95539999 </v>
   <v>       0.88911647       0.44401845       0.04460000 </v>
   <v>       0.77735180       0.88911647       0.95539999 </v>
   <v>       0.88911647       0.77735180       0.04460000 </v>
  </varray>
 </structure>
 <calculation>
  <scstep>
   <time name="dav">   22.37   22.43</time>
   <time name="total">   22.42   22.53</time>
   <energy>
    <i name="alphaZ">     81.65567618 </i>
    <i name="ewald">  41891.17178115 </i>
    <i name="hartreedc"> -47723.81659097 </i>
    <i name="XCdc">   -242.92514250 </i>
    <i name="pawpsdc">   3467.42045192 </i>
    <i name="pawaedc">  -2871.19716117 </i>
    <i name="eentropy">     -0.54307254 </i>
    <i name="bandstr">   -239.11559631 </i>
    <i name="atom">   6761.44252427 </i>
    <i name="e_fr_energy">   1124.09287003 </i>
    <i name="e_wo_entrp">   1124.63594257 </i>
    <i name="e_0_energy">   1124.36440630 </i>
   </energy>
  </scstep>
  <scstep>
   <time name="dav">   29.28   29.35</time>
   <time name="total">   29.28   29.35</time>
   <energy>
    <i name="e_fr_energy">     -3.33595146 </i>
    <i name="e_wo_entrp">     -3.13130723 </i>
    <i name="e_0_energy">     -3.23362934 </i>
   </energy>
  </scstep>
  <scstep>
   <time name="dav">   28.27   28.34</time>
   <time name="total">   28.27   28.34</time>
   <energy>
    <i name="e_fr_energy">   -199.90496254 </i>
    <i name="e_wo_entrp">   -199.65081048 </i>
    <i name="e_0_energy">   -199.77788651 </i>
   </energy>
  </scstep>
  <scstep>
   <time name="dav">   31.08   31.16</time>
   <time name="total">   31.09   31.16</time>
   <energy>
    <i name="e_fr_energy">   -209.00201714 </i>
    <i name="e_wo_entrp">   -208.71611746 </i>
    <i name="e_0_energy">   -208.85906730 </i>
   </energy>
  </scstep>
  <scstep>
   <time name="dav">   29.53   29.61</time>
   <time name="total">   30.00   30.08</time>
   <energy>
    <i name="e_fr_energy">   -209.32121504 </i>
    <i name="e_wo_entrp">   -209.03889777 </i>
    <i name="e_0_energy">   -209.18005641 </i>
   </energy>
  </scstep>
  <scstep>
   <time name="dav">   31.59   31.66</time>
   <time name="total">   32.09   32.17</time>
   <energy>
    <i name="e_fr_energy">   -237.93592017 </i>
    <i name="e_wo_entrp">   -237.67696313 </i>
    <i name="e_0_energy">   -237.80644165 </i>
   </energy>
  </scstep>
  <scstep>
   <time name="dav">   33.90   33.98</time>
   <time name="total">   34.40   34.49</time>
   <energy>
    <i name="e_fr_energy">   -196.56819850 </i>
    <i name="e_wo_entrp">   -196.22694724 </i>
    <i name="e_0_energy">   -196.39757287 </i>
   </energy>
  </scstep>
  <scstep>
   <time name="dav">   30.44   30.52</time>
   <time name="total">   30.96   31.04</time>
   <energy>
    <i name="e_fr_energy">   -189.48585948 </i>
    <i name="e_wo_entrp">   -189.17440745 </i>
    <i name="e_0_energy">   -189.33013346 </i>
   </energy>
  </scstep>
  <scstep>
   <time name="dav">   33.84   33.92</time>
   <time name="total">   34.36   34.45</time>
   <energy>
    <i name="e_fr_energy">   -188.16300462 </i>
    <i name="e_wo_entrp">   -187.84512866 </i>
    <i name="e_0_energy">   -188.00406664 </i>
   </energy>
  </scstep>
  <scstep>
   <time name="dav">   33.23   33.31</time>
   <time name="total">   33.77   33.85</time>
   <energy>
    <i name="e_fr_energy">   -186.95778923 </i>
    <i name="e_wo_entrp">   -186.60542910 </i>
    <i name="e_0_energy">   -186.78160916 </i>
   </energy>
  </scstep>
  <scstep>
   <time name="dav">   33.98   34.07</time>
   <time name="total">   34.52   34.61</time>
   <energy>
    <i name="e_fr_energy">   -187.05142487 </i>
    <i name="e_wo_entrp">   -186.70935041 </i>
    <i name="e_0_energy">   -186.88038764 </i>
   </energy>
  </scstep>
  <scstep>
   <time name="dav">   31.97   32.05</time>
   <time name="total">   32.51   32.59</time>
   <energy>
    <i name="e_fr_energy">   -186.99275474 </i>
    <i name="e_wo_entrp">   -186.66195437 </i>
    <i name="e_0_energy">   -186.82735456 </i>
   </energy>
  </scstep>
  <scstep>
   <time name="dav">   32.76   32.84</time>
   <time name="total">   33.29   33.38</time>
   <energy>
    <i name="e_fr_energy">   -186.88867578 </i>
    <i name="e_wo_entrp">   -186.55402675 </i>
    <i name="e_0_energy">   -186.72135127 </i>
   </energy>
  </scstep>
  <scstep>
   <time name="dav">   32.90   32.98</time>
   <time name="total">   33.44   33.52</time>
   <energy>
    <i name="e_fr_energy">   -186.85084051 </i>
    <i name="e_wo_entrp">   -186.50629178 </i>
    <i name="e_0_energy">   -186.67856614 </i>
   </energy>
  </scstep>
  <scstep>
   <time name="dav">   32.22   32.30</time>
   <time name="total">   32.75   32.83</time>
   <energy>
    <i name="e_fr_energy">   -186.84942442 </i>
    <i name="e_wo_entrp">   -186.50565353 </i>
    <i name="e_0_energy">   -186.67753897 </i>
   </energy>
  </scstep>
  <scstep>
   <time name="dav">   33.33   33.41</time>
   <time name="total">   33.86   33.94</time>
   <energy>
    <i name="e_fr_energy">   -186.84348369 </i>
    <i name="e_wo_entrp">   -186.50022824 </i>
    <i name="e_0_energy">   -186.67185597 </i>
   </energy>
  </scstep>
  <scstep>
   <time name="dav">   32.37   32.44</time>
   <time name="total">   32.90   32.98</time>
   <energy>
    <i name="e_fr_energy">   -186.84218140 </i>
    <i name="e_wo_entrp">   -186.50040207 </i>
    <i name="e_0_energy">   -186.67129174 </i>
   </energy>
  </scstep>
  <scstep>
   <time name="dav">   30.70   30.77</time>
   <time name="total">   31.24   31.32</time>
   <energy>
    <i name="e_fr_energy">   -186.84194879 </i>
    <i name="e_wo_entrp">   -186.49968908 </i>
    <i name="e_0_energy">   -186.67081894 </i>
   </energy>
  </scstep>
  <scstep>
   <time name="dav">   28.42   28.49</time>
   <time name="total">   28.95   29.03</time>
   <energy>
    <i name="e_fr_energy">   -186.84173841 </i>
    <i name="e_wo_entrp">   -186.49936617 </i>
    <i name="e_0_energy">   -186.67055229 </i>
   </energy>
  </scstep>
  <scstep>
   <time name="dav">   25.01   25.07</time>
   <time name="total">   25.55   25.61</time>
   <energy>
    <i name="e_fr_energy">   -186.84247994 </i>
    <i name="e_wo_entrp">   -186.50054832 </i>
    <i name="e_0_energy">   -186.67151413 </i>
   </energy>
  </scstep>
  <scstep>
   <time name="dav">   22.59   22.64</time>
   <time name="total">   23.12   23.18</time>
   <energy>
    <i name="e_fr_energy">   -186.84326130 </i>
    <i name="e_wo_entrp">   -186.50130108 </i>
    <i name="e_0_energy">   -186.67228119 </i>
   </energy>
  </scstep>
  <scstep>
   <time name="dav">   20.99   21.04</time>
   <time name="total">   21.52   21.58</time>
   <energy>
    <i name="e_fr_energy">   -186.84425734 </i>
    <i name="e_wo_entrp">   -186.50218805 </i>
    <i name="e_0_energy">   -186.67322270 </i>
   </energy>
  </scstep>
  <scstep>
   <time name="dav">   20.91   20.96</time>
   <time name="total">   21.44   21.50</time>
   <energy>
    <i name="e_fr_energy">   -186.84541900 </i>
    <i name="e_wo_entrp">   -186.50347225 </i>
    <i name="e_0_energy">   -186.67444563 </i>
   </energy>
  </scstep>
  <scstep>
   <time name="dav">   19.60   19.65</time>
   <time name="total">   20.14   20.19</time>
   <energy>
    <i name="e_fr_energy">   -186.84597645 </i>
    <i name="e_wo_entrp">   -186.50396861 </i>
    <i name="e_0_energy">   -186.67497253 </i>
   </energy>
  </scstep>
  <scstep>
   <time name="dav">   16.73   16.77</time>
   <time name="total">   17.27   17.31</time>
   <energy>
    <i name="e_fr_energy">   -186.84637006 </i>
    <i name="e_wo_entrp">   -186.50434690 </i>
    <i name="e_0_energy">   -186.67535848 </i>
   </energy>
  </scstep>
  <scstep>
   <time name="dav">   19.60   19.65</time>
   <time name="total">   20.14   20.19</time>
   <energy>
    <i name="e_fr_energy">   -186.84661419 </i>
    <i name="e_wo_entrp">   -186.50460824 </i>
    <i name="e_0_energy">   -186.67561122 </i>
   </energy>
  </scstep>
  <scstep>
   <time name="dav">   21.22   21.27</time>
   <time name="total">   21.26   21.31</time>
   <energy>
    <i name="alphaZ">     81.65567618 </i>
    <i name="ewald">  41891.17178115 </i>
    <i name="hartreedc"> -47833.66731713 </i>
    <i name="XCdc">   -231.60453013 </i>
    <i name="pawpsdc">   4192.08562502 </i>
    <i name="pawaedc">  -3610.08718574 </i>
    <i name="eentropy">     -0.34201198 </i>
    <i name="bandstr">  -1437.50126266 </i>
    <i name="atom">   6761.44252427 </i>
    <i name="e_fr_energy">   -186.84670102 </i>
    <i name="e_wo_entrp">   -186.50468903 </i>
    <i name="e_0_energy">   -186.67569503 </i>
   </energy>
  </scstep>
  <structure>
   <crystal>
    <varray name="basis" >
     <v>       8.66999996       5.03999989       0.00000000 </v>
     <v>      -8.66999982       5.04000013       0.00000000 </v>
     <v>       0.00000000       0.00000000      30.00000000 </v>
    </varray>
    <i name="volume">   2621.80797419 </i>
    <varray name="rec_basis" >
     <v>       0.05767013       0.09920635       0.00000000 </v>
     <v>      -0.05767013       0.09920635       0.00000000 </v>
     <v>       0.00000000       0.00000000       0.03333333 </v>
    </varray>
   </crystal>
   <varray name="positions" >
    <v>       1.00000000       0.33333334       0.00000000 </v>
    <v>       0.00000000       0.66666669       0.00000000 </v>
    <v>       0.66666669       0.33333334       0.00000000 </v>
    <v>       0.00000000       0.00000000       0.00000000 </v>
    <v>       0.33333334       0.66666669       0.00000000 </v>
    <v>       0.33333334       0.00000000       0.00000000 </v>
    <v>       0.33333334       0.33333334       0.00000000 </v>
    <v>       0.66666669       0.00000000       0.00000000 </v>
    <v>       0.66666669       0.66666669       0.00000000 </v>
    <v>       0.11068511       0.22244981       0.95539999 </v>
    <v>       0.22244981       0.11068511       0.04460000 </v>
    <v>       0.11068511       0.55578315       0.95539999 </v>
    <v>       0.22244981       0.44401845       0.04460000 </v>
    <v>       0.11068511       0.88911647       0.95539999 </v>
    <v>       0.22244981       0.77735180       0.04460000 </v>
    <v>       0.44401845       0.22244981       0.95539999 </v>
    <v>       0.55578315       0.11068511       0.04460000 </v>
    <v>       0.44401845       0.55578315       0.95539999 </v>
    <v>       0.55578315       0.44401845       0.04460000 </v>
    <v>       0.44401845       0.88911647       0.95539999 </v>
    <v>       0.55578315       0.77735180       0.04460000 </v>
    <v>       0.77735180       0.22244981       0.95539999 </v>
    <v>       0.88911647       0.11068511       0.04460000 </v>
    <v>       0.77735180       0.55578315       0.95539999 </v>
    <v>       0.88911647       0.44401845       0.04460000 </v>
    <v>       0.77735180       0.88911647       0.95539999 </v>
    <v>       0.88911647       0.77735180       0.04460000 </v>
   </varray>
  </structure>
  <varray name="forces" >
   <v>       0.01332250       0.12756408       0.04833940 </v>
   <v>       0.10651960       0.33158596       0.01270043 </v>
   <v>       0.07908476      -0.07769308       0.02976863 </v>
   <v>       0.26405481       0.12771958      -0.09487600 </v>
   <v>      -0.28167073       0.13379072       0.06664547 </v>
   <v>      -0.00461408      -0.32673395      -0.11861324 </v>
   <v>       0.00154869      -0.35242349      -0.14584789 </v>
   <v>      -0.06441564      -0.22543023       0.13633917 </v>
   <v>      -0.14467322       0.16919130       0.06562168 </v>
   <v>      -0.64006148       0.16743698      -2.14766650 </v>
   <v>      -0.20132805       0.16187475       2.88457860 </v>
   <v>      -0.32588800      -0.67215603      -1.41680789 </v>
   <v>      -0.38375933      -0.67474077       2.14828710 </v>
   <v>       0.51896694      -0.67736671      -2.18530671 </v>
   <v>      -0.50742421      -0.70508415       2.17304581 </v>
   <v>       0.34725064       0.68564479      -2.15680739 </v>
   <v>      -0.33716556       0.70456157       2.13554260 </v>
   <v>       0.29160900      -0.02477803      -2.84068989 </v>
   <v>       0.58912679       0.02966591       2.10434019 </v>
   <v>       0.17098265       0.15798917      -2.89348848 </v>
   <v>      -0.04914569       0.14102370       2.98401097 </v>
   <v>      -0.24228603       0.53665954      -1.41322565 </v>
   <v>      -0.62403823       0.53251605       2.10325035 </v>
   <v>       0.74499241      -0.00309218      -1.44310767 </v>
   <v>      -0.05724847      -0.00778044       0.76252586 </v>
   <v>       0.07744582      -0.09209744      -2.90400776 </v>
   <v>       0.65881409      -0.16784760       2.10544882 </v>
  </varray>
  <varray name="stress" >
   <v>       7.25841930      -0.04992271      -1.51380612 </v>
   <v>      -0.04992266       4.49726797      -0.05231633 </v>
   <v>      -1.51380612      -0.05231637      30.31654311 </v>
  </varray>
  <energy>
   <i name="e_fr_energy">   -186.84670102 </i>
   <i name="e_wo_entrp">   -186.67569503 </i>
   <i name="e_0_energy">     -0.34201198 </i>
  </energy>
  <time name="totalsc">  812.57  814.68</time>
 </calculation>
 <calculation>
  <scstep>
   <time name="dav">   22.37   22.42</time>
   <time name="total">   22.92   22.97</time>
   <energy>
    <i name="alphaZ">     78.92097599 </i>
    <i name="ewald">  39378.92282253 </i>
    <i name="hartreedc"> -45336.22908670 </i>
    <i name="XCdc">   -239.06935155 </i>
    <i name="pawpsdc">   4192.07112265 </i>
    <i name="pawaedc">  -3610.07281975 </i>
    <i name="eentropy">     -0.27929777 </i>
    <i name="bandstr">  -1413.20584514 </i>
    <i name="atom">   6761.44252427 </i>
    <i name="e_fr_energy">   -187.49895546 </i>
    <i name="e_wo_entrp">   -187.21965769 </i>
    <i name="e_0_energy">   -187.35930658 </i>
   </energy>
  </scstep>
  <scstep>
   <time name="dav">   31.21   31.29</time>
   <time name="total">   31.75   31.83</time>
   <energy>
    <i name="e_fr_energy">   -189.38156380 </i>
    <i name="e_wo_entrp">   -189.05607702 </i>
    <i name="e_0_energy">   -189.21882041 </i>
   </energy>
  </scstep>
  <scstep>
   <time name="dav">   31.49   31.56</time>
   <time name="total">   32.04   32.12</time>
   <energy>
    <i name="e_fr_energy">   -189.35367531 </i>
    <i name="e_wo_entrp">   -189.09675330 </i>
    <i name="e_0_energy">   -189.22521431 </i>
   </energy>
  </scstep>
  <scstep>
   <time name="dav">   30.30   30.38</time>
   <time name="total">   30.85   30.93</time>
   <energy>
    <i name="e_fr_energy">   -188.75431438 </i>
    <i name="e_wo_entrp">   -188.47366388 </i>
    <i name="e_0_energy">   -188.61398913 </i>
   </energy>
  </scstep>
  <scstep>
   <time name="dav">   30.15   30.22</time>
   <time name="total">   30.69   30.77</time>
   <energy>
    <i name="e_fr_energy">   -188.86918194 </i>
    <i name="e_wo_entrp">   -188.58227882 </i>
    <i name="e_0_energy">   -188.72573038 </i>
   </energy>
  </scstep>
  <scstep>
   <time name="dav">   31.96   32.04</time>
   <time name="total">   32.50   32.58</time>
   <energy>
    <i name="e_fr_energy">   -188.73745368 </i>
    <i name="e_wo_entrp">   -188.45601466 </i>
    <i name="e_0_energy">   -188.59673417 </i>
   </energy>
  </scstep>
  <scstep>
   <time name="dav">   30.41   30.48</time>
   <time name="total">   30.96   31.03</time>
   <energy>
    <i name="e_fr_energy">   -188.68695663 </i>
    <i name="e_wo_entrp">   -188.40538935 </i>
    <i name="e_0_energy">   -188.54617299 </i>
   </energy>
  </scstep>
  <scstep>
   <time name="dav">   31.27   31.35</time>
   <time name="total">   31.82   31.90</time>
   <energy>
    <i name="e_fr_energy">   -188.68387911 </i>
    <i name="e_wo_entrp">   -188.40156971 </i>
    <i name="e_0_energy">   -188.54272441 </i>
   </energy>
  </scstep>
  <scstep>
   <time name="dav">   30.07   30.14</time>
   <time name="total">   30.61   30.69</time>
   <energy>
    <i name="e_fr_energy">   -188.65590061 </i>
    <i name="e_wo_entrp">   -188.37666806 </i>
    <i name="e_0_energy">   -188.51628433 </i>
   </energy>
  </scstep>
  <scstep>
   <time name="dav">   32.40   32.48</time>
   <time name="total">   32.95   33.03</time>
   <energy>
    <i name="e_fr_energy">   -188.65496881 </i>
    <i name="e_wo_entrp">   -188.37673192 </i>
    <i name="e_0_energy">   -188.51585037 </i>
   </energy>
  </scstep>
  <scstep>
   <time name="dav">   31.79   31.87</time>
   <time name="total">   32.34   32.42</time>
   <energy>
    <i name="e_fr_energy">   -188.65453214 </i>
    <i name="e_wo_entrp">   -188.37697301 </i>
    <i name="e_0_energy">   -188.51575258 </i>
   </energy>
  </scstep>
  <scstep>
   <time name="dav">   28.93   29.00</time>
   <time name="total">   28.97   29.04</time>
   <energy>
    <i name="alphaZ">     78.92097599 </i>
    <i name="ewald">  39378.92282253 </i>
    <i name="hartreedc"> -45347.21058694 </i>
    <i name="XCdc">   -237.97743158 </i>
    <i name="pawpsdc">   3952.39850996 </i>
    <i name="pawaedc">  -3366.92367335 </i>
    <i name="eentropy">     -0.27771266 </i>
    <i name="bandstr">  -1407.94997536 </i>
    <i name="atom">   6761.44252427 </i>
    <i name="e_fr_energy">   -188.65454713 </i>
    <i name="e_wo_entrp">   -188.37683447 </i>
    <i name="e_0_energy">   -188.51569080 </i>
   </energy>
  </scstep>
  <structure>
   <crystal>
    <varray name="basis" >
     <v>       8.85326473       5.10500742       0.00000000 </v>
     <v>      -8.85473594       5.10753873       0.00000000 </v>
     <v>       0.00000000       0.00000000      30.00000000 </v>
    </varray>
    <i name="volume">   2712.65655624 </i>
    <varray name="rec_basis" >
     <v>       0.05648565       0.09792691       0.00000000 </v>
     <v>      -0.05645765       0.09791064       0.00000000 </v>
     <v>       0.00000000       0.00000000       0.03333333 </v>
    </varray>
   </crystal>
   <varray name="positions" >
    <v>       1.00064758       0.33390680       0.00007773 </v>
    <v>       0.00188332       0.66795729       0.00002042 </v>
    <v>       0.66651488       0.33274148       0.00004787 </v>
    <v>       0.00134591      -0.00012338      -0.00015257 </v>
    <v>       0.33319001       0.66809066       0.00010717 </v>
    <v>       0.33175676      -0.00155090      -0.00019074 </v>
    <v>       0.33165096       0.33164234      -0.00023454 </v>
    <v>       0.66540857      -0.00089969       0.00021925 </v>
    <v>       0.66707393       0.66787894       0.00010553 </v>
    <v>       0.10970571       0.22503191       0.95194635 </v>
    <v>       0.22266441       0.11201997       0.04923866 </v>
    <v>       0.10656151       0.55347290       0.95312164 </v>
    <v>       0.21815284       0.44185684       0.04805463 </v>
    <v>       0.10888710       0.88443076       0.95188582 </v>
    <v>       0.21766356       0.77538901       0.04809445 </v>
    <v>       0.44826604       0.22476518       0.95193165 </v>
    <v>       0.55821712       0.11499517       0.04803414 </v>
    <v>       0.44471117       0.55485326       0.95083191 </v>
    <v>       0.55756418       0.44252139       0.04798396 </v>
    <v>       0.44525029       0.88939690       0.95074700 </v>
    <v>       0.55632136       0.77816346       0.04939855 </v>
    <v>       0.77924616       0.22569233       0.95312740 </v>
    <v>       0.88992890       0.11496989       0.04798221 </v>
    <v>       0.77940969       0.55369567       0.95307935 </v>
    <v>       0.88891995       0.44414049       0.04582621 </v>
    <v>       0.77712649       0.88846022       0.95073009 </v>
    <v>       0.89014608       0.77471556       0.04798575 </v>
   </varray>
  </structure>
  <varray name="forces" >
   <v>       0.10007239       0.11424057       0.08439819 </v>
   <v>       0.04986638       0.32956439      -0.01066793 </v>
   <v>       0.03320303      -0.09781285       0.00243825 </v>
   <v>       0.25398653       0.21615939       0.04076973 </v>
   <v>      -0.09179009       0.43802297      -0.03393973 </v>
   <v>      -0.05792467      -0.27695135      -0.03014250 </v>
   <v>       0.03957187      -0.39820225      -0.03725481 </v>
   <v>       0.12637875      -0.48783066       0.05973659 </v>
   <v>      -0.42520986       0.18364298      -0.04743402 </v>
   <v>       0.01221477       0.10337618      -0.11124048 </v>
   <v>      -0.04701395       0.11358170       0.09106773 </v>
   <v>      -0.02631615      -0.05688791       0.07486677 </v>
   <v>       0.10030057      -0.04500776      -0.06478182 </v>
   <v>       0.04542367      -0.08378354      -0.19628864 </v>
   <v>      -0.03650745      -0.08606037       0.15143757 </v>
   <v>      -0.11031617       0.04063645       0.00993068 </v>
   <v>       0.11229377       0.04026203      -0.04889623 </v>
   <v>       0.11005455       0.00254029       0.10068199 </v>
   <v>      -0.10456598       0.00450201      -0.14475010 </v>
   <v>       0.04956616       0.12036995      -0.13747974 </v>
   <v>       0.06061945       0.10685736       0.18102471 </v>
   <v>       0.06044176      -0.05479995       0.16064974 </v>
   <v>      -0.07977164      -0.05371204      -0.13705177 </v>
   <v>      -0.08433472       0.01008865       0.24295269 </v>
   <v>      -0.00715022       0.01099342      -0.19588921 </v>
   <v>      -0.07780533      -0.08424276       0.01384061 </v>
   <v>      -0.00528743      -0.10954692      -0.01797826 </v>
  </varray>
  <varray name="stress" >
   <v>     -19.99212774      -0.01077584       0.01055059 </v>
   <v>      -0.01077589     -19.58200841      -0.01046333 </v>
   <v>       0.01055046      -0.01046339      -1.80544959 </v>
  </varray>
  <energy>
   <i name="e_fr_energy">   -188.65454713 </i>
   <i name="e_wo_entrp">   -188.51569080 </i>
   <i name="e_0_energy">     -0.27771266 </i>
  </energy>
  <time name="totalsc">  410.70  411.71</time>
 </calculation>
 <calculation>
  <scstep>
   <time name="dav">   24.61   24.67</time>
   <time name="total">   25.14   25.20</time>
   <energy>
    <i name="alphaZ">     82.34623936 </i>
    <i name="ewald">  41302.52162005 </i>
    <i name="hartreedc"> -47301.40129339 </i>
    <i name="XCdc">   -233.85627898 </i>
    <i name="pawpsdc">   3950.55337317 </i>
    <i name="pawaedc">  -3365.05692289 </i>
    <i name="eentropy">     -0.23207552 </i>
    <i name="bandstr">  -1386.89341722 </i>
    <i name="atom">   6761.44252427 </i>
    <i name="e_fr_energy">   -190.57623114 </i>
    <i name="e_wo_entrp">   -190.34415562 </i>
    <i name="e_0_energy">   -190.46019338 </i>
   </energy>
  </scstep>
  <scstep>
   <time name="dav">   29.57   29.64</time>
   <time name="total">   30.09   30.17</time>
   <energy>
    <i name="e_fr_energy">   -190.52553898 </i>
    <i name="e_wo_entrp">   -190.30836521 </i>
    <i name="e_0_energy">   -190.41695209 </i>
   </energy>
  </scstep>
  <scstep>
   <time name="dav">   31.38   31.45</time>
   <time name="total">   31.90   31.98</time>
   <energy>
    <i name="e_fr_energy">   -190.05976600 </i>
    <i name="e_wo_entrp">   -189.81001511 </i>
    <i name="e_0_energy">   -189.93489055 </i>
   </energy>
  </scstep>
  <scstep>
   <time name="dav">   32.67   32.75</time>
   <time name="total">   33.21   33.29</time>
   <energy>
    <i name="e_fr_energy">   -189.84866860 </i>
    <i name="e_wo_entrp">   -189.62607576 </i>
    <i name="e_0_energy">   -189.73737218 </i>
   </energy>
  </scstep>
  <scstep>
   <time name="dav">   31.19   31.27</time>
   <time name="total">   31.72   31.80</time>
   <energy>
    <i name="e_fr_energy">   -189.81305442 </i>
    <i name="e_wo_entrp">   -189.57215786 </i>
    <i name="e_0_energy">   -189.69260614 </i>
   </energy>
  </scstep>
  <scstep>
   <time name="dav">   32.02   32.09</time>
   <time name="total">   32.55   32.63</time>
   <energy>
    <i name="e_fr_energy">   -189.74749758 </i>
    <i name="e_wo_entrp">   -189.51647261 </i>
    <i name="e_0_energy">   -189.63198510 </i>
   </energy>
  </scstep>
  <scstep>
   <time name="dav">   29.84   29.91</time>
   <time name="total">   30.37   30.44</time>
   <energy>
    <i name="e_fr_energy">   -189.74270608 </i>
    <i name="e_wo_entrp">   -189.50981254 </i>
    <i name="e_0_energy">   -189.62625931 </i>
   </energy>
  </scstep>
  <scstep>
   <time name="dav">   31.87   31.95</time>
   <time name="total">   32.40   32.48</time>
   <energy>
    <i name="e_fr_energy">   -189.74290809 </i>
    <i name="e_wo_entrp">   -189.51056718 </i>
    <i name="e_0_energy">   -189.62673763 </i>
   </energy>
  </scstep>
  <scstep>
   <time name="dav">   29.39   29.46</time>
   <time name="total">   29.93   30.00</time>
   <energy>
    <i name="e_fr_energy">   -189.74190332 </i>
    <i name="e_wo_entrp">   -189.50943748 </i>
    <i name="e_0_energy">   -189.62567040 </i>
   </energy>
  </scstep>
  <scstep>
   <time name="dav">   26.06   26.12</time>
   <time name="total">   26.59   26.65</time>
   <energy>
    <i name="e_fr_energy">   -189.74215427 </i>
    <i name="e_wo_entrp">   -189.50942986 </i>
    <i name="e_0_energy">   -189.62579206 </i>
   </energy>
  </scstep>
  <scstep>
   <time name="dav">   22.35   22.40</time>
   <time name="total">   22.39   22.44</time>
   <energy>
    <i name="alphaZ">     82.34623936 </i>
    <i name="ewald">  41302.52162005 </i>
    <i name="hartreedc"> -47274.49391116 </i>
    <i name="XCdc">   -235.25031056 </i>
    <i name="pawpsdc">   4038.05734274 </i>
    <i name="pawaedc">  -3453.75111807 </i>
    <i name="eentropy">     -0.23268857 </i>
    <i name="bandstr">  -1410.38177877 </i>
    <i name="atom">   6761.44252427 </i>
    <i name="e_fr_energy">   -189.74208070 </i>
    <i name="e_wo_entrp">   -189.50939213 </i>
    <i name="e_0_energy">   -189.62573642 </i>
   </energy>
  </scstep>
  <structure>
   <crystal>
    <varray name="basis" >
     <v>       8.66519279       4.99871691       0.00000000 </v>
     <v>      -8.66674965       5.00139827       0.00000000 </v>
     <v>       0.00000000       0.00000000      30.00000000 </v>
    </varray>
    <i name="volume">   2599.82124996 </i>
    <varray name="rec_basis" >
     <v>       0.05771241       0.10000783       0.00000000 </v>
     <v>      -0.05768147       0.09998987       0.00000000 </v>
     <v>       0.00000000       0.00000000       0.03333333 </v>
    </varray>
   </crystal>
   <varray name="positions" >
    <v>       1.00093285       0.33400057       0.00012539 </v>
    <v>       0.00247773       0.66845621       0.00001440 </v>
    <v>       0.66638439       0.33254749       0.00004925 </v>
    <v>       0.00194751      -0.00000777      -0.00012955 </v>
    <v>       0.33382880       0.66890494       0.00008801 </v>
    <v>       0.33124192      -0.00195485      -0.00020776 </v>
    <v>       0.33102827       0.33094405      -0.00025557 </v>
    <v>       0.66472025      -0.00182966       0.00025298 </v>
    <v>       0.66697170       0.66859018       0.00007874 </v>
    <v>       0.10988888       0.22519169       0.95188354 </v>
    <v>       0.22280784       0.11225331       0.04929008 </v>
    <v>       0.10644196       0.55340372       0.95316391 </v>
    <v>       0.21817415       0.44168626       0.04801805 </v>
    <v>       0.10879158       0.88424835       0.95177499 </v>
    <v>       0.21748586       0.77528119       0.04817996 </v>
    <v>       0.44822789       0.22493809       0.95193726 </v>
    <v>       0.55839136       0.11495456       0.04800653 </v>
    <v>       0.44482069       0.55475222       0.95088876 </v>
    <v>       0.55747159       0.44262886       0.04790223 </v>
    <v>       0.44549739       0.88954914       0.95066938 </v>
    <v>       0.55655662       0.77828272       0.04950077 </v>
    <v>       0.77921309       0.22554363       0.95321811 </v>
    <v>       0.88976347       0.11495710       0.04790482 </v>
    <v>       0.77934573       0.55379305       0.95321653 </v>
    <v>       0.88893135       0.44416556       0.04571560 </v>
    <v>       0.77691229       0.88839491       0.95073790 </v>
    <v>       0.88995930       0.77453892       0.04797560 </v>
   </varray>
  </structure>
  <varray name="forces" >
   <v>       0.15959896       0.10269150       0.07179116 </v>
   <v>       0.01046242       0.34779306      -0.01498397 </v>
   <v>      -0.00651004      -0.13819785      -0.00587662 </v>
   <v>       0.25683140       0.24888500       0.05561615 </v>
   <v>      -0.02154797       0.54142741      -0.04065041 </v>
   <v>      -0.08570928      -0.24688331      -0.00082883 </v>
   <v>       0.06910212      -0.40155096       0.00144789 </v>
   <v>       0.17982040      -0.58211032       0.02499129 </v>
   <v>      -0.52181576       0.15780700      -0.06021788 </v>
   <v>      -0.11347606       0.02028943      -0.63223057 </v>
   <v>       0.00406440       0.05125070       0.64661764 </v>
   <v>      -0.05941381      -0.11276061      -0.36437859 </v>
   <v>      -0.01325219      -0.09019257       0.41561980 </v>
   <v>       0.09091466      -0.15630156      -0.70824287 </v>
   <v>      -0.07672077      -0.14531994       0.64572014 </v>
   <v>       0.01863269       0.09848764      -0.49251652 </v>
   <v>      -0.01729677       0.08903785       0.44291698 </v>
   <v>       0.04041707      -0.00386523      -0.43488425 </v>
   <v>       0.02812950       0.00191437       0.33562492 </v>
   <v>      -0.00002844       0.06187359      -0.69648818 </v>
   <v>       0.02418445       0.03348695       0.78824266 </v>
   <v>      -0.00798560       0.06734427      -0.27827048 </v>
   <v>      -0.07388450       0.07111369       0.34306992 </v>
   <v>       0.06701621       0.01382910      -0.19281342 </v>
   <v>      -0.01655586       0.01587039       0.21172441 </v>
   <v>      -0.04548638      -0.00285337      -0.53559978 </v>
   <v>       0.11050911      -0.04306621       0.47459942 </v>
  </varray>
  <varray name="stress" >
   <v>     -10.20250774       0.01288663      -0.01875131 </v>
   <v>       0.01288645      -9.88948096       0.00018450 </v>
   <v>      -0.01875129       0.00018443       6.51931204 </v>
  </varray>
  <energy>
   <i name="e_fr_energy">   -189.74208070 </i>
   <i name="e_wo_entrp">   -189.62573642 </i>
   <i name="e_0_energy">     -0.23268857 </i>
  </energy>
  <time name="totalsc">  368.48  369.40</time>
 </calculation>
 <calculation>
  <scstep>
   <time name="dav">   22.37   22.43</time>
   <time name="total">   22.90   22.96</time>
   <energy>
    <i name="alphaZ">     85.83228864 </i>
    <i name="ewald">  42838.25884261 </i>
    <i name="hartreedc"> -48854.86335918 </i>
    <i name="XCdc">   -232.95719744 </i>
    <i name="pawpsdc">   4038.56479004 </i>
    <i name="pawaedc">  -3454.25937386 </i>
    <i name="eentropy">     -0.19036350 </i>
    <i name="bandstr">  -1373.14561773 </i>
    <i name="atom">   6761.44252427 </i>
    <i name="e_fr_energy">   -191.31746615 </i>
    <i name="e_wo_entrp">   -191.12710265 </i>
    <i name="e_0_energy">   -191.22228440 </i>
   </energy>
  </scstep>
  <scstep>
   <time name="dav">   33.64   33.72</time>
   <time name="total">   34.16   34.24</time>
   <energy>
    <i name="e_fr_energy">   -191.11797158 </i>
    <i name="e_wo_entrp">   -190.92926876 </i>
    <i name="e_0_energy">   -191.02362017 </i>
   </energy>
  </scstep>
  <scstep>
   <time name="dav">   30.95   31.03</time>
   <time name="total">   31.46   31.54</time>
   <energy>
    <i name="e_fr_energy">   -191.31219869 </i>
    <i name="e_wo_entrp">   -191.09716683 </i>
    <i name="e_0_energy">   -191.20468276 </i>
   </energy>
  </scstep>
  <scstep>
   <time name="dav">   30.39   30.47</time>
   <time name="total">   30.91   30.99</time>
   <energy>
    <i name="e_fr_energy">   -190.90049972 </i>
    <i name="e_wo_entrp">   -190.70302500 </i>
    <i name="e_0_energy">   -190.80176236 </i>
   </energy>
  </scstep>
  <scstep>
   <time name="dav">   28.57   28.64</time>
   <time name="total">   29.09   29.17</time>
   <energy>
    <i name="e_fr_energy">   -190.90285623 </i>
    <i name="e_wo_entrp">   -190.71910503 </i>
    <i name="e_0_energy">   -190.81098063 </i>
   </energy>
  </scstep>
  <scstep>
   <time name="dav">   30.92   31.00</time>
   <time name="total">   31.45   31.52</time>
   <energy>
    <i name="e_fr_energy">   -190.73279229 </i>
    <i name="e_wo_entrp">   -190.53721997 </i>
    <i name="e_0_energy">   -190.63500613 </i>
   </energy>
  </scstep>
  <scstep>
   <time name="dav">   31.43   31.51</time>
   <time name="total">   31.95   32.03</time>
   <energy>
    <i name="e_fr_energy">   -190.73287049 </i>
    <i name="e_wo_entrp">   -190.53802437 </i>
    <i name="e_0_energy">   -190.63544743 </i>
   </energy>
  </scstep>
  <scstep>
   <time name="dav">   29.85   29.92</time>
   <time name="total">   30.37   30.45</time>
   <energy>
    <i name="e_fr_energy">   -190.73056791 </i>
    <i name="e_wo_entrp">   -190.53568649 </i>
    <i name="e_0_energy">   -190.63312720 </i>
   </energy>
  </scstep>
  <scstep>
   <time name="dav">   29.50   29.57</time>
   <time name="total">   30.02   30.09</time>
   <energy>
    <i name="e_fr_energy">   -190.72846637 </i>
    <i name="e_wo_entrp">   -190.53351143 </i>
    <i name="e_0_energy">   -190.63098890 </i>
   </energy>
  </scstep>
  <scstep>
   <time name="dav">   28.30   28.37</time>
   <time name="total">   28.82   28.89</time>
   <energy>
    <i name="e_fr_energy">   -190.72873105 </i>
    <i name="e_wo_entrp">   -190.53366095 </i>
    <i name="e_0_energy">   -190.63119600 </i>
   </energy>
  </scstep>
  <scstep>
   <time name="dav">   26.64   26.70</time>
   <time name="total">   27.15   27.22</time>
   <energy>
    <i name="e_fr_energy">   -190.72854413 </i>
    <i name="e_wo_entrp">   -190.53342990 </i>
    <i name="e_0_energy">   -190.63098702 </i>
   </energy>
  </scstep>
  <scstep>
   <time name="dav">   20.28   20.33</time>
   <time name="total">   20.31   20.37</time>
   <energy>
    <i name="alphaZ">     85.83228864 </i>
    <i name="ewald">  42838.25884261 </i>
    <i name="hartreedc"> -48826.27642115 </i>
    <i name="XCdc">   -234.29586183 </i>
    <i name="pawpsdc">   4063.51536562 </i>
    <i name="pawaedc">  -3479.38327170 </i>
    <i name="eentropy">     -0.19515482 </i>
    <i name="bandstr">  -1399.62685901 </i>
    <i name="atom">   6761.44252427 </i>
    <i name="e_fr_energy">   -190.72854736 </i>
    <i name="e_wo_entrp">   -190.53339254 </i>
    <i name="e_0_energy">   -190.63096995 </i>
   </energy>
  </scstep>
  <structure>
   <crystal>
    <varray name="basis" >
     <v>       8.48366102       4.89930509       0.00000000 </v>
     <v>      -8.48432648       4.90044440       0.00000000 </v>
     <v>       0.00000000       0.00000000      30.00000000 </v>
    </varray>
    <i name="volume">   2494.23039192 </i>
    <varray name="rec_basis" >
     <v>       0.05894136       0.10204743       0.00000000 </v>
     <v>      -0.05892766       0.10203942       0.00000000 </v>
     <v>       0.00000000       0.00000000       0.03333333 </v>
    </varray>
   </crystal>
   <varray name="positions" >
    <v>       1.00220947       0.33395221       0.00026319 </v>
    <v>       0.00468165       0.67069783      -0.00002028 </v>
    <v>       0.66533732       0.33166223       0.00003001 </v>
    <v>       0.00451970       0.00070031      -0.00000184 </v>
    <v>       0.33750064       0.67252911      -0.00000181 </v>
    <v>       0.32942172      -0.00307535      -0.00018451 </v>
    <v>       0.32879828       0.32813006      -0.00021962 </v>
    <v>       0.66156695      -0.00643566       0.00027509 </v>
    <v>       0.66587003       0.67153721      -0.00005673 </v>
    <v>       0.10921659       0.22570196       0.95013178 </v>
    <v>       0.22306115       0.11232983       0.05110104 </v>
    <v>       0.10533378       0.55282045       0.95203595 </v>
    <v>       0.21728468       0.44122034       0.04928709 </v>
    <v>       0.10802578       0.88269464       0.94987366 </v>
    <v>       0.21609255       0.77455842       0.04993688 </v>
    <v>       0.44924265       0.22544598       0.95049036 </v>
    <v>       0.55882129       0.11588329       0.04934176 </v>
    <v>       0.44482601       0.55466649       0.94953289 </v>
    <v>       0.55777025       0.44234137       0.04900573 </v>
    <v>       0.44566672       0.88986174       0.94875229 </v>
    <v>       0.55661751       0.77827400       0.05164875 </v>
    <v>       0.77981269       0.22639826       0.95226858 </v>
    <v>       0.89026251       0.11597283       0.04902351 </v>
    <v>       0.77990225       0.55342863       0.95244649 </v>
    <v>       0.88896951       0.44435046       0.04650079 </v>
    <v>       0.77698034       0.88869831       0.94916184 </v>
    <v>       0.89042245       0.77386952       0.04937702 </v>
   </varray>
  </structure>
  <varray name="forces" >
   <v>       0.16621994       0.07319855       0.02073670 </v>
   <v>      -0.00034643       0.28921015      -0.02202846 </v>
   <v>       0.00526458      -0.11732032      -0.02107358 </v>
   <v>       0.27912312       0.34159034       0.02585480 </v>
   <v>       0.05393442       0.67249231      -0.02055820 </v>
   <v>      -0.15647687      -0.19328565       0.03067814 </v>
   <v>       0.15155543      -0.48070804       0.03242534 </v>
   <v>       0.19405476      -0.66928322      -0.02668300 </v>
   <v>      -0.63330072       0.12439810      -0.03723554 </v>
   <v>      -0.03659010      -0.02589444      -0.46529426 </v>
   <v>       0.04750265      -0.00694617       0.50254628 </v>
   <v>       0.00145046       0.03107388      -0.23718544 </v>
   <v>      -0.03190160       0.02698135       0.22673223 </v>
   <v>       0.04901816      -0.06001677      -0.53292846 </v>
   <v>      -0.01082426      -0.04436918       0.43587201 </v>
   <v>       0.02298500      -0.01578430      -0.37234241 </v>
   <v>       0.00622471      -0.02578292       0.28013806 </v>
   <v>      -0.00621136      -0.03722475      -0.25464759 </v>
   <v>      -0.03635208       0.00237006       0.15093249 </v>
   <v>      -0.06196383       0.02623989      -0.52239874 </v>
   <v>      -0.01964421      -0.02211603       0.72149993 </v>
   <v>       0.03869269      -0.02267857      -0.14406689 </v>
   <v>      -0.01669687      -0.01931144       0.18009955 </v>
   <v>      -0.01262732       0.03669975      -0.09051729 </v>
   <v>      -0.01523968       0.03458164       0.21808363 </v>
   <v>      -0.01366947       0.08956378      -0.35355079 </v>
   <v>       0.03581892      -0.00767801       0.27491149 </v>
  </varray>
  <varray name="stress" >
   <v>      -5.87915216      -0.06772624      -0.01256038 </v>
   <v>      -0.06772634      -5.72779963      -0.08545217 </v>
   <v>      -0.01256039      -0.08545222       4.55021554 </v>
  </varray>
  <energy>
   <i name="e_fr_energy">   -190.72854736 </i>
   <i name="e_wo_entrp">   -190.63096995 </i>
   <i name="e_0_energy">     -0.19515482 </i>
  </energy>
  <time name="totalsc">  391.00  391.98</time>
 </calculation>
 <calculation>
  <scstep>
   <time name="dav">   22.34   22.39</time>
   <time name="total">   22.85   22.91</time>
   <energy>
    <i name="alphaZ">     90.23366724 </i>
    <i name="ewald">  44692.93003277 </i>
    <i name="hartreedc"> -50736.57217504 </i>
    <i name="XCdc">   -231.80579635 </i>
    <i name="pawpsdc">   4063.45534233 </i>
    <i name="pawaedc">  -3479.31987345 </i>
    <i name="eentropy">     -0.17703757 </i>
    <i name="bandstr">  -1352.35248663 </i>
    <i name="atom">   6761.44252427 </i>
    <i name="e_fr_energy">   -192.16580243 </i>
    <i name="e_wo_entrp">   -191.98876487 </i>
    <i name="e_0_energy">   -192.07728365 </i>
   </energy>
  </scstep>
  <scstep>
   <time name="dav">   28.44   28.50</time>
   <time name="total">   28.94   29.01</time>
   <energy>
    <i name="e_fr_energy">   -191.88523213 </i>
    <i name="e_wo_entrp">   -191.69215827 </i>
    <i name="e_0_energy">   -191.78869520 </i>
   </energy>
  </scstep>
  <scstep>
   <time name="dav">   30.73   30.80</time>
   <time name="total">   31.23   31.31</time>
   <energy>
    <i name="e_fr_energy">   -192.36231338 </i>
    <i name="e_wo_entrp">   -192.17849868 </i>
    <i name="e_0_energy">   -192.27040603 </i>
   </energy>
  </scstep>
  <scstep>
   <time name="dav">   29.64   29.71</time>
   <time name="total">   30.15   30.22</time>
   <energy>
    <i name="e_fr_energy">   -191.68098693 </i>
    <i name="e_wo_entrp">   -191.50031752 </i>
    <i name="e_0_energy">   -191.59065222 </i>
   </energy>
  </scstep>
  <scstep>
   <time name="dav">   30.76   30.84</time>
   <time name="total">   31.27   31.35</time>
   <energy>
    <i name="e_fr_energy">   -191.62713235 </i>
    <i name="e_wo_entrp">   -191.43089693 </i>
    <i name="e_0_energy">   -191.52901464 </i>
   </energy>
  </scstep>
  <scstep>
   <time name="dav">   31.29   31.36</time>
   <time name="total">   31.79   31.87</time>
   <energy>
    <i name="e_fr_energy">   -191.47395423 </i>
    <i name="e_wo_entrp">   -191.28852758 </i>
    <i name="e_0_energy">   -191.38124091 </i>
   </energy>
  </scstep>
  <scstep>
   <time name="dav">   31.79   31.87</time>
   <time name="total">   32.30   32.51</time>
   <energy>
    <i name="e_fr_energy">   -191.46519669 </i>
    <i name="e_wo_entrp">   -191.28280936 </i>
    <i name="e_0_energy">   -191.37400302 </i>
   </energy>
  </scstep>
  <scstep>
   <time name="dav">   31.22   31.29</time>
   <time name="total">   31.73   31.81</time>
   <energy>
    <i name="e_fr_energy">   -191.44622564 </i>
    <i name="e_wo_entrp">   -191.25967738 </i>
    <i name="e_0_energy">   -191.35295151 </i>
   </energy>
  </scstep>
  <scstep>
   <time name="dav">   28.97   29.04</time>
   <time name="total">   29.48   29.56</time>
   <energy>
    <i name="e_fr_energy">   -191.44366791 </i>
    <i name="e_wo_entrp">   -191.25798596 </i>
    <i name="e_0_energy">   -191.35082694 </i>
   </energy>
  </scstep>
  <scstep>
   <time name="dav">   29.65   29.72</time>
   <time name="total">   30.16   30.23</time>
   <energy>
    <i name="e_fr_energy">   -191.44383223 </i>
    <i name="e_wo_entrp">   -191.25764150 </i>
    <i name="e_0_energy">   -191.35073687 </i>
   </energy>
  </scstep>
  <scstep>
   <time name="dav">   26.97   27.04</time>
   <time name="total">   27.01   27.07</time>
   <energy>
    <i name="alphaZ">     90.23366724 </i>
    <i name="ewald">  44692.93003277 </i>
    <i name="hartreedc"> -50702.24161951 </i>
    <i name="XCdc">   -233.32852254 </i>
    <i name="pawpsdc">   4086.81809545 </i>
    <i name="pawaedc">  -3502.78955095 </i>
    <i name="eentropy">     -0.18619948 </i>
    <i name="bandstr">  -1384.32218703 </i>
    <i name="atom">   6761.44252427 </i>
    <i name="e_fr_energy">   -191.44375977 </i>
    <i name="e_wo_entrp">   -191.25756029 </i>
    <i name="e_0_energy">   -191.35066003 </i>
   </energy>
  </scstep>
  <structure>
   <crystal>
    <varray name="basis" >
     <v>       8.26835369       4.77771507       0.00000000 </v>
     <v>      -8.27243992       4.78477790       0.00000000 </v>
     <v>       0.00000000       0.00000000      30.00000000 </v>
    </varray>
    <i name="volume">   2372.56790597 </i>
    <varray name="rec_basis" >
     <v>       0.06050126       0.10460109       0.00000000 </v>
     <v>      -0.06041195       0.10454943       0.00000000 </v>
     <v>       0.00000000       0.00000000       0.03333333 </v>
    </varray>
   </crystal>
   <varray name="positions" >
    <v>       1.00440274       0.33359371       0.00036130 </v>
    <v>       0.00833659       0.67446871      -0.00010920 </v>
    <v>       0.66369937       0.33010550      -0.00005467 </v>
    <v>       0.01063657       0.00287933       0.00013259 </v>
    <v>       0.34629465       0.68046487      -0.00010174 </v>
    <v>       0.32594738      -0.00436658      -0.00004923 </v>
    <v>       0.32404797       0.32128408      -0.00006774 </v>
    <v>       0.65465102      -0.01626336       0.00016127 </v>
    <v>       0.66282285       0.67760865      -0.00023117 </v>
    <v>       0.10818765       0.22576361       0.94765875 </v>
    <v>       0.22327319       0.11177846       0.05374556 </v>
    <v>       0.10520990       0.55290438       0.95058077 </v>
    <v>       0.21689039       0.44162499       0.05077412 </v>
    <v>       0.10738027       0.88111850       0.94713361 </v>
    <v>       0.21499706       0.77387901       0.05228836 </v>
    <v>       0.44978304       0.22523505       0.94843385 </v>
    <v>       0.55864147       0.11609505       0.05104047 </v>
    <v>       0.44428848       0.55436112       0.94788381 </v>
    <v>       0.55781740       0.44233611       0.05018625 </v>
    <v>       0.44541491       0.89053843       0.94600857 </v>
    <v>       0.55606585       0.77803961       0.05518185 </v>
    <v>       0.78015444       0.22650909       0.95118373 </v>
    <v>       0.89037473       0.11641302       0.05030921 </v>
    <v>       0.78056793       0.55361252       0.95159681 </v>
    <v>       0.88925294       0.44488475       0.04777640 </v>
    <v>       0.77809230       0.88995752       0.94710107 </v>
    <v>       0.89098337       0.77338831       0.05107529 </v>
   </varray>
  </structure>
  <varray name="forces" >
   <v>       0.04910638       0.02280529       0.03189869 </v>
   <v>       0.05924743       0.13051515       0.00511330 </v>
   <v>       0.10233642      -0.03597646       0.01851334 </v>
   <v>       0.21216890       0.32513846      -0.04422156 </v>
   <v>       0.04634769       0.40196812       0.01961868 </v>
   <v>      -0.22412327      -0.00451239      -0.00306792 </v>
   <v>       0.28467619      -0.44052604       0.02736648 </v>
   <v>       0.01365973      -0.35277097      -0.04890866 </v>
   <v>      -0.45943498       0.03264520       0.05797819 </v>
   <v>       0.07768213      -0.04635837      -0.13856885 </v>
   <v>       0.09368696      -0.05503358       0.31745118 </v>
   <v>       0.09903548       0.21731089       0.04153038 </v>
   <v>       0.02154128       0.16772458      -0.14152080 </v>
   <v>      -0.02045255       0.04779539      -0.14981280 </v>
   <v>       0.08498590       0.07085753       0.05423232 </v>
   <v>      -0.03612220      -0.12623390      -0.09636146 </v>
   <v>       0.09739418      -0.12306978      -0.01444436 </v>
   <v>      -0.03423449      -0.11042997       0.07538620 </v>
   <v>      -0.13975585      -0.00150916      -0.16064544 </v>
   <v>      -0.15786991       0.00743510      -0.21042233 </v>
   <v>      -0.03076294      -0.03675515       0.44385560 </v>
   <v>       0.12154837      -0.17988922       0.07925096 </v>
   <v>       0.04782002      -0.18225375      -0.15787322 </v>
   <v>      -0.22344917       0.04853559       0.13422490 </v>
   <v>       0.01020557       0.04025263       0.00839811 </v>
   <v>      -0.00105863       0.17407578      -0.06274608 </v>
   <v>      -0.09417865       0.00825902      -0.08622487 </v>
  </varray>
  <varray name="stress" >
   <v>      -0.09393452      -0.04301601       0.29395346 </v>
   <v>      -0.04301594       0.45263949      -0.15607647 </v>
   <v>       0.29395323      -0.15607660      -0.35740624 </v>
  </varray>
  <energy>
   <i name="e_fr_energy">   -191.44375977 </i>
   <i name="e_wo_entrp">   -191.35066003 </i>
   <i name="e_0_energy">     -0.18619948 </i>
  </energy>
  <time name="totalsc">  369.34  370.38</time>
 </calculation>
 <calculation>
  <scstep>
   <time name="dav">   22.34   22.40</time>
   <time name="total">   22.86   22.91</time>
   <energy>
    <i name="alphaZ">     90.14155235 </i>
    <i name="ewald">  44626.94959166 </i>
    <i name="hartreedc"> -50636.17951619 </i>
    <i name="XCdc">   -233.49499875 </i>
    <i name="pawpsdc">   4087.26765328 </i>
    <i name="pawaedc">  -3503.23753323 </i>
    <i name="eentropy">     -0.18746675 </i>
    <i name="bandstr">  -1384.22511973 </i>
    <i name="atom">   6761.44252427 </i>
    <i name="e_fr_energy">   -191.52331310 </i>
    <i name="e_wo_entrp">   -191.33584635 </i>
    <i name="e_0_energy">   -191.42957973 </i>
   </energy>
  </scstep>
  <scstep>
   <time name="dav">   33.99   34.07</time>
   <time name="total">   34.50   34.58</time>
   <energy>
    <i name="e_fr_energy">   -191.60447378 </i>
    <i name="e_wo_entrp">   -191.40447171 </i>
    <i name="e_0_energy">   -191.50447274 </i>
   </energy>
  </scstep>
  <scstep>
   <time name="dav">   31.94   32.02</time>
   <time name="total">   32.45   32.53</time>
   <energy>
    <i name="e_fr_energy">   -191.53470118 </i>
    <i name="e_wo_entrp">   -191.34608766 </i>
    <i name="e_0_energy">   -191.44039442 </i>
   </energy>
  </scstep>
  <scstep>
   <time name="dav">   29.64   29.71</time>
   <time name="total">   30.14   30.22</time>
   <energy>
    <i name="e_fr_energy">   -191.53827762 </i>
    <i name="e_wo_entrp">   -191.34741685 </i>
    <i name="e_0_energy">   -191.44284723 </i>
   </energy>
  </scstep>
  <scstep>
   <time name="dav">   29.66   29.73</time>
   <time name="total">   30.17   30.25</time>
   <energy>
    <i name="e_fr_energy">   -191.53284379 </i>
    <i name="e_wo_entrp">   -191.34302355 </i>
    <i name="e_0_energy">   -191.43793367 </i>
   </energy>
  </scstep>
  <scstep>
   <time name="dav">   29.23   29.30</time>
   <time name="total">   29.74   29.81</time>
   <energy>
    <i name="e_fr_energy">   -191.53368433 </i>
    <i name="e_wo_entrp">   -191.34372625 </i>
    <i name="e_0_energy">   -191.43870529 </i>
   </energy>
  </scstep>
  <scstep>
   <time name="dav">   29.10   29.17</time>
   <time name="total">   29.61   29.69</time>
   <energy>
    <i name="e_fr_energy">   -191.53295381 </i>
    <i name="e_wo_entrp">   -191.34308073 </i>
    <i name="e_0_energy">   -191.43801727 </i>
   </energy>
  </scstep>
  <scstep>
   <time name="dav">   27.20   27.27</time>
   <time name="total">   27.71   27.78</time>
   <energy>
    <i name="e_fr_energy">   -191.53239632 </i>
    <i name="e_wo_entrp">   -191.34265291 </i>
    <i name="e_0_energy">   -191.43752461 </i>
   </energy>
  </scstep>
  <scstep>
   <time name="dav">   19.11   19.16</time>
   <time name="total">   19.15   19.20</time>
   <energy>
    <i name="alphaZ">     90.14155235 </i>
    <i name="ewald">  44626.94959166 </i>
    <i name="hartreedc"> -50638.22824891 </i>
    <i name="XCdc">   -233.42529482 </i>
    <i name="pawpsdc">   4084.22307973 </i>
    <i name="pawaedc">  -3500.14620488 </i>
    <i name="eentropy">     -0.18974753 </i>
    <i name="bandstr">  -1382.29966281 </i>
    <i name="atom">   6761.44252427 </i>
    <i name="e_fr_energy">   -191.53241094 </i>
    <i name="e_wo_entrp">   -191.34266341 </i>
    <i name="e_0_energy">   -191.43753717 </i>
   </energy>
  </scstep>
  <structure>
   <crystal>
    <varray name="basis" >
     <v>       8.26609954       4.78265965       0.00000000 </v>
     <v>      -8.27126135       4.79159314       0.00000000 </v>
     <v>       0.00000000       0.00000000      30.00000000 </v>
    </varray>
    <i name="volume">   2374.99241304 </i>
    <varray name="rec_basis" >
     <v>       0.06052558       0.10447942       0.00000000 </v>
     <v>      -0.06041274       0.10441422       0.00000000 </v>
     <v>       0.00000000       0.00000000       0.03333333 </v>
    </varray>
   </crystal>
   <varray name="positions" >
    <v>       1.00465402       0.33356683       0.00041208 </v>
    <v>       0.00915463       0.67494185      -0.00010077 </v>
    <v>       0.66382074       0.32963216      -0.00002481 </v>
    <v>       0.01287057       0.00389070       0.00006138 </v>
    <v>       0.34842535       0.68232783      -0.00007004 </v>
    <v>       0.32528258      -0.00373547      -0.00005452 </v>
    <v>       0.32267440       0.31826379      -0.00002436 </v>
    <v>       0.65293677      -0.01804809       0.00008328 </v>
    <v>       0.66165998       0.67908956      -0.00013784 </v>
    <v>       0.10818400       0.22530504       0.94744450 </v>
    <v>       0.22326846       0.11123195       0.05424571 </v>
    <v>       0.10659070       0.55370854       0.95065199 </v>
    <v>       0.21779756       0.44240392       0.05054261 </v>
    <v>       0.10756311       0.88142288       0.94690206 </v>
    <v>       0.21560374       0.77399040       0.05236791 </v>
    <v>       0.44904144       0.22470627       0.94828600 </v>
    <v>       0.55830649       0.11519289       0.05101185 </v>
    <v>       0.44363569       0.55390655       0.94800996 </v>
    <v>       0.55740309       0.44273457       0.04992492 </v>
    <v>       0.44499441       0.89103220       0.94568007 </v>
    <v>       0.55579350       0.77794510       0.05588201 </v>
    <v>       0.77960237       0.22525162       0.95131437 </v>
    <v>       0.88959692       0.11535692       0.05005207 </v>
    <v>       0.78016017       0.55450475       0.95181480 </v>
    <v>       0.88948413       0.44505586       0.04778577 </v>
    <v>       0.77896066       0.89083129       0.94700718 </v>
    <v>       0.89074900       0.77370456       0.05093171 </v>
   </varray>
  </structure>
  <varray name="forces" >
   <v>       0.01680910       0.02438221       0.04628299 </v>
   <v>       0.09861973       0.12377177      -0.01264599 </v>
   <v>       0.14650217      -0.02942071      -0.00188157 </v>
   <v>       0.22791893       0.32518979      -0.01250502 </v>
   <v>      -0.02461144       0.40836865       0.00235854 </v>
   <v>      -0.23563779      -0.00558392       0.00537204 </v>
   <v>       0.30185759      -0.44162668       0.03184280 </v>
   <v>       0.01265174      -0.38054162      -0.02378912 </v>
   <v>      -0.44854545       0.07534750      -0.00622268 </v>
   <v>       0.05926077      -0.02829760      -0.10202885 </v>
   <v>       0.06848508      -0.05208852       0.27270076 </v>
   <v>       0.07704724       0.14813715       0.06706740 </v>
   <v>       0.03933828       0.11147581      -0.17460498 </v>
   <v>      -0.00053457       0.02571028      -0.10641183 </v>
   <v>       0.04171216       0.05357415       0.02065495 </v>
   <v>      -0.01599528      -0.07604362      -0.08547609 </v>
   <v>       0.04866267      -0.07707968      -0.01128422 </v>
   <v>      -0.00421359      -0.10407003       0.13700562 </v>
   <v>      -0.10308901      -0.01357552      -0.16485153 </v>
   <v>      -0.12267253       0.00041726      -0.13393418 </v>
   <v>      -0.06001882      -0.00034020       0.30238775 </v>
   <v>       0.07773914      -0.11736285       0.06844925 </v>
   <v>       0.03565021      -0.12821203      -0.18893254 </v>
   <v>      -0.17108849       0.02406731       0.18849620 </v>
   <v>       0.00736640       0.02542623      -0.03009515 </v>
   <v>       0.00081389       0.10465834       0.02305315 </v>
   <v>      -0.07402813       0.00371653      -0.11100769 </v>
  </varray>
  <varray name="stress" >
   <v>      -0.01673683       0.02175356       0.10799853 </v>
   <v>       0.02175352       0.12066750      -0.05591443 </v>
   <v>       0.10799867      -0.05591445      -1.34611804 </v>
  </varray>
  <energy>
   <i name="e_fr_energy">   -191.53241094 </i>
   <i name="e_wo_entrp">   -191.43753717 </i>
   <i name="e_0_energy">     -0.18974753 </i>
  </energy>
  <time name="totalsc">  298.93  299.67</time>
 </calculation>
 <calculation>
  <scstep>
   <time name="dav">   22.36   22.42</time>
   <time name="total">   22.88   22.93</time>
   <energy>
    <i name="alphaZ">     90.09058002 </i>
    <i name="ewald">  44607.98515455 </i>
    <i name="hartreedc"> -50618.21139729 </i>
    <i name="XCdc">   -233.45438650 </i>
    <i name="pawpsdc">   4084.09244580 </i>
    <i name="pawaedc">  -3500.01387417 </i>
    <i name="eentropy">     -0.18680608 </i>
    <i name="bandstr">  -1383.38263212 </i>
    <i name="atom">   6761.44252427 </i>
    <i name="e_fr_energy">   -191.63839154 </i>
    <i name="e_wo_entrp">   -191.45158545 </i>
    <i name="e_0_energy">   -191.54498849 </i>
   </energy>
  </scstep>
  <scstep>
   <time name="dav">   33.07   33.15</time>
   <time name="total">   33.58   33.66</time>
   <energy>
    <i name="e_fr_energy">   -191.77819332 </i>
    <i name="e_wo_entrp">   -191.56700212 </i>
    <i name="e_0_energy">   -191.67259772 </i>
   </energy>
  </scstep>
  <scstep>
   <time name="dav">   31.26   31.34</time>
   <time name="total">   31.77   31.85</time>
   <energy>
    <i name="e_fr_energy">   -191.65843115 </i>
    <i name="e_wo_entrp">   -191.46956887 </i>
    <i name="e_0_energy">   -191.56400001 </i>
   </energy>
  </scstep>
  <scstep>
   <time name="dav">   30.92   31.00</time>
   <time name="total">   31.43   31.51</time>
   <energy>
    <i name="e_fr_energy">   -191.66732241 </i>
    <i name="e_wo_entrp">   -191.47475167 </i>
    <i name="e_0_energy">   -191.57103704 </i>
   </energy>
  </scstep>
  <scstep>
   <time name="dav">   29.78   29.85</time>
   <time name="total">   30.29   30.36</time>
   <energy>
    <i name="e_fr_energy">   -191.65324410 </i>
    <i name="e_wo_entrp">   -191.46213190 </i>
    <i name="e_0_energy">   -191.55768800 </i>
   </energy>
  </scstep>
  <scstep>
   <time name="dav">   29.65   29.72</time>
   <time name="total">   30.16   30.23</time>
   <energy>
    <i name="e_fr_energy">   -191.65590609 </i>
    <i name="e_wo_entrp">   -191.46405126 </i>
    <i name="e_0_energy">   -191.55997868 </i>
   </energy>
  </scstep>
  <scstep>
   <time name="dav">   29.65   29.72</time>
   <time name="total">   30.16   30.24</time>
   <energy>
    <i name="e_fr_energy">   -191.65322068 </i>
    <i name="e_wo_entrp">   -191.46159455 </i>
    <i name="e_0_energy">   -191.55740761 </i>
   </energy>
  </scstep>
  <scstep>
   <time name="dav">   28.15   28.22</time>
   <time name="total">   28.66   28.73</time>
   <energy>
    <i name="e_fr_energy">   -191.65211400 </i>
    <i name="e_wo_entrp">   -191.46066843 </i>
    <i name="e_0_energy">   -191.55639121 </i>
   </energy>
  </scstep>
  <scstep>
   <time name="dav">   22.62   22.68</time>
   <time name="total">   22.66   22.71</time>
   <energy>
    <i name="alphaZ">     90.09058002 </i>
    <i name="ewald">  44607.98515455 </i>
    <i name="hartreedc"> -50619.89906829 </i>
    <i name="XCdc">   -233.36887627 </i>
    <i name="pawpsdc">   4089.17001841 </i>
    <i name="pawaedc">  -3505.16398348 </i>
    <i name="eentropy">     -0.19137655 </i>
    <i name="bandstr">  -1381.71708315 </i>
    <i name="atom">   6761.44252427 </i>
    <i name="e_fr_energy">   -191.65211048 </i>
    <i name="e_wo_entrp">   -191.46073393 </i>
[...]
    <i name="e_0_energy">   -192.07084277 </i>
   </energy>
  </scstep>
  <scstep>
   <time name="dav">   26.66   26.72</time>
   <time name="total">   27.17   27.23</time>
   <energy>
    <i name="e_fr_energy">   -192.15697062 </i>
    <i name="e_wo_entrp">   -191.98746114 </i>
    <i name="e_0_energy">   -192.07221588 </i>
   </energy>
  </scstep>
  <scstep>
   <time name="dav">   27.12   27.19</time>
   <time name="total">   27.63   27.70</time>
   <energy>
    <i name="e_fr_energy">   -192.15651202 </i>
    <i name="e_wo_entrp">   -191.98387191 </i>
    <i name="e_0_energy">   -192.07019196 </i>
   </energy>
  </scstep>
  <scstep>
   <time name="dav">   23.66   23.72</time>
   <time name="total">   24.16   24.22</time>
   <energy>
    <i name="e_fr_energy">   -192.15662056 </i>
    <i name="e_wo_entrp">   -191.98593065 </i>
    <i name="e_0_energy">   -192.07127560 </i>
   </energy>
  </scstep>
  <scstep>
   <time name="dav">   22.98   23.04</time>
   <time name="total">   23.49   23.55</time>
   <energy>
    <i name="e_fr_energy">   -192.15643455 </i>
    <i name="e_wo_entrp">   -191.98487198 </i>
    <i name="e_0_energy">   -192.07065327 </i>
   </energy>
  </scstep>
  <scstep>
   <time name="dav">   17.67   17.71</time>
   <time name="total">   17.70   17.75</time>
   <energy>
    <i name="alphaZ">     88.32299940 </i>
    <i name="ewald">  43872.71029047 </i>
    <i name="hartreedc"> -49877.92732470 </i>
    <i name="XCdc">   -233.78234736 </i>
    <i name="pawpsdc">   4097.34541546 </i>
    <i name="pawaedc">  -3513.43306367 </i>
    <i name="eentropy">     -0.17152184 </i>
    <i name="bandstr">  -1386.66339548 </i>
    <i name="atom">   6761.44252427 </i>
    <i name="e_fr_energy">   -192.15642347 </i>
    <i name="e_wo_entrp">   -191.98490163 </i>
    <i name="e_0_energy">   -192.07066255 </i>
   </energy>
  </scstep>
  <structure>
   <crystal>
    <varray name="basis" >
     <v>       8.32995230       4.82394584       0.00000000 </v>
     <v>      -8.35234473       4.86259397       0.00000000 </v>
     <v>       0.00000000       0.00000000      30.00000000 </v>
    </varray>
    <i name="volume">   2423.89303350 </i>
    <varray name="rec_basis" >
     <v>       0.06018327       0.10337516       0.00000000 </v>
     <v>      -0.05970493       0.10309802       0.00000000 </v>
     <v>       0.00000000       0.00000000       0.03333333 </v>
    </varray>
   </crystal>
   <varray name="positions" >
    <v>       0.99548961       0.32946783       0.00241320 </v>
    <v>       0.03008608       0.68052269      -0.00095442 </v>
    <v>       0.65139610       0.30298732      -0.00137494 </v>
    <v>       0.02237403      -0.00025608      -0.00023651 </v>
    <v>       0.35289409       0.70168690       0.00077349 </v>
    <v>       0.32512232      -0.00225861       0.00003050 </v>
    <v>       0.31633269       0.29360749      -0.00113918 </v>
    <v>       0.64054978      -0.01370659      -0.00040353 </v>
    <v>       0.66728566       0.70349892       0.00138468 </v>
    <v>       0.10703415       0.21970667       0.94752884 </v>
    <v>       0.22131981       0.10530779       0.05650084 </v>
    <v>       0.11428782       0.55616211       0.95131463 </v>
    <v>       0.22639617       0.44565429       0.04512530 </v>
    <v>       0.10888026       0.87985980       0.94572949 </v>
    <v>       0.21771384       0.77621430       0.05443708 </v>
    <v>       0.44635276       0.21875124       0.94550736 </v>
    <v>       0.55515009       0.11444135       0.05336074 </v>
    <v>       0.44104813       0.55023395       0.95434209 </v>
    <v>       0.55642407       0.44481985       0.04458248 </v>
    <v>       0.44160876       0.89455387       0.94359174 </v>
    <v>       0.55525037       0.78855331       0.05802674 </v>
    <v>       0.77978483       0.22509583       0.94970571 </v>
    <v>       0.88735302       0.10918828       0.04675825 </v>
    <v>       0.77779378       0.55697778       0.95947515 </v>
    <v>       0.88780945       0.44375713       0.04570546 </v>
    <v>       0.78112303       0.90076943       0.94772225 </v>
    <v>       0.89135374       0.77261762       0.05009246 </v>
   </varray>
  </structure>
  <varray name="forces" >
   <v>      -0.06176735      -0.10627623      -0.00900134 </v>
   <v>      -0.01711392       0.00215263       0.00846571 </v>
   <v>      -0.01380357      -0.06338658      -0.01014421 </v>
   <v>       0.00216090      -0.01789615      -0.00894404 </v>
   <v>       0.02344346       0.03381664       0.01584147 </v>
   <v>       0.00768000       0.04619193      -0.00920749 </v>
   <v>       0.02802117      -0.00264366      -0.02504735 </v>
   <v>      -0.02598464       0.04789442       0.00142358 </v>
   <v>       0.01628758       0.02566558       0.01719643 </v>
   <v>      -0.00330162      -0.01340458      -0.00199071 </v>
   <v>       0.00044381      -0.00308978      -0.01482418 </v>
   <v>       0.01708179       0.01608583       0.02546964 </v>
   <v>      -0.00787800      -0.00479118      -0.03698993 </v>
   <v>       0.00898626      -0.00494948      -0.02088348 </v>
   <v>       0.00942846       0.00409073       0.01472631 </v>
   <v>       0.01123630      -0.01129171      -0.00328449 </v>
   <v>      -0.01071990       0.01154204      -0.03354449 </v>
   <v>       0.01023461       0.01553843       0.01480015 </v>
   <v>      -0.00261952      -0.01071168      -0.01186045 </v>
   <v>       0.01854212       0.01347482       0.00824274 </v>
   <v>       0.00297466       0.01933209       0.01637851 </v>
   <v>      -0.02443256       0.00325843      -0.00159484 </v>
   <v>       0.01486010       0.01025054       0.03226868 </v>
   <v>       0.00596345      -0.00338052       0.01100579 </v>
   <v>      -0.03091427      -0.01669920      -0.00053657 </v>
   <v>       0.01454866      -0.00395425      -0.00202757 </v>
   <v>       0.00664198       0.01318088       0.02406213 </v>
  </varray>
  <varray name="stress" >
   <v>       0.01366665       0.00485073      -0.08394303 </v>
   <v>       0.00485077      -0.13290924       0.01931364 </v>
   <v>      -0.08394302       0.01931354      -1.34620036 </v>
  </varray>
  <energy>
   <i name="e_fr_energy">   -192.15642347 </i>
   <i name="e_wo_entrp">   -192.07066255 </i>
   <i name="e_0_energy">     -0.17152184 </i>
  </energy>
  <time name="totalsc">  243.79  244.40</time>
 </calculation>
 <calculation>
  <scstep>
   <time name="dav">   22.12   22.17</time>
   <time name="total">   22.63   22.69</time>
   <energy>
    <i name="alphaZ">     88.34132201 </i>
    <i name="ewald">  43882.27181592 </i>
    <i name="hartreedc"> -49887.65948938 </i>
    <i name="XCdc">   -233.76621587 </i>
    <i name="pawpsdc">   4097.30551881 </i>
    <i name="pawaedc">  -3513.39237638 </i>
    <i name="eentropy">     -0.17036218 </i>
    <i name="bandstr">  -1386.53240571 </i>
    <i name="atom">   6761.44252427 </i>
    <i name="e_fr_energy">   -192.15966851 </i>
    <i name="e_wo_entrp">   -191.98930633 </i>
    <i name="e_0_energy">   -192.07448742 </i>
   </energy>
  </scstep>
  <scstep>
   <time name="dav">   29.43   29.50</time>
   <time name="total">   29.93   30.01</time>
   <energy>
    <i name="e_fr_energy">   -192.16373513 </i>
    <i name="e_wo_entrp">   -191.99389112 </i>
    <i name="e_0_energy">   -192.07881313 </i>
   </energy>
  </scstep>
  <scstep>
   <time name="dav">   29.16   29.23</time>
   <time name="total">   29.67   29.74</time>
   <energy>
    <i name="e_fr_energy">   -192.15984511 </i>
    <i name="e_wo_entrp">   -191.99000927 </i>
    <i name="e_0_energy">   -192.07492719 </i>
   </energy>
  </scstep>
  <scstep>
   <time name="dav">   24.93   24.99</time>
   <time name="total">   24.96   25.03</time>
   <energy>
    <i name="alphaZ">     88.34132201 </i>
    <i name="ewald">  43882.27181592 </i>
    <i name="hartreedc"> -49887.46920162 </i>
    <i name="XCdc">   -233.77052542 </i>
    <i name="pawpsdc">   4097.29185889 </i>
    <i name="pawaedc">  -3513.37097224 </i>
    <i name="eentropy">     -0.17146909 </i>
    <i name="bandstr">  -1386.72529730 </i>
    <i name="atom">   6761.44252427 </i>
    <i name="e_fr_energy">   -192.15994459 </i>
    <i name="e_wo_entrp">   -191.98847550 </i>
    <i name="e_0_energy">   -192.07421004 </i>
   </energy>
  </scstep>
  <structure>
   <crystal>
    <varray name="basis" >
     <v>       8.33091904       4.82258206       0.00000000 </v>
     <v>      -8.35314279       4.86092350       0.00000000 </v>
     <v>       0.00000000       0.00000000      30.00000000 </v>
    </varray>
    <i name="volume">   2423.39030089 </i>
    <varray name="rec_basis" >
     <v>       0.06017508       0.10340649       0.00000000 </v>
     <v>      -0.05970044       0.10313137       0.00000000 </v>
     <v>       0.00000000       0.00000000       0.03333333 </v>
    </varray>
   </crystal>
   <varray name="positions" >
    <v>       0.99419348       0.32867645       0.00238276 </v>
    <v>       0.03006964       0.68060361      -0.00094393 </v>
    <v>       0.65087755       0.30265799      -0.00139253 </v>
    <v>       0.02226882      -0.00038847      -0.00026124 </v>
    <v>       0.35324216       0.70187354       0.00081679 </v>
    <v>       0.32543177      -0.00200966       0.00001299 </v>
    <v>       0.31641211       0.29350506      -0.00119075 </v>
    <v>       0.64088697      -0.01320819      -0.00040050 </v>
    <v>       0.66753338       0.70362706       0.00142525 </v>
    <v>       0.10694799       0.21964469       0.94751717 </v>
    <v>       0.22130872       0.10528154       0.05647133 </v>
    <v>       0.11448624       0.55619853       0.95139676 </v>
    <v>       0.22627779       0.44564459       0.04500607 </v>
    <v>       0.10891570       0.87981642       0.94569411 </v>
    <v>       0.21779050       0.77620226       0.05446193 </v>
    <v>       0.44636097       0.21866808       0.94546985 </v>
    <v>       0.55517253       0.11455061       0.05332009 </v>
    <v>       0.44121321       0.55031572       0.95436909 </v>
    <v>       0.55635232       0.44475774       0.04456540 </v>
    <v>       0.44181289       0.89459760       0.94360878 </v>
    <v>       0.55544967       0.78872507       0.05806526 </v>
    <v>       0.77972106       0.22525500       0.94966172 </v>
    <v>       0.88751306       0.10917242       0.04687907 </v>
    <v>       0.77778645       0.55692403       0.95949813 </v>
    <v>       0.88753217       0.44372469       0.04570120 </v>
    <v>       0.78117547       0.90072269       0.94771487 </v>
    <v>       0.89148184       0.77267536       0.05015023 </v>
   </varray>
  </structure>
  <varray name="forces" >
   <v>      -0.06718411      -0.14062462       0.00247437 </v>
   <v>       0.00597467       0.01493237       0.00198910 </v>
   <v>      -0.02120098      -0.03882012      -0.00950711 </v>
   <v>       0.00890186      -0.01925122      -0.01422036 </v>
   <v>      -0.00195664       0.02044907       0.02452786 </v>
   <v>       0.01007693       0.01178442      -0.00752544 </v>
   <v>       0.00164204      -0.00261094      -0.01538775 </v>
   <v>      -0.00786170       0.06364873      -0.00234122 </v>
   <v>       0.01579388       0.02843262       0.01925892 </v>
   <v>      -0.00638900      -0.00859949       0.00088458 </v>
   <v>       0.00451175      -0.00278143      -0.01254590 </v>
   <v>       0.00957471       0.01347586       0.04940851 </v>
   <v>      -0.01681669      -0.01922318      -0.06227557 </v>
   <v>       0.01520231      -0.00420746      -0.00313972 </v>
   <v>       0.00702919      -0.00039127      -0.00139603 </v>
   <v>       0.01519516      -0.00457223      -0.03010399 </v>
   <v>      -0.00987000       0.00204679       0.00143277 </v>
   <v>       0.01239500       0.01858085       0.01193628 </v>
   <v>      -0.00155112      -0.00953010      -0.00486477 </v>
   <v>       0.01717456       0.01579749       0.00245377 </v>
   <v>       0.00564625       0.02718507       0.01115484 </v>
   <v>      -0.01998009       0.01411170      -0.02499562 </v>
   <v>       0.01417532       0.02201205       0.04116546 </v>
   <v>       0.00963478       0.00211842       0.01395923 </v>
   <v>      -0.02109052      -0.01557370      -0.01308211 </v>
   <v>       0.00872749      -0.00049463      -0.00071972 </v>
   <v>       0.01224496       0.01210496       0.02145961 </v>
  </varray>
  <varray name="stress" >
   <v>       0.16319380       0.02216517      -0.09234148 </v>
   <v>       0.02216528       0.03953818      -0.01978575 </v>
   <v>      -0.09234164      -0.01978574      -0.98928245 </v>
  </varray>
  <energy>
   <i name="e_fr_energy">   -192.15994459 </i>
   <i name="e_wo_entrp">   -192.07421004 </i>
   <i name="e_0_energy">     -0.17146909 </i>
  </energy>
  <time name="totalsc">  149.25  149.62</time>
 </calculation>
 <calculation>
  <scstep>
   <time name="dav">   22.09   22.14</time>
   <time name="total">   22.60   22.66</time>
   <energy>
    <i name="alphaZ">     88.34275066 </i>
    <i name="ewald">  43884.44547575 </i>
    <i name="hartreedc"> -49889.63452456 </i>
    <i name="XCdc">   -233.76749528 </i>
    <i name="pawpsdc">   4097.40405680 </i>
    <i name="pawaedc">  -3513.49554035 </i>
    <i name="eentropy">     -0.16975209 </i>
    <i name="bandstr">  -1386.72629821 </i>
    <i name="atom">   6761.44252427 </i>
    <i name="e_fr_energy">   -192.15880302 </i>
    <i name="e_wo_entrp">   -191.98905092 </i>
    <i name="e_0_energy">   -192.07392697 </i>
   </energy>
  </scstep>
  <scstep>
   <time name="dav">   29.93   30.00</time>
   <time name="total">   30.44   30.51</time>
   <energy>
    <i name="e_fr_energy">   -192.15977775 </i>
    <i name="e_wo_entrp">   -191.98578478 </i>
    <i name="e_0_energy">   -192.07278126 </i>
   </energy>
  </scstep>
  <scstep>
   <time name="dav">   25.57   25.64</time>
   <time name="total">   26.08   26.15</time>
   <energy>
    <i name="e_fr_energy">   -192.15883173 </i>
    <i name="e_wo_entrp">   -191.98854146 </i>
    <i name="e_0_energy">   -192.07368660 </i>
   </energy>
  </scstep>
  <scstep>
   <time name="dav">   17.05   17.09</time>
   <time name="total">   17.09   17.13</time>
   <energy>
    <i name="alphaZ">     88.34275066 </i>
    <i name="ewald">  43884.44547575 </i>
    <i name="hartreedc"> -49889.61353548 </i>
    <i name="XCdc">   -233.76833758 </i>
    <i name="pawpsdc">   4097.59644070 </i>
    <i name="pawaedc">  -3513.68918704 </i>
    <i name="eentropy">     -0.17050745 </i>
    <i name="bandstr">  -1386.74445729 </i>
    <i name="atom">   6761.44252427 </i>
    <i name="e_fr_energy">   -192.15883346 </i>
    <i name="e_wo_entrp">   -191.98832601 </i>
    <i name="e_0_energy">   -192.07357973 </i>
   </energy>
  </scstep>
  <structure>
   <crystal>
    <varray name="basis" >
     <v>       8.33100275       4.82251190       0.00000000 </v>
     <v>      -8.35317767       4.86076801       0.00000000 </v>
     <v>       0.00000000       0.00000000      30.00000000 </v>
    </varray>
    <i name="volume">   2423.35111069 </i>
    <varray name="rec_basis" >
     <v>       0.06017413       0.10340859       0.00000000 </v>
     <v>      -0.05970053       0.10313408       0.00000000 </v>
     <v>       0.00000000       0.00000000       0.03333333 </v>
    </varray>
   </crystal>
   <varray name="positions" >
    <v>       0.99455919       0.32897603       0.00239694 </v>
    <v>       0.03006417       0.68059431      -0.00094079 </v>
    <v>       0.65097767       0.30268410      -0.00139372 </v>
    <v>       0.02227728      -0.00037495      -0.00025585 </v>
    <v>       0.35316175       0.70181638       0.00080750 </v>
    <v>       0.32539657      -0.00204041       0.00001349 </v>
    <v>       0.31640131       0.29350971      -0.00118483 </v>
    <v>       0.64078301      -0.01331533      -0.00040169 </v>
    <v>       0.66749972       0.70360102       0.00141888 </v>
    <v>       0.10694710       0.21964515       0.94752459 </v>
    <v>       0.22130602       0.10528571       0.05647315 </v>
    <v>       0.11444203       0.55619963       0.95137356 </v>
    <v>       0.22631717       0.44564484       0.04504198 </v>
    <v>       0.10889019       0.87980071       0.94569489 </v>
    <v>       0.21776867       0.77620341       0.05446060 </v>
    <v>       0.44633700       0.21865361       0.94549006 </v>
    <v>       0.55517318       0.11453852       0.05330912 </v>
    <v>       0.44118314       0.55029527       0.95436923 </v>
    <v>       0.55635369       0.44476527       0.04456254 </v>
    <v>       0.44176136       0.89457632       0.94360615 </v>
    <v>       0.55539212       0.78867117       0.05805757 </v>
    <v>       0.77973064       0.22521227       0.94969098 </v>
    <v>       0.88747959       0.10920312       0.04683028 </v>
    <v>       0.77779882       0.55693828       0.95949698 </v>
    <v>       0.88760017       0.44375490       0.04570095 </v>
    <v>       0.78115342       0.90070595       0.94771821 </v>
    <v>       0.89145948       0.77266945       0.05013914 </v>
   </varray>
  </structure>
  <varray name="forces" >
   <v>      -0.05564544      -0.11137330      -0.00132423 </v>
   <v>      -0.00687637       0.00646515       0.00126853 </v>
   <v>      -0.03051042      -0.03268349      -0.00994267 </v>
   <v>       0.00864434      -0.01738048      -0.01608541 </v>
   <v>       0.01254606       0.02996334       0.02193618 </v>
   <v>       0.00487559       0.01233419      -0.00488078 </v>
   <v>       0.00196471      -0.00736839      -0.01230817 </v>
   <v>       0.00490454       0.04178738       0.00118951 </v>
   <v>       0.00766563       0.02471645       0.02102527 </v>
   <v>      -0.00369898      -0.00954833      -0.00225010 </v>
   <v>       0.00381429      -0.00328409      -0.01343949 </v>
   <v>       0.01614716       0.01397285       0.03590465 </v>
   <v>      -0.01030978      -0.01123937      -0.05147365 </v>
   <v>       0.00753084       0.00228421      -0.00822004 </v>
   <v>       0.01359411       0.00741122       0.00610749 </v>
   <v>       0.01177550      -0.00486778      -0.03751522 </v>
   <v>      -0.00840782       0.00068758       0.00814075 </v>
   <v>       0.00974402       0.01565993       0.00982150 </v>
   <v>      -0.00152804      -0.00905647      -0.00465258 </v>
   <v>       0.01776041       0.01356696       0.00246724 </v>
   <v>       0.00363956       0.02741740       0.01047368 </v>
   <v>      -0.01953342       0.00937730      -0.02950219 </v>
   <v>       0.01874994       0.01232967       0.04245395 </v>
   <v>       0.00414591      -0.00383248       0.00891761 </v>
   <v>      -0.02519388      -0.02071242      -0.00296110 </v>
   <v>       0.00679513       0.00148883      -0.00218784 </v>
   <v>       0.00740640       0.01188416       0.02703712 </v>
  </varray>
  <varray name="stress" >
   <v>       0.00462702       0.00599996      -0.05617385 </v>
   <v>       0.00600003      -0.03494878      -0.01153814 </v>
   <v>      -0.05617396      -0.01153812      -1.30541519 </v>
  </varray>
  <energy>
   <i name="e_fr_energy">   -192.15883346 </i>
   <i name="e_wo_entrp">   -192.07357973 </i>
   <i name="e_0_energy">     -0.17050745 </i>
  </energy>
  <time name="totalsc">  137.96  138.31</time>
 </calculation>
 <calculation>
  <scstep>
   <time name="dav">   22.09   22.14</time>
   <time name="total">   22.60   22.66</time>
   <energy>
    <i name="alphaZ">     88.36818068 </i>
    <i name="ewald">  43896.80308162 </i>
    <i name="hartreedc"> -49902.22677427 </i>
    <i name="XCdc">   -233.74676588 </i>
    <i name="pawpsdc">   4097.64463276 </i>
    <i name="pawaedc">  -3513.73686616 </i>
    <i name="eentropy">     -0.16973323 </i>
    <i name="bandstr">  -1386.53851230 </i>
    <i name="atom">   6761.44252427 </i>
    <i name="e_fr_energy">   -192.16023251 </i>
    <i name="e_wo_entrp">   -191.99049928 </i>
    <i name="e_0_energy">   -192.07536590 </i>
   </energy>
  </scstep>
  <scstep>
