<?xml version="1.0" encoding="ISO-8859-1"?>
<modeling>
 <generator>
  <i name="program" type="string">vasp </i>
  <i name="version" type="string">5.4.1  </i>
  <i name="subversion" type="string">05Feb16 (build Jul 05 2020 17:13:04) complex                          parallel </i>
  <i name="platform" type="string">IFC91_ompi </i>
  <i name="date" type="string">2024 07 08 </i>
  <i name="time" type="string">19:08:02 </i>
 </generator>
 <incar>
  <i type="int" name="ISTART">     0</i>
  <i type="string" name="PREC">normal</i>
  <i type="string" name="ALGO"> Normal</i>
  <i type="int" name="ISPIN">     1</i>
  <i type="int" name="ICHARG">     2</i>
  <i type="int" name="IBRION">     1</i>
  <i type="int" name="NSW">   100</i>
  <i type="int" name="ISIF">     3</i>
  <i type="int" name="ISYM">     0</i>
  <i name="SYMPREC">      0.00000001</i>
  <i name="POTIM">      0.50000000</i>
  <i type="logical" name="LREAL"> F  </i>
  <i type="logical" name="LPLANE"> F  </i>
  <i type="int" name="ISMEAR">     0</i>
  <i type="logical" name="LWAVE"> F  </i>
  <i type="logical" name="LCHARG"> F  </i>
  <v type="int" name="KPOINT_BSE">    -1     0     0     0</v>
 </incar>
 <kpoints>
  <generation param="Gamma">
   <v type="int" name="divisions">       8        8        1 </v>
   <v name="usershift">      0.00000000       0.00000000       0.00000000 </v>
   <v name="genvec1">      0.12500000       0.00000000       0.00000000 </v>
   <v name="genvec2">     -0.00000000       0.12500000       0.00000000 </v>
   <v name="genvec3">      0.00000000       0.00000000       1.00000000 </v>
   <v name="shift">      0.00000000       0.00000000       0.00000000 </v>
  </generation>
  <varray name="kpointlist" >
   <v>       0.00000000       0.00000000       0.00000000 </v>
   <v>       0.12500000       0.00000000       0.00000000 </v>
   <v>       0.25000000       0.00000000       0.00000000 </v>
   <v>       0.37500000       0.00000000       0.00000000 </v>
   <v>       0.50000000       0.00000000       0.00000000 </v>
   <v>       0.00000000       0.12500000       0.00000000 </v>
   <v>       0.12500000       0.12500000       0.00000000 </v>
   <v>       0.25000000       0.12500000       0.00000000 </v>
   <v>       0.37500000       0.12500000       0.00000000 </v>
   <v>       0.50000000       0.12500000       0.00000000 </v>
   <v>      -0.37500000       0.12500000       0.00000000 </v>
   <v>      -0.25000000       0.12500000       0.00000000 </v>
   <v>      -0.12500000       0.12500000       0.00000000 </v>
   <v>       0.00000000       0.25000000       0.00000000 </v>
   <v>       0.12500000       0.25000000       0.00000000 </v>
   <v>       0.25000000       0.25000000       0.00000000 </v>
   <v>       0.37500000       0.25000000       0.00000000 </v>
   <v>       0.50000000       0.25000000       0.00000000 </v>
   <v>      -0.37500000       0.25000000       0.00000000 </v>
   <v>      -0.25000000       0.25000000       0.00000000 </v>
   <v>      -0.12500000       0.25000000       0.00000000 </v>
   <v>      -0.00000000       0.37500000       0.00000000 </v>
   <v>       0.12500000       0.37500000       0.00000000 </v>
   <v>       0.25000000       0.37500000       0.00000000 </v>
   <v>       0.37500000       0.37500000       0.00000000 </v>
   <v>       0.50000000       0.37500000       0.00000000 </v>
   <v>      -0.37500000       0.37500000       0.00000000 </v>
   <v>      -0.25000000       0.37500000       0.00000000 </v>
   <v>      -0.12500000       0.37500000       0.00000000 </v>
   <v>       0.00000000       0.50000000       0.00000000 </v>
   <v>       0.12500000       0.50000000       0.00000000 </v>
   <v>       0.25000000       0.50000000       0.00000000 </v>
   <v>       0.37500000       0.50000000       0.00000000 </v>
   <v>       0.50000000       0.50000000       0.00000000 </v>
  </varray>
  <varray name="weights" >
   <v>       0.01562500 </v>
   <v>       0.03125000 </v>
   <v>       0.03125000 </v>
   <v>       0.03125000 </v>
   <v>       0.01562500 </v>
   <v>       0.03125000 </v>
   <v>       0.03125000 </v>
   <v>       0.03125000 </v>
   <v>       0.03125000 </v>
   <v>       0.03125000 </v>
   <v>       0.03125000 </v>
   <v>       0.03125000 </v>
   <v>       0.03125000 </v>
   <v>       0.03125000 </v>
   <v>       0.03125000 </v>
   <v>       0.03125000 </v>
   <v>       0.03125000 </v>
   <v>       0.03125000 </v>
   <v>       0.03125000 </v>
   <v>       0.03125000 </v>
   <v>       0.03125000 </v>
   <v>       0.03125000 </v>
   <v>       0.03125000 </v>
   <v>       0.03125000 </v>
   <v>       0.03125000 </v>
   <v>       0.03125000 </v>
   <v>       0.03125000 </v>
   <v>       0.03125000 </v>
   <v>       0.03125000 </v>
   <v>       0.01562500 </v>
   <v>       0.03125000 </v>
   <v>       0.03125000 </v>
   <v>       0.03125000 </v>
   <v>       0.01562500 </v>
  </varray>
 </kpoints>
 <parameters>
  <separator name="general" >
   <i type="string" name="SYSTEM">unknown system</i>
   <i type="logical" name="LCOMPAT"> F  </i>
  </separator>
  <separator name="electronic" >
   <i type="string" name="PREC">normal</i>
   <i name="ENMAX">    280.00000000</i>
   <i name="ENAUG">    373.43800000</i>
   <i name="EDIFF">      0.00010000</i>
   <i type="int" name="IALGO">    38</i>
   <i type="int" name="IWAVPR">    11</i>
   <i type="int" name="NBANDS">   120</i>
   <i name="NELECT">    159.00000000</i>
   <i type="int" name="TURBO">     0</i>
   <i type="int" name="IRESTART">     0</i>
   <i type="int" name="NREBOOT">     0</i>
   <i type="int" name="NMIN">     0</i>
   <i name="EREF">      0.00000000</i>
   <separator name="electronic smearing" >
    <i type="int" name="ISMEAR">     0</i>
    <i name="SIGMA">      0.20000000</i>
    <i name="KSPACING">      0.50000000</i>
    <i type="logical" name="KGAMMA"> T  </i>
   </separator>
   <separator name="electronic projectors" >
    <i type="logical" name="LREAL"> F  </i>
    <v name="ROPT">      0.00000000      0.00000000      0.00000000      0.00000000</v>
    <i type="int" name="LMAXPAW">  -100</i>
    <i type="int" name="LMAXMIX">     2</i>
    <i type="logical" name="NLSPLINE"> F  </i>
   </separator>
   <separator name="electronic startup" >
    <i type="int" name="ISTART">     0</i>
    <i type="int" name="ICHARG">     2</i>
    <i type="int" name="INIWAV">     1</i>
   </separator>
   <separator name="electronic spin" >
    <i type="int" name="ISPIN">     1</i>
    <i type="logical" name="LNONCOLLINEAR"> F  </i>
    <v name="MAGMOM">      1.00000000      1.00000000      1.00000000      1.00000000      1.00000000      1.00000000      1.00000000      1.00000000      1.00000000      1.00000000      1.00000000      1.00000000      1.00000000      1.00000000      1.00000000      1.00000000      1.00000000      1.00000000      1.00000000      1.00000000
      1.00000000      1.00000000      1.00000000      1.00000000      1.00000000      1.00000000      1.00000000</v>
    <i name="NUPDOWN">     -1.00000000</i>
    <i type="logical" name="LSORBIT"> F  </i>
    <v name="SAXIS">      0.00000000      0.00000000      1.00000000</v>
    <i type="logical" name="LSPIRAL"> F  </i>
    <v name="QSPIRAL">      0.00000000      0.00000000      0.00000000</v>
    <i type="logical" name="LZEROZ"> F  </i>
   </separator>
   <separator name="electronic exchange-correlation" >
    <i type="logical" name="LASPH"> F  </i>
    <i type="logical" name="LMETAGGA"> F  </i>
   </separator>
   <separator name="electronic convergence" >
    <i type="int" name="NELM">    60</i>
    <i type="int" name="NELMDL">    -5</i>
    <i type="int" name="NELMIN">     2</i>
    <i name="ENINI">    280.00000000</i>
    <separator name="electronic convergence detail" >
     <i type="logical" name="LDIAG"> T  </i>
     <i type="logical" name="LSUBROT"> F  </i>
     <i name="WEIMIN">      0.00100000</i>
     <i name="EBREAK">      0.00000021</i>
     <i name="DEPER">      0.30000000</i>
     <i type="int" name="NRMM">     4</i>
     <i name="TIME">      0.40000000</i>
    </separator>
   </separator>
   <separator name="electronic mixer" >
    <i name="AMIX">      0.40000000</i>
    <i name="BMIX">      1.00000000</i>
    <i name="AMIN">      0.10000000</i>
    <i name="AMIX_MAG">      1.60000000</i>
    <i name="BMIX_MAG">      1.00000000</i>
    <separator name="electronic mixer details" >
     <i type="int" name="IMIX">     4</i>
     <i type="logical" name="MIXFIRST"> F  </i>
     <i type="int" name="MAXMIX">   -45</i>
     <i name="WC">    100.00000000</i>
     <i type="int" name="INIMIX">     1</i>
     <i type="int" name="MIXPRE">     1</i>
     <i type="int" name="MREMOVE">     5</i>
    </separator>
   </separator>
   <separator name="electronic dipolcorrection" >
    <i type="logical" name="LDIPOL"> F  </i>
    <i type="logical" name="LMONO"> F  </i>
    <i type="int" name="IDIPOL">     0</i>
    <i name="EPSILON">      1.00000000</i>
    <v name="DIPOL">   -100.00000000   -100.00000000   -100.00000000</v>
    <i name="EFIELD">      0.00000000</i>
   </separator>
  </separator>
  <separator name="grids" >
   <i type="int" name="NGX">    42</i>
   <i type="int" name="NGY">    42</i>
   <i type="int" name="NGZ">   126</i>
   <i type="int" name="NGXF">    84</i>
   <i type="int" name="NGYF">    84</i>
   <i type="int" name="NGZF">   252</i>
   <i type="logical" name="ADDGRID"> F  </i>
  </separator>
  <separator name="ionic" >
   <i type="int" name="NSW">   100</i>
   <i type="int" name="IBRION">     1</i>
   <i type="int" name="ISIF">     3</i>
   <i name="PSTRESS">      0.00000000</i>
   <i name="EDIFFG">      0.00100000</i>
   <i type="int" name="NFREE">     0</i>
   <i name="POTIM">      0.50000000</i>
   <i name="SMASS">     -3.00000000</i>
   <i name="SCALEE">      1.00000000</i>
  </separator>
  <separator name="ionic md" >
   <i name="TEBEG">      0.00010000</i>
   <i name="TEEND">      0.00010000</i>
   <i type="int" name="NBLOCK">     1</i>
   <i type="int" name="KBLOCK">   100</i>
   <i type="int" name="NPACO">   256</i>
   <i name="APACO">     16.00000000</i>
  </separator>
  <separator name="symmetry" >
   <i type="int" name="ISYM">     0</i>
   <i name="SYMPREC">      0.00000001</i>
  </separator>
  <separator name="dos" >
   <i type="logical" name="LORBIT"> F  </i>
   <v name="RWIGS">     -1.00000000     -1.00000000     -1.00000000     -1.00000000</v>
   <i type="int" name="NEDOS">   301</i>
   <i name="EMIN">     10.00000000</i>
   <i name="EMAX">    -10.00000000</i>
   <i name="EFERMI">      0.00000000</i>
  </separator>
  <separator name="writing" >
   <i type="int" name="NWRITE">     2</i>
   <i type="logical" name="LWAVE"> F  </i>
   <i type="logical" name="LCHARG"> F  </i>
   <i type="logical" name="LPARD"> F  </i>
   <i type="logical" name="LVTOT"> F  </i>
   <i type="logical" name="LVHAR"> F  </i>
   <i type="logical" name="LELF"> F  </i>
   <i type="logical" name="LOPTICS"> F  </i>
   <v name="STM">      0.00000000      0.00000000      0.00000000      0.00000000      0.00000000      0.00000000      0.00000000</v>
  </separator>
  <separator name="performance" >
   <i type="int" name="NPAR">    40</i>
   <i type="int" name="NSIM">     4</i>
   <i type="int" name="NBLK">    -1</i>
   <i type="logical" name="LPLANE"> F  </i>
   <i type="logical" name="LSCALAPACK"> T  </i>
   <i type="logical" name="LSCAAWARE"> F  </i>
   <i type="logical" name="LSCALU"> F  </i>
   <i type="logical" name="LASYNC"> F  </i>
   <i type="logical" name="LORBITALREAL"> F  </i>
  </separator>
  <separator name="miscellaneous" >
   <i type="int" name="IDIOT">     3</i>
   <i type="logical" name="LMUSIC"> F  </i>
   <v name="POMASS">     50.94100000     95.94000000    183.85000000     32.06600000</v>
   <v name="DARWINR">      0.00000000      0.00000000      0.00000000      0.00000000</v>
   <v name="DARWINV">      1.00000000      1.00000000      1.00000000      1.00000000</v>
   <i type="logical" name="LCORR"> T  </i>
  </separator>
  <i type="logical" name="GGA_COMPAT"> T  </i>
  <i type="logical" name="LBERRY"> F  </i>
  <i type="int" name="ICORELEVEL">     0</i>
  <i type="logical" name="LDAU"> F  </i>
  <i type="int" name="I_CONSTRAINED_M">     0</i>
  <separator name="electronic exchange-correlation" >
   <i type="string" name="GGA">--</i>
   <i type="int" name="VOSKOWN">     0</i>
   <i type="logical" name="LHFCALC"> F  </i>
   <i type="string" name="PRECFOCK"></i>
   <i type="logical" name="LSYMGRAD"> F  </i>
   <i type="logical" name="LHFONE"> F  </i>
   <i type="logical" name="LRHFCALC"> F  </i>
   <i type="logical" name="LTHOMAS"> F  </i>
   <i type="logical" name="LMODELHF"> F  </i>
   <i name="ENCUT4O">     -1.00000000</i>
   <i type="int" name="EXXOEP">     0</i>
   <i type="int" name="FOURORBIT">     0</i>
   <i name="AEXX">      0.00000000</i>
   <i name="HFALPHA">      0.00000000</i>
   <i name="MCALPHA">      0.00000000</i>
   <i name="ALDAX">      1.00000000</i>
   <i name="AGGAX">      1.00000000</i>
   <i name="ALDAC">      1.00000000</i>
   <i name="AGGAC">      1.00000000</i>
   <i type="int" name="NKREDX">     1</i>
   <i type="int" name="NKREDY">     1</i>
   <i type="int" name="NKREDZ">     1</i>
   <i type="logical" name="SHIFTRED"> F  </i>
   <i type="logical" name="ODDONLY"> F  </i>
   <i type="logical" name="EVENONLY"> F  </i>
   <i type="int" name="LMAXFOCK">     0</i>
   <i type="int" name="NMAXFOCKAE">     0</i>
   <i type="logical" name="LFOCKAEDFT"> F  </i>
   <i name="HFSCREEN">      0.00000000</i>
   <i name="HFSCREENC">      0.00000000</i>
   <i type="int" name="NBANDSGWLOW">     0</i>
  </separator>
  <separator name="vdW DFT" >
   <i type="logical" name="LUSE_VDW"> F  </i>
   <i name="Zab_VDW">     -0.84910000</i>
   <i name="PARAM1">      0.12340000</i>
   <i name="PARAM2">      1.00000000</i>
   <i name="PARAM3">      0.00000000</i>
  </separator>
  <separator name="model GW" >
   <i type="int" name="MODEL_GW">     0</i>
   <i name="MODEL_EPS0">     58.26239943</i>
   <i name="MODEL_ALPHA">      1.00000000</i>
  </separator>
  <separator name="linear response parameters" >
   <i type="logical" name="LEPSILON"> F  </i>
   <i type="logical" name="LRPA"> F  </i>
   <i type="logical" name="LNABLA"> F  </i>
   <i type="logical" name="LVEL"> F  </i>
   <i type="int" name="KINTER">     0</i>
   <i name="CSHIFT">      0.10000000</i>
   <i name="OMEGAMAX">     -1.00000000</i>
   <i name="DEG_THRESHOLD">      0.00200000</i>
  </separator>
  <separator name="orbital magnetization" >
   <i type="logical" name="NUCIND"> F  </i>
   <v name="MAGPOS">      0.00000000      0.00000000      0.00000000</v>
   <i type="logical" name="LNICSALL"> T  </i>
   <i type="logical" name="ORBITALMAG"> F  </i>
   <i type="logical" name="LMAGBLOCH"> F  </i>
   <i type="logical" name="LCHIMAG"> F  </i>
   <i type="logical" name="LGAUGE"> T  </i>
   <i type="int" name="MAGATOM">     0</i>
   <v name="MAGDIPOL">      0.00000000      0.00000000      0.00000000</v>
   <v name="AVECCONST">      0.00000000      0.00000000      0.00000000</v>
  </separator>
  <separator name="response functions" >
   <i type="logical" name="LADDER"> F  </i>
   <i type="logical" name="LFXC"> F  </i>
   <i type="logical" name="LHARTREE"> T  </i>
   <i type="int" name="IBSE">     0</i>
   <v type="int" name="KPOINT">    -1     0     0     0</v>
   <i type="logical" name="LTCTE"> F  </i>
   <i type="logical" name="LTETE"> F  </i>
   <i type="logical" name="LTRIPLET"> F  </i>
   <i type="logical" name="LFXCEPS"> F  </i>
   <i type="logical" name="LFXHEG"> F  </i>
   <i type="int" name="NATURALO">     0</i>
   <i type="logical" name="L2ORDER"> F  </i>
   <i type="logical" name="LUSEW"> F  </i>
   <i name="ENCUTGW">     -2.00000000</i>
   <i name="ENCUTGWSOFT">     -2.00000000</i>
   <i name="ENCUTLF">     -1.00000000</i>
   <i type="int" name="LMAXMP2">    -1</i>
   <i name="SCISSOR">      0.00000000</i>
   <i type="int" name="NOMEGA">     0</i>
   <i type="int" name="NOMEGAR">     0</i>
   <i type="int" name="NBANDSGW">    -1</i>
   <i type="int" name="NBANDSO">    -1</i>
   <i type="int" name="NBANDSV">    -1</i>
   <i type="int" name="NELM">     1</i>
   <i type="int" name="NELMHF">     1</i>
   <i type="int" name="DIM">     3</i>
   <i type="int" name="ANTIRES">     0</i>
   <i name="OMEGAMAX">    -30.00000000</i>
   <i name="OMEGAMIN">    -30.00000000</i>
   <i name="OMEGATL">   -200.00000000</i>
   <i type="int" name="OMEGAGRID">     0</i>
   <i name="CSHIFT">     -0.10000000</i>
   <i type="logical" name="SELFENERGY"> F  </i>
   <i type="logical" name="LSPECTRAL"> F  </i>
   <i type="logical" name="LSPECTRALGW"> F  </i>
   <i type="logical" name="LSINGLES"> F  </i>
   <i type="logical" name="LFERMIGW"> F  </i>
   <i type="logical" name="ODDONLYGW"> F  </i>
   <i type="logical" name="EVENONLYGW"> F  </i>
   <i type="int" name="NKREDLFX">     1</i>
   <i type="int" name="NKREDLFY">     1</i>
   <i type="int" name="NKREDLFZ">     1</i>
   <i type="int" name="MAXMEM">  1800</i>
   <i type="int" name="TELESCOPE">     0</i>
   <i type="int" name="TAUPAR">     1</i>
   <i type="int" name="OMEGAPAR">    -1</i>
   <i name="LAMBDA">      1.00000000</i>
  </separator>
  <separator name="External order field" >
   <i name="OFIELD_KAPPA">      0.00000000</i>
   <v name="OFIELD_K">      0.00000000      0.00000000      0.00000000</v>
   <i name="OFIELD_Q6_NEAR">      0.00000000</i>
   <i name="OFIELD_Q6_FAR">      0.00000000</i>
   <i name="OFIELD_A">      0.00000000</i>
  </separator>
 </parameters>
 <atominfo>
  <atoms>      27 </atoms>
  <types>       4 </types>
  <array name="atoms" >
   <dimension dim="1">ion</dimension>
   <field type="string">element</field>
   <field type="int">atomtype</field>
   <set>
    <rc><c>V </c><c>   1</c></rc>
    <rc><c>V </c><c>   1</c></rc>
    <rc><c>V </c><c>   1</c></rc>
    <rc><c>Mo</c><c>   2</c></rc>
    <rc><c>Mo</c><c>   2</c></rc>
    <rc><c>Mo</c><c>   2</c></rc>
    <rc><c>W </c><c>   3</c></rc>
    <rc><c>W </c><c>   3</c></rc>
    <rc><c>W </c><c>   3</c></rc>
    <rc><c>S </c><c>   4</c></rc>
    <rc><c>S </c><c>   4</c></rc>
    <rc><c>S </c><c>   4</c></rc>
    <rc><c>S </c><c>   4</c></rc>
    <rc><c>S </c><c>   4</c></rc>
    <rc><c>S </c><c>   4</c></rc>
    <rc><c>S </c><c>   4</c></rc>
    <rc><c>S </c><c>   4</c></rc>
    <rc><c>S </c><c>   4</c></rc>
    <rc><c>S </c><c>   4</c></rc>
    <rc><c>S </c><c>   4</c></rc>
    <rc><c>S </c><c>   4</c></rc>
    <rc><c>S </c><c>   4</c></rc>
    <rc><c>S </c><c>   4</c></rc>
    <rc><c>S </c><c>   4</c></rc>
    <rc><c>S </c><c>   4</c></rc>
    <rc><c>S </c><c>   4</c></rc>
    <rc><c>S </c><c>   4</c></rc>
   </set>
  </array>
  <array name="atomtypes" >
   <dimension dim="1">type</dimension>
   <field type="int">atomspertype</field>
   <field type="string">element</field>
   <field>mass</field>
   <field>valence</field>
   <field type="string">pseudopotential</field>
   <set>
    <rc><c>   3</c><c>V </c><c>     50.94100000</c><c>      5.00000000</c><c> PAW_PBE V 08Apr2002                    </c></rc>
    <rc><c>   3</c><c>Mo</c><c>     95.94000000</c><c>      6.00000000</c><c> PAW_PBE Mo 08Apr2002                   </c></rc>
    <rc><c>   3</c><c>W </c><c>    183.85000000</c><c>      6.00000000</c><c> PAW_PBE W 08Apr2002                    </c></rc>
    <rc><c>  18</c><c>S </c><c>     32.06600000</c><c>      6.00000000</c><c>  PAW_PBE S 17Jan2003                   </c></rc>
   </set>
  </array>
 </atominfo>
 <structure name="initialpos" >
  <crystal>
   <varray name="basis" >
    <v>       8.66999996       5.03999989       0.00000000 </v>
    <v>      -8.66999982       5.04000013       0.00000000 </v>
    <v>       0.00000000       0.00000000      30.00000000 </v>
   </varray>
   <i name="volume">   2621.80797419 </i>
   <varray name="rec_basis" >
    <v>       0.05767013       0.09920635       0.00000000 </v>
    <v>      -0.05767013       0.09920635       0.00000000 </v>
    <v>       0.00000000       0.00000000       0.03333333 </v>
   </varray>
  </crystal>
  <varray name="positions" >
   <v>       0.33333334       0.66666669       0.00000000 </v>
   <v>       0.33333334       0.33333334       0.00000000 </v>
   <v>       0.00000000       0.66666669       0.00000000 </v>
   <v>       0.00000000       0.00000000       0.00000000 </v>
   <v>       0.66666669       0.33333334       0.00000000 </v>
   <v>       0.66666669       0.00000000       0.00000000 </v>
   <v>       1.00000000       0.33333334       0.00000000 </v>
   <v>       0.33333334       0.00000000       0.00000000 </v>
   <v>       0.66666669       0.66666669       0.00000000 </v>
   <v>       0.11068511       0.22244981       0.95539999 </v>
   <v>       0.22244981       0.11068511       0.04460000 </v>
   <v>       0.11068511       0.55578315       0.95539999 </v>
   <v>       0.22244981       0.44401845       0.04460000 </v>
   <v>       0.11068511       0.88911647       0.95539999 </v>
   <v>       0.22244981       0.77735180       0.04460000 </v>
   <v>       0.44401845       0.22244981       0.95539999 </v>
   <v>       0.55578315       0.11068511       0.04460000 </v>
   <v>       0.44401845       0.55578315       0.95539999 </v>
   <v>       0.55578315       0.44401845       0.04460000 </v>
   <v>       0.44401845       0.88911647       0.95539999 </v>
   <v>       0.55578315       0.77735180       0.04460000 </v>
   <v>       0.77735180       0.22244981       0.95539999 </v>
   <v>       0.88911647       0.11068511       0.04460000 </v>
   <v>       0.77735180       0.55578315       0.95539999 </v>
   <v>       0.88911647       0.44401845       0.04460000 </v>
   <v>       0.77735180       0.88911647       0.95539999 </v>
   <v>       0.88911647       0.77735180       0.04460000 </v>
  </varray>
 </structure>
 <calculation>
  <scstep>
   <time name="dav">   21.58   21.64</time>
   <time name="total">   21.63   21.69</time>
   <energy>
    <i name="alphaZ">     81.65567618 </i>
    <i name="ewald">  41890.25210943 </i>
    <i name="hartreedc"> -47722.87086840 </i>
    <i name="XCdc">   -242.93151225 </i>
    <i name="pawpsdc">   3467.42045192 </i>
    <i name="pawaedc">  -2871.19716117 </i>
    <i name="eentropy">     -0.51860721 </i>
    <i name="bandstr">   -239.51690248 </i>
    <i name="atom">   6761.44252427 </i>
    <i name="e_fr_energy">   1123.73571028 </i>
    <i name="e_wo_entrp">   1124.25431750 </i>
    <i name="e_0_energy">   1123.99501389 </i>
   </energy>
  </scstep>
  <scstep>
   <time name="dav">   27.82   27.88</time>
   <time name="total">   27.82   27.89</time>
   <energy>
    <i name="e_fr_energy">     -2.38587417 </i>
    <i name="e_wo_entrp">     -2.19734426 </i>
    <i name="e_0_energy">     -2.29160922 </i>
   </energy>
  </scstep>
  <scstep>
   <time name="dav">   27.35   27.42</time>
   <time name="total">   27.35   27.42</time>
   <energy>
    <i name="e_fr_energy">   -199.63695112 </i>
    <i name="e_wo_entrp">   -199.36842185 </i>
    <i name="e_0_energy">   -199.50268648 </i>
   </energy>
  </scstep>
  <scstep>
   <time name="dav">   29.46   29.53</time>
   <time name="total">   29.47   29.54</time>
   <energy>
    <i name="e_fr_energy">   -208.90009397 </i>
    <i name="e_wo_entrp">   -208.60006926 </i>
    <i name="e_0_energy">   -208.75008162 </i>
   </energy>
  </scstep>
  <scstep>
   <time name="dav">   29.31   29.38</time>
   <time name="total">   29.78   29.85</time>
   <energy>
    <i name="e_fr_energy">   -209.26913755 </i>
    <i name="e_wo_entrp">   -208.97312121 </i>
    <i name="e_0_energy">   -209.12112938 </i>
   </energy>
  </scstep>
  <scstep>
   <time name="dav">   30.87   30.94</time>
   <time name="total">   31.36   31.45</time>
   <energy>
    <i name="e_fr_energy">   -237.34782687 </i>
    <i name="e_wo_entrp">   -237.06264372 </i>
    <i name="e_0_energy">   -237.20523529 </i>
   </energy>
  </scstep>
  <scstep>
   <time name="dav">   32.44   32.52</time>
   <time name="total">   32.94   33.03</time>
   <energy>
    <i name="e_fr_energy">   -196.73327151 </i>
    <i name="e_wo_entrp">   -196.40374882 </i>
    <i name="e_0_energy">   -196.56851016 </i>
   </energy>
  </scstep>
  <scstep>
   <time name="dav">   28.16   28.23</time>
   <time name="total">   28.67   28.75</time>
   <energy>
    <i name="e_fr_energy">   -190.34482141 </i>
    <i name="e_wo_entrp">   -190.07927737 </i>
    <i name="e_0_energy">   -190.21204939 </i>
   </energy>
  </scstep>
  <scstep>
   <time name="dav">   29.31   29.38</time>
   <time name="total">   29.83   29.91</time>
   <energy>
    <i name="e_fr_energy">   -188.34839484 </i>
    <i name="e_wo_entrp">   -188.02444185 </i>
    <i name="e_0_energy">   -188.18641834 </i>
   </energy>
  </scstep>
  <scstep>
   <time name="dav">   31.81   31.89</time>
   <time name="total">   32.35   32.43</time>
   <energy>
    <i name="e_fr_energy">   -187.12504070 </i>
    <i name="e_wo_entrp">   -186.77745149 </i>
    <i name="e_0_energy">   -186.95124609 </i>
   </energy>
  </scstep>
  <scstep>
   <time name="dav">   30.12   30.20</time>
   <time name="total">   30.66   30.74</time>
   <energy>
    <i name="e_fr_energy">   -187.11550164 </i>
    <i name="e_wo_entrp">   -186.77506778 </i>
    <i name="e_0_energy">   -186.94528471 </i>
   </energy>
  </scstep>
  <scstep>
   <time name="dav">   29.27   29.34</time>
   <time name="total">   29.80   29.88</time>
   <energy>
    <i name="e_fr_energy">   -187.11291017 </i>
    <i name="e_wo_entrp">   -186.77966201 </i>
    <i name="e_0_energy">   -186.94628609 </i>
   </energy>
  </scstep>
  <scstep>
   <time name="dav">   31.88   31.95</time>
   <time name="total">   32.41   32.50</time>
   <energy>
    <i name="e_fr_energy">   -186.99399137 </i>
    <i name="e_wo_entrp">   -186.65881359 </i>
    <i name="e_0_energy">   -186.82640248 </i>
   </energy>
  </scstep>
  <scstep>
   <time name="dav">   31.10   31.17</time>
   <time name="total">   31.63   31.72</time>
   <energy>
    <i name="e_fr_energy">   -186.95950216 </i>
    <i name="e_wo_entrp">   -186.61649540 </i>
    <i name="e_0_energy">   -186.78799878 </i>
   </energy>
  </scstep>
  <scstep>
   <time name="dav">   28.91   28.98</time>
   <time name="total">   29.44   29.52</time>
   <energy>
    <i name="e_fr_energy">   -186.95545415 </i>
    <i name="e_wo_entrp">   -186.61237751 </i>
    <i name="e_0_energy">   -186.78391583 </i>
   </energy>
  </scstep>
  <scstep>
   <time name="dav">   31.27   31.35</time>
   <time name="total">   31.81   31.89</time>
   <energy>
    <i name="e_fr_energy">   -186.95326059 </i>
    <i name="e_wo_entrp">   -186.61217055 </i>
    <i name="e_0_energy">   -186.78271557 </i>
   </energy>
  </scstep>
  <scstep>
   <time name="dav">   29.47   29.54</time>
   <time name="total">   30.01   30.09</time>
   <energy>
    <i name="e_fr_energy">   -186.95307549 </i>
    <i name="e_wo_entrp">   -186.61143514 </i>
    <i name="e_0_energy">   -186.78225531 </i>
   </energy>
  </scstep>
  <scstep>
   <time name="dav">   26.74   26.80</time>
   <time name="total">   27.28   27.35</time>
   <energy>
    <i name="e_fr_energy">   -186.95290176 </i>
    <i name="e_wo_entrp">   -186.61124929 </i>
    <i name="e_0_energy">   -186.78207552 </i>
   </energy>
  </scstep>
  <scstep>
   <time name="dav">   23.98   24.04</time>
   <time name="total">   24.51   24.58</time>
   <energy>
    <i name="e_fr_energy">   -186.95362733 </i>
    <i name="e_wo_entrp">   -186.61238182 </i>
    <i name="e_0_energy">   -186.78300457 </i>
   </energy>
  </scstep>
  <scstep>
   <time name="dav">   21.81   21.86</time>
   <time name="total">   22.35   22.63</time>
   <energy>
    <i name="e_fr_energy">   -186.95459346 </i>
    <i name="e_wo_entrp">   -186.61313417 </i>
    <i name="e_0_energy">   -186.78386382 </i>
   </energy>
  </scstep>
  <scstep>
   <time name="dav">   18.97   19.02</time>
   <time name="total">   19.51   19.56</time>
   <energy>
    <i name="e_fr_energy">   -186.95505436 </i>
    <i name="e_wo_entrp">   -186.61356786 </i>
    <i name="e_0_energy">   -186.78431111 </i>
   </energy>
  </scstep>
  <scstep>
   <time name="dav">   20.24   20.28</time>
   <time name="total">   20.77   20.83</time>
   <energy>
    <i name="e_fr_energy">   -186.95645534 </i>
    <i name="e_wo_entrp">   -186.61519274 </i>
    <i name="e_0_energy">   -186.78582404 </i>
   </energy>
  </scstep>
  <scstep>
   <time name="dav">   19.10   19.14</time>
   <time name="total">   19.63   19.69</time>
   <energy>
    <i name="e_fr_energy">   -186.95699743 </i>
    <i name="e_wo_entrp">   -186.61565267 </i>
    <i name="e_0_energy">   -186.78632505 </i>
   </energy>
  </scstep>
  <scstep>
   <time name="dav">   16.13   16.17</time>
   <time name="total">   16.66   16.71</time>
   <energy>
    <i name="e_fr_energy">   -186.95744846 </i>
    <i name="e_wo_entrp">   -186.61605193 </i>
    <i name="e_0_energy">   -186.78675019 </i>
   </energy>
  </scstep>
  <scstep>
   <time name="dav">   18.91   18.96</time>
   <time name="total">   19.45   19.51</time>
   <energy>
    <i name="e_fr_energy">   -186.95774903 </i>
    <i name="e_wo_entrp">   -186.61637771 </i>
    <i name="e_0_energy">   -186.78706337 </i>
   </energy>
  </scstep>
  <scstep>
   <time name="dav">   19.93   19.98</time>
   <time name="total">   20.46   20.52</time>
   <energy>
    <i name="e_fr_energy">   -186.95785335 </i>
    <i name="e_wo_entrp">   -186.61648308 </i>
    <i name="e_0_energy">   -186.78716822 </i>
   </energy>
  </scstep>
  <scstep>
   <time name="dav">   20.17   20.22</time>
   <time name="total">   20.21   20.26</time>
   <energy>
    <i name="alphaZ">     81.65567618 </i>
    <i name="ewald">  41890.25210943 </i>
    <i name="hartreedc"> -47833.39776675 </i>
    <i name="XCdc">   -231.58389497 </i>
    <i name="pawpsdc">   4192.27131547 </i>
    <i name="pawaedc">  -3610.31819780 </i>
    <i name="eentropy">     -0.34136951 </i>
    <i name="bandstr">  -1436.93829212 </i>
    <i name="atom">   6761.44252427 </i>
    <i name="e_fr_energy">   -186.95789580 </i>
    <i name="e_wo_entrp">   -186.61652629 </i>
    <i name="e_0_energy">   -186.78721105 </i>
   </energy>
  </scstep>
  <structure>
   <crystal>
    <varray name="basis" >
     <v>       8.66999996       5.03999989       0.00000000 </v>
     <v>      -8.66999982       5.04000013       0.00000000 </v>
     <v>       0.00000000       0.00000000      30.00000000 </v>
    </varray>
    <i name="volume">   2621.80797419 </i>
    <varray name="rec_basis" >
     <v>       0.05767013       0.09920635       0.00000000 </v>
     <v>      -0.05767013       0.09920635       0.00000000 </v>
     <v>       0.00000000       0.00000000       0.03333333 </v>
    </varray>
   </crystal>
   <varray name="positions" >
    <v>       0.33333334       0.66666669       0.00000000 </v>
    <v>       0.33333334       0.33333334       0.00000000 </v>
    <v>       0.00000000       0.66666669       0.00000000 </v>
    <v>       0.00000000       0.00000000       0.00000000 </v>
    <v>       0.66666669       0.33333334       0.00000000 </v>
    <v>       0.66666669       0.00000000       0.00000000 </v>
    <v>       1.00000000       0.33333334       0.00000000 </v>
    <v>       0.33333334       0.00000000       0.00000000 </v>
    <v>       0.66666669       0.66666669       0.00000000 </v>
    <v>       0.11068511       0.22244981       0.95539999 </v>
    <v>       0.22244981       0.11068511       0.04460000 </v>
    <v>       0.11068511       0.55578315       0.95539999 </v>
    <v>       0.22244981       0.44401845       0.04460000 </v>
    <v>       0.11068511       0.88911647       0.95539999 </v>
    <v>       0.22244981       0.77735180       0.04460000 </v>
    <v>       0.44401845       0.22244981       0.95539999 </v>
    <v>       0.55578315       0.11068511       0.04460000 </v>
    <v>       0.44401845       0.55578315       0.95539999 </v>
    <v>       0.55578315       0.44401845       0.04460000 </v>
    <v>       0.44401845       0.88911647       0.95539999 </v>
    <v>       0.55578315       0.77735180       0.04460000 </v>
    <v>       0.77735180       0.22244981       0.95539999 </v>
    <v>       0.88911647       0.11068511       0.04460000 </v>
    <v>       0.77735180       0.55578315       0.95539999 </v>
    <v>       0.88911647       0.44401845       0.04460000 </v>
    <v>       0.77735180       0.88911647       0.95539999 </v>
    <v>       0.88911647       0.77735180       0.04460000 </v>
   </varray>
  </structure>
  <varray name="forces" >
   <v>       0.00006500       0.15589995      -0.00000504 </v>
   <v>       0.15078592      -0.07674267      -0.07217137 </v>
   <v>      -0.15086036      -0.07680383       0.07215783 </v>
   <v>      -0.26918266      -0.16183397       0.07145259 </v>
   <v>       0.26912330      -0.16172863      -0.07145780 </v>
   <v>       0.00006992       0.31895621      -0.00000242 </v>
   <v>       0.00000298      -0.46432441      -0.00000661 </v>
   <v>       0.00788156       0.23075605      -0.00133205 </v>
   <v>      -0.00787644       0.23079532       0.00133108 </v>
   <v>       0.37576293       0.73347780      -2.16222658 </v>
   <v>      -0.36781862       0.67763521       2.14921905 </v>
   <v>      -0.24154104       0.52878867      -1.38690759 </v>
   <v>       0.24153723       0.52876592       1.38692893 </v>
   <v>       0.61899521      -0.54565404      -2.09860329 </v>
   <v>       0.22944371      -0.54603146       1.42713337 </v>
   <v>      -0.68510908      -0.13836188      -2.16240255 </v>
   <v>      -0.18711959      -0.16504251       2.88572762 </v>
   <v>      -0.22945031      -0.54601293      -1.42715576 </v>
   <v>      -0.61903803      -0.54563922       2.09864789 </v>
   <v>       0.37071946      -0.68404081      -2.14120736 </v>
   <v>      -0.37070706      -0.68404131       2.14122586 </v>
   <v>       0.18615916       0.14165543      -2.94115396 </v>
   <v>      -0.18613366       0.14167088       2.94116642 </v>
   <v>       0.36777833       0.67770403      -2.14926104 </v>
   <v>      -0.37573211       0.73352746       2.16227214 </v>
   <v>       0.18714699      -0.16504248      -2.88575170 </v>
   <v>       0.68509727      -0.13833278       2.16238233 </v>
  </varray>
  <varray name="stress" >
   <v>       7.26660048       0.00019936      -1.55123341 </v>
   <v>       0.00019939       4.53211002      -0.00002914 </v>
   <v>      -1.55123356      -0.00002908      30.23680611 </v>
  </varray>
  <energy>
   <i name="e_fr_energy">   -186.95789580 </i>
   <i name="e_wo_entrp">   -186.78721105 </i>
   <i name="e_0_energy">     -0.34136951 </i>
  </energy>
  <time name="totalsc">  759.42  761.67</time>
 </calculation>
 <calculation>
  <scstep>
   <time name="dav">   21.63   21.68</time>
   <time name="total">   22.17   22.23</time>
   <energy>
    <i name="alphaZ">     78.91119120 </i>
    <i name="ewald">  39376.13052188 </i>
    <i name="hartreedc"> -45333.75502279 </i>
    <i name="XCdc">   -239.03926707 </i>
    <i name="pawpsdc">   4192.25639609 </i>
    <i name="pawaedc">  -3610.30330384 </i>
    <i name="eentropy">     -0.27794599 </i>
    <i name="bandstr">  -1412.95650454 </i>
    <i name="atom">   6761.44252427 </i>
    <i name="e_fr_energy">   -187.59141079 </i>
    <i name="e_wo_entrp">   -187.31346480 </i>
    <i name="e_0_energy">   -187.45243779 </i>
   </energy>
  </scstep>
  <scstep>
   <time name="dav">   30.29   30.37</time>
   <time name="total">   30.83   30.91</time>
   <energy>
    <i name="e_fr_energy">   -189.62062519 </i>
    <i name="e_wo_entrp">   -189.28142708 </i>
    <i name="e_0_energy">   -189.45102613 </i>
   </energy>
  </scstep>
  <scstep>
   <time name="dav">   29.93   30.00</time>
   <time name="total">   30.48   30.56</time>
   <energy>
    <i name="e_fr_energy">   -189.37708635 </i>
    <i name="e_wo_entrp">   -189.11312549 </i>
    <i name="e_0_energy">   -189.24510592 </i>
   </energy>
  </scstep>
  <scstep>
   <time name="dav">   30.63   30.71</time>
   <time name="total">   31.17   31.26</time>
   <energy>
    <i name="e_fr_energy">   -188.84432633 </i>
    <i name="e_wo_entrp">   -188.56502785 </i>
    <i name="e_0_energy">   -188.70467709 </i>
   </energy>
  </scstep>
  <scstep>
   <time name="dav">   28.04   28.11</time>
   <time name="total">   28.59   28.66</time>
   <energy>
    <i name="e_fr_energy">   -188.84753859 </i>
    <i name="e_wo_entrp">   -188.56899858 </i>
    <i name="e_0_energy">   -188.70826858 </i>
   </energy>
  </scstep>
  <scstep>
   <time name="dav">   30.41   30.48</time>
   <time name="total">   30.95   31.03</time>
   <energy>
    <i name="e_fr_energy">   -188.89989761 </i>
    <i name="e_wo_entrp">   -188.60976745 </i>
    <i name="e_0_energy">   -188.75483253 </i>
   </energy>
  </scstep>
  <scstep>
   <time name="dav">   30.44   30.52</time>
   <time name="total">   30.99   31.07</time>
   <energy>
    <i name="e_fr_energy">   -188.76433365 </i>
    <i name="e_wo_entrp">   -188.48863571 </i>
    <i name="e_0_energy">   -188.62648468 </i>
   </energy>
  </scstep>
  <scstep>
   <time name="dav">   25.89   25.95</time>
   <time name="total">   26.43   26.50</time>
   <energy>
    <i name="e_fr_energy">   -188.74893021 </i>
    <i name="e_wo_entrp">   -188.47138668 </i>
    <i name="e_0_energy">   -188.61015844 </i>
   </energy>
  </scstep>
  <scstep>
   <time name="dav">   30.12   30.19</time>
   <time name="total">   30.66   30.74</time>
   <energy>
    <i name="e_fr_energy">   -188.74417712 </i>
    <i name="e_wo_entrp">   -188.46734801 </i>
    <i name="e_0_energy">   -188.60576256 </i>
   </energy>
  </scstep>
  <scstep>
   <time name="dav">   31.29   31.36</time>
   <time name="total">   31.83   31.91</time>
   <energy>
    <i name="e_fr_energy">   -188.74427237 </i>
    <i name="e_wo_entrp">   -188.46820718 </i>
    <i name="e_0_energy">   -188.60623978 </i>
   </energy>
  </scstep>
  <scstep>
   <time name="dav">   32.47   32.55</time>
   <time name="total">   33.01   33.10</time>
   <energy>
    <i name="e_fr_energy">   -188.74433615 </i>
    <i name="e_wo_entrp">   -188.46843729 </i>
    <i name="e_0_energy">   -188.60638672 </i>
   </energy>
  </scstep>
  <scstep>
   <time name="dav">   28.34   28.40</time>
   <time name="total">   28.88   28.96</time>
   <energy>
    <i name="e_fr_energy">   -188.74375646 </i>
    <i name="e_wo_entrp">   -188.46790789 </i>
    <i name="e_0_energy">   -188.60583218 </i>
   </energy>
  </scstep>
  <scstep>
   <time name="dav">   20.33   20.38</time>
   <time name="total">   20.37   20.43</time>
   <energy>
    <i name="alphaZ">     78.91119120 </i>
    <i name="ewald">  39376.13052188 </i>
    <i name="hartreedc"> -45344.32452906 </i>
    <i name="XCdc">   -237.96101524 </i>
    <i name="pawpsdc">   3950.37669905 </i>
    <i name="pawaedc">  -3364.90425823 </i>
    <i name="eentropy">     -0.27596433 </i>
    <i name="bandstr">  -1408.13897766 </i>
    <i name="atom">   6761.44252427 </i>
    <i name="e_fr_energy">   -188.74380812 </i>
    <i name="e_wo_entrp">   -188.46784378 </i>
    <i name="e_0_energy">   -188.60582595 </i>
   </energy>
  </scstep>
  <structure>
   <crystal>
    <varray name="basis" >
     <v>       8.85421073       5.10679145       0.00000000 </v>
     <v>      -8.85420472       5.10678159       0.00000000 </v>
     <v>       0.00000000       0.00000000      30.00000000 </v>
    </varray>
    <i name="volume">   2712.99291859 </i>
    <varray name="rec_basis" >
     <v>       0.05647027       0.09790890       0.00000000 </v>
     <v>      -0.05647038       0.09790896       0.00000000 </v>
     <v>       0.00000000       0.00000000       0.03333333 </v>
    </varray>
   </crystal>
   <varray name="positions" >
    <v>       0.33407966       0.66741264      -0.00000001 </v>
    <v>       0.33338557       0.33254654      -0.00011606 </v>
    <v>      -0.00078730       0.66671882       0.00011604 </v>
    <v>      -0.00152344      -0.00002562       0.00011490 </v>
    <v>       0.66664140       0.33181057      -0.00011491 </v>
    <v>       0.66819340       0.00152632      -0.00000000 </v>
    <v>       0.99777776       0.33111109      -0.00000001 </v>
    <v>       0.33445966       0.00108247      -0.00000214 </v>
    <v>       0.66774935       0.66779318       0.00000214 </v>
    <v>       0.11524095       0.22491479       0.95192294 </v>
    <v>       0.22466963       0.11495159       0.04805613 </v>
    <v>       0.11254387       0.55898593       0.95316972 </v>
    <v>       0.22565247       0.44587712       0.04683030 </v>
    <v>       0.10979577       0.88478283       0.95202525 </v>
    <v>       0.22047486       0.77410015       0.04689496 </v>
    <v>       0.44145017       0.22369370       0.95192266 </v>
    <v>       0.55447267       0.11041582       0.04924050 </v>
    <v>       0.44076688       0.55380831       0.95310500 </v>
    <v>       0.55144947       0.44312930       0.04797481 </v>
    <v>       0.44177605       0.88481126       0.95195674 </v>
    <v>       0.55147798       0.77510936       0.04804328 </v>
    <v>       0.77854768       0.22260984       0.95067035 </v>
    <v>       0.88927665       0.11188100       0.04932965 </v>
    <v>       0.78161849       0.55800341       0.95194379 </v>
    <v>       0.89158177       0.44857445       0.04807712 </v>
    <v>       0.77708258       0.88780590       0.95075945 </v>
    <v>       0.89036046       0.77478369       0.04807730 </v>
   </varray>
  </structure>
  <varray name="forces" >
   <v>       0.00050018       0.15479417       0.00002818 </v>
   <v>       0.18122746      -0.07007889       0.05923247 </v>
   <v>      -0.18053881      -0.06995008      -0.05925418 </v>
   <v>      -0.37851204      -0.25974494      -0.04413096 </v>
   <v>       0.37750772      -0.26094303       0.04412088 </v>
   <v>       0.00007446       0.49573907      -0.00004677 </v>
   <v>       0.00051394      -0.66565412      -0.00000081 </v>
   <v>       0.01528081       0.34388471      -0.01464486 </v>
   <v>      -0.01642034       0.34228210       0.01473950 </v>
   <v>      -0.11892199       0.05774412       0.03700441 </v>
   <v>       0.10697721       0.04467348      -0.06453852 </v>
   <v>       0.06375866      -0.07827953       0.24074646 </v>
   <v>      -0.06275437      -0.07869137      -0.24169596 </v>
   <v>       0.08075897       0.05780131       0.16367410 </v>
   <v>      -0.06271318       0.07024145      -0.12259609 </v>
   <v>       0.01626512      -0.10493900      -0.10488684 </v>
   <v>      -0.04731575      -0.11695778       0.13420029 </v>
   <v>       0.06337524       0.06945819       0.12396291 </v>
   <v>      -0.08111644       0.05718522      -0.16546376 </v>
   <v>      -0.11291033      -0.04113175       0.05644441 </v>
   <v>       0.11306537      -0.04111277      -0.05635507 </v>
   <v>       0.05913433       0.10740798      -0.26662044 </v>
   <v>      -0.05917129       0.10739161       0.26686366 </v>
   <v>      -0.10721964       0.04388290       0.06306806 </v>
   <v>       0.11920395       0.05675563      -0.03597284 </v>
   <v>       0.04717937      -0.11687225      -0.13431055 </v>
   <v>      -0.01722859      -0.10488641       0.10643232 </v>
  </varray>
  <varray name="stress" >
   <v>     -19.91206374      -0.00065533       0.00683001 </v>
   <v>      -0.00065537     -19.50437177      -0.00030321 </v>
   <v>       0.00683004      -0.00030335      -1.73345457 </v>
  </varray>
  <energy>
   <i name="e_fr_energy">   -188.74380812 </i>
   <i name="e_wo_entrp">   -188.60582595 </i>
   <i name="e_0_energy">     -0.27596433 </i>
  </energy>
  <time name="totalsc">  417.87  418.97</time>
 </calculation>
 <calculation>
  <scstep>
   <time name="dav">   23.50   23.55</time>
   <time name="total">   24.03   24.09</time>
   <energy>
    <i name="alphaZ">     82.31887915 </i>
    <i name="ewald">  41290.11406121 </i>
    <i name="hartreedc"> -47288.53498666 </i>
    <i name="XCdc">   -233.85890731 </i>
    <i name="pawpsdc">   3949.31074143 </i>
    <i name="pawaedc">  -3363.82942816 </i>
    <i name="eentropy">     -0.23266638 </i>
    <i name="bandstr">  -1387.38899841 </i>
    <i name="atom">   6761.44252427 </i>
    <i name="e_fr_energy">   -190.65878085 </i>
    <i name="e_wo_entrp">   -190.42611447 </i>
    <i name="e_0_energy">   -190.54244766 </i>
   </energy>
  </scstep>
  <scstep>
   <time name="dav">   27.75   27.82</time>
   <time name="total">   28.27   28.35</time>
   <energy>
    <i name="e_fr_energy">   -190.58815891 </i>
    <i name="e_wo_entrp">   -190.36079566 </i>
    <i name="e_0_energy">   -190.47447728 </i>
   </energy>
  </scstep>
  <scstep>
   <time name="dav">   29.86   29.93</time>
   <time name="total">   30.38   30.47</time>
   <energy>
    <i name="e_fr_energy">   -190.15421612 </i>
    <i name="e_wo_entrp">   -189.90210299 </i>
    <i name="e_0_energy">   -190.02815955 </i>
   </energy>
  </scstep>
  <scstep>
   <time name="dav">   30.99   31.07</time>
   <time name="total">   31.52   31.61</time>
   <energy>
    <i name="e_fr_energy">   -189.93701527 </i>
    <i name="e_wo_entrp">   -189.70730982 </i>
    <i name="e_0_energy">   -189.82216255 </i>
   </energy>
  </scstep>
  <scstep>
   <time name="dav">   29.92   30.00</time>
   <time name="total">   30.45   30.53</time>
   <energy>
    <i name="e_fr_energy">   -189.89804408 </i>
    <i name="e_wo_entrp">   -189.66817557 </i>
    <i name="e_0_energy">   -189.78310982 </i>
   </energy>
  </scstep>
  <scstep>
   <time name="dav">   30.79   30.86</time>
   <time name="total">   31.32   31.40</time>
   <energy>
    <i name="e_fr_energy">   -189.84083222 </i>
    <i name="e_wo_entrp">   -189.60598561 </i>
    <i name="e_0_energy">   -189.72340891 </i>
   </energy>
  </scstep>
  <scstep>
   <time name="dav">   28.21   28.28</time>
   <time name="total">   28.74   28.81</time>
   <energy>
    <i name="e_fr_energy">   -189.83419050 </i>
    <i name="e_wo_entrp">   -189.60053997 </i>
    <i name="e_0_energy">   -189.71736523 </i>
   </energy>
  </scstep>
  <scstep>
   <time name="dav">   27.99   28.06</time>
   <time name="total">   28.52   28.59</time>
   <energy>
    <i name="e_fr_energy">   -189.83416091 </i>
    <i name="e_wo_entrp">   -189.60038015 </i>
    <i name="e_0_energy">   -189.71727053 </i>
   </energy>
  </scstep>
  <scstep>
   <time name="dav">   24.79   24.85</time>
   <time name="total">   25.32   25.38</time>
   <energy>
    <i name="e_fr_energy">   -189.83437801 </i>
    <i name="e_wo_entrp">   -189.60060955 </i>
    <i name="e_0_energy">   -189.71749378 </i>
   </energy>
  </scstep>
  <scstep>
   <time name="dav">   26.81   26.87</time>
   <time name="total">   27.34   27.41</time>
   <energy>
    <i name="e_fr_energy">   -189.83472001 </i>
    <i name="e_wo_entrp">   -189.60086108 </i>
    <i name="e_0_energy">   -189.71779055 </i>
   </energy>
  </scstep>
  <scstep>
   <time name="dav">   23.01   23.06</time>
   <time name="total">   23.53   23.60</time>
   <energy>
    <i name="e_fr_energy">   -189.83422523 </i>
    <i name="e_wo_entrp">   -189.60032215 </i>
    <i name="e_0_energy">   -189.71727369 </i>
   </energy>
  </scstep>
  <scstep>
   <time name="dav">   16.24   16.27</time>
   <time name="total">   16.27   16.32</time>
   <energy>
    <i name="alphaZ">     82.31887915 </i>
    <i name="ewald">  41290.11406121 </i>
    <i name="hartreedc"> -47262.24420529 </i>
    <i name="XCdc">   -235.24585107 </i>
    <i name="pawpsdc">   4038.38545975 </i>
    <i name="pawaedc">  -3454.10014325 </i>
    <i name="eentropy">     -0.23393311 </i>
    <i name="bandstr">  -1410.27103601 </i>
    <i name="atom">   6761.44252427 </i>
    <i name="e_fr_energy">   -189.83424433 </i>
    <i name="e_wo_entrp">   -189.60031123 </i>
    <i name="e_0_energy">   -189.71727778 </i>
   </energy>
  </scstep>
  <structure>
   <crystal>
    <varray name="basis" >
     <v>       8.66708959       5.00107225       0.00000000 </v>
     <v>      -8.66709081       5.00107491       0.00000000 </v>
     <v>       0.00000000       0.00000000      30.00000000 </v>
    </varray>
    <i name="volume">   2600.68534868 </i>
    <varray name="rec_basis" >
     <v>       0.05768950       0.09997854       0.00000000 </v>
     <v>      -0.05768947       0.09997853       0.00000000 </v>
     <v>       0.00000000       0.00000000       0.03333333 </v>
    </varray>
   </crystal>
   <varray name="positions" >
    <v>       0.33433661       0.66766864       0.00000001 </v>
    <v>       0.33344264       0.33225724      -0.00008265 </v>
    <v>      -0.00107573       0.66677545       0.00008261 </v>
    <v>      -0.00231554      -0.00009427       0.00009001 </v>
    <v>       0.66656981       0.33101745      -0.00009002 </v>
    <v>       0.66901486       0.00234764      -0.00000003 </v>
    <v>       0.99667533       0.33000767      -0.00000001 </v>
    <v>       0.33504405       0.00163765      -0.00001040 </v>
    <v>       0.66830079       0.66837600       0.00001045 </v>
    <v>       0.11522298       0.22512411       0.95194381 </v>
    <v>       0.22484588       0.11492337       0.04801973 </v>
    <v>       0.11247510       0.55879530       0.95330552 </v>
    <v>       0.22546211       0.44580671       0.04669396 </v>
    <v>       0.10996871       0.88480143       0.95211758 </v>
    <v>       0.22053132       0.77427647       0.04682580 </v>
    <v>       0.44129184       0.22350428       0.95186349 </v>
    <v>       0.55423366       0.11026725       0.04931621 </v>
    <v>       0.44094253       0.55386284       0.95317492 </v>
    <v>       0.55146670       0.44330157       0.04788147 </v>
    <v>       0.44160000       0.88485101       0.95198858 </v>
    <v>       0.55151791       0.77493319       0.04801149 </v>
    <v>       0.77878216       0.22273130       0.95051995 </v>
    <v>       0.88939804       0.11211548       0.04948019 </v>
    <v>       0.78158874       0.55817858       0.95197936 </v>
    <v>       0.89178972       0.44855457       0.04805683 </v>
    <v>       0.77693402       0.88756717       0.95068368 </v>
    <v>       0.89017021       0.77462637       0.04813734 </v>
   </varray>
  </structure>
  <varray name="forces" >
   <v>       0.00023858       0.15914538       0.00003500 </v>
   <v>       0.21153648      -0.07080940       0.07696366 </v>
   <v>      -0.21128457      -0.07059794      -0.07684031 </v>
   <v>      -0.40941570      -0.29841474      -0.05430460 </v>
   <v>       0.40891412      -0.29925839       0.05427529 </v>
   <v>       0.00001999       0.55021204      -0.00011501 </v>
   <v>       0.00040305      -0.71935186       0.00002861 </v>
   <v>       0.01761562       0.37484056      -0.01858658 </v>
   <v>      -0.01803193       0.37418707       0.01850615 </v>
   <v>      -0.00972750       0.11563403      -0.45830500 </v>
   <v>      -0.01101198       0.09093419       0.41862591 </v>
   <v>      -0.00078881       0.03494626      -0.19455922 </v>
   <v>       0.00158781       0.03504709       0.19430032 </v>
   <v>       0.07253941      -0.05672968      -0.30645257 </v>
   <v>       0.00527883      -0.05225891       0.32890557 </v>
   <v>      -0.09261379      -0.02802175      -0.62120337 </v>
   <v>       0.00147282      -0.05588503       0.69102846 </v>
   <v>      -0.00505712      -0.05277210      -0.32893878 </v>
   <v>      -0.07279168      -0.05723902       0.30668145 </v>
   <v>       0.00747782      -0.08573619      -0.43086912 </v>
   <v>      -0.00756515      -0.08585172       0.43102441 </v>
   <v>       0.02154661       0.03818475      -0.84746814 </v>
   <v>      -0.02157062       0.03817309       0.84755522 </v>
   <v>       0.01073785       0.09048814      -0.41839843 </v>
   <v>       0.01000093       0.11509952       0.45821570 </v>
   <v>      -0.00156065      -0.05589578      -0.69091352 </v>
   <v>       0.09204959      -0.02806960       0.62080888 </v>
  </varray>
  <varray name="stress" >
   <v>     -10.21139231      -0.00025678      -0.01013618 </v>
   <v>      -0.00025673      -9.88855045      -0.00013784 </v>
   <v>      -0.01013609      -0.00013767       6.46770015 </v>
  </varray>
  <energy>
   <i name="e_fr_energy">   -189.83424433 </i>
   <i name="e_wo_entrp">   -189.71727778 </i>
   <i name="e_0_energy">     -0.23393311 </i>
  </energy>
  <time name="totalsc">  367.49  368.47</time>
 </calculation>
 <calculation>
  <scstep>
   <time name="dav">   21.62   21.67</time>
   <time name="total">   22.14   22.19</time>
   <energy>
    <i name="alphaZ">     85.81562747 </i>
    <i name="ewald">  42832.24595390 </i>
    <i name="hartreedc"> -48849.00435116 </i>
    <i name="XCdc">   -232.93672040 </i>
    <i name="pawpsdc">   4038.44558787 </i>
    <i name="pawaedc">  -3454.15779531 </i>
    <i name="eentropy">     -0.19818750 </i>
    <i name="bandstr">  -1373.07776172 </i>
    <i name="atom">   6761.44252427 </i>
    <i name="e_fr_energy">   -191.42512259 </i>
    <i name="e_wo_entrp">   -191.22693508 </i>
    <i name="e_0_energy">   -191.32602884 </i>
   </energy>
  </scstep>
  <scstep>
   <time name="dav">   32.06   32.14</time>
   <time name="total">   32.57   32.66</time>
   <energy>
    <i name="e_fr_energy">   -191.21336595 </i>
    <i name="e_wo_entrp">   -191.01233274 </i>
    <i name="e_0_energy">   -191.11284935 </i>
   </energy>
  </scstep>
  <scstep>
   <time name="dav">   29.38   29.45</time>
   <time name="total">   29.88   29.96</time>
   <energy>
    <i name="e_fr_energy">   -191.43616774 </i>
    <i name="e_wo_entrp">   -191.20809657 </i>
    <i name="e_0_energy">   -191.32213216 </i>
   </energy>
  </scstep>
  <scstep>
   <time name="dav">   28.77   28.84</time>
   <time name="total">   29.29   29.37</time>
   <energy>
    <i name="e_fr_energy">   -191.04158496 </i>
    <i name="e_wo_entrp">   -190.82532845 </i>
    <i name="e_0_energy">   -190.93345671 </i>
   </energy>
  </scstep>
  <scstep>
   <time name="dav">   28.73   28.80</time>
   <time name="total">   29.24   29.32</time>
   <energy>
    <i name="e_fr_energy">   -191.02861562 </i>
    <i name="e_wo_entrp">   -190.83761102 </i>
    <i name="e_0_energy">   -190.93311332 </i>
   </energy>
  </scstep>
  <scstep>
   <time name="dav">   27.83   27.89</time>
   <time name="total">   28.34   28.42</time>
   <energy>
    <i name="e_fr_energy">   -190.84144379 </i>
    <i name="e_wo_entrp">   -190.63773429 </i>
    <i name="e_0_energy">   -190.73958904 </i>
   </energy>
  </scstep>
  <scstep>
   <time name="dav">   28.23   28.30</time>
   <time name="total">   28.74   28.82</time>
   <energy>
    <i name="e_fr_energy">   -190.83806106 </i>
    <i name="e_wo_entrp">   -190.63447573 </i>
    <i name="e_0_energy">   -190.73626840 </i>
   </energy>
  </scstep>
  <scstep>
   <time name="dav">   26.73   26.79</time>
   <time name="total">   27.24   27.32</time>
   <energy>
    <i name="e_fr_energy">   -190.83486328 </i>
    <i name="e_wo_entrp">   -190.63098370 </i>
    <i name="e_0_energy">   -190.73292349 </i>
   </energy>
  </scstep>
  <scstep>
   <time name="dav">   29.58   29.65</time>
   <time name="total">   30.09   30.17</time>
   <energy>
    <i name="e_fr_energy">   -190.83575496 </i>
    <i name="e_wo_entrp">   -190.63201064 </i>
    <i name="e_0_energy">   -190.73388280 </i>
   </energy>
  </scstep>
  <scstep>
   <time name="dav">   26.32   26.39</time>
   <time name="total">   26.84   26.91</time>
   <energy>
    <i name="e_fr_energy">   -190.83532490 </i>
    <i name="e_wo_entrp">   -190.63160785 </i>
    <i name="e_0_energy">   -190.73346638 </i>
   </energy>
  </scstep>
  <scstep>
   <time name="dav">   24.63   24.69</time>
   <time name="total">   25.15   25.22</time>
   <energy>
    <i name="e_fr_energy">   -190.83510234 </i>
    <i name="e_wo_entrp">   -190.63129232 </i>
    <i name="e_0_energy">   -190.73319733 </i>
   </energy>
  </scstep>
  <scstep>
   <time name="dav">   18.90   18.94</time>
   <time name="total">   18.93   18.99</time>
   <energy>
    <i name="alphaZ">     85.81562747 </i>
    <i name="ewald">  42832.24595390 </i>
    <i name="hartreedc"> -48820.25684188 </i>
    <i name="XCdc">   -234.27888099 </i>
    <i name="pawpsdc">   4064.10415945 </i>
    <i name="pawaedc">  -3480.00354783 </i>
    <i name="eentropy">     -0.20393869 </i>
    <i name="bandstr">  -1399.70016254 </i>
    <i name="atom">   6761.44252427 </i>
    <i name="e_fr_energy">   -190.83510683 </i>
    <i name="e_wo_entrp">   -190.63116814 </i>
    <i name="e_0_energy">   -190.73313749 </i>
   </energy>
  </scstep>
  <structure>
   <crystal>
    <varray name="basis" >
     <v>       8.48425496       4.90067060       0.00000000 </v>
     <v>      -8.48425867       4.90067757       0.00000000 </v>
     <v>       0.00000000       0.00000000      30.00000000 </v>
    </varray>
    <i name="volume">   2494.71464871 </i>
    <varray name="rec_basis" >
     <v>       0.05893272       0.10202680       0.00000000 </v>
     <v>      -0.05893264       0.10202676       0.00000000 </v>
     <v>       0.00000000       0.00000000       0.03333333 </v>
    </varray>
   </crystal>
   <varray name="positions" >
    <v>       0.33534608       0.66867714       0.00000009 </v>
    <v>       0.33380650       0.33100161       0.00009215 </v>
    <v>      -0.00232955       0.66714057      -0.00009180 </v>
    <v>      -0.00581135      -0.00053658      -0.00003132 </v>
    <v>       0.66612203       0.32751833       0.00003122 </v>
    <v>       0.67260285       0.00593564      -0.00000033 </v>
    <v>       0.99202993       0.32535968       0.00000007 </v>
    <v>       0.33754003       0.00399931      -0.00005232 </v>
    <v>       0.67066031       0.67087073       0.00005206 </v>
    <v>       0.11621835       0.22587158       0.95056764 </v>
    <v>       0.22532120       0.11582234       0.04930320 </v>
    <v>       0.11288344       0.55939750       0.95252770 </v>
    <v>       0.22606884       0.44621438       0.04747184 </v>
    <v>       0.10957409       0.88390571       0.95107785 </v>
    <v>       0.22001224       0.77352099       0.04789605 </v>
    <v>       0.44081662       0.22401680       0.95013156 </v>
    <v>       0.55411398       0.10999469       0.05122773 </v>
    <v>       0.44018468       0.55334107       0.95210340 </v>
    <v>       0.55056730       0.44290478       0.04892341 </v>
    <v>       0.44115216       0.88399812       0.95067616 </v>
    <v>       0.55066329       0.77448496       0.04932429 </v>
    <v>       0.77886988       0.22277263       0.94826347 </v>
    <v>       0.88943924       0.11220321       0.05173672 </v>
    <v>       0.78248474       0.55865302       0.95069782 </v>
    <v>       0.89253597       0.44954676       0.04943186 </v>
    <v>       0.77666090       0.88744743       0.94877259 </v>
    <v>       0.89068071       0.77415205       0.04986678 </v>
   </varray>
  </structure>
  <varray name="forces" >
   <v>       0.00015695       0.11038884      -0.00010038 </v>
   <v>       0.22555423      -0.02583571       0.07716565 </v>
   <v>      -0.22542278      -0.02590028      -0.07735001 </v>
   <v>      -0.43024446      -0.36039411      -0.02806358 </v>
   <v>       0.42955101      -0.36121739       0.02818641 </v>
   <v>       0.00008664       0.55328220       0.00019357 </v>
   <v>       0.00041354      -0.66148105      -0.00007400 </v>
   <v>       0.06078096       0.39698247      -0.02538555 </v>
   <v>      -0.06135490       0.39601335       0.02554705 </v>
   <v>      -0.02838780      -0.00720165      -0.29975108 </v>
   <v>      -0.02187084      -0.02851966       0.23708925 </v>
   <v>       0.03046682      -0.06250368      -0.09662913 </v>
   <v>      -0.03022781      -0.06259338       0.09644289 </v>
   <v>      -0.02729068       0.02570369      -0.15073693 </v>
   <v>      -0.02770081       0.00857883       0.23403954 </v>
   <v>      -0.01350271       0.03321437      -0.46976537 </v>
   <v>       0.06312691      -0.01647706       0.52526106 </v>
   <v>       0.02771016       0.00856525      -0.23363173 </v>
   <v>       0.02729843       0.02560170       0.15028095 </v>
   <v>       0.02154545       0.05272650      -0.28496041 </v>
   <v>      -0.02154006       0.05293582       0.28481001 </v>
   <v>      -0.00192668      -0.01627638      -0.67811073 </v>
   <v>       0.00192940      -0.01646574       0.67826197 </v>
   <v>       0.02181059      -0.02860737      -0.23738069 </v>
   <v>       0.02847141      -0.00728234       0.29989545 </v>
   <v>      -0.06292949      -0.01647243      -0.52543166 </v>
   <v>       0.01349652       0.03323519       0.47019745 </v>
  </varray>
  <varray name="stress" >
   <v>      -5.83641356      -0.00012432       0.07556272 </v>
   <v>      -0.00012435      -5.64803865      -0.00006768 </v>
   <v>       0.07556248      -0.00006782       4.54114614 </v>
  </varray>
  <energy>
   <i name="e_fr_energy">   -190.83510683 </i>
   <i name="e_wo_entrp">   -190.73313749 </i>
   <i name="e_0_energy">     -0.20393869 </i>
  </energy>
  <time name="totalsc">  369.80  370.78</time>
 </calculation>
 <calculation>
  <scstep>
   <time name="dav">   21.58   21.64</time>
   <time name="total">   22.09   22.15</time>
   <energy>
    <i name="alphaZ">     90.15638426 </i>
    <i name="ewald">  44653.41465045 </i>
    <i name="hartreedc"> -50696.64370548 </i>
    <i name="XCdc">   -231.85397387 </i>
    <i name="pawpsdc">   4064.02537295 </i>
    <i name="pawaedc">  -3479.92016188 </i>
    <i name="eentropy">     -0.19271127 </i>
    <i name="bandstr">  -1352.62665711 </i>
    <i name="atom">   6761.44252427 </i>
    <i name="e_fr_energy">   -192.19827768 </i>
    <i name="e_wo_entrp">   -192.00556641 </i>
    <i name="e_0_energy">   -192.10192204 </i>
   </energy>
  </scstep>
  <scstep>
   <time name="dav">   27.00   27.07</time>
   <time name="total">   27.51   27.58</time>
   <energy>
    <i name="e_fr_energy">   -191.93100770 </i>
    <i name="e_wo_entrp">   -191.71850093 </i>
    <i name="e_0_energy">   -191.82475431 </i>
   </energy>
  </scstep>
  <scstep>
   <time name="dav">   29.94   30.01</time>
   <time name="total">   30.44   30.52</time>
   <energy>
    <i name="e_fr_energy">   -192.22736133 </i>
    <i name="e_wo_entrp">   -192.02441289 </i>
    <i name="e_0_energy">   -192.12588711 </i>
   </energy>
  </scstep>
  <scstep>
   <time name="dav">   29.87   29.94</time>
   <time name="total">   30.37   30.45</time>
   <energy>
    <i name="e_fr_energy">   -191.74022856 </i>
    <i name="e_wo_entrp">   -191.53077475 </i>
    <i name="e_0_energy">   -191.63550166 </i>
   </energy>
  </scstep>
  <scstep>
   <time name="dav">   27.91   27.98</time>
   <time name="total">   28.42   28.49</time>
   <energy>
    <i name="e_fr_energy">   -191.54750144 </i>
    <i name="e_wo_entrp">   -191.34078874 </i>
    <i name="e_0_energy">   -191.44414509 </i>
   </energy>
  </scstep>
  <scstep>
   <time name="dav">   30.57   30.65</time>
   <time name="total">   31.07   31.16</time>
   <energy>
    <i name="e_fr_energy">   -191.54170751 </i>
    <i name="e_wo_entrp">   -191.34605321 </i>
    <i name="e_0_energy">   -191.44388036 </i>
   </energy>
  </scstep>
  <scstep>
   <time name="dav">   30.05   30.13</time>
   <time name="total">   30.56   30.64</time>
   <energy>
    <i name="e_fr_energy">   -191.51120762 </i>
    <i name="e_wo_entrp">   -191.30616575 </i>
    <i name="e_0_energy">   -191.40868668 </i>
   </energy>
  </scstep>
  <scstep>
   <time name="dav">   27.48   27.55</time>
   <time name="total">   27.99   28.06</time>
   <energy>
    <i name="e_fr_energy">   -191.50760251 </i>
    <i name="e_wo_entrp">   -191.30397712 </i>
    <i name="e_0_energy">   -191.40578981 </i>
   </energy>
  </scstep>
  <scstep>
   <time name="dav">   28.79   28.86</time>
   <time name="total">   29.29   29.37</time>
   <energy>
    <i name="e_fr_energy">   -191.50937174 </i>
    <i name="e_wo_entrp">   -191.30575499 </i>
    <i name="e_0_energy">   -191.40756337 </i>
   </energy>
  </scstep>
  <scstep>
   <time name="dav">   28.46   28.53</time>
   <time name="total">   28.96   29.04</time>
   <energy>
    <i name="e_fr_energy">   -191.50785680 </i>
    <i name="e_wo_entrp">   -191.30417291 </i>
    <i name="e_0_energy">   -191.40601486 </i>
   </energy>
  </scstep>
  <scstep>
   <time name="dav">   24.51   24.57</time>
   <time name="total">   24.55   24.62</time>
   <energy>
    <i name="alphaZ">     90.15638426 </i>
    <i name="ewald">  44653.41465045 </i>
    <i name="hartreedc"> -50662.71117048 </i>
    <i name="XCdc">   -233.36636439 </i>
    <i name="pawpsdc">   4085.89859836 </i>
    <i name="pawaedc">  -3501.89323086 </i>
    <i name="eentropy">     -0.20383914 </i>
    <i name="bandstr">  -1384.24532966 </i>
    <i name="atom">   6761.44252427 </i>
    <i name="e_fr_energy">   -191.50777718 </i>
    <i name="e_wo_entrp">   -191.30393803 </i>
    <i name="e_0_energy">   -191.40585761 </i>
   </energy>
  </scstep>
  <structure>
   <crystal>
    <varray name="basis" >
     <v>       8.27231379       4.78422895       0.00000000 </v>
     <v>      -8.27231898       4.78423847       0.00000000 </v>
     <v>       0.00000000       0.00000000      30.00000000 </v>
    </varray>
    <i name="volume">   2374.60169557 </i>
    <varray name="rec_basis" >
     <v>       0.06044262       0.10450998       0.00000000 </v>
     <v>      -0.06044250       0.10450991       0.00000000 </v>
     <v>       0.00000000       0.00000000       0.03333333 </v>
    </varray>
   </crystal>
   <varray name="positions" >
    <v>       0.33680093       0.67013049      -0.00000024 </v>
    <v>       0.33505267       0.32896371       0.00041949 </v>
    <v>      -0.00436723       0.66838633      -0.00041957 </v>
    <v>      -0.01335119      -0.00189164      -0.00016828 </v>
    <v>       0.66475394       0.31997325       0.00016858 </v>
    <v>       0.67957146       0.01290333       0.00000021 </v>
    <v>       0.98363195       0.31695622      -0.00000014 </v>
    <v>       0.34287677       0.00854725      -0.00015449 </v>
    <v>       0.67519692       0.67620156       0.00015456 </v>
    <v>       0.11650673       0.22615818       0.94878434 </v>
    <v>       0.22496175       0.11615213       0.05083525 </v>
    <v>       0.11268673       0.55904640       0.95165235 </v>
    <v>       0.22572035       0.44601649       0.04834710 </v>
    <v>       0.10930505       0.88385900       0.94991936 </v>
    <v>       0.21960637       0.77321516       0.04933748 </v>
    <v>       0.44099137       0.22490550       0.94764869 </v>
    <v>       0.55449571       0.10943295       0.05398154 </v>
    <v>       0.43987816       0.55293545       0.95066197 </v>
    <v>       0.55051894       0.44263413       0.05008245 </v>
    <v>       0.44178126       0.88394072       0.94896703 </v>
    <v>       0.55060706       0.77511616       0.05103304 </v>
    <v>       0.77850341       0.22251518       0.94487021 </v>
    <v>       0.88917979       0.11183470       0.05513039 </v>
    <v>       0.78281317       0.55829359       0.94916658 </v>
    <v>       0.89282290       0.44983395       0.05121449 </v>
    <v>       0.77610013       0.88782769       0.94601848 </v>
    <v>       0.89156936       0.77432656       0.05234900 </v>
   </varray>
  </structure>
  <varray name="forces" >
   <v>       0.00072255       0.02074608       0.00002504 </v>
   <v>       0.21782712       0.06392206      -0.00640995 </v>
   <v>      -0.21572726       0.06427474       0.00671225 </v>
   <v>      -0.17971413      -0.30146601       0.08484504 </v>
   <v>       0.17838821      -0.30228845      -0.08526136 </v>
   <v>       0.00028778       0.05543502      -0.00073215 </v>
   <v>       0.00048680      -0.22374962      -0.00010646 </v>
   <v>       0.18804468       0.33975563       0.01900349 </v>
   <v>      -0.18962985       0.33851544      -0.01895566 </v>
   <v>      -0.07192564      -0.14638297       0.03133658 </v>
   <v>       0.01289424      -0.16169694      -0.11705859 </v>
   <v>       0.05315433      -0.18240516       0.13106907 </v>
   <v>      -0.05285689      -0.18256857      -0.13137518 </v>
   <v>      -0.16277857       0.17052500       0.12665313 </v>
   <v>      -0.07165699       0.07659286      -0.04297074 </v>
   <v>       0.06149248       0.06953414      -0.15060201 </v>
   <v>       0.17247935      -0.01065077       0.20687632 </v>
   <v>       0.07199287       0.07602545       0.04315084 </v>
   <v>       0.16219589       0.17019236      -0.12734535 </v>
   <v>       0.00604971       0.19582228      -0.01419946 </v>
   <v>      -0.00608664       0.19567169       0.01487565 </v>
   <v>      -0.03754612      -0.03798246      -0.26407897 </v>
   <v>       0.03762494      -0.03799440       0.26461135 </v>
   <v>      -0.01296976      -0.16232437       0.11635859 </v>
   <v>       0.07199472      -0.14673059      -0.03120330 </v>
   <v>      -0.17264127      -0.01036416      -0.20614230 </v>
   <v>      -0.06210257       0.06959172       0.15092413 </v>
  </varray>
  <varray name="stress" >
   <v>      -0.28919734      -0.00031612       0.58593038 </v>
   <v>      -0.00031591       0.39687436      -0.00054314 </v>
   <v>       0.58593054      -0.00054318      -0.70604065 </v>
  </varray>
  <energy>
   <i name="e_fr_energy">   -191.50777718 </i>
   <i name="e_wo_entrp">   -191.40585761 </i>
   <i name="e_0_energy">     -0.20383914 </i>
  </energy>
  <time name="totalsc">  353.13  354.07</time>
 </calculation>
 <calculation>
  <scstep>
   <time name="dav">   21.61   21.66</time>
   <time name="total">   22.12   22.17</time>
   <energy>
    <i name="alphaZ">     90.15495350 </i>
    <i name="ewald">  44634.38201254 </i>
    <i name="hartreedc"> -50644.34859623 </i>
    <i name="XCdc">   -233.44582786 </i>
    <i name="pawpsdc">   4086.01925493 </i>
    <i name="pawaedc">  -3502.00712395 </i>
    <i name="eentropy">     -0.20664980 </i>
    <i name="bandstr">  -1383.56249148 </i>
    <i name="atom">   6761.44252427 </i>
    <i name="e_fr_energy">   -191.57194408 </i>
    <i name="e_wo_entrp">   -191.36529428 </i>
    <i name="e_0_energy">   -191.46861918 </i>
   </energy>
  </scstep>
  <scstep>
   <time name="dav">   30.96   31.03</time>
   <time name="total">   31.46   31.55</time>
   <energy>
    <i name="e_fr_energy">   -191.64164195 </i>
    <i name="e_wo_entrp">   -191.42182200 </i>
    <i name="e_0_energy">   -191.53173198 </i>
   </energy>
  </scstep>
  <scstep>
   <time name="dav">   30.28   30.35</time>
   <time name="total">   30.78   30.87</time>
   <energy>
    <i name="e_fr_energy">   -191.58498894 </i>
    <i name="e_wo_entrp">   -191.37742292 </i>
    <i name="e_0_energy">   -191.48120593 </i>
   </energy>
  </scstep>
  <scstep>
   <time name="dav">   28.56   28.63</time>
   <time name="total">   29.07   29.15</time>
   <energy>
    <i name="e_fr_energy">   -191.58651393 </i>
    <i name="e_wo_entrp">   -191.37474526 </i>
    <i name="e_0_energy">   -191.48062959 </i>
   </energy>
  </scstep>
  <scstep>
   <time name="dav">   28.14   28.21</time>
   <time name="total">   28.64   28.72</time>
   <energy>
    <i name="e_fr_energy">   -191.58331554 </i>
    <i name="e_wo_entrp">   -191.37438816 </i>
    <i name="e_0_energy">   -191.47885185 </i>
   </energy>
  </scstep>
  <scstep>
   <time name="dav">   26.36   26.43</time>
   <time name="total">   26.87   26.94</time>
   <energy>
    <i name="e_fr_energy">   -191.58304035 </i>
    <i name="e_wo_entrp">   -191.37317184 </i>
    <i name="e_0_energy">   -191.47810610 </i>
   </energy>
  </scstep>
  <scstep>
   <time name="dav">   26.47   26.53</time>
   <time name="total">   26.97   27.05</time>
   <energy>
    <i name="e_fr_energy">   -191.58284063 </i>
    <i name="e_wo_entrp">   -191.37329693 </i>
    <i name="e_0_energy">   -191.47806878 </i>
   </energy>
  </scstep>
  <scstep>
   <time name="dav">   23.64   23.69</time>
   <time name="total">   23.67   23.74</time>
   <energy>
    <i name="alphaZ">     90.15495350 </i>
    <i name="ewald">  44634.38201254 </i>
    <i name="hartreedc"> -50645.39677525 </i>
    <i name="XCdc">   -233.42255871 </i>
    <i name="pawpsdc">   4083.82286099 </i>
    <i name="pawaedc">  -3499.77486996 </i>
    <i name="eentropy">     -0.20956108 </i>
    <i name="bandstr">  -1382.58136793 </i>
    <i name="atom">   6761.44252427 </i>
    <i name="e_fr_energy">   -191.58278163 </i>
    <i name="e_wo_entrp">   -191.37322055 </i>
    <i name="e_0_energy">   -191.47800109 </i>
   </energy>
  </scstep>
  <structure>
   <crystal>
    <varray name="basis" >
     <v>       8.26469750       4.78870447       0.00000000 </v>
     <v>      -8.26471079       4.78872802       0.00000000 </v>
     <v>       0.00000000       0.00000000      30.00000000 </v>
    </varray>
    <i name="volume">   2374.63938066 </i>
    <varray name="rec_basis" >
     <v>       0.06049838       0.10441220       0.00000000 </v>
     <v>      -0.06049808       0.10441203       0.00000000 </v>
     <v>       0.00000000       0.00000000       0.03333333 </v>
    </varray>
   </crystal>
   <varray name="positions" >
    <v>       0.33692378       0.67024904      -0.00000020 </v>
    <v>       0.33603691       0.32862573       0.00041224 </v>
    <v>      -0.00469718       0.66936617      -0.00041183 </v>
    <v>      -0.01549964      -0.00291610      -0.00003113 </v>
    <v>       0.66372123       0.31782448       0.00003075 </v>
    <v>       0.67992357       0.01325373      -0.00000098 </v>
    <v>       0.98240582       0.31572716      -0.00000031 </v>
    <v>       0.34522486       0.00977427      -0.00012442 </v>
    <v>       0.67641282       0.67854795       0.00012457 </v>
    <v>       0.11555035       0.22562531       0.94881489 </v>
    <v>       0.22416928       0.11529223       0.05066228 </v>
    <v>       0.11191033       0.55795539       0.95185504 </v>
    <v>       0.22462942       0.44523837       0.04814391 </v>
    <v>       0.10969123       0.88521059       0.95011173 </v>
    <v>       0.21978055       0.77381294       0.04928418 </v>
    <v>       0.44153045       0.22509039       0.94737528 </v>
    <v>       0.55495656       0.10886271       0.05434977 </v>
    <v>       0.44047402       0.55310573       0.95071556 </v>
    <v>       0.55186709       0.44302031       0.04988897 </v>
    <v>       0.44280704       0.88492171       0.94892400 </v>
    <v>       0.55158717       0.77614129       0.05107718 </v>
    <v>       0.77819320       0.22242896       0.94440229 </v>
    <v>       0.88909372       0.11152418       0.05559919 </v>
    <v>       0.78194981       0.55749813       0.94933843 </v>
    <v>       0.89228847       0.44887557       0.05118414 </v>
    <v>       0.77553088       0.88829048       0.94565144 </v>
    <v>       0.89175272       0.77486773       0.05262292 </v>
   </varray>
  </structure>
  <varray name="forces" >
   <v>       0.00432816      -0.00165121       0.00029303 </v>
   <v>       0.22469260       0.08182219       0.01942184 </v>
   <v>      -0.21560425       0.08259897      -0.01823034 </v>
   <v>      -0.18850074      -0.33715669       0.02557612 </v>
   <v>       0.18083317      -0.34576556      -0.02555623 </v>
   <v>       0.00115442       0.08773958       0.00019183 </v>
   <v>       0.00371480      -0.27631849       0.00023574 </v>
   <v>       0.21659691       0.37292207       0.03021382 </v>
   <v>      -0.22528506       0.36486244      -0.02967729 </v>
   <v>      -0.01394490      -0.10798183       0.07474575 </v>
   <v>       0.01617132      -0.10686350      -0.15215535 </v>
   <v>       0.01551899      -0.10660838       0.14939857 </v>
   <v>      -0.01304455      -0.10671383      -0.15245675 </v>
   <v>      -0.10397429       0.14387646       0.16008246 </v>
   <v>      -0.04899849       0.05586338      -0.05997155 </v>
   <v>       0.04068243       0.03220335      -0.14558399 </v>
   <v>       0.11930747       0.00225650       0.16679724 </v>
   <v>       0.05041490       0.05349227       0.06147056 </v>
   <v>       0.10205870       0.14084614      -0.16276039 </v>
   <v>       0.01010870       0.10576679      -0.03243008 </v>
   <v>      -0.01038311       0.10609423       0.03351171 </v>
   <v>      -0.00885365      -0.02780744      -0.15421463 </v>
   <v>       0.00878697      -0.02827089       0.15484177 </v>
   <v>      -0.01758782      -0.10988607       0.14981306 </v>
   <v>       0.01494220      -0.10999215      -0.07311540 </v>
   <v>      -0.11924645       0.00237866      -0.16650754 </v>
   <v>      -0.04388844       0.03229303       0.14606602 </v>
  </varray>
  <varray name="stress" >
   <v>       0.11372878      -0.00216343       0.30927431 </v>
   <v>      -0.00216346       0.18077750      -0.00150323 </v>
   <v>       0.30927426      -0.00150328      -1.35486890 </v>
  </varray>
  <energy>
   <i name="e_fr_energy">   -191.58278163 </i>
   <i name="e_wo_entrp">   -191.47800109 </i>
   <i name="e_0_energy">     -0.20956108 </i>
  </energy>
  <time name="totalsc">  260.94  261.63</time>
 </calculation>
 <calculation>
  <scstep>
   <time name="dav">   21.64   21.69</time>
   <time name="total">   22.15   22.20</time>
   <energy>
    <i name="alphaZ">     90.04004558 </i>
    <i name="ewald">  44586.81450812 </i>
    <i name="hartreedc"> -50596.26899767 </i>
    <i name="XCdc">   -233.48718208 </i>
    <i name="pawpsdc">   4083.75898689 </i>
    <i name="pawaedc">  -3499.71043695 </i>
    <i name="eentropy">     -0.20901145 </i>
    <i name="bandstr">  -1384.03044731 </i>
    <i name="atom">   6761.44252427 </i>
    <i name="e_fr_energy">   -191.65001059 </i>
    <i name="e_wo_entrp">   -191.44099914 </i>
    <i name="e_0_energy">   -191.54550486 </i>
   </energy>
  </scstep>
  <scstep>
   <time name="dav">   32.63   32.71</time>
   <time name="total">   33.14   33.22</time>
   <energy>
    <i name="e_fr_energy">   -191.73360563 </i>
    <i name="e_wo_entrp">   -191.50311384 </i>
    <i name="e_0_energy">   -191.61835973 </i>
   </energy>
  </scstep>
  <scstep>
   <time name="dav">   30.14   30.22</time>
   <time name="total">   30.65   30.73</time>
   <energy>
    <i name="e_fr_energy">   -191.65915782 </i>
    <i name="e_wo_entrp">   -191.44859378 </i>
    <i name="e_0_energy">   -191.55387580 </i>
   </energy>
  </scstep>
  <scstep>
   <time name="dav">   28.47   28.54</time>
   <time name="total">   28.97   29.05</time>
   <energy>
    <i name="e_fr_energy">   -191.66325729 </i>
    <i name="e_wo_entrp">   -191.44651935 </i>
    <i name="e_0_energy">   -191.55488832 </i>
   </energy>
  </scstep>
  <scstep>
   <time name="dav">   28.26   28.33</time>
   <time name="total">   28.77   28.84</time>
   <energy>
    <i name="e_fr_energy">   -191.65673000 </i>
    <i name="e_wo_entrp">   -191.44383386 </i>
    <i name="e_0_energy">   -191.55028193 </i>
   </energy>
  </scstep>
  <scstep>
   <time name="dav">   25.41   25.47</time>
   <time name="total">   25.91   25.98</time>
   <energy>
    <i name="e_fr_energy">   -191.65649822 </i>
    <i name="e_wo_entrp">   -191.44269206 </i>
    <i name="e_0_energy">   -191.54959514 </i>
   </energy>
  </scstep>
  <scstep>
   <time name="dav">   26.04   26.10</time>
   <time name="total">   26.54   26.61</time>
   <energy>
    <i name="e_fr_energy">   -191.65692475 </i>
    <i name="e_wo_entrp">   -191.44346766 </i>
    <i name="e_0_energy">   -191.55019620 </i>
   </energy>
  </scstep>
  <scstep>
   <time name="dav">   24.36   24.42</time>
   <time name="total">   24.87   24.94</time>
   <energy>
    <i name="e_fr_energy">   -191.65620458 </i>
    <i name="e_wo_entrp">   -191.44272657 </i>
    <i name="e_0_energy">   -191.54946557 </i>
   </energy>
  </scstep>
  <scstep>
   <time name="dav">   17.07   17.11</time>
   <time name="total">   17.10   17.15</time>
   <energy>
    <i name="alphaZ">     90.04004558 </i>
    <i name="ewald">  44586.81450812 </i>
    <i name="hartreedc"> -50598.00107296 </i>
    <i name="XCdc">   -233.42087611 </i>
[...]
      <set comment="kpoint 31">
       <r>  -17.5231    1.0000 </r>
       <r>  -17.2655    1.0000 </r>
       <r>  -16.9198    1.0000 </r>
       <r>  -16.6930    1.0000 </r>
       <r>  -16.5095    1.0000 </r>
       <r>  -16.4368    1.0000 </r>
       <r>  -16.3391    1.0000 </r>
       <r>  -16.1824    1.0000 </r>
       <r>  -16.0661    1.0000 </r>
       <r>  -16.0186    1.0000 </r>
       <r>  -15.9558    1.0000 </r>
       <r>  -15.9083    1.0000 </r>
       <r>  -15.8049    1.0000 </r>
       <r>  -15.7033    1.0000 </r>
       <r>  -15.6400    1.0000 </r>
       <r>  -15.4263    1.0000 </r>
       <r>  -15.3946    1.0000 </r>
       <r>  -15.2513    1.0000 </r>
       <r>   -9.7230    1.0000 </r>
       <r>   -9.4569    1.0000 </r>
       <r>   -9.3319    1.0000 </r>
       <r>   -9.0062    1.0000 </r>
       <r>   -8.8724    1.0000 </r>
       <r>   -8.7392    1.0000 </r>
       <r>   -8.5292    1.0000 </r>
       <r>   -8.5035    1.0000 </r>
       <r>   -8.4386    1.0000 </r>
       <r>   -8.3326    1.0000 </r>
       <r>   -8.2516    1.0000 </r>
       <r>   -8.1874    1.0000 </r>
       <r>   -8.1547    1.0000 </r>
       <r>   -8.0974    1.0000 </r>
       <r>   -8.0278    1.0000 </r>
       <r>   -7.8702    1.0000 </r>
       <r>   -7.8410    1.0000 </r>
       <r>   -7.7470    1.0000 </r>
       <r>   -7.6181    1.0000 </r>
       <r>   -7.4201    1.0000 </r>
       <r>   -7.3160    1.0000 </r>
       <r>   -7.1909    1.0000 </r>
       <r>   -7.1630    1.0000 </r>
       <r>   -7.0757    1.0000 </r>
       <r>   -6.9942    1.0000 </r>
       <r>   -6.9435    1.0000 </r>
       <r>   -6.8346    1.0000 </r>
       <r>   -6.7954    1.0000 </r>
       <r>   -6.7208    1.0000 </r>
       <r>   -6.6328    1.0000 </r>
       <r>   -6.5229    1.0000 </r>
       <r>   -6.4899    1.0000 </r>
       <r>   -6.4381    1.0000 </r>
       <r>   -6.3684    1.0000 </r>
       <r>   -6.2885    1.0000 </r>
       <r>   -6.2688    1.0000 </r>
       <r>   -6.1493    1.0000 </r>
       <r>   -6.0732    1.0000 </r>
       <r>   -5.9679    1.0000 </r>
       <r>   -5.8960    1.0000 </r>
       <r>   -5.8640    1.0000 </r>
       <r>   -5.8137    1.0000 </r>
       <r>   -5.6984    1.0000 </r>
       <r>   -5.6427    1.0000 </r>
       <r>   -5.4584    1.0000 </r>
       <r>   -5.3402    1.0000 </r>
       <r>   -5.2755    1.0000 </r>
       <r>   -5.1177    1.0000 </r>
       <r>   -5.0676    1.0000 </r>
       <r>   -4.9107    1.0000 </r>
       <r>   -4.8270    1.0000 </r>
       <r>   -4.6647    1.0000 </r>
       <r>   -4.6352    1.0000 </r>
       <r>   -4.5177    1.0000 </r>
       <r>   -4.3636    1.0000 </r>
       <r>   -4.2732    1.0000 </r>
       <r>   -4.1334    1.0000 </r>
       <r>   -4.0277    1.0000 </r>
       <r>   -3.8325    0.9997 </r>
       <r>   -3.6995    0.9943 </r>
       <r>   -3.5271    0.9055 </r>
       <r>   -3.4065    0.6775 </r>
       <r>   -2.9894    0.0064 </r>
       <r>   -2.8744    0.0005 </r>
       <r>   -2.7172    0.0000 </r>
       <r>   -2.6059    0.0000 </r>
       <r>   -2.5546    0.0000 </r>
       <r>   -2.4532    0.0000 </r>
       <r>   -2.2764    0.0000 </r>
       <r>   -2.1862    0.0000 </r>
       <r>   -2.1084    0.0000 </r>
       <r>   -1.9198    0.0000 </r>
       <r>   -1.6522    0.0000 </r>
       <r>   -1.5393    0.0000 </r>
       <r>   -1.5075    0.0000 </r>
       <r>   -1.3351    0.0000 </r>
       <r>   -1.2577    0.0000 </r>
       <r>   -1.1811    0.0000 </r>
       <r>   -1.0503    0.0000 </r>
       <r>   -1.0252    0.0000 </r>
       <r>   -0.9751    0.0000 </r>
       <r>   -0.9159    0.0000 </r>
       <r>   -0.8140    0.0000 </r>
       <r>   -0.7573    0.0000 </r>
       <r>   -0.6903    0.0000 </r>
       <r>   -0.6289    0.0000 </r>
       <r>   -0.4912    0.0000 </r>
       <r>   -0.3919    0.0000 </r>
       <r>   -0.2707    0.0000 </r>
       <r>   -0.1610    0.0000 </r>
       <r>   -0.0724    0.0000 </r>
       <r>    0.1683    0.0000 </r>
       <r>    0.2487    0.0000 </r>
       <r>    0.6821    0.0000 </r>
       <r>    0.9083    0.0000 </r>
       <r>    0.9466    0.0000 </r>
       <r>    1.0536    0.0000 </r>
       <r>    1.2828    0.0000 </r>
       <r>    1.3854    0.0000 </r>
       <r>    2.1244    0.0000 </r>
       <r>    2.2937    0.0000 </r>
       <r>    2.3783    0.0000 </r>
      </set>
      <set comment="kpoint 32">
       <r>  -17.5254    1.0000 </r>
       <r>  -17.2062    1.0000 </r>
       <r>  -17.0303    1.0000 </r>
       <r>  -16.6899    1.0000 </r>
       <r>  -16.4732    1.0000 </r>
       <r>  -16.3631    1.0000 </r>
       <r>  -16.3122    1.0000 </r>
       <r>  -16.2352    1.0000 </r>
       <r>  -16.1212    1.0000 </r>
       <r>  -16.0471    1.0000 </r>
       <r>  -15.9425    1.0000 </r>
       <r>  -15.8906    1.0000 </r>
       <r>  -15.8120    1.0000 </r>
       <r>  -15.6844    1.0000 </r>
       <r>  -15.6282    1.0000 </r>
       <r>  -15.4299    1.0000 </r>
       <r>  -15.3888    1.0000 </r>
       <r>  -15.2548    1.0000 </r>
       <r>   -9.6662    1.0000 </r>
       <r>   -9.5728    1.0000 </r>
       <r>   -9.4231    1.0000 </r>
       <r>   -8.9737    1.0000 </r>
       <r>   -8.7140    1.0000 </r>
       <r>   -8.6516    1.0000 </r>
       <r>   -8.5439    1.0000 </r>
       <r>   -8.4739    1.0000 </r>
       <r>   -8.4197    1.0000 </r>
       <r>   -8.3501    1.0000 </r>
       <r>   -8.2687    1.0000 </r>
       <r>   -8.2585    1.0000 </r>
       <r>   -8.1457    1.0000 </r>
       <r>   -8.1186    1.0000 </r>
       <r>   -8.0418    1.0000 </r>
       <r>   -7.9399    1.0000 </r>
       <r>   -7.8064    1.0000 </r>
       <r>   -7.7881    1.0000 </r>
       <r>   -7.5877    1.0000 </r>
       <r>   -7.4382    1.0000 </r>
       <r>   -7.3310    1.0000 </r>
       <r>   -7.2544    1.0000 </r>
       <r>   -7.1893    1.0000 </r>
       <r>   -7.0886    1.0000 </r>
       <r>   -6.9737    1.0000 </r>
       <r>   -6.9078    1.0000 </r>
       <r>   -6.8547    1.0000 </r>
       <r>   -6.7675    1.0000 </r>
       <r>   -6.6934    1.0000 </r>
       <r>   -6.5929    1.0000 </r>
       <r>   -6.5533    1.0000 </r>
       <r>   -6.4861    1.0000 </r>
       <r>   -6.4449    1.0000 </r>
       <r>   -6.3409    1.0000 </r>
       <r>   -6.2872    1.0000 </r>
       <r>   -6.2623    1.0000 </r>
       <r>   -6.1304    1.0000 </r>
       <r>   -6.0399    1.0000 </r>
       <r>   -5.9752    1.0000 </r>
       <r>   -5.9027    1.0000 </r>
       <r>   -5.8308    1.0000 </r>
       <r>   -5.7336    1.0000 </r>
       <r>   -5.7122    1.0000 </r>
       <r>   -5.5560    1.0000 </r>
       <r>   -5.4838    1.0000 </r>
       <r>   -5.4088    1.0000 </r>
       <r>   -5.2591    1.0000 </r>
       <r>   -5.1856    1.0000 </r>
       <r>   -5.0565    1.0000 </r>
       <r>   -4.9709    1.0000 </r>
       <r>   -4.8210    1.0000 </r>
       <r>   -4.7012    1.0000 </r>
       <r>   -4.6334    1.0000 </r>
       <r>   -4.4827    1.0000 </r>
       <r>   -4.3688    1.0000 </r>
       <r>   -4.3478    1.0000 </r>
       <r>   -4.1296    1.0000 </r>
       <r>   -4.0359    1.0000 </r>
       <r>   -3.8423    0.9998 </r>
       <r>   -3.6228    0.9767 </r>
       <r>   -3.5090    0.8821 </r>
       <r>   -3.3146    0.4250 </r>
       <r>   -3.0553    0.0216 </r>
       <r>   -2.9084    0.0011 </r>
       <r>   -2.7662    0.0000 </r>
       <r>   -2.6293    0.0000 </r>
       <r>   -2.5699    0.0000 </r>
       <r>   -2.4836    0.0000 </r>
       <r>   -2.2519    0.0000 </r>
       <r>   -2.1544    0.0000 </r>
       <r>   -2.0917    0.0000 </r>
       <r>   -1.9524    0.0000 </r>
       <r>   -1.6795    0.0000 </r>
       <r>   -1.5524    0.0000 </r>
       <r>   -1.5111    0.0000 </r>
       <r>   -1.3006    0.0000 </r>
       <r>   -1.2206    0.0000 </r>
       <r>   -1.1883    0.0000 </r>
       <r>   -1.0194    0.0000 </r>
       <r>   -1.0070    0.0000 </r>
       <r>   -0.9587    0.0000 </r>
       <r>   -0.9310    0.0000 </r>
       <r>   -0.8128    0.0000 </r>
       <r>   -0.7701    0.0000 </r>
       <r>   -0.6825    0.0000 </r>
       <r>   -0.6009    0.0000 </r>
       <r>   -0.5554    0.0000 </r>
       <r>   -0.4110    0.0000 </r>
       <r>   -0.3211    0.0000 </r>
       <r>   -0.0779    0.0000 </r>
       <r>   -0.0076    0.0000 </r>
       <r>    0.2047    0.0000 </r>
       <r>    0.2489    0.0000 </r>
       <r>    0.6682    0.0000 </r>
       <r>    0.8819    0.0000 </r>
       <r>    0.9425    0.0000 </r>
       <r>    1.0922    0.0000 </r>
       <r>    1.2188    0.0000 </r>
       <r>    1.3692    0.0000 </r>
       <r>    2.1025    0.0000 </r>
       <r>    2.2591    0.0000 </r>
       <r>    2.5602    0.0000 </r>
      </set>
      <set comment="kpoint 33">
       <r>  -17.4950    1.0000 </r>
       <r>  -17.2992    1.0000 </r>
       <r>  -16.9210    1.0000 </r>
       <r>  -16.6859    1.0000 </r>
       <r>  -16.5026    1.0000 </r>
       <r>  -16.4549    1.0000 </r>
       <r>  -16.3305    1.0000 </r>
       <r>  -16.1875    1.0000 </r>
       <r>  -16.1512    1.0000 </r>
       <r>  -16.0172    1.0000 </r>
       <r>  -15.9081    1.0000 </r>
       <r>  -15.8524    1.0000 </r>
       <r>  -15.8163    1.0000 </r>
       <r>  -15.6839    1.0000 </r>
       <r>  -15.6377    1.0000 </r>
       <r>  -15.4325    1.0000 </r>
       <r>  -15.3932    1.0000 </r>
       <r>  -15.2631    1.0000 </r>
       <r>   -9.7632    1.0000 </r>
       <r>   -9.4503    1.0000 </r>
       <r>   -9.3958    1.0000 </r>
       <r>   -8.9553    1.0000 </r>
       <r>   -8.8199    1.0000 </r>
       <r>   -8.7136    1.0000 </r>
       <r>   -8.6292    1.0000 </r>
       <r>   -8.5856    1.0000 </r>
       <r>   -8.3668    1.0000 </r>
       <r>   -8.2895    1.0000 </r>
       <r>   -8.2553    1.0000 </r>
       <r>   -8.1497    1.0000 </r>
       <r>   -8.1037    1.0000 </r>
       <r>   -8.0846    1.0000 </r>
       <r>   -8.0087    1.0000 </r>
       <r>   -7.9229    1.0000 </r>
       <r>   -7.8093    1.0000 </r>
       <r>   -7.7677    1.0000 </r>
       <r>   -7.5720    1.0000 </r>
       <r>   -7.4607    1.0000 </r>
       <r>   -7.4033    1.0000 </r>
       <r>   -7.3515    1.0000 </r>
       <r>   -7.1374    1.0000 </r>
       <r>   -7.0642    1.0000 </r>
       <r>   -6.9731    1.0000 </r>
       <r>   -6.8663    1.0000 </r>
       <r>   -6.8435    1.0000 </r>
       <r>   -6.7934    1.0000 </r>
       <r>   -6.7225    1.0000 </r>
       <r>   -6.5856    1.0000 </r>
       <r>   -6.5302    1.0000 </r>
       <r>   -6.4970    1.0000 </r>
       <r>   -6.4479    1.0000 </r>
       <r>   -6.3587    1.0000 </r>
       <r>   -6.2713    1.0000 </r>
       <r>   -6.1480    1.0000 </r>
       <r>   -6.1244    1.0000 </r>
       <r>   -6.0381    1.0000 </r>
       <r>   -6.0029    1.0000 </r>
       <r>   -5.9386    1.0000 </r>
       <r>   -5.8527    1.0000 </r>
       <r>   -5.7644    1.0000 </r>
       <r>   -5.6524    1.0000 </r>
       <r>   -5.6182    1.0000 </r>
       <r>   -5.5289    1.0000 </r>
       <r>   -5.4230    1.0000 </r>
       <r>   -5.3069    1.0000 </r>
       <r>   -5.1762    1.0000 </r>
       <r>   -5.0739    1.0000 </r>
       <r>   -4.8431    1.0000 </r>
       <r>   -4.7655    1.0000 </r>
       <r>   -4.7348    1.0000 </r>
       <r>   -4.6106    1.0000 </r>
       <r>   -4.4505    1.0000 </r>
       <r>   -4.3923    1.0000 </r>
       <r>   -4.3419    1.0000 </r>
       <r>   -4.1552    1.0000 </r>
       <r>   -4.0568    1.0000 </r>
       <r>   -3.9112    1.0000 </r>
       <r>   -3.5781    0.9530 </r>
       <r>   -3.4474    0.7735 </r>
       <r>   -3.2771    0.3248 </r>
       <r>   -3.1007    0.0444 </r>
       <r>   -2.9436    0.0025 </r>
       <r>   -2.8405    0.0002 </r>
       <r>   -2.6441    0.0000 </r>
       <r>   -2.5951    0.0000 </r>
       <r>   -2.5085    0.0000 </r>
       <r>   -2.2222    0.0000 </r>
       <r>   -2.1175    0.0000 </r>
       <r>   -2.0852    0.0000 </r>
       <r>   -1.9341    0.0000 </r>
       <r>   -1.7223    0.0000 </r>
       <r>   -1.5645    0.0000 </r>
       <r>   -1.4870    0.0000 </r>
       <r>   -1.2867    0.0000 </r>
       <r>   -1.1986    0.0000 </r>
       <r>   -1.1865    0.0000 </r>
       <r>   -1.0069    0.0000 </r>
       <r>   -0.9824    0.0000 </r>
       <r>   -0.9451    0.0000 </r>
       <r>   -0.9110    0.0000 </r>
       <r>   -0.8375    0.0000 </r>
       <r>   -0.7863    0.0000 </r>
       <r>   -0.6747    0.0000 </r>
       <r>   -0.5854    0.0000 </r>
       <r>   -0.5502    0.0000 </r>
       <r>   -0.4933    0.0000 </r>
       <r>   -0.4215    0.0000 </r>
       <r>   -0.0458    0.0000 </r>
       <r>    0.0853    0.0000 </r>
       <r>    0.2407    0.0000 </r>
       <r>    0.2801    0.0000 </r>
       <r>    0.6748    0.0000 </r>
       <r>    0.8746    0.0000 </r>
       <r>    0.9564    0.0000 </r>
       <r>    1.1286    0.0000 </r>
       <r>    1.1605    0.0000 </r>
       <r>    1.3747    0.0000 </r>
       <r>    2.1408    0.0000 </r>
       <r>    2.2888    0.0000 </r>
       <r>    2.4035    0.0000 </r>
      </set>
      <set comment="kpoint 34">
       <r>  -17.4501    1.0000 </r>
       <r>  -17.3793    1.0000 </r>
       <r>  -16.7952    1.0000 </r>
       <r>  -16.6839    1.0000 </r>
       <r>  -16.6264    1.0000 </r>
       <r>  -16.4755    1.0000 </r>
       <r>  -16.3224    1.0000 </r>
       <r>  -16.1810    1.0000 </r>
       <r>  -16.1567    1.0000 </r>
       <r>  -15.9978    1.0000 </r>
       <r>  -15.8799    1.0000 </r>
       <r>  -15.8368    1.0000 </r>
       <r>  -15.8068    1.0000 </r>
       <r>  -15.6854    1.0000 </r>
       <r>  -15.6532    1.0000 </r>
       <r>  -15.4345    1.0000 </r>
       <r>  -15.3996    1.0000 </r>
       <r>  -15.2669    1.0000 </r>
       <r>   -9.8050    1.0000 </r>
       <r>   -9.3817    1.0000 </r>
       <r>   -9.3162    1.0000 </r>
       <r>   -8.9988    1.0000 </r>
       <r>   -8.9172    1.0000 </r>
       <r>   -8.7474    1.0000 </r>
       <r>   -8.6821    1.0000 </r>
       <r>   -8.6243    1.0000 </r>
       <r>   -8.3349    1.0000 </r>
       <r>   -8.3050    1.0000 </r>
       <r>   -8.2327    1.0000 </r>
       <r>   -8.1233    1.0000 </r>
       <r>   -8.0810    1.0000 </r>
       <r>   -8.0728    1.0000 </r>
       <r>   -7.9292    1.0000 </r>
       <r>   -7.8756    1.0000 </r>
       <r>   -7.7699    1.0000 </r>
       <r>   -7.7529    1.0000 </r>
       <r>   -7.6101    1.0000 </r>
       <r>   -7.5207    1.0000 </r>
       <r>   -7.4391    1.0000 </r>
       <r>   -7.3612    1.0000 </r>
       <r>   -7.1068    1.0000 </r>
       <r>   -7.0453    1.0000 </r>
       <r>   -6.9872    1.0000 </r>
       <r>   -6.8580    1.0000 </r>
       <r>   -6.8577    1.0000 </r>
       <r>   -6.7411    1.0000 </r>
       <r>   -6.6432    1.0000 </r>
       <r>   -6.6422    1.0000 </r>
       <r>   -6.5446    1.0000 </r>
       <r>   -6.5141    1.0000 </r>
       <r>   -6.4832    1.0000 </r>
       <r>   -6.3320    1.0000 </r>
       <r>   -6.2718    1.0000 </r>
       <r>   -6.2087    1.0000 </r>
       <r>   -6.1457    1.0000 </r>
       <r>   -6.0240    1.0000 </r>
       <r>   -5.9848    1.0000 </r>
       <r>   -5.9427    1.0000 </r>
       <r>   -5.8013    1.0000 </r>
       <r>   -5.7312    1.0000 </r>
       <r>   -5.7179    1.0000 </r>
       <r>   -5.5824    1.0000 </r>
       <r>   -5.5711    1.0000 </r>
       <r>   -5.5207    1.0000 </r>
       <r>   -5.3076    1.0000 </r>
       <r>   -5.1392    1.0000 </r>
       <r>   -5.0855    1.0000 </r>
       <r>   -4.8095    1.0000 </r>
       <r>   -4.7557    1.0000 </r>
       <r>   -4.7110    1.0000 </r>
       <r>   -4.4755    1.0000 </r>
       <r>   -4.4715    1.0000 </r>
       <r>   -4.3998    1.0000 </r>
       <r>   -4.3414    1.0000 </r>
       <r>   -4.2156    1.0000 </r>
       <r>   -4.0674    1.0000 </r>
       <r>   -3.9538    1.0000 </r>
       <r>   -3.5620    0.9407 </r>
       <r>   -3.3938    0.6448 </r>
       <r>   -3.3098    0.4119 </r>
       <r>   -3.0966    0.0418 </r>
       <r>   -2.9418    0.0024 </r>
       <r>   -2.8966    0.0008 </r>
       <r>   -2.6435    0.0000 </r>
       <r>   -2.6115    0.0000 </r>
       <r>   -2.5178    0.0000 </r>
       <r>   -2.2063    0.0000 </r>
       <r>   -2.1025    0.0000 </r>
       <r>   -2.0862    0.0000 </r>
       <r>   -1.9124    0.0000 </r>
       <r>   -1.7449    0.0000 </r>
       <r>   -1.5685    0.0000 </r>
       <r>   -1.4683    0.0000 </r>
       <r>   -1.2764    0.0000 </r>
       <r>   -1.1978    0.0000 </r>
       <r>   -1.1889    0.0000 </r>
       <r>   -1.0164    0.0000 </r>
       <r>   -1.0014    0.0000 </r>
       <r>   -0.9011    0.0000 </r>
       <r>   -0.8923    0.0000 </r>
       <r>   -0.8684    0.0000 </r>
       <r>   -0.7456    0.0000 </r>
       <r>   -0.6847    0.0000 </r>
       <r>   -0.5861    0.0000 </r>
       <r>   -0.5827    0.0000 </r>
       <r>   -0.5125    0.0000 </r>
       <r>   -0.4630    0.0000 </r>
       <r>   -0.0687    0.0000 </r>
       <r>    0.1584    0.0000 </r>
       <r>    0.2651    0.0000 </r>
       <r>    0.2706    0.0000 </r>
       <r>    0.6901    0.0000 </r>
       <r>    0.8804    0.0000 </r>
       <r>    0.9608    0.0000 </r>
       <r>    1.1355    0.0000 </r>
       <r>    1.1464    0.0000 </r>
       <r>    1.3832    0.0000 </r>
       <r>    2.2230    0.0000 </r>
       <r>    2.2607    0.0000 </r>
       <r>    2.3822    0.0000 </r>
      </set>
     </set>
    </set>
   </array>
  </eigenvalues>
  <separator name="orbital magnetization" >
   <v name="MAGDIPOLOUT">      0.00000000      0.00000000      0.00000000</v>
  </separator>
 </calculation>
 <structure name="finalpos" >
  <crystal>
   <varray name="basis" >
    <v>       8.32704721       4.83914349       0.00000000 </v>
    <v>      -8.32696889       4.83900690       0.00000000 </v>
    <v>       0.00000000       0.00000000      30.00000000 </v>
   </varray>
   <i name="volume">   2417.70108754 </i>
   <varray name="rec_basis" >
    <v>       0.06004473       0.10332504       0.00000000 </v>
    <v>      -0.06004642       0.10332601       0.00000000 </v>
    <v>       0.00000000       0.00000000       0.03333333 </v>
   </varray>
  </crystal>
  <varray name="positions" >
   <v>       0.35431156       0.68764455      -0.00000016 </v>
   <v>       0.36895683       0.34421118      -0.00139505 </v>
   <v>       0.01091513       0.70230670       0.00140857 </v>
   <v>      -0.03572781      -0.01629821       0.00027050 </v>
   <v>       0.65035035       0.29759635      -0.00027360 </v>
   <v>       0.66791413       0.00124679       0.00000000 </v>
   <v>       0.96448840       0.29780457      -0.00000518 </v>
   <v>       0.35830142       0.01144722      -0.00014086 </v>
   <v>       0.67810739       0.69163508       0.00014267 </v>
   <v>       0.11452789       0.22351881       0.95235864 </v>
   <v>       0.22069171       0.11610396       0.04384306 </v>
   <v>       0.10843214       0.55575634       0.95827898 </v>
   <v>       0.22242075       0.44176804       0.04172218 </v>
   <v>       0.11175851       0.89640182       0.95030953 </v>
   <v>       0.22513683       0.77948568       0.05012333 </v>
   <v>       0.44392115       0.22185175       0.94476135 </v>
   <v>       0.55408730       0.10247502       0.05655558 </v>
   <v>       0.44614751       0.55845308       0.94988516 </v>
   <v>       0.56306706       0.44508066       0.04968633 </v>
   <v>       0.43892393       0.88359701       0.94619819 </v>
   <v>       0.55025647       0.77225167       0.05380093 </v>
   <v>       0.77014080       0.21379762       0.94325409 </v>
   <v>       0.88047683       0.10348542       0.05674081 </v>
   <v>       0.78276281       0.55402396       0.95615891 </v>
   <v>       0.89019697       0.44786559       0.04762736 </v>
   <v>       0.76914087       0.88742203       0.94344363 </v>
   <v>       0.88850753       0.77728178       0.05524495 </v>
  </varray>
 </structure>
</modeling>
