<?xml version="1.0" encoding="ISO-8859-1"?>
<modeling>
 <generator>
  <i name="program" type="string">vasp </i>
  <i name="version" type="string">5.4.1  </i>
  <i name="subversion" type="string">05Feb16 (build Jul 05 2020 17:13:04) complex                          parallel </i>
  <i name="platform" type="string">IFC91_ompi </i>
  <i name="date" type="string">2024 07 04 </i>
  <i name="time" type="string">13:00:29 </i>
 </generator>
 <incar>
  <i type="int" name="ISTART">     0</i>
  <i type="string" name="PREC">normal</i>
  <i type="string" name="ALGO"> Normal</i>
  <i type="int" name="ISPIN">     1</i>
  <i type="int" name="ICHARG">     2</i>
  <i type="int" name="IBRION">     1</i>
  <i type="int" name="NSW">   100</i>
  <i type="int" name="ISIF">     3</i>
  <i type="int" name="ISYM">     0</i>
  <i name="SYMPREC">      0.00000001</i>
  <i name="POTIM">      0.50000000</i>
  <i type="logical" name="LREAL"> F  </i>
  <i type="logical" name="LPLANE"> F  </i>
  <i type="int" name="ISMEAR">     0</i>
  <i type="logical" name="LWAVE"> F  </i>
  <i type="logical" name="LCHARG"> F  </i>
  <v type="int" name="KPOINT_BSE">    -1     0     0     0</v>
 </incar>
 <kpoints>
  <generation param="Gamma">
   <v type="int" name="divisions">       8        8        1 </v>
   <v name="usershift">      0.00000000       0.00000000       0.00000000 </v>
   <v name="genvec1">      0.12500000       0.00000000       0.00000000 </v>
   <v name="genvec2">     -0.00000000       0.12500000       0.00000000 </v>
   <v name="genvec3">      0.00000000       0.00000000       1.00000000 </v>
   <v name="shift">      0.00000000       0.00000000       0.00000000 </v>
  </generation>
  <varray name="kpointlist" >
   <v>       0.00000000       0.00000000       0.00000000 </v>
   <v>       0.12500000       0.00000000       0.00000000 </v>
   <v>       0.25000000       0.00000000       0.00000000 </v>
   <v>       0.37500000       0.00000000       0.00000000 </v>
   <v>       0.50000000       0.00000000       0.00000000 </v>
   <v>       0.00000000       0.12500000       0.00000000 </v>
   <v>       0.12500000       0.12500000       0.00000000 </v>
   <v>       0.25000000       0.12500000       0.00000000 </v>
   <v>       0.37500000       0.12500000       0.00000000 </v>
   <v>       0.50000000       0.12500000       0.00000000 </v>
   <v>      -0.37500000       0.12500000       0.00000000 </v>
   <v>      -0.25000000       0.12500000       0.00000000 </v>
   <v>      -0.12500000       0.12500000       0.00000000 </v>
   <v>       0.00000000       0.25000000       0.00000000 </v>
   <v>       0.12500000       0.25000000       0.00000000 </v>
   <v>       0.25000000       0.25000000       0.00000000 </v>
   <v>       0.37500000       0.25000000       0.00000000 </v>
   <v>       0.50000000       0.25000000       0.00000000 </v>
   <v>      -0.37500000       0.25000000       0.00000000 </v>
   <v>      -0.25000000       0.25000000       0.00000000 </v>
   <v>      -0.12500000       0.25000000       0.00000000 </v>
   <v>      -0.00000000       0.37500000       0.00000000 </v>
   <v>       0.12500000       0.37500000       0.00000000 </v>
   <v>       0.25000000       0.37500000       0.00000000 </v>
   <v>       0.37500000       0.37500000       0.00000000 </v>
   <v>       0.50000000       0.37500000       0.00000000 </v>
   <v>      -0.37500000       0.37500000       0.00000000 </v>
   <v>      -0.25000000       0.37500000       0.00000000 </v>
   <v>      -0.12500000       0.37500000       0.00000000 </v>
   <v>       0.00000000       0.50000000       0.00000000 </v>
   <v>       0.12500000       0.50000000       0.00000000 </v>
   <v>       0.25000000       0.50000000       0.00000000 </v>
   <v>       0.37500000       0.50000000       0.00000000 </v>
   <v>       0.50000000       0.50000000       0.00000000 </v>
  </varray>
  <varray name="weights" >
   <v>       0.01562500 </v>
   <v>       0.03125000 </v>
   <v>       0.03125000 </v>
   <v>       0.03125000 </v>
   <v>       0.01562500 </v>
   <v>       0.03125000 </v>
   <v>       0.03125000 </v>
   <v>       0.03125000 </v>
   <v>       0.03125000 </v>
   <v>       0.03125000 </v>
   <v>       0.03125000 </v>
   <v>       0.03125000 </v>
   <v>       0.03125000 </v>
   <v>       0.03125000 </v>
   <v>       0.03125000 </v>
   <v>       0.03125000 </v>
   <v>       0.03125000 </v>
   <v>       0.03125000 </v>
   <v>       0.03125000 </v>
   <v>       0.03125000 </v>
   <v>       0.03125000 </v>
   <v>       0.03125000 </v>
   <v>       0.03125000 </v>
   <v>       0.03125000 </v>
   <v>       0.03125000 </v>
   <v>       0.03125000 </v>
   <v>       0.03125000 </v>
   <v>       0.03125000 </v>
   <v>       0.03125000 </v>
   <v>       0.01562500 </v>
   <v>       0.03125000 </v>
   <v>       0.03125000 </v>
   <v>       0.03125000 </v>
   <v>       0.01562500 </v>
  </varray>
 </kpoints>
 <parameters>
  <separator name="general" >
   <i type="string" name="SYSTEM">unknown system</i>
   <i type="logical" name="LCOMPAT"> F  </i>
  </separator>
  <separator name="electronic" >
   <i type="string" name="PREC">normal</i>
   <i name="ENMAX">    280.00000000</i>
   <i name="ENAUG">    373.43800000</i>
   <i name="EDIFF">      0.00010000</i>
   <i type="int" name="IALGO">    38</i>
   <i type="int" name="IWAVPR">    11</i>
   <i type="int" name="NBANDS">   120</i>
   <i name="NELECT">    159.00000000</i>
   <i type="int" name="TURBO">     0</i>
   <i type="int" name="IRESTART">     0</i>
   <i type="int" name="NREBOOT">     0</i>
   <i type="int" name="NMIN">     0</i>
   <i name="EREF">      0.00000000</i>
   <separator name="electronic smearing" >
    <i type="int" name="ISMEAR">     0</i>
    <i name="SIGMA">      0.20000000</i>
    <i name="KSPACING">      0.50000000</i>
    <i type="logical" name="KGAMMA"> T  </i>
   </separator>
   <separator name="electronic projectors" >
    <i type="logical" name="LREAL"> F  </i>
    <v name="ROPT">      0.00000000      0.00000000      0.00000000      0.00000000</v>
    <i type="int" name="LMAXPAW">  -100</i>
    <i type="int" name="LMAXMIX">     2</i>
    <i type="logical" name="NLSPLINE"> F  </i>
   </separator>
   <separator name="electronic startup" >
    <i type="int" name="ISTART">     0</i>
    <i type="int" name="ICHARG">     2</i>
    <i type="int" name="INIWAV">     1</i>
   </separator>
   <separator name="electronic spin" >
    <i type="int" name="ISPIN">     1</i>
    <i type="logical" name="LNONCOLLINEAR"> F  </i>
    <v name="MAGMOM">      1.00000000      1.00000000      1.00000000      1.00000000      1.00000000      1.00000000      1.00000000      1.00000000      1.00000000      1.00000000      1.00000000      1.00000000      1.00000000      1.00000000      1.00000000      1.00000000      1.00000000      1.00000000      1.00000000      1.00000000
      1.00000000      1.00000000      1.00000000      1.00000000      1.00000000      1.00000000      1.00000000</v>
    <i name="NUPDOWN">     -1.00000000</i>
    <i type="logical" name="LSORBIT"> F  </i>
    <v name="SAXIS">      0.00000000      0.00000000      1.00000000</v>
    <i type="logical" name="LSPIRAL"> F  </i>
    <v name="QSPIRAL">      0.00000000      0.00000000      0.00000000</v>
    <i type="logical" name="LZEROZ"> F  </i>
   </separator>
   <separator name="electronic exchange-correlation" >
    <i type="logical" name="LASPH"> F  </i>
    <i type="logical" name="LMETAGGA"> F  </i>
   </separator>
   <separator name="electronic convergence" >
    <i type="int" name="NELM">    60</i>
    <i type="int" name="NELMDL">    -5</i>
    <i type="int" name="NELMIN">     2</i>
    <i name="ENINI">    280.00000000</i>
    <separator name="electronic convergence detail" >
     <i type="logical" name="LDIAG"> T  </i>
     <i type="logical" name="LSUBROT"> F  </i>
     <i name="WEIMIN">      0.00100000</i>
     <i name="EBREAK">      0.00000021</i>
     <i name="DEPER">      0.30000000</i>
     <i type="int" name="NRMM">     4</i>
     <i name="TIME">      0.40000000</i>
    </separator>
   </separator>
   <separator name="electronic mixer" >
    <i name="AMIX">      0.40000000</i>
    <i name="BMIX">      1.00000000</i>
    <i name="AMIN">      0.10000000</i>
    <i name="AMIX_MAG">      1.60000000</i>
    <i name="BMIX_MAG">      1.00000000</i>
    <separator name="electronic mixer details" >
     <i type="int" name="IMIX">     4</i>
     <i type="logical" name="MIXFIRST"> F  </i>
     <i type="int" name="MAXMIX">   -45</i>
     <i name="WC">    100.00000000</i>
     <i type="int" name="INIMIX">     1</i>
     <i type="int" name="MIXPRE">     1</i>
     <i type="int" name="MREMOVE">     5</i>
    </separator>
   </separator>
   <separator name="electronic dipolcorrection" >
    <i type="logical" name="LDIPOL"> F  </i>
    <i type="logical" name="LMONO"> F  </i>
    <i type="int" name="IDIPOL">     0</i>
    <i name="EPSILON">      1.00000000</i>
    <v name="DIPOL">   -100.00000000   -100.00000000   -100.00000000</v>
    <i name="EFIELD">      0.00000000</i>
   </separator>
  </separator>
  <separator name="grids" >
   <i type="int" name="NGX">    42</i>
   <i type="int" name="NGY">    42</i>
   <i type="int" name="NGZ">   126</i>
   <i type="int" name="NGXF">    84</i>
   <i type="int" name="NGYF">    84</i>
   <i type="int" name="NGZF">   252</i>
   <i type="logical" name="ADDGRID"> F  </i>
  </separator>
  <separator name="ionic" >
   <i type="int" name="NSW">   100</i>
   <i type="int" name="IBRION">     1</i>
   <i type="int" name="ISIF">     3</i>
   <i name="PSTRESS">      0.00000000</i>
   <i name="EDIFFG">      0.00100000</i>
   <i type="int" name="NFREE">     0</i>
   <i name="POTIM">      0.50000000</i>
   <i name="SMASS">     -3.00000000</i>
   <i name="SCALEE">      1.00000000</i>
  </separator>
  <separator name="ionic md" >
   <i name="TEBEG">      0.00010000</i>
   <i name="TEEND">      0.00010000</i>
   <i type="int" name="NBLOCK">     1</i>
   <i type="int" name="KBLOCK">   100</i>
   <i type="int" name="NPACO">   256</i>
   <i name="APACO">     16.00000000</i>
  </separator>
  <separator name="symmetry" >
   <i type="int" name="ISYM">     0</i>
   <i name="SYMPREC">      0.00000001</i>
  </separator>
  <separator name="dos" >
   <i type="logical" name="LORBIT"> F  </i>
   <v name="RWIGS">     -1.00000000     -1.00000000     -1.00000000     -1.00000000</v>
   <i type="int" name="NEDOS">   301</i>
   <i name="EMIN">     10.00000000</i>
   <i name="EMAX">    -10.00000000</i>
   <i name="EFERMI">      0.00000000</i>
  </separator>
  <separator name="writing" >
   <i type="int" name="NWRITE">     2</i>
   <i type="logical" name="LWAVE"> F  </i>
   <i type="logical" name="LCHARG"> F  </i>
   <i type="logical" name="LPARD"> F  </i>
   <i type="logical" name="LVTOT"> F  </i>
   <i type="logical" name="LVHAR"> F  </i>
   <i type="logical" name="LELF"> F  </i>
   <i type="logical" name="LOPTICS"> F  </i>
   <v name="STM">      0.00000000      0.00000000      0.00000000      0.00000000      0.00000000      0.00000000      0.00000000</v>
  </separator>
  <separator name="performance" >
   <i type="int" name="NPAR">    40</i>
   <i type="int" name="NSIM">     4</i>
   <i type="int" name="NBLK">    -1</i>
   <i type="logical" name="LPLANE"> F  </i>
   <i type="logical" name="LSCALAPACK"> T  </i>
   <i type="logical" name="LSCAAWARE"> F  </i>
   <i type="logical" name="LSCALU"> F  </i>
   <i type="logical" name="LASYNC"> F  </i>
   <i type="logical" name="LORBITALREAL"> F  </i>
  </separator>
  <separator name="miscellaneous" >
   <i type="int" name="IDIOT">     3</i>
   <i type="logical" name="LMUSIC"> F  </i>
   <v name="POMASS">     50.94100000     95.94000000    183.85000000     32.06600000</v>
   <v name="DARWINR">      0.00000000      0.00000000      0.00000000      0.00000000</v>
   <v name="DARWINV">      1.00000000      1.00000000      1.00000000      1.00000000</v>
   <i type="logical" name="LCORR"> T  </i>
  </separator>
  <i type="logical" name="GGA_COMPAT"> T  </i>
  <i type="logical" name="LBERRY"> F  </i>
  <i type="int" name="ICORELEVEL">     0</i>
  <i type="logical" name="LDAU"> F  </i>
  <i type="int" name="I_CONSTRAINED_M">     0</i>
  <separator name="electronic exchange-correlation" >
   <i type="string" name="GGA">--</i>
   <i type="int" name="VOSKOWN">     0</i>
   <i type="logical" name="LHFCALC"> F  </i>
   <i type="string" name="PRECFOCK"></i>
   <i type="logical" name="LSYMGRAD"> F  </i>
   <i type="logical" name="LHFONE"> F  </i>
   <i type="logical" name="LRHFCALC"> F  </i>
   <i type="logical" name="LTHOMAS"> F  </i>
   <i type="logical" name="LMODELHF"> F  </i>
   <i name="ENCUT4O">     -1.00000000</i>
   <i type="int" name="EXXOEP">     0</i>
   <i type="int" name="FOURORBIT">     0</i>
   <i name="AEXX">      0.00000000</i>
   <i name="HFALPHA">      0.00000000</i>
   <i name="MCALPHA">      0.00000000</i>
   <i name="ALDAX">      1.00000000</i>
   <i name="AGGAX">      1.00000000</i>
   <i name="ALDAC">      1.00000000</i>
   <i name="AGGAC">      1.00000000</i>
   <i type="int" name="NKREDX">     1</i>
   <i type="int" name="NKREDY">     1</i>
   <i type="int" name="NKREDZ">     1</i>
   <i type="logical" name="SHIFTRED"> F  </i>
   <i type="logical" name="ODDONLY"> F  </i>
   <i type="logical" name="EVENONLY"> F  </i>
   <i type="int" name="LMAXFOCK">     0</i>
   <i type="int" name="NMAXFOCKAE">     0</i>
   <i type="logical" name="LFOCKAEDFT"> F  </i>
   <i name="HFSCREEN">      0.00000000</i>
   <i name="HFSCREENC">      0.00000000</i>
   <i type="int" name="NBANDSGWLOW">     0</i>
  </separator>
  <separator name="vdW DFT" >
   <i type="logical" name="LUSE_VDW"> F  </i>
   <i name="Zab_VDW">     -0.84910000</i>
   <i name="PARAM1">      0.12340000</i>
   <i name="PARAM2">      1.00000000</i>
   <i name="PARAM3">      0.00000000</i>
  </separator>
  <separator name="model GW" >
   <i type="int" name="MODEL_GW">     0</i>
   <i name="MODEL_EPS0">     58.26239943</i>
   <i name="MODEL_ALPHA">      1.00000000</i>
  </separator>
  <separator name="linear response parameters" >
   <i type="logical" name="LEPSILON"> F  </i>
   <i type="logical" name="LRPA"> F  </i>
   <i type="logical" name="LNABLA"> F  </i>
   <i type="logical" name="LVEL"> F  </i>
   <i type="int" name="KINTER">     0</i>
   <i name="CSHIFT">      0.10000000</i>
   <i name="OMEGAMAX">     -1.00000000</i>
   <i name="DEG_THRESHOLD">      0.00200000</i>
  </separator>
  <separator name="orbital magnetization" >
   <i type="logical" name="NUCIND"> F  </i>
   <v name="MAGPOS">      0.00000000      0.00000000      0.00000000</v>
   <i type="logical" name="LNICSALL"> T  </i>
   <i type="logical" name="ORBITALMAG"> F  </i>
   <i type="logical" name="LMAGBLOCH"> F  </i>
   <i type="logical" name="LCHIMAG"> F  </i>
   <i type="logical" name="LGAUGE"> T  </i>
   <i type="int" name="MAGATOM">     0</i>
   <v name="MAGDIPOL">      0.00000000      0.00000000      0.00000000</v>
   <v name="AVECCONST">      0.00000000      0.00000000      0.00000000</v>
  </separator>
  <separator name="response functions" >
   <i type="logical" name="LADDER"> F  </i>
   <i type="logical" name="LFXC"> F  </i>
   <i type="logical" name="LHARTREE"> T  </i>
   <i type="int" name="IBSE">     0</i>
   <v type="int" name="KPOINT">    -1     0     0     0</v>
   <i type="logical" name="LTCTE"> F  </i>
   <i type="logical" name="LTETE"> F  </i>
   <i type="logical" name="LTRIPLET"> F  </i>
   <i type="logical" name="LFXCEPS"> F  </i>
   <i type="logical" name="LFXHEG"> F  </i>
   <i type="int" name="NATURALO">     0</i>
   <i type="logical" name="L2ORDER"> F  </i>
   <i type="logical" name="LUSEW"> F  </i>
   <i name="ENCUTGW">     -2.00000000</i>
   <i name="ENCUTGWSOFT">     -2.00000000</i>
   <i name="ENCUTLF">     -1.00000000</i>
   <i type="int" name="LMAXMP2">    -1</i>
   <i name="SCISSOR">      0.00000000</i>
   <i type="int" name="NOMEGA">     0</i>
   <i type="int" name="NOMEGAR">     0</i>
   <i type="int" name="NBANDSGW">    -1</i>
   <i type="int" name="NBANDSO">    -1</i>
   <i type="int" name="NBANDSV">    -1</i>
   <i type="int" name="NELM">     1</i>
   <i type="int" name="NELMHF">     1</i>
   <i type="int" name="DIM">     3</i>
   <i type="int" name="ANTIRES">     0</i>
   <i name="OMEGAMAX">    -30.00000000</i>
   <i name="OMEGAMIN">    -30.00000000</i>
   <i name="OMEGATL">   -200.00000000</i>
   <i type="int" name="OMEGAGRID">     0</i>
   <i name="CSHIFT">     -0.10000000</i>
   <i type="logical" name="SELFENERGY"> F  </i>
   <i type="logical" name="LSPECTRAL"> F  </i>
   <i type="logical" name="LSPECTRALGW"> F  </i>
   <i type="logical" name="LSINGLES"> F  </i>
   <i type="logical" name="LFERMIGW"> F  </i>
   <i type="logical" name="ODDONLYGW"> F  </i>
   <i type="logical" name="EVENONLYGW"> F  </i>
   <i type="int" name="NKREDLFX">     1</i>
   <i type="int" name="NKREDLFY">     1</i>
   <i type="int" name="NKREDLFZ">     1</i>
   <i type="int" name="MAXMEM">  1800</i>
   <i type="int" name="TELESCOPE">     0</i>
   <i type="int" name="TAUPAR">     1</i>
   <i type="int" name="OMEGAPAR">    -1</i>
   <i name="LAMBDA">      1.00000000</i>
  </separator>
  <separator name="External order field" >
   <i name="OFIELD_KAPPA">      0.00000000</i>
   <v name="OFIELD_K">      0.00000000      0.00000000      0.00000000</v>
   <i name="OFIELD_Q6_NEAR">      0.00000000</i>
   <i name="OFIELD_Q6_FAR">      0.00000000</i>
   <i name="OFIELD_A">      0.00000000</i>
  </separator>
 </parameters>
 <atominfo>
  <atoms>      27 </atoms>
  <types>       4 </types>
  <array name="atoms" >
   <dimension dim="1">ion</dimension>
   <field type="string">element</field>
   <field type="int">atomtype</field>
   <set>
    <rc><c>V </c><c>   1</c></rc>
    <rc><c>V </c><c>   1</c></rc>
    <rc><c>V </c><c>   1</c></rc>
    <rc><c>Mo</c><c>   2</c></rc>
    <rc><c>Mo</c><c>   2</c></rc>
    <rc><c>Mo</c><c>   2</c></rc>
    <rc><c>W </c><c>   3</c></rc>
    <rc><c>W </c><c>   3</c></rc>
    <rc><c>W </c><c>   3</c></rc>
    <rc><c>S </c><c>   4</c></rc>
    <rc><c>S </c><c>   4</c></rc>
    <rc><c>S </c><c>   4</c></rc>
    <rc><c>S </c><c>   4</c></rc>
    <rc><c>S </c><c>   4</c></rc>
    <rc><c>S </c><c>   4</c></rc>
    <rc><c>S </c><c>   4</c></rc>
    <rc><c>S </c><c>   4</c></rc>
    <rc><c>S </c><c>   4</c></rc>
    <rc><c>S </c><c>   4</c></rc>
    <rc><c>S </c><c>   4</c></rc>
    <rc><c>S </c><c>   4</c></rc>
    <rc><c>S </c><c>   4</c></rc>
    <rc><c>S </c><c>   4</c></rc>
    <rc><c>S </c><c>   4</c></rc>
    <rc><c>S </c><c>   4</c></rc>
    <rc><c>S </c><c>   4</c></rc>
    <rc><c>S </c><c>   4</c></rc>
   </set>
  </array>
  <array name="atomtypes" >
   <dimension dim="1">type</dimension>
   <field type="int">atomspertype</field>
   <field type="string">element</field>
   <field>mass</field>
   <field>valence</field>
   <field type="string">pseudopotential</field>
   <set>
    <rc><c>   3</c><c>V </c><c>     50.94100000</c><c>      5.00000000</c><c> PAW_PBE V 08Apr2002                    </c></rc>
    <rc><c>   3</c><c>Mo</c><c>     95.94000000</c><c>      6.00000000</c><c> PAW_PBE Mo 08Apr2002                   </c></rc>
    <rc><c>   3</c><c>W </c><c>    183.85000000</c><c>      6.00000000</c><c> PAW_PBE W 08Apr2002                    </c></rc>
    <rc><c>  18</c><c>S </c><c>     32.06600000</c><c>      6.00000000</c><c>  PAW_PBE S 17Jan2003                   </c></rc>
   </set>
  </array>
 </atominfo>
 <structure name="initialpos" >
  <crystal>
   <varray name="basis" >
    <v>       8.66999996       5.03999989       0.00000000 </v>
    <v>      -8.66999982       5.04000013       0.00000000 </v>
    <v>       0.00000000       0.00000000      30.00000000 </v>
   </varray>
   <i name="volume">   2621.80797419 </i>
   <varray name="rec_basis" >
    <v>       0.05767013       0.09920635       0.00000000 </v>
    <v>      -0.05767013       0.09920635       0.00000000 </v>
    <v>       0.00000000       0.00000000       0.03333333 </v>
   </varray>
  </crystal>
  <varray name="positions" >
   <v>       0.33333334       0.00000000       0.00000000 </v>
   <v>       0.66666669       0.33333334       0.00000000 </v>
   <v>       1.00000000       0.33333334       0.00000000 </v>
   <v>       0.66666669       0.00000000       0.00000000 </v>
   <v>       0.00000000       0.66666669       0.00000000 </v>
   <v>       0.66666669       0.66666669       0.00000000 </v>
   <v>       0.00000000       0.00000000       0.00000000 </v>
   <v>       0.33333334       0.33333334       0.00000000 </v>
   <v>       0.33333334       0.66666669       0.00000000 </v>
   <v>       0.11068511       0.22244981       0.95539999 </v>
   <v>       0.22244981       0.11068511       0.04460000 </v>
   <v>       0.11068511       0.55578315       0.95539999 </v>
   <v>       0.22244981       0.44401845       0.04460000 </v>
   <v>       0.11068511       0.88911647       0.95539999 </v>
   <v>       0.22244981       0.77735180       0.04460000 </v>
   <v>       0.44401845       0.22244981       0.95539999 </v>
   <v>       0.55578315       0.11068511       0.04460000 </v>
   <v>       0.44401845       0.55578315       0.95539999 </v>
   <v>       0.55578315       0.44401845       0.04460000 </v>
   <v>       0.44401845       0.88911647       0.95539999 </v>
   <v>       0.55578315       0.77735180       0.04460000 </v>
   <v>       0.77735180       0.22244981       0.95539999 </v>
   <v>       0.88911647       0.11068511       0.04460000 </v>
   <v>       0.77735180       0.55578315       0.95539999 </v>
   <v>       0.88911647       0.44401845       0.04460000 </v>
   <v>       0.77735180       0.88911647       0.95539999 </v>
   <v>       0.88911647       0.77735180       0.04460000 </v>
  </varray>
 </structure>
 <calculation>
  <scstep>
   <time name="dav">   22.72   22.78</time>
   <time name="total">   22.76   22.83</time>
   <energy>
    <i name="alphaZ">     81.65567618 </i>
    <i name="ewald">  41890.23011115 </i>
    <i name="hartreedc"> -47722.86570037 </i>
    <i name="XCdc">   -242.92872164 </i>
    <i name="pawpsdc">   3467.42045192 </i>
    <i name="pawaedc">  -2871.19716117 </i>
    <i name="eentropy">     -0.54002130 </i>
    <i name="bandstr">   -239.10360834 </i>
    <i name="atom">   6761.44252427 </i>
    <i name="e_fr_energy">   1124.11355069 </i>
    <i name="e_wo_entrp">   1124.65357200 </i>
    <i name="e_0_energy">   1124.38356135 </i>
   </energy>
  </scstep>
  <scstep>
   <time name="dav">   28.63   28.70</time>
   <time name="total">   28.64   28.71</time>
   <energy>
    <i name="e_fr_energy">      1.64234586 </i>
    <i name="e_wo_entrp">      1.80078299 </i>
    <i name="e_0_energy">      1.72156442 </i>
   </energy>
  </scstep>
  <scstep>
   <time name="dav">   28.91   28.98</time>
   <time name="total">   28.92   28.99</time>
   <energy>
    <i name="e_fr_energy">   -199.34761023 </i>
    <i name="e_wo_entrp">   -199.07594974 </i>
    <i name="e_0_energy">   -199.21177999 </i>
   </energy>
  </scstep>
  <scstep>
   <time name="dav">   30.94   31.02</time>
   <time name="total">   30.95   31.03</time>
   <energy>
    <i name="e_fr_energy">   -208.92686818 </i>
    <i name="e_wo_entrp">   -208.60973139 </i>
    <i name="e_0_energy">   -208.76829979 </i>
   </energy>
  </scstep>
  <scstep>
   <time name="dav">   30.46   30.53</time>
   <time name="total">   30.92   31.00</time>
   <energy>
    <i name="e_fr_energy">   -209.28772603 </i>
    <i name="e_wo_entrp">   -208.97354280 </i>
    <i name="e_0_energy">   -209.13063442 </i>
   </energy>
  </scstep>
  <scstep>
   <time name="dav">   33.03   33.11</time>
   <time name="total">   33.53   33.61</time>
   <energy>
    <i name="e_fr_energy">   -236.80266411 </i>
    <i name="e_wo_entrp">   -236.51532373 </i>
    <i name="e_0_energy">   -236.65899392 </i>
   </energy>
  </scstep>
  <scstep>
   <time name="dav">   33.83   33.91</time>
   <time name="total">   34.33   34.42</time>
   <energy>
    <i name="e_fr_energy">   -196.66589222 </i>
    <i name="e_wo_entrp">   -196.34395410 </i>
    <i name="e_0_energy">   -196.50492316 </i>
   </energy>
  </scstep>
  <scstep>
   <time name="dav">   30.60   30.67</time>
   <time name="total">   31.19   31.27</time>
   <energy>
    <i name="e_fr_energy">   -190.02937328 </i>
    <i name="e_wo_entrp">   -189.75546912 </i>
    <i name="e_0_energy">   -189.89242120 </i>
   </energy>
  </scstep>
  <scstep>
   <time name="dav">   30.37   30.44</time>
   <time name="total">   30.98   31.06</time>
   <energy>
    <i name="e_fr_energy">   -188.23953592 </i>
    <i name="e_wo_entrp">   -187.90103934 </i>
    <i name="e_0_energy">   -188.07028763 </i>
   </energy>
  </scstep>
  <scstep>
   <time name="dav">   34.04   34.12</time>
   <time name="total">   34.65   34.74</time>
   <energy>
    <i name="e_fr_energy">   -187.05651985 </i>
    <i name="e_wo_entrp">   -186.71277010 </i>
    <i name="e_0_energy">   -186.88464497 </i>
   </energy>
  </scstep>
  <scstep>
   <time name="dav">   32.33   32.41</time>
   <time name="total">   32.95   33.03</time>
   <energy>
    <i name="e_fr_energy">   -186.99918712 </i>
    <i name="e_wo_entrp">   -186.64777553 </i>
    <i name="e_0_energy">   -186.82348132 </i>
   </energy>
  </scstep>
  <scstep>
   <time name="dav">   32.02   32.09</time>
   <time name="total">   32.63   32.71</time>
   <energy>
    <i name="e_fr_energy">   -187.08486161 </i>
    <i name="e_wo_entrp">   -186.75098318 </i>
    <i name="e_0_energy">   -186.91792239 </i>
   </energy>
  </scstep>
  <scstep>
   <time name="dav">   33.15   33.23</time>
   <time name="total">   33.77   33.85</time>
   <energy>
    <i name="e_fr_energy">   -186.90899188 </i>
    <i name="e_wo_entrp">   -186.57080815 </i>
    <i name="e_0_energy">   -186.73990001 </i>
   </energy>
  </scstep>
  <scstep>
   <time name="dav">   33.28   33.35</time>
   <time name="total">   33.89   33.98</time>
   <energy>
    <i name="e_fr_energy">   -186.89804352 </i>
    <i name="e_wo_entrp">   -186.55406233 </i>
    <i name="e_0_energy">   -186.72605292 </i>
   </energy>
  </scstep>
  <scstep>
   <time name="dav">   32.91   32.99</time>
   <time name="total">   33.52   33.61</time>
   <energy>
    <i name="e_fr_energy">   -186.87232853 </i>
    <i name="e_wo_entrp">   -186.52558743 </i>
    <i name="e_0_energy">   -186.69895798 </i>
   </energy>
  </scstep>
  <scstep>
   <time name="dav">   32.32   32.40</time>
   <time name="total">   32.93   33.02</time>
   <energy>
    <i name="e_fr_energy">   -186.86784749 </i>
    <i name="e_wo_entrp">   -186.52212905 </i>
    <i name="e_0_energy">   -186.69498827 </i>
   </energy>
  </scstep>
  <scstep>
   <time name="dav">   32.91   32.99</time>
   <time name="total">   33.53   33.62</time>
   <energy>
    <i name="e_fr_energy">   -186.86608887 </i>
    <i name="e_wo_entrp">   -186.52189110 </i>
    <i name="e_0_energy">   -186.69398999 </i>
   </energy>
  </scstep>
  <scstep>
   <time name="dav">   30.34   30.41</time>
   <time name="total">   30.95   31.03</time>
   <energy>
    <i name="e_fr_energy">   -186.86542806 </i>
    <i name="e_wo_entrp">   -186.52107694 </i>
    <i name="e_0_energy">   -186.69325250 </i>
   </energy>
  </scstep>
  <scstep>
   <time name="dav">   26.87   26.93</time>
   <time name="total">   27.48   27.55</time>
   <energy>
    <i name="e_fr_energy">   -186.86530224 </i>
    <i name="e_wo_entrp">   -186.52071180 </i>
    <i name="e_0_energy">   -186.69300702 </i>
   </energy>
  </scstep>
  <scstep>
   <time name="dav">   24.97   25.03</time>
   <time name="total">   25.58   25.65</time>
   <energy>
    <i name="e_fr_energy">   -186.86614673 </i>
    <i name="e_wo_entrp">   -186.52174826 </i>
    <i name="e_0_energy">   -186.69394750 </i>
   </energy>
  </scstep>
  <scstep>
   <time name="dav">   23.37   23.43</time>
   <time name="total">   23.99   24.05</time>
   <energy>
    <i name="e_fr_energy">   -186.86682992 </i>
    <i name="e_wo_entrp">   -186.52250859 </i>
    <i name="e_0_energy">   -186.69466925 </i>
   </energy>
  </scstep>
  <scstep>
   <time name="dav">   21.07   21.12</time>
   <time name="total">   21.68   21.74</time>
   <energy>
    <i name="e_fr_energy">   -186.86785262 </i>
    <i name="e_wo_entrp">   -186.52339719 </i>
    <i name="e_0_energy">   -186.69562491 </i>
   </energy>
  </scstep>
  <scstep>
   <time name="dav">   21.27   21.32</time>
   <time name="total">   21.88   21.95</time>
   <energy>
    <i name="e_fr_energy">   -186.86901361 </i>
    <i name="e_wo_entrp">   -186.52468955 </i>
    <i name="e_0_energy">   -186.69685158 </i>
   </energy>
  </scstep>
  <scstep>
   <time name="dav">   20.03   20.07</time>
   <time name="total">   20.64   20.70</time>
   <energy>
    <i name="e_fr_energy">   -186.86958795 </i>
    <i name="e_wo_entrp">   -186.52521582 </i>
    <i name="e_0_energy">   -186.69740189 </i>
   </energy>
  </scstep>
  <scstep>
   <time name="dav">   17.07   17.11</time>
   <time name="total">   17.68   17.73</time>
   <energy>
    <i name="e_fr_energy">   -186.86995125 </i>
    <i name="e_wo_entrp">   -186.52555800 </i>
    <i name="e_0_energy">   -186.69775462 </i>
   </energy>
  </scstep>
  <scstep>
   <time name="dav">   20.01   20.06</time>
   <time name="total">   20.62   20.68</time>
   <energy>
    <i name="e_fr_energy">   -186.87019516 </i>
    <i name="e_wo_entrp">   -186.52581917 </i>
    <i name="e_0_energy">   -186.69800717 </i>
   </energy>
  </scstep>
  <scstep>
   <time name="dav">   21.11   21.16</time>
   <time name="total">   21.15   21.21</time>
   <energy>
    <i name="alphaZ">     81.65567618 </i>
    <i name="ewald">  41890.23011115 </i>
    <i name="hartreedc"> -47832.99249752 </i>
    <i name="XCdc">   -231.60402410 </i>
    <i name="pawpsdc">   4192.12463765 </i>
    <i name="pawaedc">  -3610.13961049 </i>
    <i name="eentropy">     -0.34438133 </i>
    <i name="bandstr">  -1437.24272065 </i>
    <i name="atom">   6761.44252427 </i>
    <i name="e_fr_energy">   -186.87028485 </i>
    <i name="e_wo_entrp">   -186.52590352 </i>
    <i name="e_0_energy">   -186.69809418 </i>
   </energy>
  </scstep>
  <structure>
   <crystal>
    <varray name="basis" >
     <v>       8.66999996       5.03999989       0.00000000 </v>
     <v>      -8.66999982       5.04000013       0.00000000 </v>
     <v>       0.00000000       0.00000000      30.00000000 </v>
    </varray>
    <i name="volume">   2621.80797419 </i>
    <varray name="rec_basis" >
     <v>       0.05767013       0.09920635       0.00000000 </v>
     <v>      -0.05767013       0.09920635       0.00000000 </v>
     <v>       0.00000000       0.00000000       0.03333333 </v>
    </varray>
   </crystal>
   <varray name="positions" >
    <v>       0.33333334       0.00000000       0.00000000 </v>
    <v>       0.66666669       0.33333334       0.00000000 </v>
    <v>       1.00000000       0.33333334       0.00000000 </v>
    <v>       0.66666669       0.00000000       0.00000000 </v>
    <v>       0.00000000       0.66666669       0.00000000 </v>
    <v>       0.66666669       0.66666669       0.00000000 </v>
    <v>       0.00000000       0.00000000       0.00000000 </v>
    <v>       0.33333334       0.33333334       0.00000000 </v>
    <v>       0.33333334       0.66666669       0.00000000 </v>
    <v>       0.11068511       0.22244981       0.95539999 </v>
    <v>       0.22244981       0.11068511       0.04460000 </v>
    <v>       0.11068511       0.55578315       0.95539999 </v>
    <v>       0.22244981       0.44401845       0.04460000 </v>
    <v>       0.11068511       0.88911647       0.95539999 </v>
    <v>       0.22244981       0.77735180       0.04460000 </v>
    <v>       0.44401845       0.22244981       0.95539999 </v>
    <v>       0.55578315       0.11068511       0.04460000 </v>
    <v>       0.44401845       0.55578315       0.95539999 </v>
    <v>       0.55578315       0.44401845       0.04460000 </v>
    <v>       0.44401845       0.88911647       0.95539999 </v>
    <v>       0.55578315       0.77735180       0.04460000 </v>
    <v>       0.77735180       0.22244981       0.95539999 </v>
    <v>       0.88911647       0.11068511       0.04460000 </v>
    <v>       0.77735180       0.55578315       0.95539999 </v>
    <v>       0.88911647       0.44401845       0.04460000 </v>
    <v>       0.77735180       0.88911647       0.95539999 </v>
    <v>       0.88911647       0.77735180       0.04460000 </v>
   </varray>
  </structure>
  <varray name="forces" >
   <v>       0.22485789      -0.02489621      -0.06404742 </v>
   <v>       0.08436807       0.19468586       0.01359830 </v>
   <v>      -0.28550264      -0.15118559       0.08097830 </v>
   <v>       0.16805015      -0.11267863       0.04984545 </v>
   <v>      -0.26062508      -0.18681140      -0.02534050 </v>
   <v>       0.01803497       0.28450606      -0.02626432 </v>
   <v>       0.00751899      -0.61703248      -0.12862152 </v>
   <v>       0.09145695       0.30617978      -0.02825472 </v>
   <v>      -0.05841052       0.28776581       0.10968165 </v>
   <v>      -0.58177806      -0.00251535      -2.07064543 </v>
   <v>       0.59230338       0.01388040       2.06496324 </v>
   <v>       0.60904107      -0.55266753      -2.10357063 </v>
   <v>      -0.48218129      -0.58474805       2.19507640 </v>
   <v>       0.35740392       0.73052586      -2.17704682 </v>
   <v>      -0.34422907       0.68735177       2.14859524 </v>
   <v>       0.73683170      -0.02461823      -1.48307915 </v>
   <v>      -0.88921735      -0.00294455       1.43657422 </v>
   <v>       0.08131599      -0.11666413      -2.89125057 </v>
   <v>       0.65060047      -0.14542483       2.11336014 </v>
   <v>      -0.69427705      -0.13876517      -2.14825790 </v>
   <v>      -0.20220626      -0.17737379       2.89554347 </v>
   <v>      -0.32352213       0.66677514      -1.42371366 </v>
   <v>      -0.39208891       0.72874216       2.16385509 </v>
   <v>       0.52393003      -0.69273717      -2.14794422 </v>
   <v>       0.34381096      -0.67196773       1.44733783 </v>
   <v>       0.21946830       0.16949963      -2.93652815 </v>
   <v>      -0.19495448       0.13311835       2.93515570 </v>
  </varray>
  <varray name="stress" >
   <v>       7.29403708      -0.09681899      -1.50678617 </v>
   <v>      -0.09681872       4.46906176      -0.04750174 </v>
   <v>      -1.50678616      -0.04750164      30.29949899 </v>
  </varray>
  <energy>
   <i name="e_fr_energy">   -186.87028485 </i>
   <i name="e_wo_entrp">   -186.69809418 </i>
   <i name="e_0_energy">     -0.34438133 </i>
  </energy>
  <time name="totalsc">  815.75  817.93</time>
 </calculation>
 <calculation>
  <scstep>
   <time name="dav">   22.68   22.74</time>
   <time name="total">   23.31   23.37</time>
   <energy>
    <i name="alphaZ">     78.91935734 </i>
    <i name="ewald">  39378.96909463 </i>
    <i name="hartreedc"> -45336.45228260 </i>
    <i name="XCdc">   -239.06232319 </i>
    <i name="pawpsdc">   4192.10657435 </i>
    <i name="pawaedc">  -3610.12167912 </i>
    <i name="eentropy">     -0.28525781 </i>
    <i name="bandstr">  -1413.02178631 </i>
    <i name="atom">   6761.44252427 </i>
    <i name="e_fr_energy">   -187.50577843 </i>
    <i name="e_wo_entrp">   -187.22052062 </i>
    <i name="e_0_energy">   -187.36314952 </i>
   </energy>
  </scstep>
  <scstep>
   <time name="dav">   31.75   31.83</time>
   <time name="total">   32.37   32.46</time>
   <energy>
    <i name="e_fr_energy">   -189.49819373 </i>
    <i name="e_wo_entrp">   -189.16449354 </i>
    <i name="e_0_energy">   -189.33134363 </i>
   </energy>
  </scstep>
  <scstep>
   <time name="dav">   31.79   31.87</time>
   <time name="total">   32.42   32.50</time>
   <energy>
    <i name="e_fr_energy">   -189.35550669 </i>
    <i name="e_wo_entrp">   -189.07636159 </i>
    <i name="e_0_energy">   -189.21593414 </i>
   </energy>
  </scstep>
  <scstep>
   <time name="dav">   31.97   32.05</time>
   <time name="total">   32.59   32.68</time>
   <energy>
    <i name="e_fr_energy">   -188.79479323 </i>
    <i name="e_wo_entrp">   -188.50974948 </i>
    <i name="e_0_energy">   -188.65227136 </i>
   </energy>
  </scstep>
  <scstep>
   <time name="dav">   29.85   29.92</time>
   <time name="total">   30.47   30.55</time>
   <energy>
    <i name="e_fr_energy">   -188.86819575 </i>
    <i name="e_wo_entrp">   -188.57798547 </i>
    <i name="e_0_energy">   -188.72309061 </i>
   </energy>
  </scstep>
  <scstep>
   <time name="dav">   32.28   32.36</time>
   <time name="total">   32.90   32.99</time>
   <energy>
    <i name="e_fr_energy">   -188.78274128 </i>
    <i name="e_wo_entrp">   -188.49514423 </i>
    <i name="e_0_energy">   -188.63894276 </i>
   </energy>
  </scstep>
  <scstep>
   <time name="dav">   30.11   30.18</time>
   <time name="total">   30.73   30.82</time>
   <energy>
    <i name="e_fr_energy">   -188.70001241 </i>
    <i name="e_wo_entrp">   -188.41492047 </i>
    <i name="e_0_energy">   -188.55746644 </i>
   </energy>
  </scstep>
  <scstep>
   <time name="dav">   30.14   30.21</time>
   <time name="total">   30.77   30.85</time>
   <energy>
    <i name="e_fr_energy">   -188.68308939 </i>
    <i name="e_wo_entrp">   -188.39940967 </i>
    <i name="e_0_energy">   -188.54124953 </i>
   </energy>
  </scstep>
  <scstep>
   <time name="dav">   30.07   30.14</time>
   <time name="total">   30.69   30.77</time>
   <energy>
    <i name="e_fr_energy">   -188.68022790 </i>
    <i name="e_wo_entrp">   -188.39652255 </i>
    <i name="e_0_energy">   -188.53837522 </i>
   </energy>
  </scstep>
  <scstep>
   <time name="dav">   30.58   30.65</time>
   <time name="total">   31.20   31.29</time>
   <energy>
    <i name="e_fr_energy">   -188.67598409 </i>
    <i name="e_wo_entrp">   -188.39236965 </i>
    <i name="e_0_energy">   -188.53417687 </i>
   </energy>
  </scstep>
  <scstep>
   <time name="dav">   33.46   33.55</time>
   <time name="total">   34.09   34.18</time>
   <energy>
    <i name="e_fr_energy">   -188.67535444 </i>
    <i name="e_wo_entrp">   -188.39237993 </i>
    <i name="e_0_energy">   -188.53386718 </i>
   </energy>
  </scstep>
  <scstep>
   <time name="dav">   31.28   31.35</time>
   <time name="total">   31.91   31.99</time>
   <energy>
    <i name="e_fr_energy">   -188.67519243 </i>
    <i name="e_wo_entrp">   -188.39259689 </i>
    <i name="e_0_energy">   -188.53389466 </i>
   </energy>
  </scstep>
  <scstep>
   <time name="dav">   21.97   22.02</time>
   <time name="total">   22.01   22.07</time>
   <energy>
    <i name="alphaZ">     78.91935734 </i>
    <i name="ewald">  39378.96909463 </i>
    <i name="hartreedc"> -45347.21346016 </i>
    <i name="XCdc">   -237.97582113 </i>
    <i name="pawpsdc">   3950.41334728 </i>
    <i name="pawaedc">  -3364.92514686 </i>
    <i name="eentropy">     -0.28278799 </i>
    <i name="bandstr">  -1408.02233270 </i>
    <i name="atom">   6761.44252427 </i>
    <i name="e_fr_energy">   -188.67522531 </i>
    <i name="e_wo_entrp">   -188.39243732 </i>
    <i name="e_0_energy">   -188.53383132 </i>
   </energy>
  </scstep>
  <structure>
   <crystal>
    <varray name="basis" >
     <v>       8.85347656       5.10340294       0.00000000 </v>
     <v>      -8.85632991       5.10831190       0.00000000 </v>
     <v>       0.00000000       0.00000000      30.00000000 </v>
    </varray>
    <i name="volume">   2712.71219307 </i>
    <varray name="rec_basis" >
     <v>       0.05649304       0.09794253       0.00000000 </v>
     <v>      -0.05643875       0.09791098       0.00000000 </v>
     <v>       0.00000000       0.00000000       0.03333333 </v>
    </varray>
   </crystal>
   <varray name="positions" >
    <v>       0.33383978      -0.00074474      -0.00010299 </v>
    <v>       0.66783317       0.33403038       0.00002187 </v>
    <v>       0.99848212       0.33340409       0.00013022 </v>
    <v>       0.66659495      -0.00100682       0.00008016 </v>
    <v>      -0.00161918       0.66649771      -0.00004075 </v>
    <v>       0.66807850       0.66797815      -0.00004224 </v>
    <v>      -0.00293218      -0.00297402      -0.00020683 </v>
    <v>       0.33505316       0.33454426      -0.00004544 </v>
    <v>       0.33454808       0.66820643       0.00017638 </v>
    <v>       0.10905447       0.22405637       0.95207021 </v>
    <v>       0.22416412       0.10910366       0.04792064 </v>
    <v>       0.10973451       0.55144365       0.95201726 </v>
    <v>       0.21830971       0.44256137       0.04812988 </v>
    <v>       0.11517575       0.89161839       0.95189911 </v>
    <v>       0.22478176       0.78159915       0.04805513 </v>
    <v>       0.44595061       0.22028200       0.95301507 </v>
    <v>       0.55329512       0.11314496       0.04691014 </v>
    <v>       0.44368634       0.55499857       0.95075060 </v>
    <v>       0.55689723       0.44151238       0.04799847 </v>
    <v>       0.44142274       0.89038393       0.95194540 </v>
    <v>       0.55437168       0.77706546       0.04925629 </v>
    <v>       0.77964288       0.22654107       0.95311053 </v>
    <v>       0.89151336       0.11526371       0.04807967 </v>
    <v>       0.77549403       0.55101007       0.95194591 </v>
    <v>       0.88685698       0.43984589       0.04692745 </v>
    <v>       0.77877361       0.88931709       0.95067779 </v>
    <v>       0.88921117       0.77853129       0.04931999 </v>
   </varray>
  </structure>
  <varray name="forces" >
   <v>       0.19353648      -0.05809917       0.07265094 </v>
   <v>       0.02707378       0.16106164       0.00134998 </v>
   <v>      -0.18616526      -0.07190834      -0.05158455 </v>
   <v>       0.41353165      -0.24405251       0.08129334 </v>
   <v>      -0.39117029      -0.07041047      -0.08483319 </v>
   <v>      -0.11018148       0.39972420      -0.00969289 </v>
   <v>       0.02222703      -0.72902499      -0.03357919 </v>
   <v>      -0.07108474       0.34914811       0.01199182 </v>
   <v>       0.10948887       0.26315026       0.04021503 </v>
   <v>       0.09473355      -0.00178136       0.23121160 </v>
   <v>      -0.09936270       0.00322206      -0.27114701 </v>
   <v>       0.07905205       0.05532160       0.16571153 </v>
   <v>       0.04490974       0.06277489      -0.10640607 </v>
   <v>      -0.11867933       0.05748558      -0.00448730 </v>
   <v>       0.10244752       0.05107364      -0.05489725 </v>
   <v>      -0.09461420       0.00748185       0.12623516 </v>
   <v>      -0.03146493       0.00829693      -0.16163191 </v>
   <v>      -0.06996647      -0.08389935      -0.00062215 </v>
   <v>      -0.01849275      -0.10258224      -0.01359536 </v>
   <v>       0.00885652      -0.09755904      -0.07553644 </v>
   <v>      -0.04077664      -0.12060315       0.17573657 </v>
   <v>      -0.01637170       0.02757600       0.08823631 </v>
   <v>       0.11744456       0.05873965      -0.03345391 </v>
   <v>       0.04043055      -0.07883508      -0.07285651 </v>
   <v>      -0.00583435      -0.05591913       0.03174701 </v>
   <v>       0.06334572       0.10633330      -0.27856053 </v>
   <v>      -0.06291318       0.10328513       0.22650499 </v>
  </varray>
  <varray name="stress" >
   <v>     -19.90475574       0.01818575       0.01131909 </v>
   <v>       0.01818574     -19.50033357       0.02036445 </v>
   <v>       0.01131910       0.02036439      -1.74821154 </v>
  </varray>
  <energy>
   <i name="e_fr_energy">   -188.67522531 </i>
   <i name="e_wo_entrp">   -188.53383132 </i>
   <i name="e_0_energy">     -0.28278799 </i>
  </energy>
  <time name="totalsc">  439.43  440.59</time>
 </calculation>
 <calculation>
  <scstep>
   <time name="dav">   24.79   24.85</time>
   <time name="total">   25.40   25.47</time>
   <energy>
    <i name="alphaZ">     82.33972932 </i>
    <i name="ewald">  41300.33916234 </i>
    <i name="hartreedc"> -47299.13166638 </i>
    <i name="XCdc">   -233.85602509 </i>
    <i name="pawpsdc">   3949.96355521 </i>
    <i name="pawaedc">  -3364.47087532 </i>
    <i name="eentropy">     -0.23718413 </i>
    <i name="bandstr">  -1386.98380817 </i>
    <i name="atom">   6761.44252427 </i>
    <i name="e_fr_energy">   -190.59458795 </i>
    <i name="e_wo_entrp">   -190.35740382 </i>
    <i name="e_0_energy">   -190.47599588 </i>
   </energy>
  </scstep>
  <scstep>
   <time name="dav">   29.19   29.26</time>
   <time name="total">   29.80   29.88</time>
   <energy>
    <i name="e_fr_energy">   -190.55951708 </i>
    <i name="e_wo_entrp">   -190.31603451 </i>
    <i name="e_0_energy">   -190.43777579 </i>
   </energy>
  </scstep>
  <scstep>
   <time name="dav">   31.70   31.77</time>
   <time name="total">   32.31   32.39</time>
   <energy>
    <i name="e_fr_energy">   -190.07911975 </i>
    <i name="e_wo_entrp">   -189.82833521 </i>
    <i name="e_0_energy">   -189.95372748 </i>
   </energy>
  </scstep>
  <scstep>
   <time name="dav">   32.56   32.63</time>
   <time name="total">   33.17   33.25</time>
   <energy>
    <i name="e_fr_energy">   -189.87514448 </i>
    <i name="e_wo_entrp">   -189.63591815 </i>
    <i name="e_0_energy">   -189.75553131 </i>
   </energy>
  </scstep>
  <scstep>
   <time name="dav">   31.49   31.56</time>
   <time name="total">   32.10   32.18</time>
   <energy>
    <i name="e_fr_energy">   -189.91458319 </i>
    <i name="e_wo_entrp">   -189.66794194 </i>
    <i name="e_0_energy">   -189.79126256 </i>
   </energy>
  </scstep>
  <scstep>
   <time name="dav">   31.63   31.70</time>
   <time name="total">   32.24   32.32</time>
   <energy>
    <i name="e_fr_energy">   -189.77095681 </i>
    <i name="e_wo_entrp">   -189.53075093 </i>
    <i name="e_0_energy">   -189.65085387 </i>
   </energy>
  </scstep>
  <scstep>
   <time name="dav">   31.61   31.68</time>
   <time name="total">   32.22   32.31</time>
   <energy>
    <i name="e_fr_energy">   -189.76442060 </i>
    <i name="e_wo_entrp">   -189.52412948 </i>
    <i name="e_0_energy">   -189.64427504 </i>
   </energy>
  </scstep>
  <scstep>
   <time name="dav">   30.53   30.60</time>
   <time name="total">   31.14   31.22</time>
   <energy>
    <i name="e_fr_energy">   -189.76511370 </i>
    <i name="e_wo_entrp">   -189.52486816 </i>
    <i name="e_0_energy">   -189.64499093 </i>
   </energy>
  </scstep>
  <scstep>
   <time name="dav">   27.41   27.48</time>
   <time name="total">   28.02   28.10</time>
   <energy>
    <i name="e_fr_energy">   -189.76448868 </i>
    <i name="e_wo_entrp">   -189.52425890 </i>
    <i name="e_0_energy">   -189.64437379 </i>
   </energy>
  </scstep>
  <scstep>
   <time name="dav">   26.56   26.63</time>
   <time name="total">   27.18   27.25</time>
   <energy>
    <i name="e_fr_energy">   -189.76463985 </i>
    <i name="e_wo_entrp">   -189.52427716 </i>
    <i name="e_0_energy">   -189.64445851 </i>
   </energy>
  </scstep>
  <scstep>
   <time name="dav">   24.02   24.08</time>
   <time name="total">   24.63   24.70</time>
   <energy>
    <i name="e_fr_energy">   -189.76445709 </i>
    <i name="e_wo_entrp">   -189.52412244 </i>
    <i name="e_0_energy">   -189.64428976 </i>
   </energy>
  </scstep>
  <scstep>
   <time name="dav">   21.38   21.43</time>
   <time name="total">   21.42   21.48</time>
   <energy>
    <i name="alphaZ">     82.33972932 </i>
    <i name="ewald">  41300.33916234 </i>
    <i name="hartreedc"> -47272.60688990 </i>
    <i name="XCdc">   -235.24663017 </i>
    <i name="pawpsdc">   4038.77012376 </i>
    <i name="pawaedc">  -3454.47621289 </i>
    <i name="eentropy">     -0.24031707 </i>
    <i name="bandstr">  -1410.08596693 </i>
    <i name="atom">   6761.44252427 </i>
    <i name="e_fr_energy">   -189.76447726 </i>
    <i name="e_wo_entrp">   -189.52416019 </i>
    <i name="e_0_energy">   -189.64431873 </i>
   </energy>
  </scstep>
  <structure>
   <crystal>
    <varray name="basis" >
     <v>       8.66583239       4.99755271       0.00000000 </v>
     <v>      -8.66842740       5.00201656       0.00000000 </v>
     <v>       0.00000000       0.00000000      30.00000000 </v>
    </varray>
    <i name="volume">   2600.02680014 </i>
    <varray name="rec_basis" >
     <v>       0.05771498       0.10001929       0.00000000 </v>
     <v>      -0.05766348       0.09998934       0.00000000 </v>
     <v>       0.00000000       0.00000000       0.03333333 </v>
    </varray>
   </crystal>
   <varray name="positions" >
    <v>       0.33392886      -0.00102695      -0.00006185 </v>
    <v>       0.66812715       0.33427233       0.00002263 </v>
    <v>       0.99818379       0.33346298       0.00010101 </v>
    <v>       0.66658575      -0.00180928       0.00012619 </v>
    <v>      -0.00211176       0.66675566      -0.00008879 </v>
    <v>       0.66863787       0.66874869      -0.00004772 </v>
    <v>      -0.00412390      -0.00420799      -0.00022585 </v>
    <v>       0.33556590       0.33519319      -0.00003865 </v>
    <v>       0.33509102       0.66853918       0.00019915 </v>
    <v>       0.10914243       0.22396257       0.95220114 </v>
    <v>       0.22407412       0.10920429       0.04776709 </v>
    <v>       0.10990243       0.55145987       0.95211110 </v>
    <v>       0.21845727       0.44262273       0.04806962 </v>
    <v>       0.11515749       0.89182781       0.95189657 </v>
    <v>       0.22496507       0.78158587       0.04802404 </v>
    <v>       0.44587226       0.22038517       0.95308655 </v>
    <v>       0.55327872       0.11318893       0.04681861 </v>
    <v>       0.44347958       0.55492609       0.95075025 </v>
    <v>       0.55670879       0.44135948       0.04799077 </v>
    <v>       0.44126891       0.89021316       0.95190263 </v>
    <v>       0.55413186       0.77690395       0.04935581 </v>
    <v>       0.77967305       0.22660264       0.95316050 </v>
    <v>       0.89172381       0.11524881       0.04806072 </v>
    <v>       0.77540166       0.55084017       0.95190465 </v>
    <v>       0.88675834       0.43975847       0.04694542 </v>
    <v>       0.77901134       0.88943323       0.95052005 </v>
    <v>       0.88932265       0.77876342       0.04944826 </v>
   </varray>
  </structure>
  <varray name="forces" >
   <v>       0.19664408      -0.08720064       0.08632478 </v>
   <v>      -0.00351931       0.15188952      -0.00199298 </v>
   <v>      -0.13986501      -0.03378646      -0.07282709 </v>
   <v>       0.48765263      -0.29210621       0.06280658 </v>
   <v>      -0.42271358      -0.03166197      -0.07704965 </v>
   <v>      -0.16454144       0.43086643      -0.00305259 </v>
   <v>       0.02256910      -0.74799859       0.00219037 </v>
   <v>      -0.12934777       0.34869615       0.02073448 </v>
   <v>       0.16481856       0.25350649       0.00585783 </v>
   <v>      -0.03845550      -0.01348059      -0.24574592 </v>
   <v>       0.02516119      -0.01235201       0.19771598 </v>
   <v>       0.07256881      -0.05788607      -0.30602261 </v>
   <v>      -0.04149465      -0.06022041       0.40910670 </v>
   <v>      -0.00390684       0.12438450      -0.51424574 </v>
   <v>      -0.02205930       0.09807385       0.43717255 </v>
   <v>       0.07389941       0.01223299      -0.33863404 </v>
   <v>      -0.09587983       0.01547152       0.27517446 </v>
   <v>      -0.03933407      -0.00066897      -0.56290805 </v>
   <v>       0.09674532      -0.00796644       0.48906231 </v>
   <v>      -0.09367097      -0.01990164      -0.57944433 </v>
   <v>       0.00947590      -0.05034148       0.74893204 </v>
   <v>      -0.04584896       0.06915925      -0.34700549 </v>
   <v>       0.01275694       0.11836123       0.46259006 </v>
   <v>       0.06912899      -0.15212969      -0.56874760 </v>
   <v>       0.02092382      -0.11066656       0.48939364 </v>
   <v>       0.01048808       0.02492150      -0.87122101 </v>
   <v>      -0.02219559       0.03080429       0.80183533 </v>
  </varray>
  <varray name="stress" >
   <v>     -10.14569209       0.02143174      -0.01399320 </v>
   <v>       0.02143179      -9.85378617       0.03883359 </v>
   <v>      -0.01399323       0.03883369       6.48738038 </v>
  </varray>
  <energy>
   <i name="e_fr_energy">   -189.76447726 </i>
   <i name="e_wo_entrp">   -189.64431873 </i>
   <i name="e_0_energy">     -0.24031707 </i>
  </energy>
  <time name="totalsc">  393.49  394.53</time>
 </calculation>
 <calculation>
  <scstep>
   <time name="dav">   22.71   22.77</time>
   <time name="total">   23.32   23.38</time>
   <energy>
    <i name="alphaZ">     85.81941088 </i>
    <i name="ewald">  42832.49644090 </i>
    <i name="hartreedc"> -48849.23722214 </i>
    <i name="XCdc">   -232.95853021 </i>
    <i name="pawpsdc">   4038.81531998 </i>
    <i name="pawaedc">  -3454.51896791 </i>
    <i name="eentropy">     -0.20362353 </i>
    <i name="bandstr">  -1372.98904423 </i>
    <i name="atom">   6761.44252427 </i>
    <i name="e_fr_energy">   -191.33369198 </i>
    <i name="e_wo_entrp">   -191.13006845 </i>
    <i name="e_0_energy">   -191.23188021 </i>
   </energy>
  </scstep>
  <scstep>
   <time name="dav">   33.64   33.72</time>
   <time name="total">   34.24   34.33</time>
   <energy>
    <i name="e_fr_energy">   -191.17977853 </i>
    <i name="e_wo_entrp">   -190.97034573 </i>
    <i name="e_0_energy">   -191.07506213 </i>
   </energy>
  </scstep>
  <scstep>
   <time name="dav">   31.58   31.65</time>
   <time name="total">   32.18   32.26</time>
   <energy>
    <i name="e_fr_energy">   -191.27849371 </i>
    <i name="e_wo_entrp">   -191.05737573 </i>
    <i name="e_0_energy">   -191.16793472 </i>
   </energy>
  </scstep>
  <scstep>
   <time name="dav">   33.08   33.16</time>
   <time name="total">   33.69   33.77</time>
   <energy>
    <i name="e_fr_energy">   -190.88042860 </i>
    <i name="e_wo_entrp">   -190.67318383 </i>
    <i name="e_0_energy">   -190.77680622 </i>
   </energy>
  </scstep>
  <scstep>
   <time name="dav">   31.51   31.59</time>
   <time name="total">   32.12   32.20</time>
   <energy>
    <i name="e_fr_energy">   -190.80531685 </i>
    <i name="e_wo_entrp">   -190.59491449 </i>
    <i name="e_0_energy">   -190.70011567 </i>
   </energy>
  </scstep>
  <scstep>
   <time name="dav">   32.19   32.26</time>
   <time name="total">   32.79   32.87</time>
   <energy>
    <i name="e_fr_energy">   -190.77228905 </i>
    <i name="e_wo_entrp">   -190.56159425 </i>
    <i name="e_0_energy">   -190.66694165 </i>
   </energy>
  </scstep>
  <scstep>
   <time name="dav">   30.59   30.67</time>
   <time name="total">   31.20   31.28</time>
   <energy>
    <i name="e_fr_energy">   -190.75294182 </i>
    <i name="e_wo_entrp">   -190.54304902 </i>
    <i name="e_0_energy">   -190.64799542 </i>
   </energy>
  </scstep>
  <scstep>
   <time name="dav">   29.00   29.07</time>
   <time name="total">   29.60   29.68</time>
   <energy>
    <i name="e_fr_energy">   -190.74981039 </i>
    <i name="e_wo_entrp">   -190.53986696 </i>
    <i name="e_0_energy">   -190.64483868 </i>
   </energy>
  </scstep>
  <scstep>
   <time name="dav">   28.97   29.04</time>
   <time name="total">   29.58   29.66</time>
   <energy>
    <i name="e_fr_energy">   -190.74958801 </i>
    <i name="e_wo_entrp">   -190.53966336 </i>
    <i name="e_0_energy">   -190.64462568 </i>
   </energy>
  </scstep>
  <scstep>
   <time name="dav">   29.26   29.33</time>
   <time name="total">   29.86   29.94</time>
   <energy>
    <i name="e_fr_energy">   -190.74966450 </i>
    <i name="e_wo_entrp">   -190.53949415 </i>
    <i name="e_0_energy">   -190.64457933 </i>
   </energy>
  </scstep>
  <scstep>
   <time name="dav">   26.84   26.90</time>
   <time name="total">   27.44   27.51</time>
   <energy>
    <i name="e_fr_energy">   -190.74943267 </i>
    <i name="e_wo_entrp">   -190.53952092 </i>
    <i name="e_0_energy">   -190.64447679 </i>
   </energy>
  </scstep>
  <scstep>
   <time name="dav">   21.30   21.36</time>
   <time name="total">   21.34   21.40</time>
   <energy>
    <i name="alphaZ">     85.81941088 </i>
    <i name="ewald">  42832.49644090 </i>
    <i name="hartreedc"> -48820.63069633 </i>
    <i name="XCdc">   -234.28803070 </i>
    <i name="pawpsdc">   4063.76402300 </i>
    <i name="pawaedc">  -3479.65212096 </i>
    <i name="eentropy">     -0.20993950 </i>
    <i name="bandstr">  -1399.49103850 </i>
    <i name="atom">   6761.44252427 </i>
    <i name="e_fr_energy">   -190.74942694 </i>
    <i name="e_wo_entrp">   -190.53948744 </i>
    <i name="e_0_energy">   -190.64445719 </i>
   </energy>
  </scstep>
  <structure>
   <crystal>
    <varray name="basis" >
     <v>       8.48500672       4.89805729       0.00000000 </v>
     <v>      -8.48672273       4.90100199       0.00000000 </v>
     <v>       0.00000000       0.00000000      30.00000000 </v>
    </varray>
    <i name="volume">   2494.60466753 </i>
    <varray name="rec_basis" >
     <v>       0.05893922       0.10206093       0.00000000 </v>
     <v>      -0.05890381       0.10204030       0.00000000 </v>
     <v>       0.00000000       0.00000000       0.03333333 </v>
    </varray>
   </crystal>
   <varray name="positions" >
    <v>       0.33402539      -0.00236002       0.00012840 </v>
    <v>       0.66899875       0.33525706       0.00001567 </v>
    <v>       0.99762837       0.33378503      -0.00006773 </v>
    <v>       0.66650574      -0.00562536       0.00024048 </v>
    <v>      -0.00378658       0.66822585      -0.00024164 </v>
    <v>       0.67074092       0.67219614      -0.00004841 </v>
    <v>      -0.00877346      -0.00902023      -0.00019096 </v>
    <v>       0.33719715       0.33792595       0.00001168 </v>
    <v>       0.33732983       0.66942755       0.00018211 </v>
    <v>       0.10869825       0.22417928       0.95128776 </v>
    <v>       0.22422799       0.10881832       0.04857421 </v>
    <v>       0.10951055       0.55056249       0.95107741 </v>
    <v>       0.21749914       0.44221308       0.04935380 </v>
    <v>       0.11625426       0.89262249       0.95039969 </v>
    <v>       0.22543763       0.78257564       0.04934641 </v>
    <v>       0.44647021       0.21996457       0.95199120 </v>
    <v>       0.55295431       0.11374249       0.04775881 </v>
    <v>       0.44358486       0.55522743       0.94910809 </v>
    <v>       0.55741030       0.44103052       0.04942950 </v>
    <v>       0.44085191       0.89076777       0.95027579 </v>
    <v>       0.55409837       0.77665751       0.05139220 </v>
    <v>       0.78000175       0.22734722       0.95207297 </v>
    <v>       0.89250925       0.11624284       0.04943906 </v>
    <v>       0.77455729       0.54941413       0.95030675 </v>
    <v>       0.88604287       0.43881512       0.04834664 </v>
    <v>       0.77892625       0.88942437       0.94821406 </v>
    <v>       0.88931315       0.77879721       0.05159594 </v>
   </varray>
  </structure>
  <varray name="forces" >
   <v>       0.22304454      -0.09806750       0.08290853 </v>
   <v>      -0.02970493       0.11162254      -0.00665942 </v>
   <v>      -0.09510409       0.02795385      -0.08147212 </v>
   <v>       0.50396830      -0.32283936       0.00823566 </v>
   <v>      -0.44400939      -0.02273273      -0.04271082 </v>
   <v>      -0.22161729       0.41333591       0.00293396 </v>
   <v>       0.02081417      -0.74443557       0.03157954 </v>
   <v>      -0.17364390       0.39725038       0.03441285 </v>
   <v>       0.23762604       0.25123813      -0.03106369 </v>
   <v>       0.03417357      -0.05512844      -0.07668523 </v>
   <v>      -0.04964492      -0.04636931       0.00008587 </v>
   <v>      -0.03615238       0.02273183      -0.14810848 </v>
   <v>      -0.06860270      -0.00465175       0.31304150 </v>
   <v>      -0.03077962       0.02833761      -0.38277217 </v>
   <v>      -0.01133326      -0.00984235       0.26016551 </v>
   <v>       0.04228158       0.03164720      -0.23154732 </v>
   <v>       0.05183992       0.02281054       0.19186979 </v>
   <v>       0.00579815       0.09497239      -0.41291356 </v>
   <v>       0.02435478       0.08398817       0.31953585 </v>
   <v>       0.00513831       0.02679975      -0.39001250 </v>
   <v>       0.04538362      -0.00717706       0.59778049 </v>
   <v>       0.01262509      -0.05443379      -0.22318485 </v>
   <v>       0.02190135      -0.01562507       0.30460311 </v>
   <v>      -0.01609664      -0.04511086      -0.40040173 </v>
   <v>      -0.04486296      -0.01419318       0.36666812 </v>
   <v>      -0.00191179      -0.02932043      -0.70396952 </v>
   <v>      -0.00548555      -0.04276090       0.61768064 </v>
  </varray>
  <varray name="stress" >
   <v>      -5.79072959      -0.07900391      -0.04021874 </v>
   <v>      -0.07900393      -5.70909330      -0.05339760 </v>
   <v>      -0.04021868      -0.05339763       4.48885440 </v>
  </varray>
  <energy>
   <i name="e_fr_energy">   -190.74942694 </i>
   <i name="e_wo_entrp">   -190.64445719 </i>
   <i name="e_0_energy">     -0.20993950 </i>
  </energy>
  <time name="totalsc">  401.21  402.27</time>
 </calculation>
 <calculation>
  <scstep>
   <time name="dav">   22.73   22.78</time>
   <time name="total">   23.33   23.39</time>
   <energy>
    <i name="alphaZ">     90.18193795 </i>
    <i name="ewald">  44667.04115027 </i>
    <i name="hartreedc"> -50710.58027431 </i>
    <i name="XCdc">   -231.83421415 </i>
    <i name="pawpsdc">   4063.73551561 </i>
    <i name="pawaedc">  -3479.61825987 </i>
    <i name="eentropy">     -0.19659216 </i>
    <i name="bandstr">  -1352.29297190 </i>
    <i name="atom">   6761.44252427 </i>
    <i name="e_fr_energy">   -192.12118428 </i>
    <i name="e_wo_entrp">   -191.92459212 </i>
    <i name="e_0_energy">   -192.02288820 </i>
   </energy>
  </scstep>
  <scstep>
   <time name="dav">   29.40   29.47</time>
   <time name="total">   29.91   29.99</time>
   <energy>
    <i name="e_fr_energy">   -191.85347713 </i>
    <i name="e_wo_entrp">   -191.65011228 </i>
    <i name="e_0_energy">   -191.75179470 </i>
   </energy>
  </scstep>
  <scstep>
   <time name="dav">   30.87   30.94</time>
   <time name="total">   31.43   31.51</time>
   <energy>
    <i name="e_fr_energy">   -191.98177652 </i>
    <i name="e_wo_entrp">   -191.77777607 </i>
    <i name="e_0_energy">   -191.87977629 </i>
   </energy>
  </scstep>
  <scstep>
   <time name="dav">   29.79   29.86</time>
   <time name="total">   30.30   30.38</time>
   <energy>
    <i name="e_fr_energy">   -191.74785245 </i>
    <i name="e_wo_entrp">   -191.54747412 </i>
    <i name="e_0_energy">   -191.64766328 </i>
   </energy>
  </scstep>
  <scstep>
   <time name="dav">   31.58   31.65</time>
   <time name="total">   32.17   32.26</time>
   <energy>
    <i name="e_fr_energy">   -191.57689915 </i>
    <i name="e_wo_entrp">   -191.37339683 </i>
    <i name="e_0_energy">   -191.47514799 </i>
   </energy>
  </scstep>
  <scstep>
   <time name="dav">   31.70   31.78</time>
   <time name="total">   32.27   32.35</time>
   <energy>
    <i name="e_fr_energy">   -191.43564699 </i>
    <i name="e_wo_entrp">   -191.22982851 </i>
    <i name="e_0_energy">   -191.33273775 </i>
   </energy>
  </scstep>
  <scstep>
   <time name="dav">   31.63   31.70</time>
   <time name="total">   32.22   32.30</time>
   <energy>
    <i name="e_fr_energy">   -191.42791880 </i>
    <i name="e_wo_entrp">   -191.22395407 </i>
    <i name="e_0_energy">   -191.32593644 </i>
   </energy>
  </scstep>
  <scstep>
   <time name="dav">   31.28   31.35</time>
   <time name="total">   31.87   31.96</time>
   <energy>
    <i name="e_fr_energy">   -191.42568228 </i>
    <i name="e_wo_entrp">   -191.22087806 </i>
    <i name="e_0_energy">   -191.32328017 </i>
   </energy>
  </scstep>
  <scstep>
   <time name="dav">   32.00   32.08</time>
   <time name="total">   32.60   32.68</time>
   <energy>
    <i name="e_fr_energy">   -191.41901058 </i>
    <i name="e_wo_entrp">   -191.21419974 </i>
    <i name="e_0_energy">   -191.31660516 </i>
   </energy>
  </scstep>
  <scstep>
   <time name="dav">   28.94   29.01</time>
   <time name="total">   29.53   29.61</time>
   <energy>
    <i name="e_fr_energy">   -191.41931772 </i>
    <i name="e_wo_entrp">   -191.21423839 </i>
    <i name="e_0_energy">   -191.31677805 </i>
   </energy>
  </scstep>
  <scstep>
   <time name="dav">   29.27   29.34</time>
   <time name="total">   29.87   29.94</time>
   <energy>
    <i name="e_fr_energy">   -191.41916803 </i>
    <i name="e_wo_entrp">   -191.21423319 </i>
    <i name="e_0_energy">   -191.31670061 </i>
   </energy>
  </scstep>
  <scstep>
   <time name="dav">   20.40   20.44</time>
   <time name="total">   20.43   20.49</time>
   <energy>
    <i name="alphaZ">     90.18193795 </i>
    <i name="ewald">  44667.04115027 </i>
    <i name="hartreedc"> -50676.60862808 </i>
    <i name="XCdc">   -233.36228000 </i>
    <i name="pawpsdc">   4085.79573760 </i>
    <i name="pawaedc">  -3501.77445913 </i>
    <i name="eentropy">     -0.20501412 </i>
    <i name="bandstr">  -1383.93012007 </i>
    <i name="atom">   6761.44252427 </i>
    <i name="e_fr_energy">   -191.41915131 </i>
    <i name="e_wo_entrp">   -191.21413719 </i>
    <i name="e_0_energy">   -191.31664425 </i>
   </energy>
  </scstep>
  <structure>
   <crystal>
    <varray name="basis" >
     <v>       8.27289514       4.77551054       0.00000000 </v>
     <v>      -8.27899738       4.78605389       0.00000000 </v>
     <v>       0.00000000       0.00000000      30.00000000 </v>
    </varray>
    <i name="volume">   2373.92883554 </i>
    <varray name="rec_basis" >
     <v>       0.06048270       0.10462400       0.00000000 </v>
     <v>      -0.06034946       0.10454688       0.00000000 </v>
     <v>       0.00000000       0.00000000       0.03333333 </v>
    </varray>
   </crystal>
   <varray name="positions" >
    <v>       0.33431748      -0.00519882       0.00047643 </v>
    <v>       0.67017700       0.33690916      -0.00001185 </v>
    <v>       0.99733783       0.33477838      -0.00041100 </v>
    <v>       0.66613427      -0.01337865       0.00028455 </v>
    <v>      -0.00715926       0.67123138      -0.00042377 </v>
    <v>       0.67433903       0.67901615      -0.00003329 </v>
    <v>      -0.01785247      -0.01839780      -0.00004470 </v>
    <v>       0.34071756       0.34402386       0.00015107 </v>
    <v>       0.34211221       0.67078572       0.00004336 </v>
    <v>       0.10800530       0.22358566       0.95041891 </v>
    <v>       0.22359582       0.10833184       0.04914299 </v>
    <v>       0.10916465       0.55054279       0.94993307 </v>
    <v>       0.21638635       0.44231245       0.05117004 </v>
    <v>       0.11695645       0.89332682       0.94829031 </v>
    <v>       0.22533380       0.78306965       0.05097073 </v>
    <v>       0.44745423       0.21972316       0.95054604 </v>
    <v>       0.55336232       0.11391337       0.04900431 </v>
    <v>       0.44488492       0.55642941       0.94681600 </v>
    <v>       0.55900099       0.44174993       0.05129851 </v>
    <v>       0.44109888       0.89147471       0.94811205 </v>
    <v>       0.55451366       0.77632873       0.05443754 </v>
    <v>       0.77964242       0.22701967       0.95068162 </v>
    <v>       0.89268535       0.11647490       0.05123544 </v>
    <v>       0.77362623       0.54845196       0.94812053 </v>
    <v>       0.88533737       0.43853143       0.05033530 </v>
    <v>       0.77832979       0.88900796       0.94471474 </v>
    <v>       0.88871226       0.77817062       0.05474095 </v>
   </varray>
  </structure>
  <varray name="forces" >
   <v>       0.29898405      -0.11098294       0.01922444 </v>
   <v>      -0.03115681       0.06491838      -0.02162660 </v>
   <v>      -0.08629274       0.07568314      -0.01619545 </v>
   <v>       0.14166397      -0.20645229      -0.05549861 </v>
   <v>      -0.30199461      -0.07835958       0.02465779 </v>
   <v>      -0.07590423      -0.06315781       0.03362687 </v>
   <v>       0.01075041      -0.28864351      -0.04817071 </v>
   <v>      -0.21822141       0.48988848       0.05965448 </v>
   <v>       0.31493631       0.21211608       0.04782112 </v>
   <v>       0.16548896      -0.11513327       0.24433859 </v>
   <v>      -0.18577207      -0.09282465      -0.33787709 </v>
   <v>      -0.16273410       0.16071751       0.11925173 </v>
   <v>      -0.07636675       0.07942236       0.06412117 </v>
   <v>      -0.11574869      -0.05382342      -0.05875024 </v>
   <v>       0.07009370      -0.12190564      -0.06956516 </v>
   <v>      -0.04275548       0.02647618       0.07183785 </v>
   <v>       0.23433363       0.01428736      -0.04485021 </v>
   <v>       0.02944237       0.17364272      -0.22928419 </v>
   <v>      -0.07085298       0.14792202       0.05903803 </v>
   <v>       0.10071416       0.02623999      -0.11054970 </v>
   <v>       0.07292102      -0.00415663       0.24537714 </v>
   <v>       0.07346415      -0.15968661       0.07452884 </v>
   <v>       0.08355615      -0.15773466      -0.02082169 </v>
   <v>      -0.14525518       0.07947315      -0.06614683 </v>
   <v>      -0.06804500       0.07188789       0.02135109 </v>
   <v>      -0.00836541      -0.04763529      -0.29295331 </v>
   <v>      -0.00688343      -0.12217894       0.28746067 </v>
  </varray>
  <varray name="stress" >
   <v>       0.10553857      -0.28360616       0.18465101 </v>
   <v>      -0.28360609       0.27462083      -0.29785249 </v>
   <v>       0.18465090      -0.29785255      -0.57868800 </v>
  </varray>
  <energy>
   <i name="e_fr_energy">   -191.41915131 </i>
   <i name="e_wo_entrp">   -191.31664425 </i>
   <i name="e_0_energy">     -0.20501412 </i>
  </energy>
  <time name="totalsc">  399.83  400.89</time>
 </calculation>
 <calculation>
  <scstep>
   <time name="dav">   22.71   22.77</time>
   <time name="total">   23.30   23.36</time>
   <energy>
    <i name="alphaZ">     90.05232576 </i>
    <i name="ewald">  44593.67402714 </i>
    <i name="hartreedc"> -50602.42135772 </i>
    <i name="XCdc">   -233.51198445 </i>
    <i name="pawpsdc">   4085.72978838 </i>
    <i name="pawaedc">  -3501.70418176 </i>
    <i name="eentropy">     -0.20876921 </i>
    <i name="bandstr">  -1384.54046985 </i>
    <i name="atom">   6761.44252427 </i>
    <i name="e_fr_energy">   -191.48809743 </i>
    <i name="e_wo_entrp">   -191.27932823 </i>
    <i name="e_0_energy">   -191.38371283 </i>
   </energy>
  </scstep>
  <scstep>
   <time name="dav">   34.49   34.58</time>
   <time name="total">   35.05   35.14</time>
   <energy>
    <i name="e_fr_energy">   -191.55545951 </i>
    <i name="e_wo_entrp">   -191.34168800 </i>
    <i name="e_0_energy">   -191.44857376 </i>
   </energy>
  </scstep>
  <scstep>
   <time name="dav">   31.80   31.88</time>
   <time name="total">   32.40   32.48</time>
   <energy>
    <i name="e_fr_energy">   -191.50132856 </i>
    <i name="e_wo_entrp">   -191.29170723 </i>
    <i name="e_0_energy">   -191.39651789 </i>
   </energy>
  </scstep>
  <scstep>
   <time name="dav">   29.72   29.79</time>
   <time name="total">   30.27   30.35</time>
   <energy>
    <i name="e_fr_energy">   -191.50308946 </i>
    <i name="e_wo_entrp">   -191.29384147 </i>
    <i name="e_0_energy">   -191.39846546 </i>
   </energy>
  </scstep>
  <scstep>
   <time name="dav">   29.65   29.72</time>
   <time name="total">   30.23   30.31</time>
   <energy>
    <i name="e_fr_energy">   -191.49864547 </i>
    <i name="e_wo_entrp">   -191.28874026 </i>
    <i name="e_0_energy">   -191.39369286 </i>
   </energy>
  </scstep>
  <scstep>
   <time name="dav">   27.97   28.03</time>
   <time name="total">   28.56   28.63</time>
   <energy>
    <i name="e_fr_energy">   -191.49851912 </i>
    <i name="e_wo_entrp">   -191.28861889 </i>
    <i name="e_0_energy">   -191.39356900 </i>
   </energy>
  </scstep>
  <scstep>
   <time name="dav">   30.02   30.09</time>
   <time name="total">   30.60   30.68</time>
   <energy>
    <i name="e_fr_energy">   -191.49907824 </i>
    <i name="e_wo_entrp">   -191.28941576 </i>
    <i name="e_0_energy">   -191.39424700 </i>
   </energy>
  </scstep>
  <scstep>
   <time name="dav">   25.75   25.81</time>
   <time name="total">   26.33   26.40</time>
   <energy>
    <i name="e_fr_energy">   -191.49801651 </i>
    <i name="e_wo_entrp">   -191.28813479 </i>
    <i name="e_0_energy">   -191.39307565 </i>
   </energy>
  </scstep>
  <scstep>
   <time name="dav">   17.70   17.74</time>
   <time name="total">   17.73   17.78</time>
   <energy>
    <i name="alphaZ">     90.05232576 </i>
    <i name="ewald">  44593.67402714 </i>
    <i name="hartreedc"> -50604.41209341 </i>
    <i name="XCdc">   -233.44896286 </i>
    <i name="pawpsdc">   4082.97331023 </i>
    <i name="pawaedc">  -3498.90797390 </i>
    <i name="eentropy">     -0.20974643 </i>
    <i name="bandstr">  -1382.66143874 </i>
    <i name="atom">   6761.44252427 </i>
    <i name="e_fr_energy">   -191.49802794 </i>
    <i name="e_wo_entrp">   -191.28828151 </i>
    <i name="e_0_energy">   -191.39315473 </i>
   </energy>
  </scstep>
  <structure>
   <crystal>
    <varray name="basis" >
     <v>       8.27361690       4.77397528       0.00000000 </v>
     <v>      -8.28665074       4.79652236       0.00000000 </v>
     <v>       0.00000000       0.00000000      30.00000000 </v>
    </varray>
    <i name="volume">   2377.34562804 </i>
    <varray name="rec_basis" >
     <v>       0.06052787       0.10457021       0.00000000 </v>
     <v>      -0.06024335       0.10440573       0.00000000 </v>
     <v>       0.00000000       0.00000000       0.03333333 </v>
    </varray>
   </crystal>
   <varray name="positions" >
    <v>       0.33461775      -0.00654584       0.00050087 </v>
    <v>       0.67038868       0.33728938      -0.00004527 </v>
    <v>       0.99746877       0.33537917      -0.00043076 </v>
    <v>       0.66552786      -0.01466909       0.00019685 </v>
    <v>      -0.00834950       0.67165364      -0.00038217 </v>
    <v>       0.67375515       0.67881149       0.00001908 </v>
    <v>      -0.01909591      -0.01969643      -0.00012264 </v>
    <v>       0.34245067       0.34695171       0.00024225 </v>
    <v>       0.34397351       0.67091358       0.00012057 </v>
    <v>       0.10792334       0.22255715       0.95082114 </v>
    <v>       0.22261886       0.10841315       0.04859899 </v>
    <v>       0.10950151       0.55179946       0.95014370 </v>
    <v>       0.21658331       0.44292084       0.05123578 </v>
    <v>       0.11634597       0.89337802       0.94823775 </v>
    <v>       0.22493447       0.78225888       0.05082998 </v>
    <v>       0.44744419       0.21998168       0.95068683 </v>
    <v>       0.55409431       0.11331386       0.04890936 </v>
    <v>       0.44580032       0.55717881       0.94650000 </v>
    <v>       0.55949737       0.44266724       0.05135518 </v>
    <v>       0.44151129       0.89130252       0.94797952 </v>
    <v>       0.55469191       0.77610596       0.05476671 </v>
    <v>       0.77906975       0.22602791       0.95082556 </v>
    <v>       0.89214255       0.11545370       0.05116835 </v>
    <v>       0.77362163       0.54927469       0.94805768 </v>
    <v>       0.88551074       0.43908633       0.05033181 </v>
    <v>       0.77808373       0.88880508       0.94431856 </v>
    <v>       0.88810219       0.77760156       0.05513422 </v>
   </varray>
  </structure>
  <varray name="forces" >
   <v>       0.36088385      -0.11430156       0.03135515 </v>
   <v>      -0.01616350       0.07274169      -0.04698267 </v>
   <v>      -0.09262685       0.04354475      -0.04508158 </v>
   <v>       0.13732702      -0.22667684      -0.02538792 </v>
   <v>      -0.38155882      -0.09252060       0.00886718 </v>
   <v>      -0.07405350      -0.03991732      -0.00036406 </v>
   <v>       0.03649090      -0.42516099       0.01389337 </v>
   <v>      -0.25142772       0.55039973       0.03493336 </v>
   <v>       0.35712552       0.24783578       0.01216067 </v>
   <v>       0.11668272      -0.04737291       0.24946791 </v>
   <v>      -0.13482741      -0.01106544      -0.36878555 </v>
   <v>      -0.11059241       0.12810872       0.16638655 </v>
   <v>      -0.05728144       0.06595860       0.06887413 </v>
   <v>      -0.05601137      -0.03432645      -0.03300208 </v>
   <v>       0.06420688      -0.09312253      -0.08174050 </v>
   <v>      -0.04994033       0.01333913       0.12011888 </v>
   <v>       0.14082770       0.00741717      -0.06620260 </v>
   <v>       0.00250833       0.10945224      -0.23515029 </v>
   <v>      -0.02150713       0.09037786       0.10935838 </v>
   <v>       0.06287967      -0.01524053      -0.11820041 </v>
   <v>       0.04173118       0.01086495       0.20960694 </v>
   <v>       0.04711954      -0.09877788       0.09338485 </v>
   <v>       0.04431079      -0.09516914      -0.05205737 </v>
   <v>      -0.08958577       0.03736824      -0.05281109 </v>
   <v>      -0.04341660       0.03975941       0.01413138 </v>
   <v>       0.00441703      -0.05769861      -0.18577002 </v>
   <v>      -0.03751829      -0.06581747       0.17899739 </v>
  </varray>
  <varray name="stress" >
   <v>      -0.07690496      -0.03545125       0.08329780 </v>
   <v>      -0.03545134      -0.17237240      -0.08523426 </v>
   <v>       0.08329757      -0.08523451      -1.18849086 </v>
  </varray>
  <energy>
   <i name="e_fr_energy">   -191.49802794 </i>
   <i name="e_wo_entrp">   -191.39315473 </i>
   <i name="e_0_energy">     -0.20974643 </i>
  </energy>
  <time name="totalsc">  298.48  299.26</time>
 </calculation>
 <calculation>
  <scstep>
   <time name="dav">   22.73   22.78</time>
   <time name="total">   23.29   23.35</time>
   <energy>
    <i name="alphaZ">     90.09501553 </i>
    <i name="ewald">  44613.76009342 </i>
    <i name="hartreedc"> -50624.91934219 </i>
    <i name="XCdc">   -233.41884685 </i>
    <i name="pawpsdc">   4082.80099388 </i>
    <i name="pawaedc">  -3498.73388636 </i>
    <i name="eentropy">     -0.21079057 </i>
    <i name="bandstr">  -1382.36068675 </i>
    <i name="atom">   6761.44252427 </i>
    <i name="e_fr_energy">   -191.54492562 </i>
    <i name="e_wo_entrp">   -191.33413505 </i>
    <i name="e_0_energy">   -191.43953033 </i>
   </energy>
  </scstep>
  <scstep>
   <time name="dav">   34.68   34.77</time>
   <time name="total">   35.23   35.32</time>
   <energy>
    <i name="e_fr_energy">   -191.56158349 </i>
    <i name="e_wo_entrp">   -191.34741762 </i>
    <i name="e_0_energy">   -191.45450055 </i>
   </energy>
  </scstep>
  <scstep>
   <time name="dav">   31.60   31.68</time>
   <time name="total">   32.17   32.25</time>
   <energy>
    <i name="e_fr_energy">   -191.54816893 </i>
    <i name="e_wo_entrp">   -191.33701391 </i>
    <i name="e_0_energy">   -191.44259142 </i>
   </energy>
  </scstep>
  <scstep>
   <time name="dav">   29.03   29.10</time>
   <time name="total">   29.57   29.65</time>
   <energy>
    <i name="e_fr_energy">   -191.54869288 </i>
    <i name="e_wo_entrp">   -191.33769673 </i>
    <i name="e_0_energy">   -191.44319480 </i>
   </energy>
  </scstep>
  <scstep>
   <time name="dav">   28.95   29.02</time>
   <time name="total">   29.51   29.59</time>
   <energy>
    <i name="e_fr_energy">   -191.54712810 </i>
    <i name="e_wo_entrp">   -191.33560381 </i>
    <i name="e_0_energy">   -191.44136595 </i>
   </energy>
  </scstep>
  <scstep>
   <time name="dav">   27.00   27.06</time>
   <time name="total">   27.04   27.11</time>
   <energy>
    <i name="alphaZ">     90.09501553 </i>
    <i name="ewald">  44613.76009342 </i>
    <i name="hartreedc"> -50624.92216353 </i>
    <i name="XCdc">   -233.42310971 </i>
    <i name="pawpsdc">   4083.82325915 </i>
    <i name="pawaedc">  -3499.76863085 </i>
    <i name="eentropy">     -0.21150804 </i>
    <i name="bandstr">  -1382.34255131 </i>
    <i name="atom">   6761.44252427 </i>
    <i name="e_fr_energy">   -191.54707106 </i>
    <i name="e_wo_entrp">   -191.33556302 </i>
[...]
      <set comment="kpoint 31">
       <r>  -17.4914    1.0000 </r>
       <r>  -17.3053    1.0000 </r>
       <r>  -16.8826    1.0000 </r>
       <r>  -16.5134    1.0000 </r>
       <r>  -16.4166    1.0000 </r>
       <r>  -16.3572    1.0000 </r>
       <r>  -16.2742    1.0000 </r>
       <r>  -16.1371    1.0000 </r>
       <r>  -16.0917    1.0000 </r>
       <r>  -16.0670    1.0000 </r>
       <r>  -15.9638    1.0000 </r>
       <r>  -15.8886    1.0000 </r>
       <r>  -15.7866    1.0000 </r>
       <r>  -15.6905    1.0000 </r>
       <r>  -15.6339    1.0000 </r>
       <r>  -15.5887    1.0000 </r>
       <r>  -15.5127    1.0000 </r>
       <r>  -15.4581    1.0000 </r>
       <r>   -9.7641    1.0000 </r>
       <r>   -9.3820    1.0000 </r>
       <r>   -9.3680    1.0000 </r>
       <r>   -8.8975    1.0000 </r>
       <r>   -8.8516    1.0000 </r>
       <r>   -8.6981    1.0000 </r>
       <r>   -8.5735    1.0000 </r>
       <r>   -8.4613    1.0000 </r>
       <r>   -8.3685    1.0000 </r>
       <r>   -8.3419    1.0000 </r>
       <r>   -8.2503    1.0000 </r>
       <r>   -8.2060    1.0000 </r>
       <r>   -8.1458    1.0000 </r>
       <r>   -8.0987    1.0000 </r>
       <r>   -7.9505    1.0000 </r>
       <r>   -7.8777    1.0000 </r>
       <r>   -7.8425    1.0000 </r>
       <r>   -7.5431    1.0000 </r>
       <r>   -7.4907    1.0000 </r>
       <r>   -7.3587    1.0000 </r>
       <r>   -7.2831    1.0000 </r>
       <r>   -7.1828    1.0000 </r>
       <r>   -7.1160    1.0000 </r>
       <r>   -7.0290    1.0000 </r>
       <r>   -7.0025    1.0000 </r>
       <r>   -6.9280    1.0000 </r>
       <r>   -6.8478    1.0000 </r>
       <r>   -6.7926    1.0000 </r>
       <r>   -6.7168    1.0000 </r>
       <r>   -6.6620    1.0000 </r>
       <r>   -6.5861    1.0000 </r>
       <r>   -6.5118    1.0000 </r>
       <r>   -6.4124    1.0000 </r>
       <r>   -6.2996    1.0000 </r>
       <r>   -6.2486    1.0000 </r>
       <r>   -6.1521    1.0000 </r>
       <r>   -6.1256    1.0000 </r>
       <r>   -6.0200    1.0000 </r>
       <r>   -5.9863    1.0000 </r>
       <r>   -5.9524    1.0000 </r>
       <r>   -5.8785    1.0000 </r>
       <r>   -5.8220    1.0000 </r>
       <r>   -5.7758    1.0000 </r>
       <r>   -5.6569    1.0000 </r>
       <r>   -5.6079    1.0000 </r>
       <r>   -5.5211    1.0000 </r>
       <r>   -5.2353    1.0000 </r>
       <r>   -5.1361    1.0000 </r>
       <r>   -5.0522    1.0000 </r>
       <r>   -4.9333    1.0000 </r>
       <r>   -4.8814    1.0000 </r>
       <r>   -4.7091    1.0000 </r>
       <r>   -4.5521    1.0000 </r>
       <r>   -4.4105    1.0000 </r>
       <r>   -4.1924    1.0000 </r>
       <r>   -4.1207    1.0000 </r>
       <r>   -3.9489    1.0000 </r>
       <r>   -3.6592    1.0000 </r>
       <r>   -3.5711    0.9999 </r>
       <r>   -3.4235    0.9970 </r>
       <r>   -3.2565    0.9415 </r>
       <r>   -3.0125    0.4376 </r>
       <r>   -2.8913    0.1552 </r>
       <r>   -2.7560    0.0244 </r>
       <r>   -2.6643    0.0044 </r>
       <r>   -2.5933    0.0009 </r>
       <r>   -2.4969    0.0001 </r>
       <r>   -2.4245    0.0000 </r>
       <r>   -2.3095    0.0000 </r>
       <r>   -2.2721    0.0000 </r>
       <r>   -2.1864    0.0000 </r>
       <r>   -2.0456    0.0000 </r>
       <r>   -1.8190    0.0000 </r>
       <r>   -1.7143    0.0000 </r>
       <r>   -1.5978    0.0000 </r>
       <r>   -1.3845    0.0000 </r>
       <r>   -1.2464    0.0000 </r>
       <r>   -1.1798    0.0000 </r>
       <r>   -1.0860    0.0000 </r>
       <r>   -0.9468    0.0000 </r>
       <r>   -0.8373    0.0000 </r>
       <r>   -0.7865    0.0000 </r>
       <r>   -0.7225    0.0000 </r>
       <r>   -0.6503    0.0000 </r>
       <r>   -0.6050    0.0000 </r>
       <r>   -0.5492    0.0000 </r>
       <r>   -0.4807    0.0000 </r>
       <r>   -0.2772    0.0000 </r>
       <r>   -0.1717    0.0000 </r>
       <r>    0.0082    0.0000 </r>
       <r>    0.0959    0.0000 </r>
       <r>    0.2966    0.0000 </r>
       <r>    0.5086    0.0000 </r>
       <r>    0.6944    0.0000 </r>
       <r>    0.8556    0.0000 </r>
       <r>    1.1584    0.0000 </r>
       <r>    1.2338    0.0000 </r>
       <r>    1.3705    0.0000 </r>
       <r>    1.4506    0.0000 </r>
       <r>    2.1638    0.0000 </r>
       <r>    2.2963    0.0000 </r>
       <r>    2.4221    0.0000 </r>
      </set>
      <set comment="kpoint 32">
       <r>  -17.5206    1.0000 </r>
       <r>  -17.1969    1.0000 </r>
       <r>  -17.0192    1.0000 </r>
       <r>  -16.5021    1.0000 </r>
       <r>  -16.3624    1.0000 </r>
       <r>  -16.3125    1.0000 </r>
       <r>  -16.2327    1.0000 </r>
       <r>  -16.1889    1.0000 </r>
       <r>  -16.1132    1.0000 </r>
       <r>  -16.0435    1.0000 </r>
       <r>  -15.9684    1.0000 </r>
       <r>  -15.9192    1.0000 </r>
       <r>  -15.8297    1.0000 </r>
       <r>  -15.6953    1.0000 </r>
       <r>  -15.6492    1.0000 </r>
       <r>  -15.5745    1.0000 </r>
       <r>  -15.5004    1.0000 </r>
       <r>  -15.4291    1.0000 </r>
       <r>   -9.6807    1.0000 </r>
       <r>   -9.5428    1.0000 </r>
       <r>   -9.4108    1.0000 </r>
       <r>   -8.8917    1.0000 </r>
       <r>   -8.7260    1.0000 </r>
       <r>   -8.5639    1.0000 </r>
       <r>   -8.4878    1.0000 </r>
       <r>   -8.4157    1.0000 </r>
       <r>   -8.3958    1.0000 </r>
       <r>   -8.3507    1.0000 </r>
       <r>   -8.2953    1.0000 </r>
       <r>   -8.2585    1.0000 </r>
       <r>   -8.2095    1.0000 </r>
       <r>   -8.1327    1.0000 </r>
       <r>   -8.0939    1.0000 </r>
       <r>   -7.9199    1.0000 </r>
       <r>   -7.8072    1.0000 </r>
       <r>   -7.4861    1.0000 </r>
       <r>   -7.4010    1.0000 </r>
       <r>   -7.3753    1.0000 </r>
       <r>   -7.3155    1.0000 </r>
       <r>   -7.2025    1.0000 </r>
       <r>   -7.1463    1.0000 </r>
       <r>   -7.0536    1.0000 </r>
       <r>   -6.9885    1.0000 </r>
       <r>   -6.9235    1.0000 </r>
       <r>   -6.8655    1.0000 </r>
       <r>   -6.8017    1.0000 </r>
       <r>   -6.7602    1.0000 </r>
       <r>   -6.6381    1.0000 </r>
       <r>   -6.5064    1.0000 </r>
       <r>   -6.4613    1.0000 </r>
       <r>   -6.4311    1.0000 </r>
       <r>   -6.3842    1.0000 </r>
       <r>   -6.2928    1.0000 </r>
       <r>   -6.2295    1.0000 </r>
       <r>   -6.1280    1.0000 </r>
       <r>   -6.0155    1.0000 </r>
       <r>   -5.9521    1.0000 </r>
       <r>   -5.8772    1.0000 </r>
       <r>   -5.8460    1.0000 </r>
       <r>   -5.7597    1.0000 </r>
       <r>   -5.6802    1.0000 </r>
       <r>   -5.5198    1.0000 </r>
       <r>   -5.4369    1.0000 </r>
       <r>   -5.4097    1.0000 </r>
       <r>   -5.3241    1.0000 </r>
       <r>   -5.2991    1.0000 </r>
       <r>   -5.1615    1.0000 </r>
       <r>   -5.0916    1.0000 </r>
       <r>   -4.9539    1.0000 </r>
       <r>   -4.6839    1.0000 </r>
       <r>   -4.5985    1.0000 </r>
       <r>   -4.4351    1.0000 </r>
       <r>   -4.2261    1.0000 </r>
       <r>   -3.9737    1.0000 </r>
       <r>   -3.9357    1.0000 </r>
       <r>   -3.6504    1.0000 </r>
       <r>   -3.5556    0.9999 </r>
       <r>   -3.4374    0.9978 </r>
       <r>   -3.2383    0.9250 </r>
       <r>   -2.9984    0.3986 </r>
       <r>   -2.8376    0.0817 </r>
       <r>   -2.7291    0.0153 </r>
       <r>   -2.6733    0.0053 </r>
       <r>   -2.6215    0.0017 </r>
       <r>   -2.5242    0.0002 </r>
       <r>   -2.4728    0.0000 </r>
       <r>   -2.3796    0.0000 </r>
       <r>   -2.3262    0.0000 </r>
       <r>   -2.1745    0.0000 </r>
       <r>   -2.0851    0.0000 </r>
       <r>   -1.8161    0.0000 </r>
       <r>   -1.7093    0.0000 </r>
       <r>   -1.4875    0.0000 </r>
       <r>   -1.3923    0.0000 </r>
       <r>   -1.2395    0.0000 </r>
       <r>   -1.1691    0.0000 </r>
       <r>   -1.0710    0.0000 </r>
       <r>   -0.9734    0.0000 </r>
       <r>   -0.8250    0.0000 </r>
       <r>   -0.7877    0.0000 </r>
       <r>   -0.7470    0.0000 </r>
       <r>   -0.6945    0.0000 </r>
       <r>   -0.5695    0.0000 </r>
       <r>   -0.5103    0.0000 </r>
       <r>   -0.3827    0.0000 </r>
       <r>   -0.2792    0.0000 </r>
       <r>   -0.2090    0.0000 </r>
       <r>   -0.0260    0.0000 </r>
       <r>    0.1027    0.0000 </r>
       <r>    0.2212    0.0000 </r>
       <r>    0.4665    0.0000 </r>
       <r>    0.7204    0.0000 </r>
       <r>    0.8810    0.0000 </r>
       <r>    1.1124    0.0000 </r>
       <r>    1.2622    0.0000 </r>
       <r>    1.4037    0.0000 </r>
       <r>    1.4352    0.0000 </r>
       <r>    2.1337    0.0000 </r>
       <r>    2.2691    0.0000 </r>
       <r>    2.5975    0.0000 </r>
      </set>
      <set comment="kpoint 33">
       <r>  -17.5103    1.0000 </r>
       <r>  -17.2625    1.0000 </r>
       <r>  -16.9062    1.0000 </r>
       <r>  -16.4966    1.0000 </r>
       <r>  -16.4560    1.0000 </r>
       <r>  -16.3855    1.0000 </r>
       <r>  -16.2535    1.0000 </r>
       <r>  -16.1442    1.0000 </r>
       <r>  -16.0865    1.0000 </r>
       <r>  -16.0255    1.0000 </r>
       <r>  -15.9388    1.0000 </r>
       <r>  -15.8654    1.0000 </r>
       <r>  -15.8361    1.0000 </r>
       <r>  -15.7284    1.0000 </r>
       <r>  -15.6383    1.0000 </r>
       <r>  -15.5861    1.0000 </r>
       <r>  -15.4782    1.0000 </r>
       <r>  -15.4588    1.0000 </r>
       <r>   -9.7476    1.0000 </r>
       <r>   -9.4350    1.0000 </r>
       <r>   -9.3195    1.0000 </r>
       <r>   -8.9131    1.0000 </r>
       <r>   -8.8208    1.0000 </r>
       <r>   -8.7812    1.0000 </r>
       <r>   -8.5188    1.0000 </r>
       <r>   -8.4743    1.0000 </r>
       <r>   -8.4019    1.0000 </r>
       <r>   -8.3004    1.0000 </r>
       <r>   -8.2725    1.0000 </r>
       <r>   -8.2349    1.0000 </r>
       <r>   -8.1405    1.0000 </r>
       <r>   -8.0823    1.0000 </r>
       <r>   -7.9621    1.0000 </r>
       <r>   -7.9205    1.0000 </r>
       <r>   -7.7116    1.0000 </r>
       <r>   -7.5801    1.0000 </r>
       <r>   -7.5305    1.0000 </r>
       <r>   -7.4018    1.0000 </r>
       <r>   -7.3347    1.0000 </r>
       <r>   -7.1903    1.0000 </r>
       <r>   -7.0980    1.0000 </r>
       <r>   -7.0144    1.0000 </r>
       <r>   -6.9614    1.0000 </r>
       <r>   -6.9043    1.0000 </r>
       <r>   -6.8571    1.0000 </r>
       <r>   -6.8075    1.0000 </r>
       <r>   -6.7089    1.0000 </r>
       <r>   -6.6246    1.0000 </r>
       <r>   -6.5943    1.0000 </r>
       <r>   -6.4533    1.0000 </r>
       <r>   -6.3991    1.0000 </r>
       <r>   -6.3358    1.0000 </r>
       <r>   -6.2824    1.0000 </r>
       <r>   -6.2196    1.0000 </r>
       <r>   -6.0785    1.0000 </r>
       <r>   -5.9999    1.0000 </r>
       <r>   -5.9316    1.0000 </r>
       <r>   -5.8578    1.0000 </r>
       <r>   -5.8242    1.0000 </r>
       <r>   -5.8074    1.0000 </r>
       <r>   -5.7439    1.0000 </r>
       <r>   -5.6739    1.0000 </r>
       <r>   -5.6310    1.0000 </r>
       <r>   -5.5573    1.0000 </r>
       <r>   -5.3118    1.0000 </r>
       <r>   -5.1541    1.0000 </r>
       <r>   -5.0465    1.0000 </r>
       <r>   -4.9450    1.0000 </r>
       <r>   -4.8774    1.0000 </r>
       <r>   -4.7632    1.0000 </r>
       <r>   -4.5779    1.0000 </r>
       <r>   -4.4070    1.0000 </r>
       <r>   -4.3646    1.0000 </r>
       <r>   -3.9522    1.0000 </r>
       <r>   -3.8230    1.0000 </r>
       <r>   -3.6641    1.0000 </r>
       <r>   -3.5422    0.9998 </r>
       <r>   -3.4568    0.9986 </r>
       <r>   -3.2358    0.9225 </r>
       <r>   -2.9912    0.3791 </r>
       <r>   -2.9689    0.3209 </r>
       <r>   -2.7410    0.0189 </r>
       <r>   -2.6478    0.0031 </r>
       <r>   -2.6175    0.0016 </r>
       <r>   -2.5229    0.0001 </r>
       <r>   -2.4342    0.0000 </r>
       <r>   -2.3877    0.0000 </r>
       <r>   -2.3354    0.0000 </r>
       <r>   -2.1887    0.0000 </r>
       <r>   -2.1545    0.0000 </r>
       <r>   -1.7902    0.0000 </r>
       <r>   -1.7130    0.0000 </r>
       <r>   -1.4243    0.0000 </r>
       <r>   -1.3972    0.0000 </r>
       <r>   -1.2303    0.0000 </r>
       <r>   -1.1344    0.0000 </r>
       <r>   -1.0475    0.0000 </r>
       <r>   -0.9615    0.0000 </r>
       <r>   -0.8655    0.0000 </r>
       <r>   -0.7761    0.0000 </r>
       <r>   -0.7142    0.0000 </r>
       <r>   -0.6666    0.0000 </r>
       <r>   -0.5982    0.0000 </r>
       <r>   -0.5468    0.0000 </r>
       <r>   -0.4106    0.0000 </r>
       <r>   -0.3241    0.0000 </r>
       <r>   -0.1941    0.0000 </r>
       <r>   -0.1186    0.0000 </r>
       <r>    0.0664    0.0000 </r>
       <r>    0.2345    0.0000 </r>
       <r>    0.5420    0.0000 </r>
       <r>    0.6897    0.0000 </r>
       <r>    0.9724    0.0000 </r>
       <r>    1.0596    0.0000 </r>
       <r>    1.2914    0.0000 </r>
       <r>    1.4397    0.0000 </r>
       <r>    1.4807    0.0000 </r>
       <r>    2.1682    0.0000 </r>
       <r>    2.3039    0.0000 </r>
       <r>    2.4319    0.0000 </r>
      </set>
      <set comment="kpoint 34">
       <r>  -17.4911    1.0000 </r>
       <r>  -17.3205    1.0000 </r>
       <r>  -16.7346    1.0000 </r>
       <r>  -16.6489    1.0000 </r>
       <r>  -16.4645    1.0000 </r>
       <r>  -16.4256    1.0000 </r>
       <r>  -16.2151    1.0000 </r>
       <r>  -16.1722    1.0000 </r>
       <r>  -16.0716    1.0000 </r>
       <r>  -16.0291    1.0000 </r>
       <r>  -15.9145    1.0000 </r>
       <r>  -15.8399    1.0000 </r>
       <r>  -15.7967    1.0000 </r>
       <r>  -15.7156    1.0000 </r>
       <r>  -15.6839    1.0000 </r>
       <r>  -15.5425    1.0000 </r>
       <r>  -15.5260    1.0000 </r>
       <r>  -15.4644    1.0000 </r>
       <r>   -9.7897    1.0000 </r>
       <r>   -9.3075    1.0000 </r>
       <r>   -9.1590    1.0000 </r>
       <r>   -9.0512    1.0000 </r>
       <r>   -8.9854    1.0000 </r>
       <r>   -8.8500    1.0000 </r>
       <r>   -8.5603    1.0000 </r>
       <r>   -8.4765    1.0000 </r>
       <r>   -8.4056    1.0000 </r>
       <r>   -8.3141    1.0000 </r>
       <r>   -8.2481    1.0000 </r>
       <r>   -8.1976    1.0000 </r>
       <r>   -8.1440    1.0000 </r>
       <r>   -7.9753    1.0000 </r>
       <r>   -7.9077    1.0000 </r>
       <r>   -7.8298    1.0000 </r>
       <r>   -7.7394    1.0000 </r>
       <r>   -7.6310    1.0000 </r>
       <r>   -7.5422    1.0000 </r>
       <r>   -7.4018    1.0000 </r>
       <r>   -7.3320    1.0000 </r>
       <r>   -7.3127    1.0000 </r>
       <r>   -7.1049    1.0000 </r>
       <r>   -7.0115    1.0000 </r>
       <r>   -6.9639    1.0000 </r>
       <r>   -6.8566    1.0000 </r>
       <r>   -6.8323    1.0000 </r>
       <r>   -6.7154    1.0000 </r>
       <r>   -6.6763    1.0000 </r>
       <r>   -6.6308    1.0000 </r>
       <r>   -6.5059    1.0000 </r>
       <r>   -6.4379    1.0000 </r>
       <r>   -6.4205    1.0000 </r>
       <r>   -6.3809    1.0000 </r>
       <r>   -6.2928    1.0000 </r>
       <r>   -6.1876    1.0000 </r>
       <r>   -6.0904    1.0000 </r>
       <r>   -6.0608    1.0000 </r>
       <r>   -6.0046    1.0000 </r>
       <r>   -5.8574    1.0000 </r>
       <r>   -5.8102    1.0000 </r>
       <r>   -5.7713    1.0000 </r>
       <r>   -5.7540    1.0000 </r>
       <r>   -5.7318    1.0000 </r>
       <r>   -5.6626    1.0000 </r>
       <r>   -5.5804    1.0000 </r>
       <r>   -5.5465    1.0000 </r>
       <r>   -4.9858    1.0000 </r>
       <r>   -4.9808    1.0000 </r>
       <r>   -4.8503    1.0000 </r>
       <r>   -4.8247    1.0000 </r>
       <r>   -4.6864    1.0000 </r>
       <r>   -4.6317    1.0000 </r>
       <r>   -4.5051    1.0000 </r>
       <r>   -4.3467    1.0000 </r>
       <r>   -3.9452    1.0000 </r>
       <r>   -3.8298    1.0000 </r>
       <r>   -3.6373    1.0000 </r>
       <r>   -3.5444    0.9998 </r>
       <r>   -3.4642    0.9988 </r>
       <r>   -3.2301    0.9164 </r>
       <r>   -3.0496    0.5418 </r>
       <r>   -2.9844    0.3611 </r>
       <r>   -2.7620    0.0269 </r>
       <r>   -2.6968    0.0084 </r>
       <r>   -2.5982    0.0010 </r>
       <r>   -2.4749    0.0000 </r>
       <r>   -2.4234    0.0000 </r>
       <r>   -2.3442    0.0000 </r>
       <r>   -2.3101    0.0000 </r>
       <r>   -2.2468    0.0000 </r>
       <r>   -2.1779    0.0000 </r>
       <r>   -1.7733    0.0000 </r>
       <r>   -1.7201    0.0000 </r>
       <r>   -1.4091    0.0000 </r>
       <r>   -1.3969    0.0000 </r>
       <r>   -1.2262    0.0000 </r>
       <r>   -1.1163    0.0000 </r>
       <r>   -1.0274    0.0000 </r>
       <r>   -0.9419    0.0000 </r>
       <r>   -0.9109    0.0000 </r>
       <r>   -0.7353    0.0000 </r>
       <r>   -0.6737    0.0000 </r>
       <r>   -0.6525    0.0000 </r>
       <r>   -0.6091    0.0000 </r>
       <r>   -0.5802    0.0000 </r>
       <r>   -0.4805    0.0000 </r>
       <r>   -0.3923    0.0000 </r>
       <r>   -0.2114    0.0000 </r>
       <r>   -0.1090    0.0000 </r>
       <r>    0.0468    0.0000 </r>
       <r>    0.2730    0.0000 </r>
       <r>    0.5933    0.0000 </r>
       <r>    0.6528    0.0000 </r>
       <r>    0.9984    0.0000 </r>
       <r>    1.0720    0.0000 </r>
       <r>    1.3006    0.0000 </r>
       <r>    1.4630    0.0000 </r>
       <r>    1.5046    0.0000 </r>
       <r>    2.2590    0.0000 </r>
       <r>    2.2767    0.0000 </r>
       <r>    2.3917    0.0000 </r>
      </set>
     </set>
    </set>
   </array>
  </eigenvalues>
  <separator name="orbital magnetization" >
   <v name="MAGDIPOLOUT">      0.00000000      0.00000000      0.00000000</v>
  </separator>
 </calculation>
 <structure name="finalpos" >
  <crystal>
   <varray name="basis" >
    <v>       8.27520931       4.77543441       0.00000000 </v>
    <v>      -8.30213165       4.82208544       0.00000000 </v>
    <v>       0.00000000       0.00000000      30.00000000 </v>
   </varray>
   <i name="volume">   2386.50154456 </i>
   <varray name="rec_basis" >
    <v>       0.06061700       0.10436362       0.00000000 </v>
    <v>      -0.06003056       0.10402519       0.00000000 </v>
    <v>       0.00000000       0.00000000       0.03333333 </v>
   </varray>
  </crystal>
  <varray name="positions" >
   <v>       0.33008599      -0.00699810      -0.00024432 </v>
   <v>       0.66458383       0.33161101       0.00023237 </v>
   <v>       0.99514360       0.33295173      -0.00029751 </v>
   <v>       0.66830882      -0.02031075      -0.00024555 </v>
   <v>       0.00127545       0.68050633      -0.00010633 </v>
   <v>       0.68242418       0.68868249       0.00022512 </v>
   <v>      -0.02201522      -0.02077528      -0.00045912 </v>
   <v>       0.33750506       0.33223015       0.00048268 </v>
   <v>       0.34164823       0.68247708       0.00027319 </v>
   <v>       0.10657203       0.22117706       0.95072499 </v>
   <v>       0.21949652       0.10538825       0.04927654 </v>
   <v>       0.10997380       0.55334708       0.95059707 </v>
   <v>       0.21679970       0.44450286       0.04984858 </v>
   <v>       0.11605096       0.89511280       0.94725250 </v>
   <v>       0.22680972       0.78627896       0.05252140 </v>
   <v>       0.44645667       0.21848146       0.94991398 </v>
   <v>       0.55487445       0.10936042       0.04785375 </v>
   <v>       0.44606291       0.55725223       0.94954104 </v>
   <v>       0.56076871       0.44546197       0.05021090 </v>
   <v>       0.44326250       0.89300305       0.94744461 </v>
   <v>       0.55456328       0.77452145       0.05505412 </v>
   <v>       0.77755739       0.22344360       0.95115773 </v>
   <v>       0.89037934       0.11224522       0.05144122 </v>
   <v>       0.77514598       0.55154712       0.94957788 </v>
   <v>       0.88622780       0.44080133       0.04930068 </v>
   <v>       0.77849635       0.88725190       0.94256648 </v>
   <v>       0.88975636       0.77866301       0.05585592 </v>
  </varray>
 </structure>
</modeling>
