       N       E                     dE             d eps       ncg     rms          rms(c)
DAV:   1     0.112657910848E+04    0.11266E+04   -0.35976E+04  8160   0.577E+02
DAV:   2    -0.251755451965E+01   -0.11291E+04   -0.10874E+04 11440   0.173E+02
DAV:   3    -0.199910031917E+03   -0.19739E+03   -0.18977E+03 10880   0.821E+01
DAV:   4    -0.209016371950E+03   -0.91063E+01   -0.88543E+01 12200   0.262E+01
DAV:   5    -0.209324673238E+03   -0.30830E+00   -0.30739E+00 11240   0.352E+00    0.275E+01
DAV:   6    -0.237125201969E+03   -0.27801E+02   -0.11012E+02 12560   0.604E+01    0.596E+01
DAV:   7    -0.196424023388E+03    0.40701E+02   -0.17768E+02 13360   0.152E+02    0.199E+01
DAV:   8    -0.189400655315E+03    0.70234E+01   -0.17583E+01 12080   0.127E+01    0.125E+01
DAV:   9    -0.188166918239E+03    0.12337E+01   -0.31498E+00 12880   0.634E+00    0.914E+00
DAV:  10    -0.186998655526E+03    0.11683E+01   -0.20966E+00 13440   0.738E+00    0.274E+00
DAV:  11    -0.186968758260E+03    0.29897E-01   -0.59729E-01 13320   0.258E+00    0.281E+00
DAV:  12    -0.187096563748E+03   -0.12781E+00   -0.84162E-01 12040   0.496E+00    0.501E+00
DAV:  13    -0.186879926739E+03    0.21664E+00   -0.55582E-01 12720   0.411E+00    0.212E+00
DAV:  14    -0.186856064493E+03    0.23862E-01   -0.13032E-01 13280   0.208E+00    0.172E+00
DAV:  15    -0.186835183233E+03    0.20881E-01   -0.72360E-02 11880   0.163E+00    0.848E-01
DAV:  16    -0.186827714498E+03    0.74687E-02   -0.11894E-02 12080   0.454E-01    0.450E-01
DAV:  17    -0.186825819777E+03    0.18947E-02   -0.78666E-03 12640   0.429E-01    0.233E-01
DAV:  18    -0.186825367811E+03    0.45197E-03   -0.24400E-03 11880   0.144E-01    0.178E-01
DAV:  19    -0.186825017740E+03    0.35007E-03   -0.96819E-04 10800   0.132E-01    0.476E-02
DAV:  20    -0.186825751853E+03   -0.73411E-03   -0.68587E-04  9360   0.584E-02    0.503E-02
DAV:  21    -0.186826344300E+03   -0.59245E-03   -0.27086E-04  7840   0.454E-02    0.449E-02
DAV:  22    -0.186827518597E+03   -0.11743E-02   -0.22122E-04  7600   0.628E-02    0.407E-02
DAV:  23    -0.186828737709E+03   -0.12191E-02   -0.14637E-04  7440   0.451E-02    0.114E-02
DAV:  24    -0.186829328126E+03   -0.59042E-03   -0.31198E-05  6680   0.142E-02    0.752E-03
DAV:  25    -0.186829690784E+03   -0.36266E-03   -0.15676E-05  5680   0.119E-02    0.498E-03
DAV:  26    -0.186829925822E+03   -0.23504E-03   -0.90602E-06  6880   0.740E-03    0.156E-03
DAV:  27    -0.186830028342E+03   -0.10252E-03   -0.38127E-06  7120   0.479E-03    0.161E-03
DAV:  28    -0.186830069486E+03   -0.41144E-04   -0.20158E-06  7400   0.366E-03
   1 F= -.18683007E+03 E0= -.18665753E+03  d E =-.186830E+03
       N       E                     dE             d eps       ncg     rms          rms(c)
DAV:   1    -0.187460059166E+03   -0.63003E+00   -0.27146E+02  8160   0.350E+01    0.464E+00
DAV:   2    -0.189373210417E+03   -0.19132E+01   -0.20266E+01 12280   0.153E+01    0.885E+00
DAV:   3    -0.189332796619E+03    0.40414E-01   -0.40627E+00 12440   0.121E+01    0.669E+00
DAV:   4    -0.188726754166E+03    0.60604E+00   -0.61968E-01 12600   0.464E+00    0.177E+00
DAV:   5    -0.188741354313E+03   -0.14600E-01   -0.31118E-01 11520   0.201E+00    0.279E+00
DAV:   6    -0.188735029660E+03    0.63247E-02   -0.45655E-01 12720   0.371E+00    0.315E+00
DAV:   7    -0.188660674862E+03    0.74355E-01   -0.20856E-01 12520   0.266E+00    0.132E+00
DAV:   8    -0.188639735089E+03    0.20940E-01   -0.61782E-02 12480   0.107E+00    0.654E-01
DAV:   9    -0.188637267034E+03    0.24681E-02   -0.14953E-02 11760   0.641E-01    0.584E-01
DAV:  10    -0.188635078922E+03    0.21881E-02   -0.58916E-03 12520   0.429E-01    0.225E-01
DAV:  11    -0.188634583422E+03    0.49550E-03   -0.23530E-03 12760   0.190E-01    0.112E-01
DAV:  12    -0.188634658251E+03   -0.74829E-04   -0.88277E-04 12000   0.949E-02
   2 F= -.18863466E+03 E0= -.18849255E+03  d E =-.180459E+01
       N       E                     dE             d eps       ncg     rms          rms(c)
DAV:   1    -0.190563247281E+03   -0.19287E+01   -0.31147E+01  9280   0.142E+01    0.448E+00
DAV:   2    -0.190551926868E+03    0.11320E-01   -0.28570E+00 11400   0.973E+00    0.748E+00
DAV:   3    -0.190032518704E+03    0.51941E+00   -0.13533E+00 12280   0.868E+00    0.416E+00
DAV:   4    -0.189824909652E+03    0.20761E+00   -0.70770E-01 12880   0.408E+00    0.249E+00
DAV:   5    -0.189740474377E+03    0.84435E-01   -0.29680E-01 11440   0.197E+00    0.114E+00
DAV:   6    -0.189726703085E+03    0.13771E-01   -0.61928E-02 11960   0.135E+00    0.841E-01
DAV:   7    -0.189721063336E+03    0.56397E-02   -0.14871E-02 12240   0.701E-01    0.220E-01
DAV:   8    -0.189720909200E+03    0.15414E-03   -0.21492E-03 11040   0.171E-01    0.141E-01
DAV:   9    -0.189721157575E+03   -0.24838E-03   -0.10469E-03 10440   0.141E-01    0.159E-01
DAV:  10    -0.189721520732E+03   -0.36316E-03   -0.14017E-03 10520   0.258E-01    0.245E-01
DAV:  11    -0.189720968255E+03    0.55248E-03   -0.79760E-04  9280   0.190E-01    0.271E-02
DAV:  12    -0.189720986844E+03   -0.18589E-04   -0.62940E-05  5720   0.316E-02
   3 F= -.18972099E+03 E0= -.18960125E+03  d E =-.108633E+01
       N       E                     dE             d eps       ncg     rms          rms(c)
DAV:   1    -0.191254060034E+03   -0.15331E+01   -0.70817E+01  8160   0.192E+01    0.458E+00
DAV:   2    -0.191138874424E+03    0.11519E+00   -0.53675E+00 13320   0.823E+00    0.514E+00
DAV:   3    -0.191180640938E+03   -0.41767E-01   -0.15776E+00 12240   0.915E+00    0.643E+00
DAV:   4    -0.190827331766E+03    0.35331E+00   -0.13310E+00 12600   0.726E+00    0.313E+00
DAV:   5    -0.190824894873E+03    0.24369E-02   -0.54685E-01 12000   0.483E+00    0.334E+00
DAV:   6    -0.190683754926E+03    0.14114E+00   -0.21175E-01 12160   0.323E+00    0.828E-01
DAV:   7    -0.190678823929E+03    0.49310E-02   -0.38396E-02 12320   0.907E-01    0.506E-01
DAV:   8    -0.190677628112E+03    0.11958E-02   -0.12124E-02 11720   0.699E-01    0.543E-01
DAV:   9    -0.190674916613E+03    0.27115E-02   -0.44845E-03 11440   0.492E-01    0.150E-01
DAV:  10    -0.190675205936E+03   -0.28932E-03   -0.11694E-03 10520   0.136E-01    0.124E-01
DAV:  11    -0.190675054044E+03    0.15189E-03   -0.86498E-04 10480   0.107E-01    0.479E-02
DAV:  12    -0.190675047613E+03    0.64315E-05   -0.14439E-04  7200   0.450E-02
   4 F= -.19067505E+03 E0= -.19057377E+03  d E =-.954061E+00
       N       E                     dE             d eps       ncg     rms          rms(c)
DAV:   1    -0.192121490838E+03   -0.14464E+01   -0.15257E+02  8160   0.277E+01    0.581E+00
DAV:   2    -0.191867279701E+03    0.25421E+00   -0.96431E+00 12080   0.885E+00    0.461E+00
DAV:   3    -0.192252723837E+03   -0.38544E+00   -0.24480E+00 12200   0.109E+01    0.932E+00
DAV:   4    -0.191577548092E+03    0.67518E+00   -0.24916E+00 12200   0.114E+01    0.370E+00
DAV:   5    -0.191415901060E+03    0.16165E+00   -0.59117E-01 12320   0.403E+00    0.227E+00
DAV:   6    -0.191365252483E+03    0.50649E-01   -0.21787E-01 12440   0.318E+00    0.155E+00
DAV:   7    -0.191347510386E+03    0.17742E-01   -0.86087E-02 12320   0.179E+00    0.636E-01
DAV:   8    -0.191340809682E+03    0.67007E-02   -0.11375E-02 10680   0.506E-01    0.202E-01
DAV:   9    -0.191342283736E+03   -0.14741E-02   -0.40514E-03 12440   0.433E-01    0.392E-01
DAV:  10    -0.191341123546E+03    0.11602E-02   -0.36122E-03 11480   0.422E-01    0.128E-01
DAV:  11    -0.191340955632E+03    0.16791E-03   -0.72609E-04 10280   0.124E-01    0.599E-02
DAV:  12    -0.191340921275E+03    0.34357E-04   -0.12862E-04  7560   0.486E-02
   5 F= -.19134092E+03 E0= -.19124674E+03  d E =-.665874E+00
       N       E                     dE             d eps       ncg     rms          rms(c)
DAV:   1    -0.191415783685E+03   -0.74828E-01   -0.54747E+00  8160   0.496E+00    0.656E-01
DAV:   2    -0.191477387693E+03   -0.61604E-01   -0.27559E-01 13560   0.292E+00    0.227E+00
DAV:   3    -0.191427080427E+03    0.50307E-01   -0.11940E-01 12400   0.231E+00    0.518E-01
DAV:   4    -0.191428162254E+03   -0.10818E-02   -0.15934E-02 11600   0.879E-01    0.653E-01
DAV:   5    -0.191423868143E+03    0.42941E-02   -0.80889E-03 12040   0.662E-01    0.213E-01
DAV:   6    -0.191423548734E+03    0.31941E-03   -0.22392E-03 10880   0.206E-01    0.130E-01
DAV:   7    -0.191423297507E+03    0.25123E-03   -0.11715E-03 10320   0.119E-01    0.603E-02
DAV:   8    -0.191423240305E+03    0.57202E-04   -0.19443E-04  6800   0.773E-02
   6 F= -.19142324E+03 E0= -.19132734E+03  d E =-.823190E-01
       N       E                     dE             d eps       ncg     rms          rms(c)
DAV:   1    -0.191430632352E+03   -0.73348E-02   -0.45824E-02  8240   0.460E-01    0.710E-02
DAV:   2    -0.191431290539E+03   -0.65819E-03   -0.23572E-03 12520   0.268E-01    0.239E-01
DAV:   3    -0.191430683043E+03    0.60750E-03   -0.11666E-03  9360   0.253E-01    0.508E-02
DAV:   4    -0.191430720048E+03   -0.37004E-04   -0.12116E-04  5840   0.789E-02
   7 F= -.19143072E+03 E0= -.19133484E+03  d E =-.747974E-02
       N       E                     dE             d eps       ncg     rms          rms(c)
DAV:   1    -0.191238282005E+03    0.19240E+00   -0.28587E+01  8160   0.114E+01    0.121E+00
DAV:   2    -0.191349521148E+03   -0.11124E+00   -0.81645E-01 13480   0.333E+00    0.246E+00
DAV:   3    -0.191281115744E+03    0.68405E-01   -0.19070E-01 12160   0.320E+00    0.120E+00
DAV:   4    -0.191273338371E+03    0.77774E-02   -0.51753E-02 12280   0.140E+00    0.949E-01
DAV:   5    -0.191267122957E+03    0.62154E-02   -0.31570E-02 12120   0.128E+00    0.686E-01
DAV:   6    -0.191263416247E+03    0.37067E-02   -0.14766E-02 11800   0.745E-01    0.334E-01
DAV:   7    -0.191262188945E+03    0.12273E-02   -0.63624E-03 11960   0.407E-01    0.245E-01
DAV:   8    -0.191261894571E+03    0.29437E-03   -0.27543E-03 11800   0.382E-01    0.219E-01
DAV:   9    -0.191261382469E+03    0.51210E-03   -0.85269E-04  9480   0.204E-01    0.448E-02
DAV:  10    -0.191261377998E+03    0.44709E-05   -0.15460E-04  6800   0.473E-02
   8 F= -.19126138E+03 E0= -.19116869E+03  d E =0.169342E+00
       N       E                     dE             d eps       ncg     rms          rms(c)
DAV:   1    -0.191208161004E+03    0.53221E-01   -0.52552E+00  8160   0.483E+00    0.555E-01
DAV:   2    -0.191234644387E+03   -0.26483E-01   -0.15438E-01 13600   0.192E+00    0.133E+00
DAV:   3    -0.191213844809E+03    0.20800E-01   -0.42797E-02 12480   0.156E+00    0.414E-01
DAV:   4    -0.191213398228E+03    0.44658E-03   -0.94751E-03 11200   0.552E-01    0.407E-01
DAV:   5    -0.191212368967E+03    0.10293E-02   -0.61368E-03 12480   0.553E-01    0.333E-01
DAV:   6    -0.191211373785E+03    0.99518E-03   -0.29880E-03 11440   0.361E-01    0.125E-01
DAV:   7    -0.191211280417E+03    0.93368E-04   -0.89168E-04 10640   0.131E-01
   9 F= -.19121128E+03 E0= -.19112103E+03  d E =0.500976E-01
       N       E                     dE             d eps       ncg     rms          rms(c)
DAV:   1    -0.191208942646E+03    0.24311E-02   -0.12137E+01  8160   0.735E+00    0.807E-01
DAV:   2    -0.191224291352E+03   -0.15349E-01   -0.27578E-01 12840   0.168E+00    0.869E-01
DAV:   3    -0.191225032051E+03   -0.74070E-03   -0.54269E-02 12440   0.164E+00    0.107E+00
DAV:   4    -0.191215794666E+03    0.92374E-02   -0.31126E-02 12360   0.131E+00    0.579E-01
DAV:   5    -0.191213211817E+03    0.25828E-02   -0.13232E-02 11160   0.795E-01    0.480E-01
DAV:   6    -0.191211774794E+03    0.14370E-02   -0.81029E-03 11600   0.676E-01    0.310E-01
DAV:   7    -0.191210677520E+03    0.10973E-02   -0.25601E-03 11920   0.319E-01    0.824E-02
DAV:   8    -0.191210611334E+03    0.66187E-04   -0.45365E-04 10080   0.113E-01
  10 F= -.19121061E+03 E0= -.19112081E+03  d E =0.669083E-03
       N       E                     dE             d eps       ncg     rms          rms(c)
DAV:   1    -0.191255274551E+03   -0.44597E-01   -0.43165E+00  8160   0.436E+00    0.542E-01
DAV:   2    -0.191287306263E+03   -0.32032E-01   -0.15780E-01 12760   0.210E+00    0.152E+00
DAV:   3    -0.191261644820E+03    0.25661E-01   -0.59599E-02 12280   0.179E+00    0.445E-01
DAV:   4    -0.191260626914E+03    0.10179E-02   -0.94294E-03 10840   0.566E-01    0.392E-01
DAV:   5    -0.191259807516E+03    0.81940E-03   -0.56521E-03 11400   0.539E-01    0.297E-01
DAV:   6    -0.191258838703E+03    0.96881E-03   -0.18972E-03 11080   0.275E-01    0.857E-02
DAV:   7    -0.191259055336E+03   -0.21663E-03   -0.84630E-04 10760   0.161E-01    0.142E-01
DAV:   8    -0.191258854220E+03    0.20112E-03   -0.56030E-04  9040   0.182E-01    0.766E-02
DAV:   9    -0.191258791599E+03    0.62621E-04   -0.12110E-04  6160   0.765E-02
  11 F= -.19125879E+03 E0= -.19116614E+03  d E =-.481803E-01
       N       E                     dE             d eps       ncg     rms          rms(c)
DAV:   1    -0.191327085910E+03   -0.68232E-01   -0.15905E+01  8160   0.838E+00    0.974E-01
DAV:   2    -0.191398622156E+03   -0.71536E-01   -0.48287E-01 13320   0.298E+00    0.220E+00
DAV:   3    -0.191352642313E+03    0.45980E-01   -0.18934E-01 12200   0.298E+00    0.109E+00
DAV:   4    -0.191343360183E+03    0.92821E-02   -0.38257E-02 12360   0.118E+00    0.726E-01
DAV:   5    -0.191340998621E+03    0.23616E-02   -0.21325E-02 12160   0.106E+00    0.616E-01
DAV:   6    -0.191336861543E+03    0.41371E-02   -0.83079E-03 11720   0.585E-01    0.183E-01
DAV:   7    -0.191336742961E+03    0.11858E-03   -0.24312E-03 11680   0.200E-01    0.977E-02
DAV:   8    -0.191336556017E+03    0.18694E-03   -0.67080E-04 10720   0.129E-01    0.719E-02
DAV:   9    -0.191336543550E+03    0.12466E-04   -0.25025E-04  8280   0.114E-01
  12 F= -.19133654E+03 E0= -.19123995E+03  d E =-.777520E-01
       N       E                     dE             d eps       ncg     rms          rms(c)
DAV:   1    -0.191328487626E+03    0.80684E-02   -0.74383E-01  8160   0.186E+00    0.279E-01
DAV:   2    -0.191328313570E+03    0.17406E-03   -0.20952E-02 11440   0.437E-01    0.255E-01
DAV:   3    -0.191328778759E+03   -0.46519E-03   -0.73541E-03 12040   0.530E-01    0.430E-01
DAV:   4    -0.191327208081E+03    0.15707E-02   -0.45325E-03 11080   0.461E-01    0.172E-01
DAV:   5    -0.191326988032E+03    0.22005E-03   -0.16169E-03 10280   0.250E-01    0.161E-01
DAV:   6    -0.191326797343E+03    0.19069E-03   -0.96272E-04  9600   0.231E-01    0.105E-01
DAV:   7    -0.191326678405E+03    0.11894E-03   -0.29311E-04  7320   0.115E-01    0.443E-02
DAV:   8    -0.191326678333E+03    0.71970E-07   -0.99549E-05  6000   0.741E-02
  13 F= -.19132668E+03 E0= -.19123035E+03  d E =0.986522E-02
       N       E                     dE             d eps       ncg     rms          rms(c)
DAV:   1    -0.191356961467E+03   -0.30283E-01   -0.26329E+00  8160   0.343E+00    0.391E-01
DAV:   2    -0.191368469696E+03   -0.11508E-01   -0.81234E-02 13480   0.124E+00    0.857E-01
DAV:   3    -0.191361285580E+03    0.71841E-02   -0.27447E-02 12120   0.115E+00    0.429E-01
DAV:   4    -0.191360039244E+03    0.12463E-02   -0.65466E-03 11480   0.497E-01    0.297E-01
DAV:   5    -0.191359559036E+03    0.48021E-03   -0.31831E-03 11080   0.415E-01    0.236E-01
DAV:   6    -0.191358967559E+03    0.59148E-03   -0.14020E-03  9760   0.245E-01    0.855E-02
DAV:   7    -0.191359266846E+03   -0.29929E-03   -0.93813E-04 10480   0.210E-01    0.183E-01
DAV:   8    -0.191358914760E+03    0.35209E-03   -0.58226E-04  8400   0.184E-01    0.348E-02
DAV:   9    -0.191358913913E+03    0.84702E-06   -0.44275E-05  5680   0.350E-02
  14 F= -.19135891E+03 E0= -.19126176E+03  d E =-.322356E-01
       N       E                     dE             d eps       ncg     rms          rms(c)
DAV:   1    -0.191368711529E+03   -0.97968E-02   -0.22739E-01  8160   0.102E+00    0.125E-01
DAV:   2    -0.191369820438E+03   -0.11089E-02   -0.78257E-03 13600   0.399E-01    0.279E-01
DAV:   3    -0.191369051639E+03    0.76880E-03   -0.26286E-03 11560   0.361E-01    0.128E-01
DAV:   4    -0.191368966945E+03    0.84693E-04   -0.63312E-04  8320   0.162E-01
  15 F= -.19136897E+03 E0= -.19127177E+03  d E =-.100530E-01
       N       E                     dE             d eps       ncg     rms          rms(c)
DAV:   1    -0.191324107244E+03    0.44944E-01   -0.50433E+00  8160   0.484E+00    0.624E-01
DAV:   2    -0.191346062430E+03   -0.21955E-01   -0.16832E-01 13600   0.184E+00    0.124E+00
DAV:   3    -0.191328590128E+03    0.17472E-01   -0.47308E-02 12240   0.160E+00    0.535E-01
DAV:   4    -0.191326540283E+03    0.20498E-02   -0.12494E-02 11120   0.693E-01    0.395E-01
DAV:   5    -0.191326043063E+03    0.49722E-03   -0.76204E-03 11680   0.624E-01    0.436E-01
DAV:   6    -0.191324220497E+03    0.18226E-02   -0.51856E-03 11560   0.501E-01    0.160E-01
DAV:   7    -0.191324130269E+03    0.90228E-04   -0.14636E-03 10240   0.193E-01    0.117E-01
DAV:   8    -0.191324062465E+03    0.67804E-04   -0.69311E-04  9160   0.180E-01
  16 F= -.19132406E+03 E0= -.19122722E+03  d E =0.449045E-01
       N       E                     dE             d eps       ncg     rms          rms(c)
DAV:   1    -0.191400383128E+03   -0.76253E-01   -0.13817E+01  8160   0.808E+00    0.105E+00
DAV:   2    -0.191463908283E+03   -0.63525E-01   -0.48199E-01 13480   0.317E+00    0.217E+00
DAV:   3    -0.191416047312E+03    0.47861E-01   -0.16014E-01 12240   0.290E+00    0.937E-01
DAV:   4    -0.191408092195E+03    0.79551E-02   -0.37642E-02 11880   0.117E+00    0.672E-01
DAV:   5    -0.191407732900E+03    0.35930E-03   -0.25341E-02 11320   0.114E+00    0.822E-01
DAV:   6    -0.191401101250E+03    0.66316E-02   -0.15666E-02 11800   0.879E-01    0.234E-01
DAV:   7    -0.191401105189E+03   -0.39392E-05   -0.38726E-03 11680   0.341E-01    0.244E-01
DAV:   8    -0.191400661978E+03    0.44321E-03   -0.21932E-03 10240   0.332E-01    0.174E-01
DAV:   9    -0.191400344376E+03    0.31760E-03   -0.64229E-04  8680   0.162E-01    0.413E-02
DAV:  10    -0.191400336224E+03    0.81516E-05   -0.12329E-04  6680   0.459E-02
  17 F= -.19140034E+03 E0= -.19130347E+03  d E =-.762738E-01
       N       E                     dE             d eps       ncg     rms          rms(c)
DAV:   1    -0.191410101873E+03   -0.97575E-02   -0.24356E-01  8160   0.105E+00    0.120E-01
DAV:   2    -0.191411243281E+03   -0.11414E-02   -0.83406E-03 12600   0.368E-01    0.276E-01
DAV:   3    -0.191410570862E+03    0.67242E-03   -0.23522E-03 11400   0.347E-01    0.131E-01
DAV:   4    -0.191410418771E+03    0.15209E-03   -0.45518E-04  8080   0.127E-01    0.581E-02
DAV:   5    -0.191410433062E+03   -0.14291E-04   -0.22689E-04  6640   0.102E-01
  18 F= -.19141043E+03 E0= -.19131397E+03  d E =-.100968E-01
       N       E                     dE             d eps       ncg     rms          rms(c)
DAV:   1    -0.191429507336E+03   -0.19089E-01   -0.80275E-01  8160   0.193E+00    0.228E-01
DAV:   2    -0.191433302328E+03   -0.37950E-02   -0.23912E-02 13560   0.670E-01    0.549E-01
DAV:   3    -0.191430450463E+03    0.28519E-02   -0.86359E-03 11800   0.667E-01    0.215E-01
DAV:   4    -0.191430144066E+03    0.30640E-03   -0.15020E-03 10040   0.227E-01    0.129E-01
DAV:   5    -0.191430059663E+03    0.84403E-04   -0.84517E-04 11080   0.188E-01
  19 F= -.19143006E+03 E0= -.19133453E+03  d E =-.196266E-01
       N       E                     dE             d eps       ncg     rms          rms(c)
DAV:   1    -0.191428353885E+03    0.17902E-02   -0.10267E-01  8160   0.730E-01    0.192E-01
DAV:   2    -0.191437480621E+03   -0.91267E-02   -0.20214E-02 12200   0.962E-01    0.991E-01
DAV:   3    -0.191428206936E+03    0.92737E-02   -0.14860E-02 10120   0.855E-01    0.967E-02
DAV:   4    -0.191428148464E+03    0.58472E-04   -0.52539E-04  9680   0.963E-02
  20 F= -.19142815E+03 E0= -.19133251E+03  d E =0.191120E-02
       N       E                     dE             d eps       ncg     rms          rms(c)
DAV:   1    -0.191440270363E+03   -0.12063E-01   -0.36704E+00  8160   0.409E+00    0.641E-01
DAV:   2    -0.191502370465E+03   -0.62100E-01   -0.21302E-01 12480   0.251E+00    0.269E+00
DAV:   3    -0.191443818061E+03    0.58552E-01   -0.14387E-01 12080   0.240E+00    0.456E-01
DAV:   4    -0.191441861494E+03    0.19566E-02   -0.75097E-03 11280   0.445E-01    0.293E-01
DAV:   5    -0.191441367520E+03    0.49397E-03   -0.48276E-03 12840   0.485E-01    0.305E-01
DAV:   6    -0.191440644168E+03    0.72335E-03   -0.31110E-03 11560   0.425E-01    0.166E-01
DAV:   7    -0.191440228002E+03    0.41617E-03   -0.11228E-03 10280   0.186E-01    0.472E-02
DAV:   8    -0.191440200046E+03    0.27956E-04   -0.14953E-04  7520   0.507E-02
  21 F= -.19144020E+03 E0= -.19134483E+03  d E =-.120516E-01
       N       E                     dE             d eps       ncg     rms          rms(c)
DAV:   1    -0.191459446158E+03   -0.19218E-01   -0.50972E+00  8160   0.491E+00    0.859E-01
DAV:   2    -0.191552354490E+03   -0.92908E-01   -0.31958E-01 12720   0.339E+00    0.291E+00
DAV:   3    -0.191460152636E+03    0.92202E-01   -0.13860E-01 12200   0.296E+00    0.559E-01
DAV:   4    -0.191459253512E+03    0.89912E-03   -0.17845E-02 11160   0.848E-01    0.619E-01
DAV:   5    -0.191455883449E+03    0.33701E-02   -0.13995E-02 12080   0.893E-01    0.403E-01
DAV:   6    -0.191454655939E+03    0.12275E-02   -0.67424E-03 11680   0.535E-01    0.278E-01
DAV:   7    -0.191454284647E+03    0.37129E-03   -0.35180E-03 10880   0.445E-01    0.231E-01
DAV:   8    -0.191453708978E+03    0.57567E-03   -0.11766E-03 10400   0.254E-01    0.712E-02
DAV:   9    -0.191453627206E+03    0.81772E-04   -0.15525E-04  6360   0.584E-02
  22 F= -.19145363E+03 E0= -.19136002E+03  d E =-.134272E-01
       N       E                     dE             d eps       ncg     rms          rms(c)
DAV:   1    -0.191492001952E+03   -0.38293E-01   -0.28802E+00  8160   0.369E+00    0.454E-01
DAV:   2    -0.191502655649E+03   -0.10654E-01   -0.90496E-02 13560   0.123E+00    0.907E-01
DAV:   3    -0.191496049425E+03    0.66062E-02   -0.30681E-02 12160   0.125E+00    0.509E-01
DAV:   4    -0.191493791575E+03    0.22579E-02   -0.70341E-03 11960   0.560E-01    0.267E-01
DAV:   5    -0.191493329547E+03    0.46203E-03   -0.34384E-03 10520   0.387E-01    0.291E-01
DAV:   6    -0.191492763211E+03    0.56634E-03   -0.28060E-03 10960   0.388E-01    0.177E-01
DAV:   7    -0.191492644520E+03    0.11869E-03   -0.10999E-03  9600   0.225E-01    0.133E-01
DAV:   8    -0.191492458136E+03    0.18638E-03   -0.39844E-04  8600   0.170E-01    0.580E-02
DAV:   9    -0.191492415696E+03    0.42441E-04   -0.86504E-05  6720   0.716E-02
  23 F= -.19149242E+03 E0= -.19140196E+03  d E =-.387885E-01
       N       E                     dE             d eps       ncg     rms          rms(c)
DAV:   1    -0.191518837447E+03   -0.26379E-01   -0.13627E+00  8160   0.252E+00    0.299E-01
DAV:   2    -0.191524454321E+03   -0.56169E-02   -0.46725E-02 13520   0.906E-01    0.629E-01
DAV:   3    -0.191521261883E+03    0.31924E-02   -0.11563E-02 12280   0.813E-01    0.313E-01
DAV:   4    -0.191520502616E+03    0.75927E-03   -0.27498E-03 11160   0.365E-01    0.205E-01
DAV:   5    -0.191520254625E+03    0.24799E-03   -0.16178E-03 10000   0.315E-01    0.179E-01
DAV:   6    -0.191520025934E+03    0.22869E-03   -0.10499E-03 10360   0.225E-01    0.103E-01
DAV:   7    -0.191520042799E+03   -0.16865E-04   -0.56923E-04  8280   0.187E-01
  24 F= -.19152004E+03 E0= -.19143139E+03  d E =-.276271E-01
       N       E                     dE             d eps       ncg     rms          rms(c)
DAV:   1    -0.191475506817E+03    0.44519E-01   -0.75609E+00  8160   0.593E+00    0.880E-01
DAV:   2    -0.191548897087E+03   -0.73390E-01   -0.32059E-01 13320   0.313E+00    0.264E+00
DAV:   3    -0.191480870299E+03    0.68027E-01   -0.16871E-01 12240   0.292E+00    0.793E-01
DAV:   4    -0.191478221270E+03    0.26490E-02   -0.24697E-02 11520   0.101E+00    0.725E-01
DAV:   5    -0.191475426109E+03    0.27952E-02   -0.20880E-02 12280   0.107E+00    0.580E-01
DAV:   6    -0.191471675861E+03    0.37502E-02   -0.80372E-03 11160   0.589E-01    0.193E-01
DAV:   7    -0.191471893747E+03   -0.21789E-03   -0.29347E-03 12720   0.335E-01    0.237E-01
DAV:   8    -0.191471315202E+03    0.57854E-03   -0.14774E-03 10120   0.311E-01    0.963E-02
DAV:   9    -0.191471191494E+03    0.12371E-03   -0.28126E-04  9160   0.111E-01    0.263E-02
DAV:  10    -0.191471195265E+03   -0.37704E-05   -0.60619E-05  8160   0.315E-02
  25 F= -.19147120E+03 E0= -.19137766E+03  d E =0.488475E-01
       N       E                     dE             d eps       ncg     rms          rms(c)
DAV:   1    -0.191552595477E+03   -0.81404E-01   -0.15112E+01  8160   0.850E+00    0.104E+00
DAV:   2    -0.191617564701E+03   -0.64969E-01   -0.48550E-01 13120   0.292E+00    0.229E+00
DAV:   3    -0.191574162414E+03    0.43402E-01   -0.17053E-01 12240   0.302E+00    0.112E+00
DAV:   4    -0.191562269829E+03    0.11893E-01   -0.32128E-02 12080   0.115E+00    0.543E-01
DAV:   5    -0.191558897748E+03    0.33721E-02   -0.15186E-02 11600   0.736E-01    0.541E-01
DAV:   6    -0.191558048951E+03    0.84880E-03   -0.12607E-02 12520   0.880E-01    0.465E-01
DAV:   7    -0.191556031240E+03    0.20177E-02   -0.52252E-03 11120   0.503E-01    0.163E-01
DAV:   8    -0.191555745690E+03    0.28555E-03   -0.11459E-03 10880   0.234E-01    0.129E-01
DAV:   9    -0.191555562786E+03    0.18290E-03   -0.41161E-04  9000   0.172E-01    0.474E-02
DAV:  10    -0.191555541862E+03    0.20924E-04   -0.10648E-04  6640   0.564E-02
  26 F= -.19155554E+03 E0= -.19146953E+03  d E =-.843466E-01
       N       E                     dE             d eps       ncg     rms          rms(c)
DAV:   1    -0.191615008765E+03   -0.59446E-01   -0.81911E+00  8160   0.623E+00    0.709E-01
DAV:   2    -0.191632244954E+03   -0.17236E-01   -0.24314E-01 12520   0.157E+00    0.886E-01
DAV:   3    -0.191631719975E+03    0.52498E-03   -0.54959E-02 12280   0.171E+00    0.961E-01
DAV:   4    -0.191622632220E+03    0.90878E-02   -0.19639E-02 12320   0.111E+00    0.398E-01
DAV:   5    -0.191620545742E+03    0.20865E-02   -0.66307E-03 11280   0.490E-01    0.318E-01
DAV:   6    -0.191621158729E+03   -0.61299E-03   -0.59021E-03 11480   0.617E-01    0.391E-01
DAV:   7    -0.191619544815E+03    0.16139E-02   -0.28901E-03 11000   0.404E-01    0.935E-02
DAV:   8    -0.191619449802E+03    0.95013E-04   -0.43577E-04  9360   0.123E-01
  27 F= -.19161945E+03 E0= -.19153708E+03  d E =-.639079E-01
       N       E                     dE             d eps       ncg     rms          rms(c)
DAV:   1    -0.191664070971E+03   -0.44526E-01   -0.60508E+00  8160   0.527E+00    0.544E-01
DAV:   2    -0.191675670508E+03   -0.11600E-01   -0.18269E-01 12240   0.114E+00    0.379E-01
DAV:   3    -0.191677470538E+03   -0.18000E-02   -0.17257E-02 12120   0.824E-01    0.633E-01
DAV:   4    -0.191673927329E+03    0.35432E-02   -0.10012E-02 12240   0.838E-01    0.352E-01
DAV:   5    -0.191672454549E+03    0.14728E-02   -0.40800E-03 12000   0.391E-01    0.153E-01
DAV:   6    -0.191672894427E+03   -0.43988E-03   -0.24545E-03 11920   0.329E-01    0.251E-01
DAV:   7    -0.191672212569E+03    0.68186E-03   -0.12264E-03 10080   0.302E-01    0.728E-02
DAV:   8    -0.191672153634E+03    0.58935E-04   -0.15672E-04  6200   0.787E-02
  28 F= -.19167215E+03 E0= -.19159143E+03  d E =-.527038E-01
       N       E                     dE             d eps       ncg     rms          rms(c)
DAV:   1    -0.191698855809E+03   -0.26643E-01   -0.20198E+00  8160   0.304E+00    0.326E-01
DAV:   2    -0.191703963416E+03   -0.51076E-02   -0.64083E-02 11720   0.811E-01    0.425E-01
DAV:   3    -0.191703822423E+03    0.14099E-03   -0.10896E-02 12160   0.817E-01    0.439E-01
DAV:   4    -0.191701625352E+03    0.21971E-02   -0.36348E-03 11360   0.459E-01    0.129E-01
DAV:   5    -0.191701778791E+03   -0.15344E-03   -0.15065E-03 10840   0.257E-01    0.200E-01
DAV:   6    -0.191701572298E+03    0.20649E-03   -0.12487E-03 10240   0.299E-01    0.137E-01
DAV:   7    -0.191701349423E+03    0.22287E-03   -0.39396E-04  8400   0.148E-01    0.480E-02
DAV:   8    -0.191701335558E+03    0.13865E-04   -0.85379E-05  6720   0.731E-02
  29 F= -.19170134E+03 E0= -.19162074E+03  d E =-.291819E-01
       N       E                     dE             d eps       ncg     rms          rms(c)
DAV:   1    -0.191721084862E+03   -0.19735E-01   -0.10652E+00  8160   0.219E+00    0.222E-01
DAV:   2    -0.191723842237E+03   -0.27574E-02   -0.30062E-02 11560   0.594E-01    0.330E-01
DAV:   3    -0.191723297052E+03    0.54519E-03   -0.54264E-03 12280   0.575E-01    0.268E-01
DAV:   4    -0.191722512590E+03    0.78446E-03   -0.13664E-03 10080   0.274E-01    0.880E-02
DAV:   5    -0.191722551087E+03   -0.38497E-04   -0.61271E-04  9640   0.161E-01
  30 F= -.19172255E+03 E0= -.19164211E+03  d E =-.212155E-01
       N       E                     dE             d eps       ncg     rms          rms(c)
DAV:   1    -0.191713506058E+03    0.90065E-02   -0.22528E-01  8160   0.104E+00    0.171E-01
DAV:   2    -0.191717905770E+03   -0.43997E-02   -0.12608E-02 12760   0.745E-01    0.623E-01
DAV:   3    -0.191713502872E+03    0.44029E-02   -0.54870E-03 11280   0.639E-01    0.939E-02
DAV:   4    -0.191713473315E+03    0.29557E-04   -0.52614E-04  9240   0.120E-01
  31 F= -.19171347E+03 E0= -.19163307E+03  d E =0.907777E-02
       N       E                     dE             d eps       ncg     rms          rms(c)
DAV:   1    -0.191724830100E+03   -0.11327E-01   -0.65952E-01  8160   0.173E+00    0.163E-01
DAV:   2    -0.191726799740E+03   -0.19696E-02   -0.22350E-02 12200   0.444E-01    0.205E-01
DAV:   3    -0.191726811573E+03   -0.11833E-04   -0.23322E-03 12720   0.394E-01    0.218E-01
DAV:   4    -0.191726320129E+03    0.49144E-03   -0.77831E-04  9280   0.237E-01    0.908E-02
DAV:   5    -0.191726305304E+03    0.14824E-04   -0.29384E-04  8240   0.145E-01
  32 F= -.19172631E+03 E0= -.19164610E+03  d E =-.128320E-01
       N       E                     dE             d eps       ncg     rms          rms(c)
DAV:   1    -0.191707395073E+03    0.18925E-01   -0.21297E+00  8160   0.311E+00    0.419E-01
DAV:   2    -0.191726697498E+03   -0.19302E-01   -0.78906E-02 13120   0.169E+00    0.127E+00
DAV:   3    -0.191708125262E+03    0.18572E-01   -0.27540E-02 12320   0.138E+00    0.242E-01
DAV:   4    -0.191708594250E+03   -0.46899E-03   -0.35444E-03 11320   0.459E-01    0.326E-01
DAV:   5    -0.191707366349E+03    0.12279E-02   -0.25103E-03 12280   0.452E-01    0.150E-01
DAV:   6    -0.191707222671E+03    0.14368E-03   -0.10813E-03 10800   0.207E-01    0.750E-02
DAV:   7    -0.191707124025E+03    0.98646E-04   -0.31239E-04  8760   0.879E-02
  33 F= -.19170712E+03 E0= -.19162718E+03  d E =0.191813E-01
       N       E                     dE             d eps       ncg     rms          rms(c)
DAV:   1    -0.191732189419E+03   -0.24967E-01   -0.20510E+00  8160   0.307E+00    0.459E-01
DAV:   2    -0.191753466107E+03   -0.21277E-01   -0.89015E-02 12520   0.180E+00    0.143E+00
DAV:   3    -0.191732157127E+03    0.21309E-01   -0.37504E-02 12280   0.154E+00    0.268E-01
DAV:   4    -0.191732722753E+03   -0.56563E-03   -0.49978E-03 12080   0.549E-01    0.397E-01
DAV:   5    -0.191731016627E+03    0.17061E-02   -0.35657E-03 11440   0.529E-01    0.178E-01
DAV:   6    -0.191730848563E+03    0.16806E-03   -0.15051E-03 11280   0.262E-01    0.135E-01
DAV:   7    -0.191730729866E+03    0.11870E-03   -0.74415E-04 10520   0.227E-01    0.102E-01
DAV:   8    -0.191730598073E+03    0.13179E-03   -0.19490E-04  6720   0.114E-01    0.229E-02
DAV:   9    -0.191730592916E+03    0.51577E-05   -0.38763E-05  6400   0.271E-02
  34 F= -.19173059E+03 E0= -.19165022E+03  d E =-.234689E-01
       N       E                     dE             d eps       ncg     rms          rms(c)
DAV:   1    -0.191731941200E+03   -0.13431E-02   -0.28526E+00  8160   0.361E+00    0.444E-01
DAV:   2    -0.191748406361E+03   -0.16465E-01   -0.97923E-02 12880   0.163E+00    0.111E+00
DAV:   3    -0.191734555879E+03    0.13850E-01   -0.28247E-02 12360   0.133E+00    0.316E-01
DAV:   4    -0.191734647641E+03   -0.91762E-04   -0.42590E-03 11560   0.527E-01    0.349E-01
DAV:   5    -0.191733397902E+03    0.12497E-02   -0.29695E-03 10720   0.504E-01    0.187E-01
DAV:   6    -0.191733213989E+03    0.18391E-03   -0.14913E-03 12440   0.237E-01    0.108E-01
DAV:   7    -0.191733043386E+03    0.17060E-03   -0.58283E-04 10440   0.135E-01    0.728E-02
DAV:   8    -0.191732997177E+03    0.46209E-04   -0.14023E-04  6520   0.105E-01
  35 F= -.19173300E+03 E0= -.19165288E+03  d E =-.240426E-02
       N       E                     dE             d eps       ncg     rms          rms(c)
DAV:   1    -0.191768313311E+03   -0.35270E-01   -0.53188E+00  8160   0.492E+00    0.613E-01
DAV:   2    -0.191793756493E+03   -0.25443E-01   -0.15620E-01 12840   0.206E+00    0.149E+00
DAV:   3    -0.191770325699E+03    0.23431E-01   -0.56133E-02 12400   0.185E+00    0.437E-01
DAV:   4    -0.191769509044E+03    0.81666E-03   -0.85929E-03 12240   0.646E-01    0.437E-01
DAV:   5    -0.191768033343E+03    0.14757E-02   -0.62018E-03 11720   0.698E-01    0.326E-01
DAV:   6    -0.191767282011E+03    0.75133E-03   -0.33702E-03 11720   0.435E-01    0.186E-01
DAV:   7    -0.191767054091E+03    0.22792E-03   -0.14027E-03 10600   0.306E-01    0.151E-01
DAV:   8    -0.191766776346E+03    0.27775E-03   -0.43740E-04  8720   0.174E-01    0.342E-02
DAV:   9    -0.191766764524E+03    0.11822E-04   -0.63466E-05  6640   0.386E-02
  36 F= -.19176676E+03 E0= -.19168618E+03  d E =-.337673E-01
       N       E                     dE             d eps       ncg     rms          rms(c)
DAV:   1    -0.191783979988E+03   -0.17204E-01   -0.95038E-01  8160   0.208E+00    0.214E-01
DAV:   2    -0.191786836405E+03   -0.28564E-02   -0.29301E-02 11800   0.600E-01    0.343E-01
DAV:   3    -0.191786065742E+03    0.77066E-03   -0.48856E-03 12320   0.561E-01    0.235E-01
DAV:   4    -0.191785390131E+03    0.67561E-03   -0.94605E-04  9680   0.232E-01    0.717E-02
DAV:   5    -0.191785544309E+03   -0.15418E-03   -0.53550E-04  9640   0.162E-01    0.133E-01
DAV:   6    -0.191785429045E+03    0.11526E-03   -0.58246E-04  8920   0.200E-01    0.875E-02
DAV:   7    -0.191785325686E+03    0.10336E-03   -0.17941E-04  6080   0.927E-02    0.124E-02
DAV:   8    -0.191785331002E+03   -0.53157E-05   -0.43660E-05  6880   0.243E-02
  37 F= -.19178533E+03 E0= -.19170473E+03  d E =-.185665E-01
       N       E                     dE             d eps       ncg     rms          rms(c)
DAV:   1    -0.191800590263E+03   -0.15265E-01   -0.75259E-01  8160   0.183E+00    0.186E-01
DAV:   2    -0.191803400361E+03   -0.28101E-02   -0.18554E-02 12080   0.658E-01    0.436E-01
DAV:   3    -0.191801345439E+03    0.20549E-02   -0.50846E-03 12360   0.566E-01    0.147E-01
DAV:   4    -0.191801187728E+03    0.15771E-03   -0.62527E-04  9640   0.153E-01    0.886E-02
DAV:   5    -0.191801213799E+03   -0.26071E-04   -0.44681E-04  9960   0.170E-01
  38 F= -.19180121E+03 E0= -.19172091E+03  d E =-.158828E-01
       N       E                     dE             d eps       ncg     rms          rms(c)
DAV:   1    -0.191787609212E+03    0.13579E-01   -0.83409E-01  8160   0.195E+00    0.249E-01
DAV:   2    -0.191794293070E+03   -0.66839E-02   -0.28294E-02 13000   0.986E-01    0.742E-01
DAV:   3    -0.191787856405E+03    0.64367E-02   -0.10135E-02 11960   0.826E-01    0.160E-01
DAV:   4    -0.191787813978E+03    0.42427E-04   -0.12970E-03 10520   0.228E-01    0.148E-01
DAV:   5    -0.191787630476E+03    0.18350E-03   -0.80007E-04 11200   0.237E-01    0.118E-01
DAV:   6    -0.191787495464E+03    0.13501E-03   -0.41574E-04  8760   0.167E-01    0.488E-02
DAV:   7    -0.191787470780E+03    0.24684E-04   -0.10398E-04  6680   0.527E-02
  39 F= -.19178747E+03 E0= -.19170714E+03  d E =0.137430E-01
       N       E                     dE             d eps       ncg     rms          rms(c)
DAV:   1    -0.191829468315E+03   -0.41973E-01   -0.47416E+00  8160   0.464E+00    0.552E-01
DAV:   2    -0.191847778643E+03   -0.18310E-01   -0.13650E-01 12200   0.175E+00    0.120E+00
DAV:   3    -0.191833157168E+03    0.14621E-01   -0.39755E-02 12360   0.157E+00    0.426E-01
DAV:   4    -0.191831446744E+03    0.17104E-02   -0.68130E-03 12240   0.547E-01    0.321E-01
DAV:   5    -0.191831065404E+03    0.38134E-03   -0.45032E-03 11880   0.582E-01    0.322E-01
DAV:   6    -0.191830305643E+03    0.75976E-03   -0.30134E-03 11640   0.437E-01    0.170E-01
DAV:   7    -0.191830047767E+03    0.25788E-03   -0.11061E-03  9720   0.259E-01    0.127E-01
DAV:   8    -0.191829859849E+03    0.18792E-03   -0.33873E-04  8960   0.152E-01    0.324E-02
DAV:   9    -0.191829847208E+03    0.12641E-04   -0.50150E-05  6600   0.379E-02
  40 F= -.19182985E+03 E0= -.19174936E+03  d E =-.423764E-01
       N       E                     dE             d eps       ncg     rms          rms(c)
DAV:   1    -0.191844245081E+03   -0.14385E-01   -0.53564E-01  8160   0.155E+00    0.166E-01
DAV:   2    -0.191846356885E+03   -0.21118E-02   -0.16264E-02 11600   0.573E-01    0.351E-01
DAV:   3    -0.191845106533E+03    0.12504E-02   -0.33966E-03 12360   0.482E-01    0.140E-01
DAV:   4    -0.191844915048E+03    0.19149E-03   -0.48412E-04  8320   0.161E-01    0.752E-02
DAV:   5    -0.191844950341E+03   -0.35293E-04   -0.34393E-04  8880   0.165E-01
  41 F= -.19184495E+03 E0= -.19176484E+03  d E =-.151031E-01
       N       E                     dE             d eps       ncg     rms          rms(c)
DAV:   1    -0.191869275635E+03   -0.24361E-01   -0.15715E+00  8160   0.265E+00    0.282E-01
DAV:   2    -0.191875521958E+03   -0.62463E-02   -0.41274E-02 11840   0.937E-01    0.641E-01
DAV:   3    -0.191871059961E+03    0.44620E-02   -0.10721E-02 12440   0.847E-01    0.212E-01
DAV:   4    -0.191870572646E+03    0.48731E-03   -0.10761E-03 10720   0.209E-01    0.107E-01
DAV:   5    -0.191870877893E+03   -0.30525E-03   -0.10476E-03 11440   0.276E-01    0.194E-01
DAV:   6    -0.191870533770E+03    0.34412E-03   -0.81510E-04  9840   0.229E-01    0.696E-02
DAV:   7    -0.191870489567E+03    0.44204E-04   -0.14674E-04  6120   0.106E-01
  42 F= -.19187049E+03 E0= -.19179086E+03  d E =-.255392E-01
       N       E                     dE             d eps       ncg     rms          rms(c)
DAV:   1    -0.191879553358E+03   -0.90196E-02   -0.19165E-01  8160   0.932E-01    0.110E-01
DAV:   2    -0.191880500616E+03   -0.94726E-03   -0.66316E-03 11720   0.379E-01    0.249E-01
DAV:   3    -0.191879844406E+03    0.65621E-03   -0.14294E-03 11080   0.320E-01    0.833E-02
DAV:   4    -0.191879800247E+03    0.44159E-04   -0.18613E-04  6440   0.107E-01
  43 F= -.19187980E+03 E0= -.19180025E+03  d E =-.931068E-02
       N       E                     dE             d eps       ncg     rms          rms(c)
DAV:   1    -0.191923304407E+03   -0.43460E-01   -0.53971E+00  8160   0.494E+00    0.532E-01
DAV:   2    -0.191940600174E+03   -0.17296E-01   -0.15154E-01 11320   0.159E+00    0.100E+00
DAV:   3    -0.191931380631E+03    0.92195E-02   -0.32193E-02 12160   0.147E+00    0.472E-01
DAV:   4    -0.191928503471E+03    0.28772E-02   -0.56367E-03 12240   0.492E-01    0.188E-01
DAV:   5    -0.191928485234E+03    0.18237E-04   -0.32666E-03 11280   0.276E-01    0.210E-01
DAV:   6    -0.191928493853E+03   -0.86191E-05   -0.22557E-03 11960   0.402E-01    0.223E-01
DAV:   7    -0.191927827480E+03    0.66637E-03   -0.10226E-03 10560   0.251E-01    0.477E-02
DAV:   8    -0.191927835174E+03   -0.76937E-05   -0.11144E-04  6280   0.870E-02
  44 F= -.19192784E+03 E0= -.19184828E+03  d E =-.480349E-01
       N       E                     dE             d eps       ncg     rms          rms(c)
DAV:   1    -0.191970358316E+03   -0.42531E-01   -0.69882E+00  8160   0.560E+00    0.569E-01
DAV:   2    -0.191991235569E+03   -0.20877E-01   -0.19431E-01 11240   0.172E+00    0.986E-01
DAV:   3    -0.191982910822E+03    0.83247E-02   -0.35996E-02 12320   0.156E+00    0.561E-01
DAV:   4    -0.191979285387E+03    0.36254E-02   -0.74769E-03 12200   0.620E-01    0.220E-01
DAV:   5    -0.191978712115E+03    0.57327E-03   -0.37193E-03 12040   0.312E-01    0.160E-01
DAV:   6    -0.191979016489E+03   -0.30437E-03   -0.20869E-03 12160   0.355E-01    0.222E-01
DAV:   7    -0.191978359701E+03    0.65679E-03   -0.80514E-04 10400   0.246E-01    0.374E-02
DAV:   8    -0.191978363844E+03   -0.41428E-05   -0.10464E-04  6160   0.611E-02
  45 F= -.19197836E+03 E0= -.19189870E+03  d E =-.505287E-01
       N       E                     dE             d eps       ncg     rms          rms(c)
DAV:   1    -0.191999509079E+03   -0.21149E-01   -0.17155E+00  8160   0.281E+00    0.328E-01
DAV:   2    -0.192004601396E+03   -0.50923E-02   -0.59915E-02 12360   0.891E-01    0.487E-01
DAV:   3    -0.192003099393E+03    0.15020E-02   -0.99073E-03 12120   0.820E-01    0.350E-01
DAV:   4    -0.192001653521E+03    0.14459E-02   -0.28947E-03 12280   0.417E-01    0.147E-01
DAV:   5    -0.192001581981E+03    0.71540E-04   -0.14108E-03 10600   0.243E-01    0.157E-01
DAV:   6    -0.192001528078E+03    0.53903E-04   -0.11187E-03 10840   0.279E-01    0.132E-01
DAV:   7    -0.192001289642E+03    0.23844E-03   -0.52871E-04  8840   0.156E-01    0.468E-02
DAV:   8    -0.192001278563E+03    0.11079E-04   -0.85112E-05  6800   0.794E-02
  46 F= -.19200128E+03 E0= -.19192070E+03  d E =-.229147E-01
       N       E                     dE             d eps       ncg     rms          rms(c)
DAV:   1    -0.192014979081E+03   -0.13689E-01   -0.81347E-01  8160   0.192E+00    0.211E-01
DAV:   2    -0.192017460285E+03   -0.24812E-02   -0.27199E-02 11480   0.655E-01    0.315E-01
DAV:   3    -0.192016630037E+03    0.83025E-03   -0.42949E-03 12400   0.538E-01    0.211E-01
DAV:   4    -0.192016184784E+03    0.44525E-03   -0.12410E-03 10320   0.281E-01    0.110E-01
DAV:   5    -0.192016120039E+03    0.64745E-04   -0.66842E-04 10160   0.185E-01
  47 F= -.19201612E+03 E0= -.19193557E+03  d E =-.148415E-01
       N       E                     dE             d eps       ncg     rms          rms(c)
DAV:   1    -0.192035372412E+03   -0.19188E-01   -0.21307E+00  8160   0.311E+00    0.320E-01
DAV:   2    -0.192040551413E+03   -0.51790E-02   -0.62338E-02 12400   0.794E-01    0.391E-01
DAV:   3    -0.192040113028E+03    0.43839E-03   -0.84125E-03 12320   0.774E-01    0.370E-01
DAV:   4    -0.192038548023E+03    0.15650E-02   -0.27937E-03 11440   0.438E-01    0.143E-01
DAV:   5    -0.192038588826E+03   -0.40803E-04   -0.14365E-03 11160   0.285E-01    0.161E-01
DAV:   6    -0.192038517174E+03    0.71653E-04   -0.88833E-04 10520   0.254E-01
  48 F= -.19203852E+03 E0= -.19195752E+03  d E =-.223971E-01
       N       E                     dE             d eps       ncg     rms          rms(c)
DAV:   1    -0.192047643489E+03   -0.90547E-02   -0.44880E-01  8160   0.144E+00    0.188E-01
DAV:   2    -0.192048481179E+03   -0.83769E-03   -0.15863E-02 12000   0.412E-01    0.203E-01
DAV:   3    -0.192048405257E+03    0.75922E-04   -0.24880E-03 12280   0.393E-01    0.217E-01
DAV:   4    -0.192047946945E+03    0.45831E-03   -0.13768E-03 10520   0.303E-01    0.116E-01
DAV:   5    -0.192047793775E+03    0.15317E-03   -0.68336E-04  8840   0.157E-01    0.736E-02
DAV:   6    -0.192047820895E+03   -0.27120E-04   -0.30692E-04  9520   0.155E-01
  49 F= -.19204782E+03 E0= -.19196626E+03  d E =-.930372E-02
       N       E                     dE             d eps       ncg     rms          rms(c)
DAV:   1    -0.192058638078E+03   -0.10844E-01   -0.77926E-01  8160   0.187E+00    0.197E-01
DAV:   2    -0.192060415836E+03   -0.17778E-02   -0.23644E-02 11720   0.511E-01    0.213E-01
DAV:   3    -0.192060109947E+03    0.30589E-03   -0.33020E-03 12440   0.409E-01    0.196E-01
DAV:   4    -0.192059773674E+03    0.33627E-03   -0.10884E-03 11080   0.289E-01    0.117E-01
DAV:   5    -0.192059626769E+03    0.14691E-03   -0.51871E-04  8840   0.152E-01    0.660E-02
DAV:   6    -0.192059719193E+03   -0.92424E-04   -0.33641E-04  9360   0.157E-01
  50 F= -.19205972E+03 E0= -.19197802E+03  d E =-.118983E-01
       N       E                     dE             d eps       ncg     rms          rms(c)
DAV:   1    -0.192068807451E+03   -0.91807E-02   -0.59433E-01  8160   0.164E+00    0.180E-01
DAV:   2    -0.192069995170E+03   -0.11877E-02   -0.17703E-02 12200   0.384E-01    0.173E-01
DAV:   3    -0.192069804875E+03    0.19030E-03   -0.25924E-03 12320   0.317E-01    0.182E-01
DAV:   4    -0.192069566399E+03    0.23848E-03   -0.10019E-03 11000   0.283E-01    0.122E-01
DAV:   5    -0.192069357307E+03    0.20909E-03   -0.46898E-04  8840   0.144E-01    0.392E-02
DAV:   6    -0.192069361416E+03   -0.41093E-05   -0.12913E-04  6200   0.490E-02
  51 F= -.19206936E+03 E0= -.19198734E+03  d E =-.964222E-02
       N       E                     dE             d eps       ncg     rms          rms(c)
DAV:   1    -0.192080478664E+03   -0.11121E-01   -0.11148E+00  8160   0.224E+00    0.228E-01
DAV:   2    -0.192083243010E+03   -0.27643E-02   -0.32601E-02 12120   0.609E-01    0.283E-01
DAV:   3    -0.192082622324E+03    0.62069E-03   -0.52094E-03 12400   0.522E-01    0.245E-01
DAV:   4    -0.192082125205E+03    0.49712E-03   -0.16184E-03 12200   0.344E-01    0.135E-01
DAV:   5    -0.192081903023E+03    0.22218E-03   -0.63032E-04  9840   0.168E-01    0.759E-02
DAV:   6    -0.192082030375E+03   -0.12735E-03   -0.43120E-04  9760   0.184E-01    0.115E-01
DAV:   7    -0.192081877620E+03    0.15275E-03   -0.25348E-04  7400   0.130E-01    0.274E-02
DAV:   8    -0.192081880947E+03   -0.33274E-05   -0.46395E-05  6160   0.534E-02
  52 F= -.19208188E+03 E0= -.19199985E+03  d E =-.125195E-01
       N       E                     dE             d eps       ncg     rms          rms(c)
DAV:   1    -0.192096349565E+03   -0.14472E-01   -0.25738E+00  8160   0.341E+00    0.348E-01
DAV:   2    -0.192102166603E+03   -0.58170E-02   -0.72979E-02 12320   0.820E-01    0.384E-01
DAV:   3    -0.192101045352E+03    0.11213E-02   -0.10937E-02 12480   0.709E-01    0.367E-01
DAV:   4    -0.192099966203E+03    0.10791E-02   -0.38210E-03 12320   0.543E-01    0.217E-01
DAV:   5    -0.192099240387E+03    0.72582E-03   -0.16213E-03 11080   0.243E-01    0.757E-02
DAV:   6    -0.192099431620E+03   -0.19123E-03   -0.66890E-04 10840   0.180E-01    0.126E-01
DAV:   7    -0.192099223407E+03    0.20821E-03   -0.27667E-04  8960   0.157E-01    0.235E-02
DAV:   8    -0.192099227030E+03   -0.36233E-05   -0.35695E-05  6080   0.346E-02
  53 F= -.19209923E+03 E0= -.19201708E+03  d E =-.173461E-01
       N       E                     dE             d eps       ncg     rms          rms(c)
DAV:   1    -0.192103730707E+03   -0.45073E-02   -0.21896E-01  8160   0.999E-01    0.132E-01
DAV:   2    -0.192104748824E+03   -0.10181E-02   -0.84506E-03 12520   0.466E-01    0.262E-01
DAV:   3    -0.192103950754E+03    0.79807E-03   -0.19799E-03 11720   0.364E-01    0.103E-01
DAV:   4    -0.192103891991E+03    0.58762E-04   -0.44150E-04  8680   0.160E-01
  54 F= -.19210389E+03 E0= -.19202215E+03  d E =-.466496E-02
       N       E                     dE             d eps       ncg     rms          rms(c)
DAV:   1    -0.192118112064E+03   -0.14161E-01   -0.36716E+00  8160   0.405E+00    0.417E-01
DAV:   2    -0.192125973484E+03   -0.78614E-02   -0.97424E-02 12440   0.966E-01    0.461E-01
DAV:   3    -0.192123515640E+03    0.24578E-02   -0.16834E-02 11600   0.771E-01    0.396E-01
DAV:   4    -0.192122710514E+03    0.80513E-03   -0.53678E-03 12200   0.631E-01    0.301E-01
DAV:   5    -0.192121542105E+03    0.11684E-02   -0.21990E-03 12680   0.351E-01    0.130E-01
DAV:   6    -0.192122003953E+03   -0.46185E-03   -0.14728E-03 10840   0.333E-01    0.213E-01
DAV:   7    -0.192121449651E+03    0.55430E-03   -0.76259E-04  9920   0.240E-01    0.394E-02
DAV:   8    -0.192121456453E+03   -0.68024E-05   -0.83234E-05  6320   0.801E-02
  55 F= -.19212146E+03 E0= -.19204059E+03  d E =-.175645E-01
       N       E                     dE             d eps       ncg     rms          rms(c)
DAV:   1    -0.192126241077E+03   -0.47914E-02   -0.30056E-01  8160   0.120E+00    0.181E-01
DAV:   2    -0.192127209403E+03   -0.96833E-03   -0.12586E-02 12200   0.478E-01    0.289E-01
DAV:   3    -0.192126453528E+03    0.75587E-03   -0.27523E-03 12200   0.449E-01    0.167E-01
DAV:   4    -0.192126210921E+03    0.24261E-03   -0.96279E-04 10320   0.240E-01    0.113E-01
DAV:   5    -0.192126098446E+03    0.11248E-03   -0.50882E-04  9680   0.178E-01    0.935E-02
DAV:   6    -0.192126025165E+03    0.73282E-04   -0.31078E-04  8480   0.143E-01
  56 F= -.19212603E+03 E0= -.19204513E+03  d E =-.456871E-02
       N       E                     dE             d eps       ncg     rms          rms(c)
DAV:   1    -0.192130079066E+03   -0.39806E-02   -0.27787E-01  8160   0.112E+00    0.130E-01
DAV:   2    -0.192131010606E+03   -0.93154E-03   -0.88812E-03 12960   0.408E-01    0.216E-01
DAV:   3    -0.192130423495E+03    0.58711E-03   -0.18010E-03 11680   0.329E-01    0.114E-01
DAV:   4    -0.192130331137E+03    0.92359E-04   -0.44757E-04  8840   0.169E-01
  57 F= -.19213033E+03 E0= -.19205001E+03  d E =-.430597E-02
       N       E                     dE             d eps       ncg     rms          rms(c)
DAV:   1    -0.192130713011E+03   -0.28952E-03   -0.31817E-03  8400   0.161E-01    0.554E-02
DAV:   2    -0.192131133808E+03   -0.42080E-03   -0.75614E-04 11320   0.250E-01    0.188E-01
DAV:   3    -0.192130675190E+03    0.45862E-03   -0.48039E-04  9520   0.211E-01    0.253E-02
DAV:   4    -0.192130698375E+03   -0.23185E-04   -0.40674E-05  5840   0.567E-02
  58 F= -.19213070E+03 E0= -.19205039E+03  d E =-.367238E-03
       N       E                     dE             d eps       ncg     rms          rms(c)
DAV:   1    -0.192134476573E+03   -0.38014E-02   -0.25922E-01  8160   0.109E+00    0.122E-01
DAV:   2    -0.192134995044E+03   -0.51847E-03   -0.80527E-03 11800   0.250E-01    0.106E-01
DAV:   3    -0.192134837663E+03    0.15738E-03   -0.10825E-03 11240   0.148E-01    0.866E-02
DAV:   4    -0.192134836008E+03    0.16551E-05   -0.37845E-04  8960   0.166E-01
  59 F= -.19213484E+03 E0= -.19205480E+03  d E =-.413763E-02
       N       E                     dE             d eps       ncg     rms          rms(c)
DAV:   1    -0.192135489497E+03   -0.65183E-03   -0.10640E-02  8160   0.254E-01    0.447E-02
DAV:   2    -0.192135630970E+03   -0.14147E-03   -0.47236E-04  9280   0.146E-01    0.114E-01
DAV:   3    -0.192135477460E+03    0.15351E-03   -0.23162E-04  7960   0.139E-01    0.282E-02
DAV:   4    -0.192135486975E+03   -0.95157E-05   -0.42351E-05  6000   0.412E-02
  60 F= -.19213549E+03 E0= -.19205549E+03  d E =-.650968E-03
       N       E                     dE             d eps       ncg     rms          rms(c)
DAV:   1    -0.192138439379E+03   -0.29619E-02   -0.16486E-01  8160   0.868E-01    0.109E-01
DAV:   2    -0.192138935987E+03   -0.49661E-03   -0.52500E-03 12680   0.316E-01    0.176E-01
DAV:   3    -0.192138568132E+03    0.36786E-03   -0.12072E-03 10760   0.266E-01    0.943E-02
DAV:   4    -0.192138513831E+03    0.54301E-04   -0.34486E-04  8680   0.146E-01
  61 F= -.19213851E+03 E0= -.19205914E+03  d E =-.302686E-02
       N       E                     dE             d eps       ncg     rms          rms(c)
DAV:   1    -0.192142688039E+03   -0.41199E-02   -0.39187E-01  8160   0.133E+00    0.162E-01
DAV:   2    -0.192143807945E+03   -0.11199E-02   -0.11784E-02 12320   0.410E-01    0.251E-01
DAV:   3    -0.192143223849E+03    0.58410E-03   -0.28662E-03 12160   0.403E-01    0.179E-01
DAV:   4    -0.192142962836E+03    0.26101E-03   -0.88375E-04 10200   0.236E-01    0.938E-02
DAV:   5    -0.192142840282E+03    0.12255E-03   -0.32024E-04  8000   0.105E-01    0.483E-02
DAV:   6    -0.192142886728E+03   -0.46446E-04   -0.19163E-04  8160   0.122E-01
  62 F= -.19214289E+03 E0= -.19206431E+03  d E =-.437290E-02
       N       E                     dE             d eps       ncg     rms          rms(c)
DAV:   1    -0.192144266742E+03   -0.14265E-02   -0.34491E-02  8160   0.412E-01    0.878E-02
DAV:   2    -0.192144271011E+03   -0.42691E-05   -0.17888E-03 11360   0.195E-01    0.112E-01
DAV:   3    -0.192144162398E+03    0.10861E-03   -0.46875E-04  8960   0.192E-01    0.790E-02
DAV:   4    -0.192144099242E+03    0.63157E-04   -0.22121E-04  7840   0.125E-01
  63 F= -.19214410E+03 E0= -.19206555E+03  d E =-.121251E-02
       N       E                     dE             d eps       ncg     rms          rms(c)
DAV:   1    -0.192148184544E+03   -0.40221E-02   -0.47560E-01  8160   0.147E+00    0.173E-01
DAV:   2    -0.192149448724E+03   -0.12642E-02   -0.13870E-02 12840   0.417E-01    0.254E-01
DAV:   3    -0.192148843417E+03    0.60531E-03   -0.31142E-03 12200   0.427E-01    0.191E-01
DAV:   4    -0.192148544476E+03    0.29894E-03   -0.95984E-04  9960   0.244E-01    0.102E-01
DAV:   5    -0.192148420068E+03    0.12441E-03   -0.40513E-04  9200   0.150E-01    0.761E-02
DAV:   6    -0.192148413448E+03    0.66198E-05   -0.27304E-04  9000   0.144E-01
  64 F= -.19214841E+03 E0= -.19207036E+03  d E =-.431421E-02
       N       E                     dE             d eps       ncg     rms          rms(c)
DAV:   1    -0.192150081396E+03   -0.16613E-02   -0.71778E-02  8160   0.580E-01    0.859E-02
DAV:   2    -0.192150517798E+03   -0.43640E-03   -0.33199E-03 11920   0.307E-01    0.175E-01
DAV:   3    -0.192150144781E+03    0.37302E-03   -0.79110E-04 10040   0.239E-01    0.555E-02
DAV:   4    -0.192150129976E+03    0.14805E-04   -0.12601E-04  5640   0.878E-02
  65 F= -.19215013E+03 E0= -.19207262E+03  d E =-.171653E-02
       N       E                     dE             d eps       ncg     rms          rms(c)
DAV:   1    -0.192150931616E+03   -0.78684E-03   -0.23439E-02  8160   0.336E-01    0.552E-02
DAV:   2    -0.192151307237E+03   -0.37562E-03   -0.12810E-03 13440   0.222E-01    0.172E-01
DAV:   3    -0.192150950053E+03    0.35718E-03   -0.47932E-04  8600   0.197E-01    0.316E-02
DAV:   4    -0.192150961993E+03   -0.11940E-04   -0.53665E-05  5640   0.466E-02
  66 F= -.19215096E+03 E0= -.19207356E+03  d E =-.832017E-03
       N       E                     dE             d eps       ncg     rms          rms(c)
DAV:   1    -0.192153862281E+03   -0.29122E-02   -0.32373E-01  8160   0.121E+00    0.135E-01
DAV:   2    -0.192154778208E+03   -0.91593E-03   -0.93474E-03 12520   0.310E-01    0.185E-01
DAV:   3    -0.192154344580E+03    0.43363E-03   -0.19301E-03 12120   0.306E-01    0.129E-01
DAV:   4    -0.192154215624E+03    0.12896E-03   -0.46714E-04  9000   0.182E-01    0.779E-02
DAV:   5    -0.192154154230E+03    0.61394E-04   -0.19007E-04  6520   0.110E-01
  67 F= -.19215415E+03 E0= -.19207744E+03  d E =-.319224E-02
       N       E                     dE             d eps       ncg     rms          rms(c)
DAV:   1    -0.192155380068E+03   -0.11644E-02   -0.43485E-02  8160   0.466E-01    0.106E-01
DAV:   2    -0.192156264570E+03   -0.88450E-03   -0.31476E-03 11200   0.418E-01    0.285E-01
DAV:   3    -0.192155238047E+03    0.10265E-02   -0.12710E-03 10240   0.336E-01    0.560E-02
DAV:   4    -0.192155290120E+03   -0.52074E-04   -0.22785E-04  8120   0.127E-01
  68 F= -.19215529E+03 E0= -.19207907E+03  d E =-.113589E-02
       N       E                     dE             d eps       ncg     rms          rms(c)
DAV:   1    -0.192159304971E+03   -0.40669E-02   -0.28130E+00  8160   0.355E+00    0.391E-01
DAV:   2    -0.192167706158E+03   -0.84012E-02   -0.84751E-02 12920   0.110E+00    0.568E-01
DAV:   3    -0.192163979524E+03    0.37266E-02   -0.16063E-02 12000   0.935E-01    0.373E-01
DAV:   4    -0.192162875042E+03    0.11045E-02   -0.44435E-03 12280   0.539E-01    0.238E-01
DAV:   5    -0.192162287308E+03    0.58773E-03   -0.17641E-03 11840   0.324E-01    0.167E-01
DAV:   6    -0.192162259262E+03    0.28046E-04   -0.12502E-03 10960   0.308E-01    0.147E-01
DAV:   7    -0.192162033443E+03    0.22582E-03   -0.54898E-04  9840   0.170E-01    0.519E-02
DAV:   8    -0.192162012165E+03    0.21278E-04   -0.10768E-04  6720   0.915E-02
  69 F= -.19216201E+03 E0= -.19208807E+03  d E =-.672204E-02
       N       E                     dE             d eps       ncg     rms          rms(c)
DAV:   1    -0.192162058245E+03   -0.24803E-04   -0.55964E-02  8160   0.505E-01    0.961E-02
DAV:   2    -0.192163472953E+03   -0.14147E-02   -0.41644E-03 11880   0.472E-01    0.348E-01
DAV:   3    -0.192162033238E+03    0.14397E-02   -0.17832E-03 10640   0.371E-01    0.450E-02
DAV:   4    -0.192162043875E+03   -0.10637E-04   -0.12385E-04  6400   0.874E-02
  70 F= -.19216204E+03 E0= -.19208787E+03  d E =-.317101E-04
