<?xml version="1.0" encoding="ISO-8859-1"?>
<modeling>
 <generator>
  <i name="program" type="string">vasp </i>
  <i name="version" type="string">5.4.1  </i>
  <i name="subversion" type="string">05Feb16 (build Jul 05 2020 17:13:04) complex                          parallel </i>
  <i name="platform" type="string">IFC91_ompi </i>
  <i name="date" type="string">2024 07 19 </i>
  <i name="time" type="string">02:38:42 </i>
 </generator>
 <incar>
  <i type="int" name="ISTART">     0</i>
  <i type="string" name="PREC">normal</i>
  <i type="string" name="ALGO"> Normal</i>
  <i type="int" name="ISPIN">     1</i>
  <i type="int" name="ICHARG">     2</i>
  <i type="int" name="IBRION">     1</i>
  <i type="int" name="NSW">   100</i>
  <i type="int" name="ISIF">     3</i>
  <i type="int" name="ISYM">     0</i>
  <i name="SYMPREC">      0.00000001</i>
  <i name="POTIM">      0.50000000</i>
  <i type="logical" name="LREAL"> F  </i>
  <i type="logical" name="LPLANE"> F  </i>
  <i type="int" name="ISMEAR">     0</i>
  <i type="logical" name="LWAVE"> F  </i>
  <i type="logical" name="LCHARG"> F  </i>
  <v type="int" name="KPOINT_BSE">    -1     0     0     0</v>
 </incar>
 <kpoints>
  <generation param="Gamma">
   <v type="int" name="divisions">       8        8        1 </v>
   <v name="usershift">      0.00000000       0.00000000       0.00000000 </v>
   <v name="genvec1">      0.12500000       0.00000000       0.00000000 </v>
   <v name="genvec2">     -0.00000000       0.12500000       0.00000000 </v>
   <v name="genvec3">      0.00000000       0.00000000       1.00000000 </v>
   <v name="shift">      0.00000000       0.00000000       0.00000000 </v>
  </generation>
  <varray name="kpointlist" >
   <v>       0.00000000       0.00000000       0.00000000 </v>
   <v>       0.12500000       0.00000000       0.00000000 </v>
   <v>       0.25000000       0.00000000       0.00000000 </v>
   <v>       0.37500000       0.00000000       0.00000000 </v>
   <v>       0.50000000       0.00000000       0.00000000 </v>
   <v>       0.00000000       0.12500000       0.00000000 </v>
   <v>       0.12500000       0.12500000       0.00000000 </v>
   <v>       0.25000000       0.12500000       0.00000000 </v>
   <v>       0.37500000       0.12500000       0.00000000 </v>
   <v>       0.50000000       0.12500000       0.00000000 </v>
   <v>      -0.37500000       0.12500000       0.00000000 </v>
   <v>      -0.25000000       0.12500000       0.00000000 </v>
   <v>      -0.12500000       0.12500000       0.00000000 </v>
   <v>       0.00000000       0.25000000       0.00000000 </v>
   <v>       0.12500000       0.25000000       0.00000000 </v>
   <v>       0.25000000       0.25000000       0.00000000 </v>
   <v>       0.37500000       0.25000000       0.00000000 </v>
   <v>       0.50000000       0.25000000       0.00000000 </v>
   <v>      -0.37500000       0.25000000       0.00000000 </v>
   <v>      -0.25000000       0.25000000       0.00000000 </v>
   <v>      -0.12500000       0.25000000       0.00000000 </v>
   <v>      -0.00000000       0.37500000       0.00000000 </v>
   <v>       0.12500000       0.37500000       0.00000000 </v>
   <v>       0.25000000       0.37500000       0.00000000 </v>
   <v>       0.37500000       0.37500000       0.00000000 </v>
   <v>       0.50000000       0.37500000       0.00000000 </v>
   <v>      -0.37500000       0.37500000       0.00000000 </v>
   <v>      -0.25000000       0.37500000       0.00000000 </v>
   <v>      -0.12500000       0.37500000       0.00000000 </v>
   <v>       0.00000000       0.50000000       0.00000000 </v>
   <v>       0.12500000       0.50000000       0.00000000 </v>
   <v>       0.25000000       0.50000000       0.00000000 </v>
   <v>       0.37500000       0.50000000       0.00000000 </v>
   <v>       0.50000000       0.50000000       0.00000000 </v>
  </varray>
  <varray name="weights" >
   <v>       0.01562500 </v>
   <v>       0.03125000 </v>
   <v>       0.03125000 </v>
   <v>       0.03125000 </v>
   <v>       0.01562500 </v>
   <v>       0.03125000 </v>
   <v>       0.03125000 </v>
   <v>       0.03125000 </v>
   <v>       0.03125000 </v>
   <v>       0.03125000 </v>
   <v>       0.03125000 </v>
   <v>       0.03125000 </v>
   <v>       0.03125000 </v>
   <v>       0.03125000 </v>
   <v>       0.03125000 </v>
   <v>       0.03125000 </v>
   <v>       0.03125000 </v>
   <v>       0.03125000 </v>
   <v>       0.03125000 </v>
   <v>       0.03125000 </v>
   <v>       0.03125000 </v>
   <v>       0.03125000 </v>
   <v>       0.03125000 </v>
   <v>       0.03125000 </v>
   <v>       0.03125000 </v>
   <v>       0.03125000 </v>
   <v>       0.03125000 </v>
   <v>       0.03125000 </v>
   <v>       0.03125000 </v>
   <v>       0.01562500 </v>
   <v>       0.03125000 </v>
   <v>       0.03125000 </v>
   <v>       0.03125000 </v>
   <v>       0.01562500 </v>
  </varray>
 </kpoints>
 <parameters>
  <separator name="general" >
   <i type="string" name="SYSTEM">unknown system</i>
   <i type="logical" name="LCOMPAT"> F  </i>
  </separator>
  <separator name="electronic" >
   <i type="string" name="PREC">normal</i>
   <i name="ENMAX">    280.00000000</i>
   <i name="ENAUG">    373.43800000</i>
   <i name="EDIFF">      0.00010000</i>
   <i type="int" name="IALGO">    38</i>
   <i type="int" name="IWAVPR">    11</i>
   <i type="int" name="NBANDS">   120</i>
   <i name="NELECT">    159.00000000</i>
   <i type="int" name="TURBO">     0</i>
   <i type="int" name="IRESTART">     0</i>
   <i type="int" name="NREBOOT">     0</i>
   <i type="int" name="NMIN">     0</i>
   <i name="EREF">      0.00000000</i>
   <separator name="electronic smearing" >
    <i type="int" name="ISMEAR">     0</i>
    <i name="SIGMA">      0.20000000</i>
    <i name="KSPACING">      0.50000000</i>
    <i type="logical" name="KGAMMA"> T  </i>
   </separator>
   <separator name="electronic projectors" >
    <i type="logical" name="LREAL"> F  </i>
    <v name="ROPT">      0.00000000      0.00000000      0.00000000      0.00000000</v>
    <i type="int" name="LMAXPAW">  -100</i>
    <i type="int" name="LMAXMIX">     2</i>
    <i type="logical" name="NLSPLINE"> F  </i>
   </separator>
   <separator name="electronic startup" >
    <i type="int" name="ISTART">     0</i>
    <i type="int" name="ICHARG">     2</i>
    <i type="int" name="INIWAV">     1</i>
   </separator>
   <separator name="electronic spin" >
    <i type="int" name="ISPIN">     1</i>
    <i type="logical" name="LNONCOLLINEAR"> F  </i>
    <v name="MAGMOM">      1.00000000      1.00000000      1.00000000      1.00000000      1.00000000      1.00000000      1.00000000      1.00000000      1.00000000      1.00000000      1.00000000      1.00000000      1.00000000      1.00000000      1.00000000      1.00000000      1.00000000      1.00000000      1.00000000      1.00000000
      1.00000000      1.00000000      1.00000000      1.00000000      1.00000000      1.00000000      1.00000000</v>
    <i name="NUPDOWN">     -1.00000000</i>
    <i type="logical" name="LSORBIT"> F  </i>
    <v name="SAXIS">      0.00000000      0.00000000      1.00000000</v>
    <i type="logical" name="LSPIRAL"> F  </i>
    <v name="QSPIRAL">      0.00000000      0.00000000      0.00000000</v>
    <i type="logical" name="LZEROZ"> F  </i>
   </separator>
   <separator name="electronic exchange-correlation" >
    <i type="logical" name="LASPH"> F  </i>
    <i type="logical" name="LMETAGGA"> F  </i>
   </separator>
   <separator name="electronic convergence" >
    <i type="int" name="NELM">    60</i>
    <i type="int" name="NELMDL">    -5</i>
    <i type="int" name="NELMIN">     2</i>
    <i name="ENINI">    280.00000000</i>
    <separator name="electronic convergence detail" >
     <i type="logical" name="LDIAG"> T  </i>
     <i type="logical" name="LSUBROT"> F  </i>
     <i name="WEIMIN">      0.00100000</i>
     <i name="EBREAK">      0.00000021</i>
     <i name="DEPER">      0.30000000</i>
     <i type="int" name="NRMM">     4</i>
     <i name="TIME">      0.40000000</i>
    </separator>
   </separator>
   <separator name="electronic mixer" >
    <i name="AMIX">      0.40000000</i>
    <i name="BMIX">      1.00000000</i>
    <i name="AMIN">      0.10000000</i>
    <i name="AMIX_MAG">      1.60000000</i>
    <i name="BMIX_MAG">      1.00000000</i>
    <separator name="electronic mixer details" >
     <i type="int" name="IMIX">     4</i>
     <i type="logical" name="MIXFIRST"> F  </i>
     <i type="int" name="MAXMIX">   -45</i>
     <i name="WC">    100.00000000</i>
     <i type="int" name="INIMIX">     1</i>
     <i type="int" name="MIXPRE">     1</i>
     <i type="int" name="MREMOVE">     5</i>
    </separator>
   </separator>
   <separator name="electronic dipolcorrection" >
    <i type="logical" name="LDIPOL"> F  </i>
    <i type="logical" name="LMONO"> F  </i>
    <i type="int" name="IDIPOL">     0</i>
    <i name="EPSILON">      1.00000000</i>
    <v name="DIPOL">   -100.00000000   -100.00000000   -100.00000000</v>
    <i name="EFIELD">      0.00000000</i>
   </separator>
  </separator>
  <separator name="grids" >
   <i type="int" name="NGX">    42</i>
   <i type="int" name="NGY">    42</i>
   <i type="int" name="NGZ">   126</i>
   <i type="int" name="NGXF">    84</i>
   <i type="int" name="NGYF">    84</i>
   <i type="int" name="NGZF">   252</i>
   <i type="logical" name="ADDGRID"> F  </i>
  </separator>
  <separator name="ionic" >
   <i type="int" name="NSW">   100</i>
   <i type="int" name="IBRION">     1</i>
   <i type="int" name="ISIF">     3</i>
   <i name="PSTRESS">      0.00000000</i>
   <i name="EDIFFG">      0.00100000</i>
   <i type="int" name="NFREE">     0</i>
   <i name="POTIM">      0.50000000</i>
   <i name="SMASS">     -3.00000000</i>
   <i name="SCALEE">      1.00000000</i>
  </separator>
  <separator name="ionic md" >
   <i name="TEBEG">      0.00010000</i>
   <i name="TEEND">      0.00010000</i>
   <i type="int" name="NBLOCK">     1</i>
   <i type="int" name="KBLOCK">   100</i>
   <i type="int" name="NPACO">   256</i>
   <i name="APACO">     16.00000000</i>
  </separator>
  <separator name="symmetry" >
   <i type="int" name="ISYM">     0</i>
   <i name="SYMPREC">      0.00000001</i>
  </separator>
  <separator name="dos" >
   <i type="logical" name="LORBIT"> F  </i>
   <v name="RWIGS">     -1.00000000     -1.00000000     -1.00000000     -1.00000000</v>
   <i type="int" name="NEDOS">   301</i>
   <i name="EMIN">     10.00000000</i>
   <i name="EMAX">    -10.00000000</i>
   <i name="EFERMI">      0.00000000</i>
  </separator>
  <separator name="writing" >
   <i type="int" name="NWRITE">     2</i>
   <i type="logical" name="LWAVE"> F  </i>
   <i type="logical" name="LCHARG"> F  </i>
   <i type="logical" name="LPARD"> F  </i>
   <i type="logical" name="LVTOT"> F  </i>
   <i type="logical" name="LVHAR"> F  </i>
   <i type="logical" name="LELF"> F  </i>
   <i type="logical" name="LOPTICS"> F  </i>
   <v name="STM">      0.00000000      0.00000000      0.00000000      0.00000000      0.00000000      0.00000000      0.00000000</v>
  </separator>
  <separator name="performance" >
   <i type="int" name="NPAR">    40</i>
   <i type="int" name="NSIM">     4</i>
   <i type="int" name="NBLK">    -1</i>
   <i type="logical" name="LPLANE"> F  </i>
   <i type="logical" name="LSCALAPACK"> T  </i>
   <i type="logical" name="LSCAAWARE"> F  </i>
   <i type="logical" name="LSCALU"> F  </i>
   <i type="logical" name="LASYNC"> F  </i>
   <i type="logical" name="LORBITALREAL"> F  </i>
  </separator>
  <separator name="miscellaneous" >
   <i type="int" name="IDIOT">     3</i>
   <i type="logical" name="LMUSIC"> F  </i>
   <v name="POMASS">     50.94100000     95.94000000    183.85000000     32.06600000</v>
   <v name="DARWINR">      0.00000000      0.00000000      0.00000000      0.00000000</v>
   <v name="DARWINV">      1.00000000      1.00000000      1.00000000      1.00000000</v>
   <i type="logical" name="LCORR"> T  </i>
  </separator>
  <i type="logical" name="GGA_COMPAT"> T  </i>
  <i type="logical" name="LBERRY"> F  </i>
  <i type="int" name="ICORELEVEL">     0</i>
  <i type="logical" name="LDAU"> F  </i>
  <i type="int" name="I_CONSTRAINED_M">     0</i>
  <separator name="electronic exchange-correlation" >
   <i type="string" name="GGA">--</i>
   <i type="int" name="VOSKOWN">     0</i>
   <i type="logical" name="LHFCALC"> F  </i>
   <i type="string" name="PRECFOCK"></i>
   <i type="logical" name="LSYMGRAD"> F  </i>
   <i type="logical" name="LHFONE"> F  </i>
   <i type="logical" name="LRHFCALC"> F  </i>
   <i type="logical" name="LTHOMAS"> F  </i>
   <i type="logical" name="LMODELHF"> F  </i>
   <i name="ENCUT4O">     -1.00000000</i>
   <i type="int" name="EXXOEP">     0</i>
   <i type="int" name="FOURORBIT">     0</i>
   <i name="AEXX">      0.00000000</i>
   <i name="HFALPHA">      0.00000000</i>
   <i name="MCALPHA">      0.00000000</i>
   <i name="ALDAX">      1.00000000</i>
   <i name="AGGAX">      1.00000000</i>
   <i name="ALDAC">      1.00000000</i>
   <i name="AGGAC">      1.00000000</i>
   <i type="int" name="NKREDX">     1</i>
   <i type="int" name="NKREDY">     1</i>
   <i type="int" name="NKREDZ">     1</i>
   <i type="logical" name="SHIFTRED"> F  </i>
   <i type="logical" name="ODDONLY"> F  </i>
   <i type="logical" name="EVENONLY"> F  </i>
   <i type="int" name="LMAXFOCK">     0</i>
   <i type="int" name="NMAXFOCKAE">     0</i>
   <i type="logical" name="LFOCKAEDFT"> F  </i>
   <i name="HFSCREEN">      0.00000000</i>
   <i name="HFSCREENC">      0.00000000</i>
   <i type="int" name="NBANDSGWLOW">     0</i>
  </separator>
  <separator name="vdW DFT" >
   <i type="logical" name="LUSE_VDW"> F  </i>
   <i name="Zab_VDW">     -0.84910000</i>
   <i name="PARAM1">      0.12340000</i>
   <i name="PARAM2">      1.00000000</i>
   <i name="PARAM3">      0.00000000</i>
  </separator>
  <separator name="model GW" >
   <i type="int" name="MODEL_GW">     0</i>
   <i name="MODEL_EPS0">     58.26239943</i>
   <i name="MODEL_ALPHA">      1.00000000</i>
  </separator>
  <separator name="linear response parameters" >
   <i type="logical" name="LEPSILON"> F  </i>
   <i type="logical" name="LRPA"> F  </i>
   <i type="logical" name="LNABLA"> F  </i>
   <i type="logical" name="LVEL"> F  </i>
   <i type="int" name="KINTER">     0</i>
   <i name="CSHIFT">      0.10000000</i>
   <i name="OMEGAMAX">     -1.00000000</i>
   <i name="DEG_THRESHOLD">      0.00200000</i>
  </separator>
  <separator name="orbital magnetization" >
   <i type="logical" name="NUCIND"> F  </i>
   <v name="MAGPOS">      0.00000000      0.00000000      0.00000000</v>
   <i type="logical" name="LNICSALL"> T  </i>
   <i type="logical" name="ORBITALMAG"> F  </i>
   <i type="logical" name="LMAGBLOCH"> F  </i>
   <i type="logical" name="LCHIMAG"> F  </i>
   <i type="logical" name="LGAUGE"> T  </i>
   <i type="int" name="MAGATOM">     0</i>
   <v name="MAGDIPOL">      0.00000000      0.00000000      0.00000000</v>
   <v name="AVECCONST">      0.00000000      0.00000000      0.00000000</v>
  </separator>
  <separator name="response functions" >
   <i type="logical" name="LADDER"> F  </i>
   <i type="logical" name="LFXC"> F  </i>
   <i type="logical" name="LHARTREE"> T  </i>
   <i type="int" name="IBSE">     0</i>
   <v type="int" name="KPOINT">    -1     0     0     0</v>
   <i type="logical" name="LTCTE"> F  </i>
   <i type="logical" name="LTETE"> F  </i>
   <i type="logical" name="LTRIPLET"> F  </i>
   <i type="logical" name="LFXCEPS"> F  </i>
   <i type="logical" name="LFXHEG"> F  </i>
   <i type="int" name="NATURALO">     0</i>
   <i type="logical" name="L2ORDER"> F  </i>
   <i type="logical" name="LUSEW"> F  </i>
   <i name="ENCUTGW">     -2.00000000</i>
   <i name="ENCUTGWSOFT">     -2.00000000</i>
   <i name="ENCUTLF">     -1.00000000</i>
   <i type="int" name="LMAXMP2">    -1</i>
   <i name="SCISSOR">      0.00000000</i>
   <i type="int" name="NOMEGA">     0</i>
   <i type="int" name="NOMEGAR">     0</i>
   <i type="int" name="NBANDSGW">    -1</i>
   <i type="int" name="NBANDSO">    -1</i>
   <i type="int" name="NBANDSV">    -1</i>
   <i type="int" name="NELM">     1</i>
   <i type="int" name="NELMHF">     1</i>
   <i type="int" name="DIM">     3</i>
   <i type="int" name="ANTIRES">     0</i>
   <i name="OMEGAMAX">    -30.00000000</i>
   <i name="OMEGAMIN">    -30.00000000</i>
   <i name="OMEGATL">   -200.00000000</i>
   <i type="int" name="OMEGAGRID">     0</i>
   <i name="CSHIFT">     -0.10000000</i>
   <i type="logical" name="SELFENERGY"> F  </i>
   <i type="logical" name="LSPECTRAL"> F  </i>
   <i type="logical" name="LSPECTRALGW"> F  </i>
   <i type="logical" name="LSINGLES"> F  </i>
   <i type="logical" name="LFERMIGW"> F  </i>
   <i type="logical" name="ODDONLYGW"> F  </i>
   <i type="logical" name="EVENONLYGW"> F  </i>
   <i type="int" name="NKREDLFX">     1</i>
   <i type="int" name="NKREDLFY">     1</i>
   <i type="int" name="NKREDLFZ">     1</i>
   <i type="int" name="MAXMEM">  1800</i>
   <i type="int" name="TELESCOPE">     0</i>
   <i type="int" name="TAUPAR">     1</i>
   <i type="int" name="OMEGAPAR">    -1</i>
   <i name="LAMBDA">      1.00000000</i>
  </separator>
  <separator name="External order field" >
   <i name="OFIELD_KAPPA">      0.00000000</i>
   <v name="OFIELD_K">      0.00000000      0.00000000      0.00000000</v>
   <i name="OFIELD_Q6_NEAR">      0.00000000</i>
   <i name="OFIELD_Q6_FAR">      0.00000000</i>
   <i name="OFIELD_A">      0.00000000</i>
  </separator>
 </parameters>
 <atominfo>
  <atoms>      27 </atoms>
  <types>       4 </types>
  <array name="atoms" >
   <dimension dim="1">ion</dimension>
   <field type="string">element</field>
   <field type="int">atomtype</field>
   <set>
    <rc><c>V </c><c>   1</c></rc>
    <rc><c>V </c><c>   1</c></rc>
    <rc><c>V </c><c>   1</c></rc>
    <rc><c>Mo</c><c>   2</c></rc>
    <rc><c>Mo</c><c>   2</c></rc>
    <rc><c>Mo</c><c>   2</c></rc>
    <rc><c>W </c><c>   3</c></rc>
    <rc><c>W </c><c>   3</c></rc>
    <rc><c>W </c><c>   3</c></rc>
    <rc><c>S </c><c>   4</c></rc>
    <rc><c>S </c><c>   4</c></rc>
    <rc><c>S </c><c>   4</c></rc>
    <rc><c>S </c><c>   4</c></rc>
    <rc><c>S </c><c>   4</c></rc>
    <rc><c>S </c><c>   4</c></rc>
    <rc><c>S </c><c>   4</c></rc>
    <rc><c>S </c><c>   4</c></rc>
    <rc><c>S </c><c>   4</c></rc>
    <rc><c>S </c><c>   4</c></rc>
    <rc><c>S </c><c>   4</c></rc>
    <rc><c>S </c><c>   4</c></rc>
    <rc><c>S </c><c>   4</c></rc>
    <rc><c>S </c><c>   4</c></rc>
    <rc><c>S </c><c>   4</c></rc>
    <rc><c>S </c><c>   4</c></rc>
    <rc><c>S </c><c>   4</c></rc>
    <rc><c>S </c><c>   4</c></rc>
   </set>
  </array>
  <array name="atomtypes" >
   <dimension dim="1">type</dimension>
   <field type="int">atomspertype</field>
   <field type="string">element</field>
   <field>mass</field>
   <field>valence</field>
   <field type="string">pseudopotential</field>
   <set>
    <rc><c>   3</c><c>V </c><c>     50.94100000</c><c>      5.00000000</c><c> PAW_PBE V 08Apr2002                    </c></rc>
    <rc><c>   3</c><c>Mo</c><c>     95.94000000</c><c>      6.00000000</c><c> PAW_PBE Mo 08Apr2002                   </c></rc>
    <rc><c>   3</c><c>W </c><c>    183.85000000</c><c>      6.00000000</c><c> PAW_PBE W 08Apr2002                    </c></rc>
    <rc><c>  18</c><c>S </c><c>     32.06600000</c><c>      6.00000000</c><c>  PAW_PBE S 17Jan2003                   </c></rc>
   </set>
  </array>
 </atominfo>
 <structure name="initialpos" >
  <crystal>
   <varray name="basis" >
    <v>       8.66999996       5.03999989       0.00000000 </v>
    <v>      -8.66999982       5.04000013       0.00000000 </v>
    <v>       0.00000000       0.00000000      30.00000000 </v>
   </varray>
   <i name="volume">   2621.80797419 </i>
   <varray name="rec_basis" >
    <v>       0.05767013       0.09920635       0.00000000 </v>
    <v>      -0.05767013       0.09920635       0.00000000 </v>
    <v>       0.00000000       0.00000000       0.03333333 </v>
   </varray>
  </crystal>
  <varray name="positions" >
   <v>       0.00000000       0.66666669       0.00000000 </v>
   <v>       0.33333334       0.66666669       0.00000000 </v>
   <v>       0.66666669       0.33333334       0.00000000 </v>
   <v>       0.66666669       0.00000000       0.00000000 </v>
   <v>       0.00000000       0.00000000       0.00000000 </v>
   <v>       0.33333334       0.00000000       0.00000000 </v>
   <v>       1.00000000       0.33333334       0.00000000 </v>
   <v>       0.33333334       0.33333334       0.00000000 </v>
   <v>       0.66666669       0.66666669       0.00000000 </v>
   <v>       0.11068511       0.22244981       0.95539999 </v>
   <v>       0.22244981       0.11068511       0.04460000 </v>
   <v>       0.11068511       0.55578315       0.95539999 </v>
   <v>       0.22244981       0.44401845       0.04460000 </v>
   <v>       0.11068511       0.88911647       0.95539999 </v>
   <v>       0.22244981       0.77735180       0.04460000 </v>
   <v>       0.44401845       0.22244981       0.95539999 </v>
   <v>       0.55578315       0.11068511       0.04460000 </v>
   <v>       0.44401845       0.55578315       0.95539999 </v>
   <v>       0.55578315       0.44401845       0.04460000 </v>
   <v>       0.44401845       0.88911647       0.95539999 </v>
   <v>       0.55578315       0.77735180       0.04460000 </v>
   <v>       0.77735180       0.22244981       0.95539999 </v>
   <v>       0.88911647       0.11068511       0.04460000 </v>
   <v>       0.77735180       0.55578315       0.95539999 </v>
   <v>       0.88911647       0.44401845       0.04460000 </v>
   <v>       0.77735180       0.88911647       0.95539999 </v>
   <v>       0.88911647       0.77735180       0.04460000 </v>
  </varray>
 </structure>
 <calculation>
  <scstep>
   <time name="dav">   21.73   21.79</time>
   <time name="total">   21.77   21.84</time>
   <energy>
    <i name="alphaZ">     81.65567618 </i>
    <i name="ewald">  41890.23010370 </i>
    <i name="hartreedc"> -47722.85868297 </i>
    <i name="XCdc">   -242.92976575 </i>
    <i name="pawpsdc">   3467.42045192 </i>
    <i name="pawaedc">  -2871.19716117 </i>
    <i name="eentropy">     -0.53310072 </i>
    <i name="bandstr">   -238.88191474 </i>
    <i name="atom">   6761.44252427 </i>
    <i name="e_fr_energy">   1124.34813072 </i>
    <i name="e_wo_entrp">   1124.88123144 </i>
    <i name="e_0_energy">   1124.61468108 </i>
   </energy>
  </scstep>
  <scstep>
   <time name="dav">   27.72   27.78</time>
   <time name="total">   27.72   27.79</time>
   <energy>
    <i name="e_fr_energy">     -4.47758692 </i>
    <i name="e_wo_entrp">     -4.30326113 </i>
    <i name="e_0_energy">     -4.39042402 </i>
   </energy>
  </scstep>
  <scstep>
   <time name="dav">   27.47   27.54</time>
   <time name="total">   27.48   27.55</time>
   <energy>
    <i name="e_fr_energy">   -199.69119605 </i>
    <i name="e_wo_entrp">   -199.42387368 </i>
    <i name="e_0_energy">   -199.55753486 </i>
   </energy>
  </scstep>
  <scstep>
   <time name="dav">   29.67   29.74</time>
   <time name="total">   29.67   29.75</time>
   <energy>
    <i name="e_fr_energy">   -208.90241074 </i>
    <i name="e_wo_entrp">   -208.60314809 </i>
    <i name="e_0_energy">   -208.75277942 </i>
   </energy>
  </scstep>
  <scstep>
   <time name="dav">   29.24   29.31</time>
   <time name="total">   29.71   29.78</time>
   <energy>
    <i name="e_fr_energy">   -209.27749408 </i>
    <i name="e_wo_entrp">   -208.98231506 </i>
    <i name="e_0_energy">   -209.12990457 </i>
   </energy>
  </scstep>
  <scstep>
   <time name="dav">   31.03   31.10</time>
   <time name="total">   31.53   31.61</time>
   <energy>
    <i name="e_fr_energy">   -237.20921654 </i>
    <i name="e_wo_entrp">   -236.94007229 </i>
    <i name="e_0_energy">   -237.07464442 </i>
   </energy>
  </scstep>
  <scstep>
   <time name="dav">   31.81   31.89</time>
   <time name="total">   32.32   32.41</time>
   <energy>
    <i name="e_fr_energy">   -196.64036272 </i>
    <i name="e_wo_entrp">   -196.30598096 </i>
    <i name="e_0_energy">   -196.47317184 </i>
   </energy>
  </scstep>
  <scstep>
   <time name="dav">   29.08   29.15</time>
   <time name="total">   29.59   29.67</time>
   <energy>
    <i name="e_fr_energy">   -190.08452184 </i>
    <i name="e_wo_entrp">   -189.81508278 </i>
    <i name="e_0_energy">   -189.94980231 </i>
   </energy>
  </scstep>
  <scstep>
   <time name="dav">   30.16   30.23</time>
   <time name="total">   30.68   30.77</time>
   <energy>
    <i name="e_fr_energy">   -188.31119892 </i>
    <i name="e_wo_entrp">   -187.98300422 </i>
    <i name="e_0_energy">   -188.14710157 </i>
   </energy>
  </scstep>
  <scstep>
   <time name="dav">   32.49   32.57</time>
   <time name="total">   33.02   33.10</time>
   <energy>
    <i name="e_fr_energy">   -187.12450317 </i>
    <i name="e_wo_entrp">   -186.78200489 </i>
    <i name="e_0_energy">   -186.95325403 </i>
   </energy>
  </scstep>
  <scstep>
   <time name="dav">   30.81   30.88</time>
   <time name="total">   31.34   31.42</time>
   <energy>
    <i name="e_fr_energy">   -187.01469790 </i>
    <i name="e_wo_entrp">   -186.66576112 </i>
    <i name="e_0_energy">   -186.84022951 </i>
   </energy>
  </scstep>
  <scstep>
   <time name="dav">   31.16   31.24</time>
   <time name="total">   31.70   31.78</time>
   <energy>
    <i name="e_fr_energy">   -187.03079470 </i>
    <i name="e_wo_entrp">   -186.69661586 </i>
    <i name="e_0_energy">   -186.86370528 </i>
   </energy>
  </scstep>
  <scstep>
   <time name="dav">   32.00   32.07</time>
   <time name="total">   32.53   32.62</time>
   <energy>
    <i name="e_fr_energy">   -186.93286146 </i>
    <i name="e_wo_entrp">   -186.59643501 </i>
    <i name="e_0_energy">   -186.76464824 </i>
   </energy>
  </scstep>
  <scstep>
   <time name="dav">   31.61   31.68</time>
   <time name="total">   32.14   32.22</time>
   <energy>
    <i name="e_fr_energy">   -186.90348533 </i>
    <i name="e_wo_entrp">   -186.56217624 </i>
    <i name="e_0_energy">   -186.73283079 </i>
   </energy>
  </scstep>
  <scstep>
   <time name="dav">   29.82   29.89</time>
   <time name="total">   30.35   30.43</time>
   <energy>
    <i name="e_fr_energy">   -186.89839036 </i>
    <i name="e_wo_entrp">   -186.55509229 </i>
    <i name="e_0_energy">   -186.72674133 </i>
   </energy>
  </scstep>
  <scstep>
   <time name="dav">   31.79   31.87</time>
   <time name="total">   32.32   32.41</time>
   <energy>
    <i name="e_fr_energy">   -186.89257356 </i>
    <i name="e_wo_entrp">   -186.54906062 </i>
    <i name="e_0_energy">   -186.72081709 </i>
   </energy>
  </scstep>
  <scstep>
   <time name="dav">   31.33   31.41</time>
   <time name="total">   31.86   31.95</time>
   <energy>
    <i name="e_fr_energy">   -186.88991783 </i>
    <i name="e_wo_entrp">   -186.54838539 </i>
    <i name="e_0_energy">   -186.71915161 </i>
   </energy>
  </scstep>
  <scstep>
   <time name="dav">   29.13   29.20</time>
   <time name="total">   29.67   29.75</time>
   <energy>
    <i name="e_fr_energy">   -186.88938454 </i>
    <i name="e_wo_entrp">   -186.54800856 </i>
    <i name="e_0_energy">   -186.71869655 </i>
   </energy>
  </scstep>
  <scstep>
   <time name="dav">   27.80   27.87</time>
   <time name="total">   28.33   28.41</time>
   <energy>
    <i name="e_fr_energy">   -186.88917305 </i>
    <i name="e_wo_entrp">   -186.54733463 </i>
    <i name="e_0_energy">   -186.71825384 </i>
   </energy>
  </scstep>
  <scstep>
   <time name="dav">   23.46   23.51</time>
   <time name="total">   23.99   24.06</time>
   <energy>
    <i name="e_fr_energy">   -186.89005648 </i>
    <i name="e_wo_entrp">   -186.54854407 </i>
    <i name="e_0_energy">   -186.71930028 </i>
   </energy>
  </scstep>
  <scstep>
   <time name="dav">   21.98   22.04</time>
   <time name="total">   22.51   22.58</time>
   <energy>
    <i name="e_fr_energy">   -186.89092580 </i>
    <i name="e_wo_entrp">   -186.54928641 </i>
    <i name="e_0_energy">   -186.72010611 </i>
   </energy>
  </scstep>
  <scstep>
   <time name="dav">   18.70   18.74</time>
   <time name="total">   19.23   19.28</time>
   <energy>
    <i name="e_fr_energy">   -186.89173560 </i>
    <i name="e_wo_entrp">   -186.55013123 </i>
    <i name="e_0_energy">   -186.72093342 </i>
   </energy>
  </scstep>
  <scstep>
   <time name="dav">   20.29   20.34</time>
   <time name="total">   20.82   20.88</time>
   <energy>
    <i name="e_fr_energy">   -186.89289296 </i>
    <i name="e_wo_entrp">   -186.55140343 </i>
    <i name="e_0_energy">   -186.72214819 </i>
   </energy>
  </scstep>
  <scstep>
   <time name="dav">   18.90   18.95</time>
   <time name="total">   19.44   19.49</time>
   <energy>
    <i name="e_fr_energy">   -186.89347588 </i>
    <i name="e_wo_entrp">   -186.55191972 </i>
    <i name="e_0_energy">   -186.72269780 </i>
   </energy>
  </scstep>
  <scstep>
   <time name="dav">   16.31   16.35</time>
   <time name="total">   16.85   16.90</time>
   <energy>
    <i name="e_fr_energy">   -186.89384210 </i>
    <i name="e_wo_entrp">   -186.55226762 </i>
    <i name="e_0_energy">   -186.72305486 </i>
   </energy>
  </scstep>
  <scstep>
   <time name="dav">   18.87   18.91</time>
   <time name="total">   19.40   19.45</time>
   <energy>
    <i name="e_fr_energy">   -186.89408024 </i>
    <i name="e_wo_entrp">   -186.55252656 </i>
    <i name="e_0_energy">   -186.72330340 </i>
   </energy>
  </scstep>
  <scstep>
   <time name="dav">   19.90   19.95</time>
   <time name="total">   19.94   19.99</time>
   <energy>
    <i name="alphaZ">     81.65567618 </i>
    <i name="ewald">  41890.23010370 </i>
    <i name="hartreedc"> -47833.15571107 </i>
    <i name="XCdc">   -231.59757442 </i>
    <i name="pawpsdc">   4192.17549493 </i>
    <i name="pawaedc">  -3610.20111501 </i>
    <i name="eentropy">     -0.34155709 </i>
    <i name="bandstr">  -1437.10201231 </i>
    <i name="atom">   6761.44252427 </i>
    <i name="e_fr_energy">   -186.89417081 </i>
    <i name="e_wo_entrp">   -186.55261372 </i>
    <i name="e_0_energy">   -186.72339227 </i>
   </energy>
  </scstep>
  <structure>
   <crystal>
    <varray name="basis" >
     <v>       8.66999996       5.03999989       0.00000000 </v>
     <v>      -8.66999982       5.04000013       0.00000000 </v>
     <v>       0.00000000       0.00000000      30.00000000 </v>
    </varray>
    <i name="volume">   2621.80797419 </i>
    <varray name="rec_basis" >
     <v>       0.05767013       0.09920635       0.00000000 </v>
     <v>      -0.05767013       0.09920635       0.00000000 </v>
     <v>       0.00000000       0.00000000       0.03333333 </v>
    </varray>
   </crystal>
   <varray name="positions" >
    <v>       0.00000000       0.66666669       0.00000000 </v>
    <v>       0.33333334       0.66666669       0.00000000 </v>
    <v>       0.66666669       0.33333334       0.00000000 </v>
    <v>       0.66666669       0.00000000       0.00000000 </v>
    <v>       0.00000000       0.00000000       0.00000000 </v>
    <v>       0.33333334       0.00000000       0.00000000 </v>
    <v>       1.00000000       0.33333334       0.00000000 </v>
    <v>       0.33333334       0.33333334       0.00000000 </v>
    <v>       0.66666669       0.66666669       0.00000000 </v>
    <v>       0.11068511       0.22244981       0.95539999 </v>
    <v>       0.22244981       0.11068511       0.04460000 </v>
    <v>       0.11068511       0.55578315       0.95539999 </v>
    <v>       0.22244981       0.44401845       0.04460000 </v>
    <v>       0.11068511       0.88911647       0.95539999 </v>
    <v>       0.22244981       0.77735180       0.04460000 </v>
    <v>       0.44401845       0.22244981       0.95539999 </v>
    <v>       0.55578315       0.11068511       0.04460000 </v>
    <v>       0.44401845       0.55578315       0.95539999 </v>
    <v>       0.55578315       0.44401845       0.04460000 </v>
    <v>       0.44401845       0.88911647       0.95539999 </v>
    <v>       0.55578315       0.77735180       0.04460000 </v>
    <v>       0.77735180       0.22244981       0.95539999 </v>
    <v>       0.88911647       0.11068511       0.04460000 </v>
    <v>       0.77735180       0.55578315       0.95539999 </v>
    <v>       0.88911647       0.44401845       0.04460000 </v>
    <v>       0.77735180       0.88911647       0.95539999 </v>
    <v>       0.88911647       0.77735180       0.04460000 </v>
   </varray>
  </structure>
  <varray name="forces" >
   <v>      -0.14506210       0.31492612      -0.01082254 </v>
   <v>      -0.28411790       0.31918329       0.09478064 </v>
   <v>       0.22062205      -0.28664955      -0.08271514 </v>
   <v>      -0.01660039      -0.00940957       0.12143554 </v>
   <v>       0.00205907       0.01462892      -0.02969092 </v>
   <v>       0.03222427      -0.03320655       0.01047072 </v>
   <v>       0.11503211      -0.39142373       0.01362439 </v>
   <v>       0.28624141      -0.45604374      -0.12097370 </v>
   <v>      -0.17669740       0.45199685      -0.03974002 </v>
   <v>       0.07175393       0.14733926      -2.94039002 </v>
   <v>      -0.20548332       0.12991494       2.90446980 </v>
   <v>      -0.23805186       0.53041054      -1.39014589 </v>
   <v>      -0.49001331       0.60332575       2.15493623 </v>
   <v>       0.51917284      -0.69182571      -2.14045357 </v>
   <v>       0.34545206      -0.66872141       1.44278740 </v>
   <v>       0.35375436       0.73551409      -2.20003798 </v>
   <v>      -0.50468976       0.68943525       2.14761859 </v>
   <v>      -0.58526860      -0.00819759      -2.07007375 </v>
   <v>       0.59095191       0.01019834       2.07107797 </v>
   <v>       0.51358117      -0.69228468      -2.14553936 </v>
   <v>      -0.38522959      -0.71265289       2.20256910 </v>
   <v>      -0.69715210       0.16464393      -2.13401230 </v>
   <v>      -0.20564030       0.13679925       2.90271066 </v>
   <v>       0.74007814      -0.02052820      -1.45752941 </v>
   <v>      -0.73814316      -0.00035360       1.44444701 </v>
   <v>       0.22476954      -0.13646293      -2.88056057 </v>
   <v>       0.65645693      -0.14055637       2.13175715 </v>
  </varray>
  <varray name="stress" >
   <v>       7.26441963      -0.11661273      -1.50051268 </v>
   <v>      -0.11661259       4.49795113       0.01529839 </v>
   <v>      -1.50051266       0.01529821      30.28040983 </v>
  </varray>
  <energy>
   <i name="e_fr_energy">   -186.89417081 </i>
   <i name="e_wo_entrp">   -186.72339227 </i>
   <i name="e_0_energy">     -0.34155709 </i>
  </energy>
  <time name="totalsc">  778.07  780.15</time>
 </calculation>
 <calculation>
  <scstep>
   <time name="dav">   21.71   21.77</time>
   <time name="total">   22.26   22.31</time>
   <energy>
    <i name="alphaZ">     78.91947181 </i>
    <i name="ewald">  39379.56293083 </i>
    <i name="hartreedc"> -45337.16523550 </i>
    <i name="XCdc">   -239.05175611 </i>
    <i name="pawpsdc">   4192.15726826 </i>
    <i name="pawaedc">  -3610.18300063 </i>
    <i name="eentropy">     -0.27766373 </i>
    <i name="bandstr">  -1412.93632200 </i>
    <i name="atom">   6761.44252427 </i>
    <i name="e_fr_energy">   -187.53178280 </i>
    <i name="e_wo_entrp">   -187.25411907 </i>
    <i name="e_0_energy">   -187.39295094 </i>
   </energy>
  </scstep>
  <scstep>
   <time name="dav">   30.35   30.42</time>
   <time name="total">   30.88   30.97</time>
   <energy>
    <i name="e_fr_energy">   -189.59434613 </i>
    <i name="e_wo_entrp">   -189.25809751 </i>
    <i name="e_0_energy">   -189.42622182 </i>
   </energy>
  </scstep>
  <scstep>
   <time name="dav">   30.33   30.40</time>
   <time name="total">   30.88   30.96</time>
   <energy>
    <i name="e_fr_energy">   -189.33021541 </i>
    <i name="e_wo_entrp">   -189.06096947 </i>
    <i name="e_0_energy">   -189.19559244 </i>
   </energy>
  </scstep>
  <scstep>
   <time name="dav">   30.95   31.02</time>
   <time name="total">   31.50   31.58</time>
   <energy>
    <i name="e_fr_energy">   -188.79013688 </i>
    <i name="e_wo_entrp">   -188.51057981 </i>
    <i name="e_0_energy">   -188.65035835 </i>
   </energy>
  </scstep>
  <scstep>
   <time name="dav">   30.00   30.07</time>
   <time name="total">   30.54   30.62</time>
   <energy>
    <i name="e_fr_energy">   -188.88851570 </i>
    <i name="e_wo_entrp">   -188.60200195 </i>
    <i name="e_0_energy">   -188.74525882 </i>
   </energy>
  </scstep>
  <scstep>
   <time name="dav">   30.96   31.03</time>
   <time name="total">   31.50   31.58</time>
   <energy>
    <i name="e_fr_energy">   -188.77922238 </i>
    <i name="e_wo_entrp">   -188.50260286 </i>
    <i name="e_0_energy">   -188.64091262 </i>
   </energy>
  </scstep>
  <scstep>
   <time name="dav">   29.96   30.04</time>
   <time name="total">   30.51   30.59</time>
   <energy>
    <i name="e_fr_energy">   -188.72036602 </i>
    <i name="e_wo_entrp">   -188.44118991 </i>
    <i name="e_0_energy">   -188.58077797 </i>
   </energy>
  </scstep>
  <scstep>
   <time name="dav">   31.53   31.61</time>
   <time name="total">   32.07   32.16</time>
   <energy>
    <i name="e_fr_energy">   -188.71080653 </i>
    <i name="e_wo_entrp">   -188.43287810 </i>
    <i name="e_0_energy">   -188.57184231 </i>
   </energy>
  </scstep>
  <scstep>
   <time name="dav">   29.54   29.61</time>
   <time name="total">   30.08   30.16</time>
   <energy>
    <i name="e_fr_energy">   -188.70007359 </i>
    <i name="e_wo_entrp">   -188.42294549 </i>
    <i name="e_0_energy">   -188.56150954 </i>
   </energy>
  </scstep>
  <scstep>
   <time name="dav">   29.89   29.97</time>
   <time name="total">   30.44   30.52</time>
   <energy>
    <i name="e_fr_energy">   -188.69917782 </i>
    <i name="e_wo_entrp">   -188.42245416 </i>
    <i name="e_0_energy">   -188.56081599 </i>
   </energy>
  </scstep>
  <scstep>
   <time name="dav">   30.80   30.88</time>
   <time name="total">   31.35   31.43</time>
   <energy>
    <i name="e_fr_energy">   -188.69854080 </i>
    <i name="e_wo_entrp">   -188.42211406 </i>
    <i name="e_0_energy">   -188.56032743 </i>
   </energy>
  </scstep>
  <scstep>
   <time name="dav">   29.46   29.53</time>
   <time name="total">   29.49   29.57</time>
   <energy>
    <i name="alphaZ">     78.91947181 </i>
    <i name="ewald">  39379.56293083 </i>
    <i name="hartreedc"> -45348.01897662 </i>
    <i name="XCdc">   -237.96485420 </i>
    <i name="pawpsdc">   3952.28555044 </i>
    <i name="pawaedc">  -3366.82373717 </i>
    <i name="eentropy">     -0.27636686 </i>
    <i name="bandstr">  -1407.82517710 </i>
    <i name="atom">   6761.44252427 </i>
    <i name="e_fr_energy">   -188.69863460 </i>
    <i name="e_wo_entrp">   -188.42226774 </i>
    <i name="e_0_energy">   -188.56045117 </i>
   </energy>
  </scstep>
  <structure>
   <crystal>
    <varray name="basis" >
     <v>       8.85243408       5.10332690       0.00000000 </v>
     <v>      -8.85587081       5.10923939       0.00000000 </v>
     <v>       0.00000000       0.00000000      30.00000000 </v>
    </varray>
    <i name="volume">   2712.70825861 </i>
    <varray name="rec_basis" >
     <v>       0.05650338       0.09793760       0.00000000 </v>
     <v>      -0.05643799       0.09789959       0.00000000 </v>
     <v>       0.00000000       0.00000000       0.03333333 </v>
    </varray>
   </crystal>
   <varray name="positions" >
    <v>       0.00110364       0.66857750      -0.00001740 </v>
    <v>       0.33407049       0.66898475       0.00015242 </v>
    <v>       0.66590859       0.33134764      -0.00013301 </v>
    <v>       0.66657547       0.00000115       0.00019528 </v>
    <v>       0.00007574       0.00006429      -0.00004775 </v>
    <v>       0.33326407      -0.00024858       0.00001684 </v>
    <v>       0.99844669       0.33113996       0.00002191 </v>
    <v>       0.33194710       0.33035436      -0.00019454 </v>
    <v>       0.66833833       0.66932153      -0.00006391 </v>
    <v>       0.11158990       0.22295534       0.95067158 </v>
    <v>       0.22249989       0.11187857       0.04927064 </v>
    <v>       0.11256134       0.55898398       0.95316451 </v>
    <v>       0.22397402       0.44826925       0.04806533 </v>
    <v>       0.10881847       0.88436098       0.95195795 </v>
    <v>       0.22021043       0.77319021       0.04692013 </v>
    <v>       0.44852281       0.22498576       0.95186213 </v>
    <v>       0.55767865       0.11538886       0.04805356 </v>
    <v>       0.44235091       0.55737223       0.95207113 </v>
    <v>       0.55747608       0.44242314       0.04793048 </v>
    <v>       0.44213406       0.88437434       0.95194977 </v>
    <v>       0.55130064       0.77501283       0.04814192 </v>
    <v>       0.77620019       0.22517738       0.95196831 </v>
    <v>       0.88919906       0.11191195       0.04926781 </v>
    <v>       0.77931256       0.55362589       0.95305615 </v>
    <v>       0.88706114       0.44607039       0.04692280 </v>
    <v>       0.77732403       0.88783801       0.95076779 </v>
    <v>       0.89027013       0.77485273       0.04802805 </v>
   </varray>
  </structure>
  <varray name="forces" >
   <v>      -0.15462520       0.25779942      -0.08794988 </v>
   <v>      -0.20703345       0.34972337      -0.04853726 </v>
   <v>       0.17339573      -0.28006489       0.06885758 </v>
   <v>       0.15227506       0.03364326       0.03958682 </v>
   <v>      -0.16622313       0.14024572      -0.01276852 </v>
   <v>      -0.13135728       0.07995972      -0.00502072 </v>
   <v>       0.35273178      -0.42066250       0.09953348 </v>
   <v>       0.22661813      -0.59667488       0.06300764 </v>
   <v>      -0.26837983       0.49489712      -0.08217963 </v>
   <v>      -0.06292925       0.08911069      -0.14658034 </v>
   <v>      -0.05827472       0.10815891       0.13555154 </v>
   <v>       0.05908534      -0.08725407       0.24608087 </v>
   <v>       0.05453445      -0.06827573      -0.23550427 </v>
   <v>       0.04688698      -0.07617546      -0.05617522 </v>
   <v>       0.00180239      -0.04452478       0.03891970 </v>
   <v>      -0.09322867       0.05807260      -0.09889481 </v>
   <v>      -0.03027033       0.06900415       0.06351302 </v>
   <v>       0.09198953      -0.00847430       0.23827401 </v>
   <v>      -0.09598970       0.00723871      -0.27236391 </v>
   <v>       0.02619377      -0.06781352      -0.02708425 </v>
   <v>       0.09665810      -0.04989969       0.09215701 </v>
   <v>       0.01354561       0.09927257      -0.08017956 </v>
   <v>      -0.05717365       0.10833616       0.17084153 </v>
   <v>      -0.10917589       0.00845005       0.21654628 </v>
   <v>       0.10780558       0.00174133      -0.25033724 </v>
   <v>       0.04858086      -0.10564119      -0.13785562 </v>
   <v>      -0.01744220      -0.10019277       0.06856175 </v>
  </varray>
  <varray name="stress" >
   <v>     -19.98334908       0.02720046      -0.01632200 </v>
   <v>       0.02720045     -19.58020426       0.11670484 </v>
   <v>      -0.01632199       0.11670485      -1.81078913 </v>
  </varray>
  <energy>
   <i name="e_fr_energy">   -188.69863460 </i>
   <i name="e_wo_entrp">   -188.56045117 </i>
   <i name="e_0_energy">     -0.27636686 </i>
  </energy>
  <time name="totalsc">  403.49  404.56</time>
 </calculation>
 <calculation>
  <scstep>
   <time name="dav">   23.67   23.72</time>
   <time name="total">   24.20   24.26</time>
   <energy>
    <i name="alphaZ">     82.33552401 </i>
    <i name="ewald">  41298.08083032 </i>
    <i name="hartreedc"> -47296.98952097 </i>
    <i name="XCdc">   -233.85498642 </i>
    <i name="pawpsdc">   3950.55536650 </i>
    <i name="pawaedc">  -3365.07412104 </i>
    <i name="eentropy">     -0.23210569 </i>
    <i name="bandstr">  -1386.88240930 </i>
    <i name="atom">   6761.44252427 </i>
    <i name="e_fr_energy">   -190.61889832 </i>
    <i name="e_wo_entrp">   -190.38679263 </i>
    <i name="e_0_energy">   -190.50284548 </i>
   </energy>
  </scstep>
  <scstep>
   <time name="dav">   28.04   28.11</time>
   <time name="total">   28.56   28.64</time>
   <energy>
    <i name="e_fr_energy">   -190.56918744 </i>
    <i name="e_wo_entrp">   -190.34060272 </i>
    <i name="e_0_energy">   -190.45489508 </i>
   </energy>
  </scstep>
  <scstep>
   <time name="dav">   30.28   30.35</time>
   <time name="total">   30.81   30.89</time>
   <energy>
    <i name="e_fr_energy">   -190.10688569 </i>
    <i name="e_wo_entrp">   -189.85807455 </i>
    <i name="e_0_energy">   -189.98248012 </i>
   </energy>
  </scstep>
  <scstep>
   <time name="dav">   30.70   30.78</time>
   <time name="total">   31.24   31.32</time>
   <energy>
    <i name="e_fr_energy">   -189.89447727 </i>
    <i name="e_wo_entrp">   -189.66605593 </i>
    <i name="e_0_energy">   -189.78026660 </i>
   </energy>
  </scstep>
  <scstep>
   <time name="dav">   30.23   30.31</time>
   <time name="total">   30.76   30.85</time>
   <energy>
    <i name="e_fr_energy">   -189.84817555 </i>
    <i name="e_wo_entrp">   -189.61343577 </i>
    <i name="e_0_energy">   -189.73080566 </i>
   </energy>
  </scstep>
  <scstep>
   <time name="dav">   31.07   31.14</time>
   <time name="total">   31.60   31.68</time>
   <energy>
    <i name="e_fr_energy">   -189.79747277 </i>
    <i name="e_wo_entrp">   -189.56337008 </i>
    <i name="e_0_energy">   -189.68042143 </i>
   </energy>
  </scstep>
  <scstep>
   <time name="dav">   28.85   28.92</time>
   <time name="total">   29.39   29.46</time>
   <energy>
    <i name="e_fr_energy">   -189.79072723 </i>
    <i name="e_wo_entrp">   -189.55800158 </i>
    <i name="e_0_energy">   -189.67436441 </i>
   </energy>
  </scstep>
  <scstep>
   <time name="dav">   29.98   30.05</time>
   <time name="total">   30.51   30.59</time>
   <energy>
    <i name="e_fr_energy">   -189.79114951 </i>
    <i name="e_wo_entrp">   -189.55823823 </i>
    <i name="e_0_energy">   -189.67469387 </i>
   </energy>
  </scstep>
  <scstep>
   <time name="dav">   27.18   27.25</time>
   <time name="total">   27.72   27.79</time>
   <energy>
    <i name="e_fr_energy">   -189.79084892 </i>
    <i name="e_wo_entrp">   -189.55788430 </i>
    <i name="e_0_energy">   -189.67436661 </i>
   </energy>
  </scstep>
  <scstep>
   <time name="dav">   25.25   25.31</time>
   <time name="total">   25.78   25.85</time>
   <energy>
    <i name="e_fr_energy">   -189.79108614 </i>
    <i name="e_wo_entrp">   -189.55811414 </i>
    <i name="e_0_energy">   -189.67460014 </i>
   </energy>
  </scstep>
  <scstep>
   <time name="dav">   23.77   23.83</time>
   <time name="total">   24.30   24.37</time>
   <energy>
    <i name="e_fr_energy">   -189.79080975 </i>
    <i name="e_wo_entrp">   -189.55772597 </i>
    <i name="e_0_energy">   -189.67426786 </i>
   </energy>
  </scstep>
  <scstep>
   <time name="dav">   19.05   19.10</time>
   <time name="total">   19.09   19.14</time>
   <energy>
    <i name="alphaZ">     82.33552401 </i>
    <i name="ewald">  41298.08083032 </i>
    <i name="hartreedc"> -47270.34855873 </i>
    <i name="XCdc">   -235.24588846 </i>
    <i name="pawpsdc">   4038.63297735 </i>
    <i name="pawaedc">  -3454.34116201 </i>
    <i name="eentropy">     -0.23306012 </i>
    <i name="bandstr">  -1410.11401988 </i>
    <i name="atom">   6761.44252427 </i>
    <i name="e_fr_energy">   -189.79083324 </i>
    <i name="e_wo_entrp">   -189.55777312 </i>
    <i name="e_0_energy">   -189.67430318 </i>
   </energy>
  </scstep>
  <structure>
   <crystal>
    <varray name="basis" >
     <v>       8.66510383       4.99768391       0.00000000 </v>
     <v>      -8.66817339       5.00296324       0.00000000 </v>
     <v>       0.00000000       0.00000000      30.00000000 </v>
    </varray>
    <i name="volume">   2600.15959697 </i>
    <varray name="rec_basis" >
     <v>       0.05772296       0.10001125       0.00000000 </v>
     <v>      -0.05766204       0.09997583       0.00000000 </v>
     <v>       0.00000000       0.00000000       0.03333333 </v>
    </varray>
   </crystal>
   <varray name="positions" >
    <v>       0.00138269       0.66915152      -0.00006695 </v>
    <v>       0.33445163       0.66976084       0.00012507 </v>
    <v>       0.66561062       0.33071888      -0.00009422 </v>
    <v>       0.66677656      -0.00008843       0.00021758 </v>
    <v>       0.00014914       0.00045487      -0.00005494 </v>
    <v>       0.33327098       0.00000901       0.00001401 </v>
    <v>       0.99808726       0.33010753       0.00007798 </v>
    <v>       0.33117591       0.32915100      -0.00015904 </v>
    <v>       0.66890118       0.67039633      -0.00011020 </v>
    <v>       0.11167730       0.22316280       0.95058901 </v>
    <v>       0.22262326       0.11211310       0.04934700 </v>
    <v>       0.11247335       0.55878326       0.95330314 </v>
    <v>       0.22391309       0.44810427       0.04793266 </v>
    <v>       0.10873716       0.88419023       0.95192631 </v>
    <v>       0.22013845       0.77311482       0.04694205 </v>
    <v>       0.44852990       0.22517077       0.95180642 </v>
    <v>       0.55776395       0.11553190       0.04808934 </v>
    <v>       0.44242472       0.55727047       0.95220536 </v>
    <v>       0.55739640       0.44252667       0.04777704 </v>
    <v>       0.44204683       0.88423716       0.95193452 </v>
    <v>       0.55131035       0.77483807       0.04819384 </v>
    <v>       0.77637744       0.22532871       0.95192314 </v>
    <v>       0.88932378       0.11214573       0.04936406 </v>
    <v>       0.77922230       0.55374400       0.95317814 </v>
    <v>       0.88716697       0.44597045       0.04678177 </v>
    <v>       0.77719557       0.88761689       0.95069013 </v>
    <v>       0.89008764       0.77470360       0.04806668 </v>
   </varray>
  </structure>
  <varray name="forces" >
   <v>      -0.17663742       0.24468980      -0.08690600 </v>
   <v>      -0.16575345       0.37784276      -0.07347050 </v>
   <v>       0.15571544      -0.30953352       0.08533116 </v>
   <v>       0.20741869       0.03288735       0.00987723 </v>
   <v>      -0.21469587       0.17450192      -0.00529233 </v>
   <v>      -0.18382934       0.12130722      -0.01124241 </v>
   <v>       0.42690595      -0.42246961       0.08555754 </v>
   <v>       0.21502884      -0.63496505       0.08454623 </v>
   <v>      -0.30213160       0.48979964      -0.06600605 </v>
   <v>      -0.02661735       0.01716995      -0.73443467 </v>
   <v>      -0.00634856       0.02212602       0.69815301 </v>
   <v>      -0.00659593       0.02728575      -0.18572451 </v>
   <v>      -0.01374259       0.05853471       0.25019780 </v>
   <v>       0.07998630      -0.12719145      -0.53965718 </v>
   <v>       0.02928096      -0.09883832       0.49146903 </v>
   <v>       0.03586035       0.11221884      -0.61859287 </v>
   <v>      -0.06615340       0.12328677       0.54604308 </v>
   <v>      -0.03999982      -0.01832984      -0.22812270 </v>
   <v>       0.02981560       0.02151650       0.19069188 </v>
   <v>       0.05531651      -0.11813594      -0.50250751 </v>
   <v>      -0.02007904      -0.10778238       0.61229087 </v>
   <v>      -0.09123087       0.01933234      -0.58189617 </v>
   <v>      -0.00797986       0.02468382       0.74149977 </v>
   <v>       0.04637476       0.00332970      -0.22691289 </v>
   <v>      -0.04860629       0.00775349       0.19149411 </v>
   <v>      -0.00103412      -0.01995568      -0.69908137 </v>
   <v>       0.08973213      -0.02106481       0.57269544 </v>
  </varray>
  <varray name="stress" >
   <v>     -10.15766360       0.02535406      -0.05617433 </v>
   <v>       0.02535416      -9.89154977       0.12683970 </v>
   <v>      -0.05617449       0.12683966       6.47610568 </v>
  </varray>
  <energy>
   <i name="e_fr_energy">   -189.79083324 </i>
   <i name="e_wo_entrp">   -189.67430318 </i>
   <i name="e_0_energy">     -0.23306012 </i>
  </energy>
  <time name="totalsc">  376.05  377.05</time>
 </calculation>
 <calculation>
  <scstep>
   <time name="dav">   21.79   21.84</time>
   <time name="total">   22.31   22.36</time>
   <energy>
    <i name="alphaZ">     85.80248720 </i>
    <i name="ewald">  42825.41769347 </i>
    <i name="hartreedc"> -48842.00140085 </i>
    <i name="XCdc">   -232.96328657 </i>
    <i name="pawpsdc">   4038.75639677 </i>
    <i name="pawaedc">  -3454.46262070 </i>
    <i name="eentropy">     -0.19155217 </i>
    <i name="bandstr">  -1373.16674984 </i>
    <i name="atom">   6761.44252427 </i>
    <i name="e_fr_energy">   -191.36650841 </i>
    <i name="e_wo_entrp">   -191.17495624 </i>
    <i name="e_0_energy">   -191.27073233 </i>
   </energy>
  </scstep>
  <scstep>
   <time name="dav">   32.43   32.51</time>
   <time name="total">   32.94   33.03</time>
   <energy>
    <i name="e_fr_energy">   -191.18477350 </i>
    <i name="e_wo_entrp">   -190.99493340 </i>
    <i name="e_0_energy">   -191.08985345 </i>
   </energy>
  </scstep>
  <scstep>
   <time name="dav">   29.98   30.05</time>
   <time name="total">   30.49   30.57</time>
   <energy>
    <i name="e_fr_energy">   -191.33368028 </i>
    <i name="e_wo_entrp">   -191.10991467 </i>
    <i name="e_0_energy">   -191.22179748 </i>
   </energy>
  </scstep>
  <scstep>
   <time name="dav">   30.53   30.60</time>
   <time name="total">   31.05   31.24</time>
   <energy>
    <i name="e_fr_energy">   -190.93594244 </i>
    <i name="e_wo_entrp">   -190.74474364 </i>
    <i name="e_0_energy">   -190.84034304 </i>
   </energy>
  </scstep>
  <scstep>
   <time name="dav">   30.19   30.26</time>
   <time name="total">   30.71   30.79</time>
   <energy>
    <i name="e_fr_energy">   -190.89311048 </i>
    <i name="e_wo_entrp">   -190.69837076 </i>
    <i name="e_0_energy">   -190.79574062 </i>
   </energy>
  </scstep>
  <scstep>
   <time name="dav">   30.15   30.22</time>
   <time name="total">   30.67   30.75</time>
   <energy>
    <i name="e_fr_energy">   -190.80753293 </i>
    <i name="e_wo_entrp">   -190.60893653 </i>
    <i name="e_0_energy">   -190.70823473 </i>
   </energy>
  </scstep>
  <scstep>
   <time name="dav">   30.77   30.84</time>
   <time name="total">   31.28   31.37</time>
   <energy>
    <i name="e_fr_energy">   -190.79550320 </i>
    <i name="e_wo_entrp">   -190.60107442 </i>
    <i name="e_0_energy">   -190.69828881 </i>
   </energy>
  </scstep>
  <scstep>
   <time name="dav">   28.38   28.45</time>
   <time name="total">   28.90   28.97</time>
   <energy>
    <i name="e_fr_energy">   -190.79313640 </i>
    <i name="e_wo_entrp">   -190.59741786 </i>
    <i name="e_0_energy">   -190.69527713 </i>
   </energy>
  </scstep>
  <scstep>
   <time name="dav">   28.30   28.37</time>
   <time name="total">   28.82   28.90</time>
   <energy>
    <i name="e_fr_energy">   -190.79209708 </i>
    <i name="e_wo_entrp">   -190.59642364 </i>
    <i name="e_0_energy">   -190.69426036 </i>
   </energy>
  </scstep>
  <scstep>
   <time name="dav">   28.25   28.31</time>
   <time name="total">   28.76   28.84</time>
   <energy>
    <i name="e_fr_energy">   -190.79226862 </i>
    <i name="e_wo_entrp">   -190.59632720 </i>
    <i name="e_0_energy">   -190.69429791 </i>
   </energy>
  </scstep>
  <scstep>
   <time name="dav">   24.33   24.39</time>
   <time name="total">   24.37   24.44</time>
   <energy>
    <i name="alphaZ">     85.80248720 </i>
    <i name="ewald">  42825.41769347 </i>
    <i name="hartreedc"> -48813.22245164 </i>
    <i name="XCdc">   -234.28964905 </i>
    <i name="pawpsdc">   4063.59536562 </i>
    <i name="pawaedc">  -3479.47824682 </i>
    <i name="eentropy">     -0.19584850 </i>
    <i name="bandstr">  -1399.86405734 </i>
    <i name="atom">   6761.44252427 </i>
    <i name="e_fr_energy">   -190.79218279 </i>
    <i name="e_wo_entrp">   -190.59633428 </i>
    <i name="e_0_energy">   -190.69425853 </i>
   </energy>
  </scstep>
  <structure>
   <crystal>
    <varray name="basis" >
     <v>       8.48552700       4.89825274       0.00000000 </v>
     <v>      -8.48765321       4.90190174       0.00000000 </v>
     <v>       0.00000000       0.00000000      30.00000000 </v>
    </varray>
    <i name="volume">   2495.09670304 </i>
    <varray name="rec_basis" >
     <v>       0.05893842       0.10205199       0.00000000 </v>
     <v>      -0.05889454       0.10202643       0.00000000 </v>
     <v>       0.00000000       0.00000000       0.03333333 </v>
    </varray>
   </crystal>
   <varray name="positions" >
    <v>       0.00221062       0.67131671      -0.00024563 </v>
    <v>       0.33634546       0.67273086      -0.00004792 </v>
    <v>       0.66413828       0.32817468       0.00009609 </v>
    <v>       0.66780834      -0.00071195       0.00021274 </v>
    <v>       0.00048101       0.00247487      -0.00005952 </v>
    <v>       0.33339361       0.00160869      -0.00001451 </v>
    <v>       0.99708895       0.32581655       0.00024289 </v>
    <v>       0.32786969       0.32432815       0.00003395 </v>
    <v>       0.67081178       0.67458287      -0.00023284 </v>
    <v>       0.11156128       0.22313431       0.94857196 </v>
    <v>       0.22259869       0.11198487       0.05126763 </v>
    <v>       0.11281149       0.55935793       0.95255247 </v>
    <v>       0.22444772       0.44893438       0.04886234 </v>
    <v>       0.10815091       0.88293192       0.95040041 </v>
    <v>       0.21953014       0.77221641       0.04834210 </v>
    <v>       0.44968208       0.22569227       0.95008665 </v>
    <v>       0.55837986       0.11672808       0.04962762 </v>
    <v>       0.44195103       0.55746542       0.95133769 </v>
    <v>       0.55785539       0.44240829       0.04856453 </v>
    <v>       0.44142417       0.88313185       0.95049223 </v>
    <v>       0.55025133       0.77426030       0.04990096 </v>
    <v>       0.77581854       0.22572972       0.95029447 </v>
    <v>       0.88931132       0.11204924       0.05138109 </v>
    <v>       0.77962176       0.55336104       0.95233246 </v>
    <v>       0.88682974       0.44643420       0.04755288 </v>
    <v>       0.77720953       0.88778111       0.94876876 </v>
    <v>       0.89063172       0.77429168       0.04967839 </v>
   </varray>
  </structure>
  <varray name="forces" >
   <v>      -0.18297088       0.22146585      -0.04918158 </v>
   <v>      -0.17769263       0.44849536      -0.07390566 </v>
   <v>       0.17052333      -0.32565691       0.07935335 </v>
   <v>       0.25271473       0.03144470      -0.02597230 </v>
   <v>      -0.26257039       0.20552658       0.01305799 </v>
   <v>      -0.21496132       0.14406883      -0.01299588 </v>
   <v>       0.45235692      -0.42172263       0.02019588 </v>
   <v>       0.22302156      -0.72399790       0.03723539 </v>
   <v>      -0.33000183       0.55230100      -0.00337748 </v>
   <v>       0.01868281      -0.03609608      -0.58930330 </v>
   <v>       0.04232108      -0.08591605       0.56361992 </v>
   <v>       0.03285229      -0.04517934      -0.06158562 </v>
   <v>       0.00213653      -0.00481197       0.11015406 </v>
   <v>       0.00326234      -0.00742954      -0.38695253 </v>
   <v>      -0.02920807       0.00319232       0.37923792 </v>
   <v>       0.02553760       0.01134034      -0.47275257 </v>
   <v>       0.01127335       0.00125875       0.39027572 </v>
   <v>       0.03486041      -0.03479807      -0.03076115 </v>
   <v>      -0.04794054       0.01754219      -0.01087878 </v>
   <v>      -0.02019756       0.00852929      -0.35903761 </v>
   <v>      -0.04389204      -0.00321493       0.48539725 </v>
   <v>       0.01273743      -0.02122134      -0.37976425 </v>
   <v>       0.02402657      -0.06088746       0.59315124 </v>
   <v>       0.00114825       0.00742384      -0.14125629 </v>
   <v>       0.02491895      -0.00009668       0.08126473 </v>
   <v>      -0.02204667       0.07254309      -0.53913739 </v>
   <v>      -0.00089221       0.04589678       0.38391894 </v>
  </varray>
  <varray name="stress" >
   <v>      -5.87749069      -0.11282281      -0.08956223 </v>
   <v>      -0.11282273      -5.76161148      -0.05764035 </v>
   <v>      -0.08956219      -0.05764037       4.58208489 </v>
  </varray>
  <energy>
   <i name="e_fr_energy">   -190.79218279 </i>
   <i name="e_wo_entrp">   -190.69425853 </i>
   <i name="e_0_energy">     -0.19584850 </i>
  </energy>
  <time name="totalsc">  362.08  363.15</time>
 </calculation>
 <calculation>
  <scstep>
   <time name="dav">   21.72   21.77</time>
   <time name="total">   22.23   22.29</time>
   <energy>
    <i name="alphaZ">     90.23761815 </i>
    <i name="ewald">  44694.16426829 </i>
    <i name="hartreedc"> -50738.18913308 </i>
    <i name="XCdc">   -231.78595452 </i>
    <i name="pawpsdc">   4063.89008555 </i>
    <i name="pawaedc">  -3479.77151547 </i>
    <i name="eentropy">     -0.16409531 </i>
    <i name="bandstr">  -1352.09144337 </i>
    <i name="atom">   6761.44252427 </i>
    <i name="e_fr_energy">   -192.26764548 </i>
    <i name="e_wo_entrp">   -192.10355017 </i>
    <i name="e_0_energy">   -192.18559783 </i>
   </energy>
  </scstep>
  <scstep>
   <time name="dav">   27.62   27.69</time>
   <time name="total">   28.13   28.20</time>
   <energy>
    <i name="e_fr_energy">   -191.99572457 </i>
    <i name="e_wo_entrp">   -191.82018472 </i>
    <i name="e_0_energy">   -191.90795465 </i>
   </energy>
  </scstep>
  <scstep>
   <time name="dav">   29.92   29.99</time>
   <time name="total">   30.42   30.50</time>
   <energy>
    <i name="e_fr_energy">   -192.05121253 </i>
    <i name="e_wo_entrp">   -191.87023616 </i>
    <i name="e_0_energy">   -191.96072434 </i>
   </energy>
  </scstep>
  <scstep>
   <time name="dav">   29.50   29.58</time>
   <time name="total">   30.01   30.09</time>
   <energy>
    <i name="e_fr_energy">   -191.87812571 </i>
    <i name="e_wo_entrp">   -191.69935769 </i>
    <i name="e_0_energy">   -191.78874170 </i>
   </energy>
  </scstep>
  <scstep>
   <time name="dav">   30.23   30.30</time>
   <time name="total">   30.73   30.81</time>
   <energy>
    <i name="e_fr_energy">   -191.61135065 </i>
    <i name="e_wo_entrp">   -191.44342201 </i>
    <i name="e_0_energy">   -191.52738633 </i>
   </energy>
  </scstep>
  <scstep>
   <time name="dav">   30.83   30.90</time>
   <time name="total">   31.33   31.41</time>
   <energy>
    <i name="e_fr_energy">   -191.59017115 </i>
    <i name="e_wo_entrp">   -191.40792794 </i>
    <i name="e_0_energy">   -191.49904954 </i>
   </energy>
  </scstep>
  <scstep>
   <time name="dav">   30.26   30.33</time>
   <time name="total">   30.76   30.84</time>
   <energy>
    <i name="e_fr_energy">   -191.57228058 </i>
    <i name="e_wo_entrp">   -191.40580343 </i>
    <i name="e_0_energy">   -191.48904201 </i>
   </energy>
  </scstep>
  <scstep>
   <time name="dav">   29.58   29.65</time>
   <time name="total">   30.09   30.17</time>
   <energy>
    <i name="e_fr_energy">   -191.56570268 </i>
    <i name="e_wo_entrp">   -191.39449361 </i>
    <i name="e_0_energy">   -191.48009815 </i>
   </energy>
  </scstep>
  <scstep>
   <time name="dav">   29.18   29.25</time>
   <time name="total">   29.68   29.76</time>
   <energy>
    <i name="e_fr_energy">   -191.56472855 </i>
    <i name="e_wo_entrp">   -191.39322104 </i>
    <i name="e_0_energy">   -191.47897480 </i>
   </energy>
  </scstep>
  <scstep>
   <time name="dav">   28.52   28.59</time>
   <time name="total">   29.03   29.11</time>
   <energy>
    <i name="e_fr_energy">   -191.56470147 </i>
    <i name="e_wo_entrp">   -191.39291754 </i>
    <i name="e_0_energy">   -191.47880950 </i>
   </energy>
  </scstep>
  <scstep>
   <time name="dav">   27.15   27.21</time>
   <time name="total">   27.18   27.26</time>
   <energy>
    <i name="alphaZ">     90.23761815 </i>
    <i name="ewald">  44694.16426829 </i>
    <i name="hartreedc"> -50703.24870516 </i>
    <i name="XCdc">   -233.33610839 </i>
    <i name="pawpsdc">   4086.95323249 </i>
    <i name="pawaedc">  -3502.91994044 </i>
    <i name="eentropy">     -0.17193212 </i>
    <i name="bandstr">  -1384.68559807 </i>
    <i name="atom">   6761.44252427 </i>
    <i name="e_fr_energy">   -191.56464098 </i>
    <i name="e_wo_entrp">   -191.39270886 </i>
    <i name="e_0_energy">   -191.47867492 </i>
   </energy>
  </scstep>
  <structure>
   <crystal>
    <varray name="basis" >
     <v>       8.26837599       4.77226436       0.00000000 </v>
     <v>      -8.27699899       4.78716825       0.00000000 </v>
     <v>       0.00000000       0.00000000      30.00000000 </v>
    </varray>
    <i name="volume">   2372.46402685 </i>
    <varray name="rec_basis" >
     <v>       0.06053413       0.10466332       0.00000000 </v>
     <v>      -0.06034567       0.10455428       0.00000000 </v>
     <v>       0.00000000       0.00000000       0.03333333 </v>
    </varray>
   </crystal>
   <varray name="positions" >
    <v>       0.00361877       0.67541206      -0.00046416 </v>
    <v>       0.34068920       0.67945913      -0.00037199 </v>
    <v>       0.66121099       0.32289069       0.00043720 </v>
    <v>       0.67006275      -0.00218309       0.00009715 </v>
    <v>       0.00116346       0.00699578      -0.00000907 </v>
    <v>       0.33366576       0.00508258      -0.00007243 </v>
    <v>       0.99518967       0.31722523       0.00034602 </v>
    <v>       0.32048301       0.31379875       0.00023197 </v>
    <v>       0.67515598       0.68372091      -0.00026419 </v>
    <v>       0.11114211       0.22241193       0.94551688 </v>
    <v>       0.22180418       0.11050158       0.05418762 </v>
    <v>       0.11279572       0.55917100       0.95180237 </v>
    <v>       0.22475249       0.44947152       0.04987184 </v>
    <v>       0.10786059       0.88233292       0.94826541 </v>
    <v>       0.21913163       0.77202971       0.05039289 </v>
    <v>       0.45056589       0.22575029       0.94757157 </v>
    <v>       0.55870586       0.11716505       0.05177678 </v>
    <v>       0.44146995       0.55707903       0.95063804 </v>
    <v>       0.55806798       0.44272930       0.04909449 </v>
    <v>       0.44114624       0.88289770       0.94848336 </v>
    <v>       0.54937379       0.77436340       0.05245742 </v>
    <v>       0.77519925       0.22548669       0.94814352 </v>
    <v>       0.88867723       0.11096565       0.05443623 </v>
    <v>       0.78000902       0.55311460       0.95126887 </v>
    <v>       0.88670054       0.44662269       0.04838521 </v>
    <v>       0.77798555       0.88900104       0.94593554 </v>
    <v>       0.89158681       0.77471831       0.05184136 </v>
   </varray>
  </structure>
  <varray name="forces" >
   <v>      -0.22915608       0.26664413      -0.01868391 </v>
   <v>      -0.26219305       0.54856765       0.04927439 </v>
   <v>       0.26276164      -0.36463019      -0.00927412 </v>
   <v>       0.16279648       0.03761011       0.01206185 </v>
   <v>      -0.09600497       0.01867971       0.07828379 </v>
   <v>      -0.12488646       0.01206493       0.05306192 </v>
   <v>       0.31396128      -0.35015487      -0.04382063 </v>
   <v>       0.16501983      -0.49539924      -0.11672248 </v>
   <v>      -0.27350478       0.52115118       0.06742902 </v>
   <v>       0.04107506      -0.06090172      -0.29832294 </v>
   <v>       0.07253597      -0.21332723       0.29019730 </v>
   <v>       0.10745328      -0.11263174       0.23166775 </v>
   <v>       0.08256516      -0.08930478      -0.21338665 </v>
   <v>      -0.09974644       0.11994285      -0.09044721 </v>
   <v>      -0.04415433       0.09142240       0.05664784 </v>
   <v>      -0.04261758      -0.07008742      -0.14997901 </v>
   <v>       0.10956975      -0.11756103       0.07639141 </v>
   <v>       0.16697436      -0.08489481       0.34961515 </v>
   <v>      -0.20873169      -0.01043733      -0.36138568 </v>
   <v>      -0.11663935       0.17303630      -0.12234569 </v>
   <v>      -0.04000596       0.09196110       0.17445745 </v>
   <v>       0.09870386      -0.03645089      -0.09387763 </v>
   <v>       0.03375048      -0.12063616       0.25948102 </v>
   <v>      -0.12128527      -0.00951437       0.14769619 </v>
   <v>       0.16501359      -0.03202329      -0.16807412 </v>
   <v>      -0.02864486       0.18220180      -0.27216008 </v>
   <v>      -0.09460989       0.10467291       0.11221505 </v>
  </varray>
  <varray name="stress" >
   <v>      -0.03451177      -0.26109513       0.09922783 </v>
   <v>      -0.26109508       0.10352414      -0.46767899 </v>
   <v>       0.09922779      -0.46767899      -0.45607837 </v>
  </varray>
  <energy>
   <i name="e_fr_energy">   -191.56464098 </i>
   <i name="e_wo_entrp">   -191.47867492 </i>
   <i name="e_0_energy">     -0.17193212 </i>
  </energy>
  <time name="totalsc">  361.53  362.47</time>
 </calculation>
 <calculation>
  <scstep>
   <time name="dav">   21.71   21.76</time>
   <time name="total">   22.22   22.27</time>
   <energy>
    <i name="alphaZ">     90.20627821 </i>
    <i name="ewald">  44665.09232257 </i>
    <i name="hartreedc"> -50674.41190537 </i>
    <i name="XCdc">   -233.42607439 </i>
    <i name="pawpsdc">   4087.32627606 </i>
    <i name="pawaedc">  -3503.28972036 </i>
    <i name="eentropy">     -0.16570066 </i>
    <i name="bandstr">  -1384.45768400 </i>
    <i name="atom">   6761.44252427 </i>
    <i name="e_fr_energy">   -191.68368365 </i>
    <i name="e_wo_entrp">   -191.51798299 </i>
    <i name="e_0_energy">   -191.60083332 </i>
   </energy>
  </scstep>
  <scstep>
   <time name="dav">   31.21   31.28</time>
   <time name="total">   31.71   31.79</time>
   <energy>
    <i name="e_fr_energy">   -191.74703639 </i>
    <i name="e_wo_entrp">   -191.56193090 </i>
    <i name="e_0_energy">   -191.65448364 </i>
   </energy>
  </scstep>
  <scstep>
   <time name="dav">   30.93   31.01</time>
   <time name="total">   31.44   31.53</time>
   <energy>
    <i name="e_fr_energy">   -191.70253704 </i>
    <i name="e_wo_entrp">   -191.53641386 </i>
    <i name="e_0_energy">   -191.61947545 </i>
   </energy>
  </scstep>
  <scstep>
   <time name="dav">   28.71   28.78</time>
   <time name="total">   29.21   29.29</time>
   <energy>
    <i name="e_fr_energy">   -191.70238904 </i>
    <i name="e_wo_entrp">   -191.53343871 </i>
    <i name="e_0_energy">   -191.61791388 </i>
   </energy>
  </scstep>
  <scstep>
   <time name="dav">   28.83   28.90</time>
   <time name="total">   29.33   29.41</time>
   <energy>
    <i name="e_fr_energy">   -191.69909401 </i>
    <i name="e_wo_entrp">   -191.53023754 </i>
    <i name="e_0_energy">   -191.61466578 </i>
   </energy>
  </scstep>
  <scstep>
   <time name="dav">   28.37   28.44</time>
   <time name="total">   28.87   28.95</time>
   <energy>
    <i name="e_fr_energy">   -191.69894507 </i>
    <i name="e_wo_entrp">   -191.52960201 </i>
    <i name="e_0_energy">   -191.61427354 </i>
   </energy>
  </scstep>
  <scstep>
   <time name="dav">   28.62   28.69</time>
   <time name="total">   29.13   29.20</time>
   <energy>
    <i name="e_fr_energy">   -191.69842385 </i>
    <i name="e_wo_entrp">   -191.52972581 </i>
    <i name="e_0_energy">   -191.61407483 </i>
   </energy>
  </scstep>
  <scstep>
   <time name="dav">   23.85   23.90</time>
   <time name="total">   24.35   24.41</time>
   <energy>
    <i name="e_fr_energy">   -191.69818632 </i>
    <i name="e_wo_entrp">   -191.52918011 </i>
    <i name="e_0_energy">   -191.61368321 </i>
   </energy>
  </scstep>
  <scstep>
   <time name="dav">   17.70   17.74</time>
   <time name="total">   17.73   17.78</time>
   <energy>
    <i name="alphaZ">     90.20627821 </i>
    <i name="ewald">  44665.09232257 </i>
    <i name="hartreedc"> -50675.80114955 </i>
    <i name="XCdc">   -233.38912175 </i>
    <i name="pawpsdc">   4086.21687956 </i>
    <i name="pawaedc">  -3502.14943332 </i>
    <i name="eentropy">     -0.16874381 </i>
    <i name="bandstr">  -1383.14774530 </i>
    <i name="atom">   6761.44252427 </i>
    <i name="e_fr_energy">   -191.69818912 </i>
    <i name="e_wo_entrp">   -191.52944531 </i>
    <i name="e_0_energy">   -191.61381721 </i>
   </energy>
  </scstep>
  <structure>
   <crystal>
    <varray name="basis" >
     <v>       8.26508213       4.76832062       0.00000000 </v>
     <v>      -8.28021381       4.79449502       0.00000000 </v>
     <v>       0.00000000       0.00000000      30.00000000 </v>
    </varray>
    <i name="volume">   2373.28828093 </i>
    <varray name="rec_basis" >
     <v>       0.06060572       0.10466761       0.00000000 </v>
     <v>      -0.06027486       0.10447634       0.00000000 </v>
     <v>       0.00000000       0.00000000       0.03333333 </v>
    </varray>
   </crystal>
   <varray name="positions" >
    <v>       0.00428171       0.67738200      -0.00049262 </v>
    <v>       0.34264984       0.68291870      -0.00029158 </v>
    <v>       0.66016425       0.32034089       0.00042043 </v>
    <v>       0.67070890      -0.00245615       0.00011706 </v>
    <v>       0.00097525       0.00734010       0.00011536 </v>
    <v>       0.33336318       0.00548285       0.00001245 </v>
    <v>       0.99435690       0.31461916       0.00027555 </v>
    <v>       0.31852420       0.31090679       0.00004474 </v>
    <v>       0.67694749       0.68706237      -0.00015653 </v>
    <v>       0.11095907       0.22199377       0.94506139 </v>
    <v>       0.22095158       0.10923526       0.05463104 </v>
    <v>       0.11254214       0.55829712       0.95217752 </v>
    <v>       0.22454163       0.44878186       0.04952411 </v>
    <v>       0.10817443       0.88322509       0.94813550 </v>
    <v>       0.21946428       0.77261653       0.05046963 </v>
    <v>       0.45008495       0.22552229       0.94734909 </v>
    <v>       0.55843211       0.11625730       0.05188421 </v>
    <v>       0.44153220       0.55617438       0.95120108 </v>
    <v>       0.55740946       0.44327820       0.04851366 </v>
    <v>       0.44167679       0.88410182       0.94830187 </v>
    <v>       0.54972494       0.77493833       0.05271870 </v>
    <v>       0.77530763       0.22502086       0.94800840 </v>
    <v>       0.88817523       0.11027223       0.05482990 </v>
    <v>       0.77960730       0.55341946       0.95151199 </v>
    <v>       0.88701961       0.44598435       0.04811089 </v>
    <v>       0.77880953       0.88998657       0.94552040 </v>
    <v>       0.89182982       0.77551233       0.05200564 </v>
   </varray>
  </structure>
  <varray name="forces" >
   <v>      -0.25936308       0.30608713      -0.06443392 </v>
   <v>      -0.27531992       0.53306142       0.00567154 </v>
   <v>       0.29548831      -0.37383616       0.00377719 </v>
   <v>       0.14992225       0.07279394      -0.02964675 </v>
   <v>      -0.06513170       0.00294494       0.03135276 </v>
   <v>      -0.13469316      -0.01492701       0.03229442 </v>
   <v>       0.29527615      -0.37997394      -0.01799420 </v>
   <v>       0.20517049      -0.51593933      -0.02343919 </v>
   <v>      -0.27343570       0.51676787       0.00345580 </v>
   <v>       0.03457221      -0.08135468      -0.24874438 </v>
   <v>       0.04351294      -0.13192916       0.19518055 </v>
   <v>       0.08665995      -0.06628477       0.28979886 </v>
   <v>       0.06391013      -0.04776403      -0.25942157 </v>
   <v>      -0.06231636       0.08153113      -0.07279929 </v>
   <v>      -0.02231105       0.05235949       0.08366192 </v>
   <v>      -0.00116853      -0.06312826      -0.14150236 </v>
   <v>       0.07553162      -0.08538162       0.07544160 </v>
   <v>       0.10492051      -0.05719697       0.37449521 </v>
   <v>      -0.15018108       0.01125036      -0.39344222 </v>
   <v>      -0.08500290       0.13648840      -0.08622084 </v>
   <v>      -0.03963955       0.07876528       0.19058676 </v>
   <v>       0.05134091      -0.03771820      -0.11989059 </v>
   <v>       0.02557243      -0.09454399       0.21851125 </v>
   <v>      -0.10182051      -0.01145752       0.21703614 </v>
   <v>       0.11517755      -0.03129901      -0.22310324 </v>
   <v>      -0.03576965       0.13290565      -0.20497167 </v>
   <v>      -0.04090227       0.06777904       0.16434623 </v>
  </varray>
  <varray name="stress" >
   <v>       0.00161564      -0.07442596       0.10382571 </v>
   <v>      -0.07442580       0.11297106      -0.26184595 </v>
   <v>       0.10382556      -0.26184611      -1.03131034 </v>
  </varray>
  <energy>
   <i name="e_fr_energy">   -191.69818912 </i>
   <i name="e_wo_entrp">   -191.61381721 </i>
   <i name="e_0_energy">     -0.16874381 </i>
  </energy>
  <time name="totalsc">  286.25  287.01</time>
 </calculation>
 <calculation>
  <scstep>
   <time name="dav">   21.74   21.79</time>
   <time name="total">   22.25   22.30</time>
   <energy>
    <i name="alphaZ">     90.15466010 </i>
    <i name="ewald">  44640.10034763 </i>
    <i name="hartreedc"> -50650.12774498 </i>
    <i name="XCdc">   -233.44160866 </i>
    <i name="pawpsdc">   4086.19222942 </i>
    <i name="pawaedc">  -3502.12465086 </i>
    <i name="eentropy">     -0.16260921 </i>
    <i name="bandstr">  -1383.85267034 </i>
    <i name="atom">   6761.44252427 </i>
    <i name="e_fr_energy">   -191.81952263 </i>
    <i name="e_wo_entrp">   -191.65691342 </i>
    <i name="e_0_energy">   -191.73821803 </i>
   </energy>
  </scstep>
  <scstep>
   <time name="dav">   31.01   31.08</time>
   <time name="total">   31.51   31.60</time>
   <energy>
    <i name="e_fr_energy">   -191.86029254 </i>
    <i name="e_wo_entrp">   -191.68600497 </i>
    <i name="e_0_energy">   -191.77314876 </i>
   </energy>
  </scstep>
  <scstep>
   <time name="dav">   30.63   30.71</time>
   <time name="total">   31.13   31.22</time>
   <energy>
    <i name="e_fr_energy">   -191.83849082 </i>
    <i name="e_wo_entrp">   -191.67728287 </i>
    <i name="e_0_energy">   -191.75788685 </i>
   </energy>
  </scstep>
  <scstep>
   <time name="dav">   29.04   29.11</time>
   <time name="total">   29.54   29.62</time>
   <energy>
    <i name="e_fr_energy">   -191.83537598 </i>
    <i name="e_wo_entrp">   -191.67110092 </i>
    <i name="e_0_energy">   -191.75323845 </i>
   </energy>
  </scstep>
  <scstep>
   <time name="dav">   29.97   30.05</time>
   <time name="total">   30.48   30.56</time>
   <energy>
    <i name="e_fr_energy">   -191.83457455 </i>
    <i name="e_wo_entrp">   -191.67053967 </i>
    <i name="e_0_energy">   -191.75255711 </i>
   </energy>
  </scstep>
  <scstep>
   <time name="dav">   28.94   29.01</time>
   <time name="total">   29.44   29.52</time>
   <energy>
    <i name="e_fr_energy">   -191.83390490 </i>
    <i name="e_wo_entrp">   -191.66978069 </i>
    <i name="e_0_energy">   -191.75184279 </i>
   </energy>
  </scstep>
  <scstep>
   <time name="dav">   26.04   26.11</time>
   <time name="total">   26.54   26.62</time>
   <energy>
    <i name="e_fr_energy">   -191.83308992 </i>
    <i name="e_wo_entrp">   -191.66903107 </i>
    <i name="e_0_energy">   -191.75106049 </i>
   </energy>
  </scstep>
  <scstep>
   <time name="dav">   21.22   21.27</time>
   <time name="total">   21.26   21.32</time>
   <energy>
    <i name="alphaZ">     90.15466010 </i>
    <i name="ewald">  44640.10034763 </i>
    <i name="hartreedc"> -50651.07532898 </i>
    <i name="XCdc">   -233.40240599 </i>
    <i name="pawpsdc">   4088.21048780 </i>
    <i name="pawaedc">  -3504.15925289 </i>
    <i name="eentropy">     -0.16405298 </i>
    <i name="bandstr">  -1382.94011779 </i>
    <i name="atom">   6761.44252427 </i>
    <i name="e_fr_energy">   -191.83313883 </i>
    <i name="e_wo_entrp">   -191.66908585 </i>
    <i name="e_0_energy">   -191.75111234 </i>
   </energy>
  </scstep>
  <structure>
   <crystal>
    <varray name="basis" >
     <v>       8.26526221       4.76880041       0.00000000 </v>
     <v>      -8.28225909       4.79820991       0.00000000 </v>
[...]
      <set comment="kpoint 31">
       <r>  -17.5336    1.0000 </r>
       <r>  -17.2897    1.0000 </r>
       <r>  -16.9147    1.0000 </r>
       <r>  -16.7102    1.0000 </r>
       <r>  -16.4880    1.0000 </r>
       <r>  -16.4283    1.0000 </r>
       <r>  -16.3459    1.0000 </r>
       <r>  -16.2284    1.0000 </r>
       <r>  -16.0883    1.0000 </r>
       <r>  -15.9904    1.0000 </r>
       <r>  -15.9519    1.0000 </r>
       <r>  -15.8717    1.0000 </r>
       <r>  -15.7666    1.0000 </r>
       <r>  -15.6625    1.0000 </r>
       <r>  -15.6333    1.0000 </r>
       <r>  -15.5395    1.0000 </r>
       <r>  -15.3185    1.0000 </r>
       <r>  -15.2389    1.0000 </r>
       <r>   -9.7949    1.0000 </r>
       <r>   -9.5086    1.0000 </r>
       <r>   -9.2934    1.0000 </r>
       <r>   -8.9833    1.0000 </r>
       <r>   -8.9527    1.0000 </r>
       <r>   -8.6634    1.0000 </r>
       <r>   -8.5310    1.0000 </r>
       <r>   -8.4595    1.0000 </r>
       <r>   -8.3831    1.0000 </r>
       <r>   -8.3202    1.0000 </r>
       <r>   -8.2865    1.0000 </r>
       <r>   -8.2559    1.0000 </r>
       <r>   -8.1629    1.0000 </r>
       <r>   -8.0985    1.0000 </r>
       <r>   -8.0432    1.0000 </r>
       <r>   -7.8835    1.0000 </r>
       <r>   -7.7939    1.0000 </r>
       <r>   -7.6775    1.0000 </r>
       <r>   -7.6229    1.0000 </r>
       <r>   -7.4315    1.0000 </r>
       <r>   -7.3075    1.0000 </r>
       <r>   -7.2489    1.0000 </r>
       <r>   -7.1550    1.0000 </r>
       <r>   -7.0965    1.0000 </r>
       <r>   -7.0497    1.0000 </r>
       <r>   -6.9118    1.0000 </r>
       <r>   -6.8245    1.0000 </r>
       <r>   -6.7793    1.0000 </r>
       <r>   -6.6450    1.0000 </r>
       <r>   -6.6056    1.0000 </r>
       <r>   -6.5188    1.0000 </r>
       <r>   -6.4687    1.0000 </r>
       <r>   -6.4443    1.0000 </r>
       <r>   -6.3680    1.0000 </r>
       <r>   -6.2717    1.0000 </r>
       <r>   -6.1923    1.0000 </r>
       <r>   -6.1226    1.0000 </r>
       <r>   -6.0894    1.0000 </r>
       <r>   -6.0129    1.0000 </r>
       <r>   -5.9082    1.0000 </r>
       <r>   -5.8549    1.0000 </r>
       <r>   -5.7289    1.0000 </r>
       <r>   -5.6916    1.0000 </r>
       <r>   -5.5869    1.0000 </r>
       <r>   -5.4963    1.0000 </r>
       <r>   -5.4130    1.0000 </r>
       <r>   -5.2959    1.0000 </r>
       <r>   -5.1974    1.0000 </r>
       <r>   -5.1057    1.0000 </r>
       <r>   -4.8312    1.0000 </r>
       <r>   -4.7950    1.0000 </r>
       <r>   -4.5962    1.0000 </r>
       <r>   -4.5850    1.0000 </r>
       <r>   -4.4339    1.0000 </r>
       <r>   -4.3355    1.0000 </r>
       <r>   -4.2335    1.0000 </r>
       <r>   -4.1431    1.0000 </r>
       <r>   -4.1084    1.0000 </r>
       <r>   -4.0295    1.0000 </r>
       <r>   -3.6835    0.9995 </r>
       <r>   -3.5328    0.9865 </r>
       <r>   -3.1090    0.2158 </r>
       <r>   -2.9618    0.0339 </r>
       <r>   -2.7811    0.0010 </r>
       <r>   -2.6870    0.0001 </r>
       <r>   -2.5396    0.0000 </r>
       <r>   -2.4581    0.0000 </r>
       <r>   -2.3675    0.0000 </r>
       <r>   -2.0792    0.0000 </r>
       <r>   -2.0223    0.0000 </r>
       <r>   -1.9967    0.0000 </r>
       <r>   -1.8831    0.0000 </r>
       <r>   -1.6897    0.0000 </r>
       <r>   -1.5822    0.0000 </r>
       <r>   -1.5116    0.0000 </r>
       <r>   -1.4083    0.0000 </r>
       <r>   -1.3011    0.0000 </r>
       <r>   -1.2194    0.0000 </r>
       <r>   -1.0722    0.0000 </r>
       <r>   -1.0497    0.0000 </r>
       <r>   -0.9680    0.0000 </r>
       <r>   -0.8905    0.0000 </r>
       <r>   -0.8407    0.0000 </r>
       <r>   -0.6972    0.0000 </r>
       <r>   -0.6514    0.0000 </r>
       <r>   -0.6180    0.0000 </r>
       <r>   -0.4282    0.0000 </r>
       <r>   -0.2798    0.0000 </r>
       <r>   -0.1513    0.0000 </r>
       <r>   -0.0199    0.0000 </r>
       <r>    0.0275    0.0000 </r>
       <r>    0.1216    0.0000 </r>
       <r>    0.4239    0.0000 </r>
       <r>    0.7157    0.0000 </r>
       <r>    0.8150    0.0000 </r>
       <r>    0.8832    0.0000 </r>
       <r>    1.0820    0.0000 </r>
       <r>    1.2338    0.0000 </r>
       <r>    1.2942    0.0000 </r>
       <r>    2.1295    0.0000 </r>
       <r>    2.3164    0.0000 </r>
       <r>    2.3858    0.0000 </r>
      </set>
      <set comment="kpoint 32">
       <r>  -17.5560    1.0000 </r>
       <r>  -17.1475    1.0000 </r>
       <r>  -17.0904    1.0000 </r>
       <r>  -16.7053    1.0000 </r>
       <r>  -16.4488    1.0000 </r>
       <r>  -16.3916    1.0000 </r>
       <r>  -16.2956    1.0000 </r>
       <r>  -16.2514    1.0000 </r>
       <r>  -16.1387    1.0000 </r>
       <r>  -16.0189    1.0000 </r>
       <r>  -15.9588    1.0000 </r>
       <r>  -15.8824    1.0000 </r>
       <r>  -15.7576    1.0000 </r>
       <r>  -15.6581    1.0000 </r>
       <r>  -15.6059    1.0000 </r>
       <r>  -15.4908    1.0000 </r>
       <r>  -15.3584    1.0000 </r>
       <r>  -15.2431    1.0000 </r>
       <r>   -9.6792    1.0000 </r>
       <r>   -9.6258    1.0000 </r>
       <r>   -9.4028    1.0000 </r>
       <r>   -8.9744    1.0000 </r>
       <r>   -8.7992    1.0000 </r>
       <r>   -8.5561    1.0000 </r>
       <r>   -8.5026    1.0000 </r>
       <r>   -8.4598    1.0000 </r>
       <r>   -8.4322    1.0000 </r>
       <r>   -8.3535    1.0000 </r>
       <r>   -8.2982    1.0000 </r>
       <r>   -8.2534    1.0000 </r>
       <r>   -8.2102    1.0000 </r>
       <r>   -8.1368    1.0000 </r>
       <r>   -8.0268    1.0000 </r>
       <r>   -7.9292    1.0000 </r>
       <r>   -7.8253    1.0000 </r>
       <r>   -7.7110    1.0000 </r>
       <r>   -7.5864    1.0000 </r>
       <r>   -7.4999    1.0000 </r>
       <r>   -7.3189    1.0000 </r>
       <r>   -7.2471    1.0000 </r>
       <r>   -7.1363    1.0000 </r>
       <r>   -7.0882    1.0000 </r>
       <r>   -7.0207    1.0000 </r>
       <r>   -6.9423    1.0000 </r>
       <r>   -6.8839    1.0000 </r>
       <r>   -6.7986    1.0000 </r>
       <r>   -6.6694    1.0000 </r>
       <r>   -6.5655    1.0000 </r>
       <r>   -6.4787    1.0000 </r>
       <r>   -6.4389    1.0000 </r>
       <r>   -6.3941    1.0000 </r>
       <r>   -6.3320    1.0000 </r>
       <r>   -6.2933    1.0000 </r>
       <r>   -6.2078    1.0000 </r>
       <r>   -6.1409    1.0000 </r>
       <r>   -6.0465    1.0000 </r>
       <r>   -5.9864    1.0000 </r>
       <r>   -5.8675    1.0000 </r>
       <r>   -5.8108    1.0000 </r>
       <r>   -5.7085    1.0000 </r>
       <r>   -5.6322    1.0000 </r>
       <r>   -5.5852    1.0000 </r>
       <r>   -5.4533    1.0000 </r>
       <r>   -5.4303    1.0000 </r>
       <r>   -5.3680    1.0000 </r>
       <r>   -5.2025    1.0000 </r>
       <r>   -5.1549    1.0000 </r>
       <r>   -4.8526    1.0000 </r>
       <r>   -4.7599    1.0000 </r>
       <r>   -4.6960    1.0000 </r>
       <r>   -4.4971    1.0000 </r>
       <r>   -4.4443    1.0000 </r>
       <r>   -4.3626    1.0000 </r>
       <r>   -4.2663    1.0000 </r>
       <r>   -4.1947    1.0000 </r>
       <r>   -4.0386    1.0000 </r>
       <r>   -4.0028    1.0000 </r>
       <r>   -3.6561    0.9990 </r>
       <r>   -3.5283    0.9853 </r>
       <r>   -3.1647    0.3474 </r>
       <r>   -2.9088    0.0138 </r>
       <r>   -2.8085    0.0018 </r>
       <r>   -2.7356    0.0003 </r>
       <r>   -2.5346    0.0000 </r>
       <r>   -2.4881    0.0000 </r>
       <r>   -2.3749    0.0000 </r>
       <r>   -2.1304    0.0000 </r>
       <r>   -2.0633    0.0000 </r>
       <r>   -2.0072    0.0000 </r>
       <r>   -1.9800    0.0000 </r>
       <r>   -1.6803    0.0000 </r>
       <r>   -1.5262    0.0000 </r>
       <r>   -1.4379    0.0000 </r>
       <r>   -1.3600    0.0000 </r>
       <r>   -1.2623    0.0000 </r>
       <r>   -1.2302    0.0000 </r>
       <r>   -1.0709    0.0000 </r>
       <r>   -1.0173    0.0000 </r>
       <r>   -0.9571    0.0000 </r>
       <r>   -0.8565    0.0000 </r>
       <r>   -0.8292    0.0000 </r>
       <r>   -0.7268    0.0000 </r>
       <r>   -0.6892    0.0000 </r>
       <r>   -0.5993    0.0000 </r>
       <r>   -0.4431    0.0000 </r>
       <r>   -0.2916    0.0000 </r>
       <r>   -0.1743    0.0000 </r>
       <r>   -0.0659    0.0000 </r>
       <r>    0.0033    0.0000 </r>
       <r>    0.1291    0.0000 </r>
       <r>    0.4127    0.0000 </r>
       <r>    0.6115    0.0000 </r>
       <r>    0.7701    0.0000 </r>
       <r>    0.9080    0.0000 </r>
       <r>    1.1294    0.0000 </r>
       <r>    1.2448    0.0000 </r>
       <r>    1.4397    0.0000 </r>
       <r>    2.1058    0.0000 </r>
       <r>    2.2797    0.0000 </r>
       <r>    2.5770    0.0000 </r>
      </set>
      <set comment="kpoint 33">
       <r>  -17.5502    1.0000 </r>
       <r>  -17.2332    1.0000 </r>
       <r>  -16.9560    1.0000 </r>
       <r>  -16.6982    1.0000 </r>
       <r>  -16.5162    1.0000 </r>
       <r>  -16.4539    1.0000 </r>
       <r>  -16.3595    1.0000 </r>
       <r>  -16.1660    1.0000 </r>
       <r>  -16.1239    1.0000 </r>
       <r>  -16.0306    1.0000 </r>
       <r>  -15.9331    1.0000 </r>
       <r>  -15.8719    1.0000 </r>
       <r>  -15.7416    1.0000 </r>
       <r>  -15.6605    1.0000 </r>
       <r>  -15.5812    1.0000 </r>
       <r>  -15.4607    1.0000 </r>
       <r>  -15.3782    1.0000 </r>
       <r>  -15.2841    1.0000 </r>
       <r>   -9.7434    1.0000 </r>
       <r>   -9.4746    1.0000 </r>
       <r>   -9.3644    1.0000 </r>
       <r>   -8.9664    1.0000 </r>
       <r>   -8.8968    1.0000 </r>
       <r>   -8.7561    1.0000 </r>
       <r>   -8.5818    1.0000 </r>
       <r>   -8.4984    1.0000 </r>
       <r>   -8.4325    1.0000 </r>
       <r>   -8.3289    1.0000 </r>
       <r>   -8.2816    1.0000 </r>
       <r>   -8.1980    1.0000 </r>
       <r>   -8.1407    1.0000 </r>
       <r>   -8.0608    1.0000 </r>
       <r>   -7.9650    1.0000 </r>
       <r>   -7.9095    1.0000 </r>
       <r>   -7.8106    1.0000 </r>
       <r>   -7.7255    1.0000 </r>
       <r>   -7.6303    1.0000 </r>
       <r>   -7.4857    1.0000 </r>
       <r>   -7.3474    1.0000 </r>
       <r>   -7.2368    1.0000 </r>
       <r>   -7.1616    1.0000 </r>
       <r>   -7.0545    1.0000 </r>
       <r>   -7.0391    1.0000 </r>
       <r>   -6.9391    1.0000 </r>
       <r>   -6.8585    1.0000 </r>
       <r>   -6.7720    1.0000 </r>
       <r>   -6.6457    1.0000 </r>
       <r>   -6.5935    1.0000 </r>
       <r>   -6.5433    1.0000 </r>
       <r>   -6.4362    1.0000 </r>
       <r>   -6.3782    1.0000 </r>
       <r>   -6.3451    1.0000 </r>
       <r>   -6.2813    1.0000 </r>
       <r>   -6.2040    1.0000 </r>
       <r>   -6.1173    1.0000 </r>
       <r>   -6.0375    1.0000 </r>
       <r>   -5.9784    1.0000 </r>
       <r>   -5.9546    1.0000 </r>
       <r>   -5.8371    1.0000 </r>
       <r>   -5.6912    1.0000 </r>
       <r>   -5.6388    1.0000 </r>
       <r>   -5.5742    1.0000 </r>
       <r>   -5.5246    1.0000 </r>
       <r>   -5.3837    1.0000 </r>
       <r>   -5.2779    1.0000 </r>
       <r>   -5.2168    1.0000 </r>
       <r>   -4.9591    1.0000 </r>
       <r>   -4.8976    1.0000 </r>
       <r>   -4.8328    1.0000 </r>
       <r>   -4.7073    1.0000 </r>
       <r>   -4.5177    1.0000 </r>
       <r>   -4.4508    1.0000 </r>
       <r>   -4.3583    1.0000 </r>
       <r>   -4.2650    1.0000 </r>
       <r>   -4.1866    1.0000 </r>
       <r>   -3.9844    1.0000 </r>
       <r>   -3.9310    1.0000 </r>
       <r>   -3.7102    0.9997 </r>
       <r>   -3.5766    0.9941 </r>
       <r>   -3.1484    0.3058 </r>
       <r>   -2.9582    0.0320 </r>
       <r>   -2.8740    0.0072 </r>
       <r>   -2.6983    0.0001 </r>
       <r>   -2.5791    0.0000 </r>
       <r>   -2.4870    0.0000 </r>
       <r>   -2.3822    0.0000 </r>
       <r>   -2.1704    0.0000 </r>
       <r>   -2.1211    0.0000 </r>
       <r>   -2.0670    0.0000 </r>
       <r>   -1.9408    0.0000 </r>
       <r>   -1.6701    0.0000 </r>
       <r>   -1.4634    0.0000 </r>
       <r>   -1.4013    0.0000 </r>
       <r>   -1.3085    0.0000 </r>
       <r>   -1.2620    0.0000 </r>
       <r>   -1.1979    0.0000 </r>
       <r>   -1.0815    0.0000 </r>
       <r>   -0.9807    0.0000 </r>
       <r>   -0.9441    0.0000 </r>
       <r>   -0.8726    0.0000 </r>
       <r>   -0.8435    0.0000 </r>
       <r>   -0.7742    0.0000 </r>
       <r>   -0.6732    0.0000 </r>
       <r>   -0.5434    0.0000 </r>
       <r>   -0.4456    0.0000 </r>
       <r>   -0.3351    0.0000 </r>
       <r>   -0.2520    0.0000 </r>
       <r>   -0.1080    0.0000 </r>
       <r>   -0.0317    0.0000 </r>
       <r>    0.1012    0.0000 </r>
       <r>    0.3956    0.0000 </r>
       <r>    0.5958    0.0000 </r>
       <r>    0.7269    0.0000 </r>
       <r>    0.9593    0.0000 </r>
       <r>    1.1870    0.0000 </r>
       <r>    1.2899    0.0000 </r>
       <r>    1.5900    0.0000 </r>
       <r>    2.1428    0.0000 </r>
       <r>    2.3072    0.0000 </r>
       <r>    2.4065    0.0000 </r>
      </set>
      <set comment="kpoint 34">
       <r>  -17.5387    1.0000 </r>
       <r>  -17.2886    1.0000 </r>
       <r>  -16.7954    1.0000 </r>
       <r>  -16.6935    1.0000 </r>
       <r>  -16.6757    1.0000 </r>
       <r>  -16.4749    1.0000 </r>
       <r>  -16.3508    1.0000 </r>
       <r>  -16.1587    1.0000 </r>
       <r>  -16.1183    1.0000 </r>
       <r>  -16.0182    1.0000 </r>
       <r>  -15.9132    1.0000 </r>
       <r>  -15.8611    1.0000 </r>
       <r>  -15.7372    1.0000 </r>
       <r>  -15.6605    1.0000 </r>
       <r>  -15.5630    1.0000 </r>
       <r>  -15.4618    1.0000 </r>
       <r>  -15.3640    1.0000 </r>
       <r>  -15.3258    1.0000 </r>
       <r>   -9.7828    1.0000 </r>
       <r>   -9.3340    1.0000 </r>
       <r>   -9.2394    1.0000 </r>
       <r>   -9.1129    1.0000 </r>
       <r>   -8.9614    1.0000 </r>
       <r>   -8.8989    1.0000 </r>
       <r>   -8.5891    1.0000 </r>
       <r>   -8.5300    1.0000 </r>
       <r>   -8.4462    1.0000 </r>
       <r>   -8.2888    1.0000 </r>
       <r>   -8.2563    1.0000 </r>
       <r>   -8.1807    1.0000 </r>
       <r>   -8.1237    1.0000 </r>
       <r>   -8.0190    1.0000 </r>
       <r>   -7.9698    1.0000 </r>
       <r>   -7.8611    1.0000 </r>
       <r>   -7.7440    1.0000 </r>
       <r>   -7.7273    1.0000 </r>
       <r>   -7.6041    1.0000 </r>
       <r>   -7.4890    1.0000 </r>
       <r>   -7.4103    1.0000 </r>
       <r>   -7.3231    1.0000 </r>
       <r>   -7.1993    1.0000 </r>
       <r>   -7.0291    1.0000 </r>
       <r>   -6.9917    1.0000 </r>
       <r>   -6.9194    1.0000 </r>
       <r>   -6.7508    1.0000 </r>
       <r>   -6.7110    1.0000 </r>
       <r>   -6.6422    1.0000 </r>
       <r>   -6.6124    1.0000 </r>
       <r>   -6.5327    1.0000 </r>
       <r>   -6.4737    1.0000 </r>
       <r>   -6.4355    1.0000 </r>
       <r>   -6.3529    1.0000 </r>
       <r>   -6.3232    1.0000 </r>
       <r>   -6.2680    1.0000 </r>
       <r>   -6.1722    1.0000 </r>
       <r>   -6.0541    1.0000 </r>
       <r>   -6.0200    1.0000 </r>
       <r>   -5.8252    1.0000 </r>
       <r>   -5.8109    1.0000 </r>
       <r>   -5.7194    1.0000 </r>
       <r>   -5.6884    1.0000 </r>
       <r>   -5.5550    1.0000 </r>
       <r>   -5.5429    1.0000 </r>
       <r>   -5.4008    1.0000 </r>
       <r>   -5.2193    1.0000 </r>
       <r>   -5.0655    1.0000 </r>
       <r>   -5.0324    1.0000 </r>
       <r>   -4.9423    1.0000 </r>
       <r>   -4.8370    1.0000 </r>
       <r>   -4.6434    1.0000 </r>
       <r>   -4.5396    1.0000 </r>
       <r>   -4.4541    1.0000 </r>
       <r>   -4.3230    1.0000 </r>
       <r>   -4.2693    1.0000 </r>
       <r>   -4.2011    1.0000 </r>
       <r>   -3.9876    1.0000 </r>
       <r>   -3.8530    1.0000 </r>
       <r>   -3.7720    1.0000 </r>
       <r>   -3.6109    0.9971 </r>
       <r>   -3.0970    0.1919 </r>
       <r>   -3.0132    0.0716 </r>
       <r>   -2.9176    0.0162 </r>
       <r>   -2.6617    0.0000 </r>
       <r>   -2.6157    0.0000 </r>
       <r>   -2.4813    0.0000 </r>
       <r>   -2.3870    0.0000 </r>
       <r>   -2.1966    0.0000 </r>
       <r>   -2.1362    0.0000 </r>
       <r>   -2.0732    0.0000 </r>
       <r>   -1.9243    0.0000 </r>
       <r>   -1.6628    0.0000 </r>
       <r>   -1.4274    0.0000 </r>
       <r>   -1.4008    0.0000 </r>
       <r>   -1.2963    0.0000 </r>
       <r>   -1.2485    0.0000 </r>
       <r>   -1.1844    0.0000 </r>
       <r>   -1.0897    0.0000 </r>
       <r>   -0.9906    0.0000 </r>
       <r>   -0.9387    0.0000 </r>
       <r>   -0.8848    0.0000 </r>
       <r>   -0.8479    0.0000 </r>
       <r>   -0.7916    0.0000 </r>
       <r>   -0.5945    0.0000 </r>
       <r>   -0.5539    0.0000 </r>
       <r>   -0.4437    0.0000 </r>
       <r>   -0.3687    0.0000 </r>
       <r>   -0.3111    0.0000 </r>
       <r>   -0.1312    0.0000 </r>
       <r>   -0.0368    0.0000 </r>
       <r>    0.0853    0.0000 </r>
       <r>    0.3771    0.0000 </r>
       <r>    0.6223    0.0000 </r>
       <r>    0.7081    0.0000 </r>
       <r>    0.9815    0.0000 </r>
       <r>    1.2087    0.0000 </r>
       <r>    1.3270    0.0000 </r>
       <r>    1.6546    0.0000 </r>
       <r>    2.2276    0.0000 </r>
       <r>    2.2573    0.0000 </r>
       <r>    2.3977    0.0000 </r>
      </set>
     </set>
    </set>
   </array>
  </eigenvalues>
  <separator name="orbital magnetization" >
   <v name="MAGDIPOLOUT">      0.00000000      0.00000000      0.00000000</v>
  </separator>
 </calculation>
 <structure name="finalpos" >
  <crystal>
   <varray name="basis" >
    <v>       8.31190068       4.79310613       0.00000000 </v>
    <v>      -8.32978311       4.82397580       0.00000000 </v>
    <v>       0.00000000       0.00000000      30.00000000 </v>
   </varray>
   <i name="volume">   2400.65826566 </i>
   <varray name="rec_basis" >
    <v>       0.06028316       0.10409374       0.00000000 </v>
    <v>      -0.05989740       0.10387027       0.00000000 </v>
    <v>       0.00000000       0.00000000       0.03333333 </v>
   </varray>
  </crystal>
  <varray name="positions" >
   <v>       0.01585182       0.69896482       0.00159152 </v>
   <v>       0.35256855       0.70656689       0.00270673 </v>
   <v>       0.64669121       0.29438997      -0.00277477 </v>
   <v>       0.68653286      -0.00028632       0.00006170 </v>
   <v>       0.00060686       0.00507679       0.00026006 </v>
   <v>       0.31636778       0.00392592       0.00011859 </v>
   <v>       0.98503828       0.29815626      -0.00152322 </v>
   <v>       0.31116020       0.29659560      -0.00179610 </v>
   <v>       0.68730662       0.70245541       0.00142285 </v>
   <v>       0.10938883       0.21915399       0.94268224 </v>
   <v>       0.21786423       0.10816548       0.05633906 </v>
   <v>       0.11427437       0.55881755       0.95773711 </v>
   <v>       0.22433309       0.44847402       0.04483008 </v>
   <v>       0.10718349       0.88511139       0.94617628 </v>
   <v>       0.21975623       0.77835976       0.05375245 </v>
   <v>       0.44315138       0.21911732       0.94442508 </v>
   <v>       0.55388483       0.10754017       0.05034982 </v>
   <v>       0.44142204       0.55753128       0.95703951 </v>
   <v>       0.55730099       0.44208301       0.04268073 </v>
   <v>       0.44644392       0.89339497       0.94997101 </v>
   <v>       0.55630345       0.78125171       0.05519929 </v>
   <v>       0.77517836       0.21939607       0.94485167 </v>
   <v>       0.88965750       0.10788099       0.05655932 </v>
   <v>       0.77897152       0.55288588       0.95633124 </v>
   <v>       0.88499130       0.44319358       0.04223352 </v>
   <v>       0.78293722       0.89237099       0.94388738 </v>
   <v>       0.89304752       0.77764098       0.05488672 </v>
  </varray>
 </structure>
</modeling>
