       N       E                     dE             d eps       ncg     rms          rms(c)
DAV:   1     0.112394589193E+04    0.11239E+04   -0.35862E+04  8160   0.577E+02
DAV:   2    -0.497844711450E+01   -0.11289E+04   -0.10872E+04 11280   0.173E+02
DAV:   3    -0.199934715131E+03   -0.19496E+03   -0.18759E+03 10880   0.819E+01
DAV:   4    -0.208932465708E+03   -0.89978E+01   -0.87240E+01 12000   0.260E+01
DAV:   5    -0.209272750116E+03   -0.34028E+00   -0.33937E+00 11760   0.369E+00    0.275E+01
DAV:   6    -0.237526032255E+03   -0.28253E+02   -0.10903E+02 12440   0.599E+01    0.594E+01
DAV:   7    -0.196666485391E+03    0.40860E+02   -0.17500E+02 13520   0.152E+02    0.202E+01
DAV:   8    -0.189678390144E+03    0.69881E+01   -0.18335E+01 11840   0.129E+01    0.129E+01
DAV:   9    -0.188192321864E+03    0.14861E+01   -0.32383E+00 12920   0.622E+00    0.934E+00
DAV:  10    -0.186928040124E+03    0.12643E+01   -0.17720E+00 13440   0.799E+00    0.213E+00
DAV:  11    -0.187017588151E+03   -0.89548E-01   -0.56529E-01 13560   0.284E+00    0.355E+00
DAV:  12    -0.186954514419E+03    0.63074E-01   -0.60585E-01 12800   0.423E+00    0.341E+00
DAV:  13    -0.186856904960E+03    0.97609E-01   -0.28023E-01 13280   0.291E+00    0.182E+00
DAV:  14    -0.186822273005E+03    0.34632E-01   -0.91774E-02 12840   0.152E+00    0.578E-01
DAV:  15    -0.186817593213E+03    0.46798E-02   -0.12489E-02 11680   0.391E-01    0.376E-01
DAV:  16    -0.186818514827E+03   -0.92161E-03   -0.10818E-02 13000   0.547E-01    0.605E-01
DAV:  17    -0.186815447949E+03    0.30669E-02   -0.79152E-03 12720   0.485E-01    0.200E-01
DAV:  18    -0.186815181552E+03    0.26640E-03   -0.14238E-03 11320   0.158E-01    0.951E-02
DAV:  19    -0.186815211869E+03   -0.30317E-04   -0.57577E-04  9560   0.670E-02
   1 F= -.18681521E+03 E0= -.18664380E+03  d E =-.186815E+03
       N       E                     dE             d eps       ncg     rms          rms(c)
DAV:   1    -0.187481711688E+03   -0.66653E+00   -0.27573E+02  8160   0.353E+01    0.469E+00
DAV:   2    -0.189420915326E+03   -0.19392E+01   -0.20266E+01 11960   0.154E+01    0.908E+00
DAV:   3    -0.189316182163E+03    0.10473E+00   -0.39326E+00 12400   0.122E+01    0.647E+00
DAV:   4    -0.188725399408E+03    0.59078E+00   -0.63429E-01 12520   0.463E+00    0.173E+00
DAV:   5    -0.188751139992E+03   -0.25741E-01   -0.35599E-01 12480   0.244E+00    0.338E+00
DAV:   6    -0.188725170074E+03    0.25970E-01   -0.54335E-01 12320   0.397E+00    0.289E+00
DAV:   7    -0.188661625792E+03    0.63544E-01   -0.17701E-01 12600   0.218E+00    0.112E+00
DAV:   8    -0.188639966540E+03    0.21659E-01   -0.48574E-02  9960   0.760E-01    0.456E-01
DAV:   9    -0.188638645937E+03    0.13206E-02   -0.77025E-03 11640   0.354E-01    0.363E-01
DAV:  10    -0.188638803828E+03   -0.15789E-03   -0.51571E-03 12840   0.404E-01    0.366E-01
DAV:  11    -0.188637806834E+03    0.99699E-03   -0.31503E-03 11480   0.272E-01    0.110E-01
DAV:  12    -0.188638076249E+03   -0.26941E-03   -0.79551E-04 11200   0.846E-02    0.840E-02
DAV:  13    -0.188638074968E+03    0.12809E-05   -0.23222E-04  6600   0.592E-02
   2 F= -.18863807E+03 E0= -.18849826E+03  d E =-.182286E+01
       N       E                     dE             d eps       ncg     rms          rms(c)
DAV:   1    -0.190596142533E+03   -0.19581E+01   -0.32038E+01  9160   0.144E+01    0.447E+00
DAV:   2    -0.190523987120E+03    0.72155E-01   -0.27854E+00 12360   0.943E+00    0.712E+00
DAV:   3    -0.190071523010E+03    0.45246E+00   -0.13129E+00 12280   0.863E+00    0.424E+00
DAV:   4    -0.189855545593E+03    0.21598E+00   -0.69601E-01 13120   0.438E+00    0.248E+00
DAV:   5    -0.189765452836E+03    0.90093E-01   -0.29726E-01 12240   0.202E+00    0.952E-01
DAV:   6    -0.189754205858E+03    0.11247E-01   -0.51007E-02 11840   0.113E+00    0.787E-01
DAV:   7    -0.189750019048E+03    0.41868E-02   -0.14598E-02 11360   0.691E-01    0.260E-01
DAV:   8    -0.189749557642E+03    0.46141E-03   -0.20848E-03 11680   0.181E-01    0.139E-01
DAV:   9    -0.189750023677E+03   -0.46603E-03   -0.12952E-03 11840   0.187E-01    0.212E-01
DAV:  10    -0.189750155355E+03   -0.13168E-03   -0.18215E-03 10280   0.278E-01    0.225E-01
DAV:  11    -0.189749674094E+03    0.48126E-03   -0.77649E-04  8920   0.161E-01    0.241E-02
DAV:  12    -0.189749724722E+03   -0.50628E-04   -0.76506E-05  6040   0.286E-02
   3 F= -.18974972E+03 E0= -.18963134E+03  d E =-.111165E+01
       N       E                     dE             d eps       ncg     rms          rms(c)
DAV:   1    -0.191349115922E+03   -0.15994E+01   -0.79786E+01  8160   0.203E+01    0.461E+00
DAV:   2    -0.191152945268E+03    0.19617E+00   -0.53859E+00 13000   0.755E+00    0.445E+00
DAV:   3    -0.191298601547E+03   -0.14566E+00   -0.14958E+00 12360   0.905E+00    0.652E+00
DAV:   4    -0.190899280336E+03    0.39932E+00   -0.12566E+00 13000   0.769E+00    0.274E+00
DAV:   5    -0.190780146939E+03    0.11913E+00   -0.30550E-01 12120   0.227E+00    0.890E-01
DAV:   6    -0.190763602148E+03    0.16545E-01   -0.68423E-02 10720   0.908E-01    0.417E-01
DAV:   7    -0.190765226151E+03   -0.16240E-02   -0.18198E-02 12480   0.753E-01    0.662E-01
DAV:   8    -0.190761280203E+03    0.39459E-02   -0.72576E-03 11800   0.590E-01    0.173E-01
DAV:   9    -0.190761490473E+03   -0.21027E-03   -0.14126E-03 10800   0.152E-01    0.151E-01
DAV:  10    -0.190761502503E+03   -0.12030E-04   -0.14115E-03 11600   0.185E-01    0.154E-01
DAV:  11    -0.190761375133E+03    0.12737E-03   -0.70708E-04  9000   0.179E-01    0.847E-02
DAV:  12    -0.190761323332E+03    0.51802E-04   -0.15275E-04  6280   0.743E-02
   4 F= -.19076132E+03 E0= -.19065789E+03  d E =-.101160E+01
       N       E                     dE             d eps       ncg     rms          rms(c)
DAV:   1    -0.192111686345E+03   -0.13503E+01   -0.16752E+02  8160   0.288E+01    0.563E+00
DAV:   2    -0.191840470614E+03    0.27122E+00   -0.92176E+00 11360   0.794E+00    0.374E+00
DAV:   3    -0.191965506528E+03   -0.12504E+00   -0.19277E+00 12080   0.803E+00    0.750E+00
DAV:   4    -0.191773583227E+03    0.19192E+00   -0.25239E+00 11120   0.106E+01    0.458E+00
DAV:   5    -0.191576354591E+03    0.19723E+00   -0.65105E-01 12440   0.573E+00    0.330E+00
DAV:   6    -0.191440270428E+03    0.13608E+00   -0.26938E-01 12480   0.389E+00    0.137E+00
DAV:   7    -0.191423513498E+03    0.16757E-01   -0.58330E-02 12320   0.129E+00    0.544E-01
DAV:   8    -0.191418869483E+03    0.46440E-02   -0.10178E-02 10640   0.442E-01    0.221E-01
DAV:   9    -0.191420198443E+03   -0.13290E-02   -0.40445E-03 12560   0.366E-01    0.354E-01
DAV:  10    -0.191419236503E+03    0.96194E-03   -0.34618E-03 12080   0.415E-01    0.176E-01
DAV:  11    -0.191418963946E+03    0.27256E-03   -0.85814E-04 10480   0.168E-01    0.559E-02
DAV:  12    -0.191418948182E+03    0.15764E-04   -0.12377E-04  6800   0.515E-02
   5 F= -.19141895E+03 E0= -.19131750E+03  d E =-.657625E+00
       N       E                     dE             d eps       ncg     rms          rms(c)
DAV:   1    -0.191460173476E+03   -0.41210E-01   -0.31453E+00  8160   0.376E+00    0.548E-01
DAV:   2    -0.191496076038E+03   -0.35903E-01   -0.19856E-01 13280   0.230E+00    0.163E+00
DAV:   3    -0.191468675411E+03    0.27401E-01   -0.55745E-02 12560   0.174E+00    0.364E-01
DAV:   4    -0.191469961122E+03   -0.12857E-02   -0.10812E-02 11640   0.687E-01    0.584E-01
DAV:   5    -0.191466733552E+03    0.32276E-02   -0.79631E-03 10400   0.596E-01    0.221E-01
DAV:   6    -0.191466279826E+03    0.45373E-03   -0.24539E-03 11240   0.219E-01    0.820E-02
DAV:   7    -0.191466133754E+03    0.14607E-03   -0.61884E-04  9280   0.903E-02    0.362E-02
DAV:   8    -0.191466118826E+03    0.14928E-04   -0.10316E-04  6760   0.377E-02
   6 F= -.19146612E+03 E0= -.19136293E+03  d E =-.471706E-01
       N       E                     dE             d eps       ncg     rms          rms(c)
DAV:   1    -0.191519267291E+03   -0.53134E-01   -0.63334E+00  8160   0.532E+00    0.624E-01
DAV:   2    -0.191540850146E+03   -0.21583E-01   -0.19168E-01 13520   0.158E+00    0.117E+00
DAV:   3    -0.191529166635E+03    0.11684E-01   -0.53952E-02 12360   0.167E+00    0.694E-01
DAV:   4    -0.191526690488E+03    0.24761E-02   -0.15986E-02 11760   0.817E-01    0.565E-01
DAV:   5    -0.191524195821E+03    0.24947E-02   -0.10801E-02 10760   0.706E-01    0.353E-01
DAV:   6    -0.191523139056E+03    0.10568E-02   -0.41012E-03 10360   0.348E-01    0.138E-01
DAV:   7    -0.191522992448E+03    0.14661E-03   -0.14646E-03 11960   0.193E-01    0.129E-01
DAV:   8    -0.191522896106E+03    0.96342E-04   -0.65789E-04  8600   0.177E-01
   7 F= -.19152290E+03 E0= -.19141815E+03  d E =-.567773E-01
       N       E                     dE             d eps       ncg     rms          rms(c)
DAV:   1    -0.191542133750E+03   -0.19141E-01   -0.61640E-01  8160   0.170E+00    0.269E-01
DAV:   2    -0.191544491471E+03   -0.23577E-02   -0.26063E-02 13360   0.717E-01    0.495E-01
DAV:   3    -0.191542124589E+03    0.23669E-02   -0.82021E-03 11760   0.656E-01    0.212E-01
DAV:   4    -0.191541568176E+03    0.55641E-03   -0.22025E-03 11920   0.253E-01    0.146E-01
DAV:   5    -0.191541799363E+03   -0.23119E-03   -0.19622E-03 10760   0.285E-01    0.237E-01
DAV:   6    -0.191541267728E+03    0.53164E-03   -0.11524E-03  9440   0.227E-01    0.463E-02
DAV:   7    -0.191541266390E+03    0.13376E-05   -0.11345E-04  5720   0.538E-02
   8 F= -.19154127E+03 E0= -.19143625E+03  d E =-.183703E-01
       N       E                     dE             d eps       ncg     rms          rms(c)
DAV:   1    -0.191491783174E+03    0.49485E-01   -0.38887E+00  8160   0.416E+00    0.433E-01
DAV:   2    -0.191504892110E+03   -0.13109E-01   -0.10274E-01 13600   0.131E+00    0.863E-01
DAV:   3    -0.191496836838E+03    0.80553E-02   -0.24189E-02 12840   0.112E+00    0.373E-01
DAV:   4    -0.191495885528E+03    0.95131E-03   -0.57644E-03 11480   0.448E-01    0.287E-01
DAV:   5    -0.191495574943E+03    0.31058E-03   -0.39111E-03 11320   0.418E-01    0.277E-01
DAV:   6    -0.191495043735E+03    0.53121E-03   -0.23321E-03 10520   0.315E-01    0.126E-01
DAV:   7    -0.191494945096E+03    0.98639E-04   -0.80442E-04 10400   0.159E-01
   9 F= -.19149495E+03 E0= -.19139048E+03  d E =0.463213E-01
       N       E                     dE             d eps       ncg     rms          rms(c)
DAV:   1    -0.191473234021E+03    0.21810E-01   -0.25189E+00  8160   0.336E+00    0.396E-01
DAV:   2    -0.191482149668E+03   -0.89156E-02   -0.70542E-02 13120   0.112E+00    0.816E-01
DAV:   3    -0.191476231072E+03    0.59186E-02   -0.23547E-02 11000   0.102E+00    0.469E-01
DAV:   4    -0.191475211061E+03    0.10200E-02   -0.89977E-03 11280   0.561E-01    0.354E-01
DAV:   5    -0.191474356679E+03    0.85438E-03   -0.41353E-03 10280   0.453E-01    0.244E-01
DAV:   6    -0.191473709314E+03    0.64737E-03   -0.18471E-03 11480   0.294E-01    0.864E-02
DAV:   7    -0.191473649531E+03    0.59783E-04   -0.49339E-04 11320   0.940E-02
  10 F= -.19147365E+03 E0= -.19136886E+03  d E =0.212956E-01
       N       E                     dE             d eps       ncg     rms          rms(c)
DAV:   1    -0.191444590999E+03    0.29118E-01   -0.63051E+00  8160   0.526E+00    0.505E-01
DAV:   2    -0.191458400618E+03   -0.13810E-01   -0.13309E-01 12240   0.116E+00    0.813E-01
DAV:   3    -0.191455449509E+03    0.29511E-02   -0.36831E-02 11800   0.123E+00    0.798E-01
DAV:   4    -0.191450911856E+03    0.45377E-02   -0.16449E-02 12200   0.759E-01    0.343E-01
DAV:   5    -0.191449993073E+03    0.91878E-03   -0.46190E-03 11120   0.434E-01    0.281E-01
DAV:   6    -0.191449508787E+03    0.48429E-03   -0.30895E-03 11840   0.420E-01    0.184E-01
DAV:   7    -0.191449217663E+03    0.29112E-03   -0.11547E-03 11400   0.206E-01    0.675E-02
DAV:   8    -0.191449132360E+03    0.85303E-04   -0.21094E-04  6760   0.825E-02
  11 F= -.19144913E+03 E0= -.19134380E+03  d E =0.245172E-01
       N       E                     dE             d eps       ncg     rms          rms(c)
DAV:   1    -0.191467695369E+03   -0.18478E-01   -0.16154E+00  8160   0.269E+00    0.317E-01
DAV:   2    -0.191479451303E+03   -0.11756E-01   -0.64556E-02 12960   0.114E+00    0.956E-01
DAV:   3    -0.191471278912E+03    0.81724E-02   -0.24991E-02 12000   0.105E+00    0.345E-01
DAV:   4    -0.191470612654E+03    0.66626E-03   -0.44002E-03 10320   0.380E-01    0.242E-01
DAV:   5    -0.191470117646E+03    0.49501E-03   -0.19106E-03 10560   0.308E-01    0.146E-01
DAV:   6    -0.191469884841E+03    0.23280E-03   -0.69170E-04 10160   0.148E-01    0.623E-02
DAV:   7    -0.191469912648E+03   -0.27807E-04   -0.33501E-04  7680   0.970E-02
  12 F= -.19146991E+03 E0= -.19136182E+03  d E =-.207803E-01
       N       E                     dE             d eps       ncg     rms          rms(c)
DAV:   1    -0.191478593653E+03   -0.87088E-02   -0.41538E-01  8160   0.138E+00    0.175E-01
DAV:   2    -0.191480264386E+03   -0.16707E-02   -0.14006E-02 13600   0.523E-01    0.361E-01
DAV:   3    -0.191479003226E+03    0.12612E-02   -0.42152E-03 11640   0.457E-01    0.155E-01
DAV:   4    -0.191478906838E+03    0.96388E-04   -0.11919E-03  9840   0.213E-01    0.156E-01
DAV:   5    -0.191478750960E+03    0.15588E-03   -0.91430E-04  8320   0.204E-01    0.109E-01
DAV:   6    -0.191478636012E+03    0.11495E-03   -0.36324E-04  7480   0.115E-01    0.369E-02
DAV:   7    -0.191478646392E+03   -0.10380E-04   -0.14147E-04  6280   0.666E-02
  13 F= -.19147865E+03 E0= -.19136982E+03  d E =-.873374E-02
       N       E                     dE             d eps       ncg     rms          rms(c)
DAV:   1    -0.191504807045E+03   -0.26171E-01   -0.21883E+00  8160   0.316E+00    0.380E-01
DAV:   2    -0.191515260950E+03   -0.10454E-01   -0.76271E-02 13120   0.115E+00    0.884E-01
DAV:   3    -0.191508658662E+03    0.66023E-02   -0.26148E-02 12320   0.108E+00    0.429E-01
DAV:   4    -0.191508211676E+03    0.44699E-03   -0.77761E-03 11200   0.537E-01    0.386E-01
DAV:   5    -0.191506822421E+03    0.13893E-02   -0.44493E-03 10360   0.442E-01    0.191E-01
DAV:   6    -0.191506438382E+03    0.38404E-03   -0.14202E-03 11120   0.200E-01    0.818E-02
DAV:   7    -0.191506494662E+03   -0.56279E-04   -0.71217E-04  9640   0.150E-01
  14 F= -.19150649E+03 E0= -.19139500E+03  d E =-.278483E-01
       N       E                     dE             d eps       ncg     rms          rms(c)
DAV:   1    -0.191486531288E+03    0.19907E-01   -0.11861E+00  8160   0.232E+00    0.253E-01
DAV:   2    -0.191489926117E+03   -0.33948E-02   -0.33453E-02 12640   0.632E-01    0.455E-01
DAV:   3    -0.191488672424E+03    0.12537E-02   -0.92435E-03 12040   0.643E-01    0.348E-01
DAV:   4    -0.191487876600E+03    0.79582E-03   -0.34612E-03 10760   0.361E-01    0.212E-01
DAV:   5    -0.191487553520E+03    0.32308E-03   -0.17638E-03  9640   0.280E-01    0.149E-01
DAV:   6    -0.191487352538E+03    0.20098E-03   -0.77658E-04  9200   0.170E-01    0.743E-02
DAV:   7    -0.191487452310E+03   -0.99772E-04   -0.58175E-04  9320   0.153E-01
  15 F= -.19148745E+03 E0= -.19137723E+03  d E =0.190424E-01
       N       E                     dE             d eps       ncg     rms          rms(c)
DAV:   1    -0.191470965271E+03    0.16387E-01   -0.25984E+00  8160   0.340E+00    0.348E-01
DAV:   2    -0.191477743850E+03   -0.67786E-02   -0.66346E-02 12960   0.922E-01    0.640E-01
DAV:   3    -0.191475991830E+03    0.17520E-02   -0.20319E-02 12600   0.897E-01    0.532E-01
DAV:   4    -0.191473645521E+03    0.23463E-02   -0.64540E-03 11280   0.477E-01    0.193E-01
DAV:   5    -0.191473237869E+03    0.40765E-03   -0.16806E-03 10280   0.220E-01    0.154E-01
DAV:   6    -0.191473302964E+03   -0.65095E-04   -0.15260E-03 10680   0.284E-01    0.165E-01
DAV:   7    -0.191473043793E+03    0.25917E-03   -0.75849E-04  9240   0.186E-01    0.692E-02
DAV:   8    -0.191473016905E+03    0.26889E-04   -0.23397E-04  6800   0.101E-01
  16 F= -.19147302E+03 E0= -.19136339E+03  d E =0.144354E-01
       N       E                     dE             d eps       ncg     rms          rms(c)
DAV:   1    -0.191477618026E+03   -0.45742E-02   -0.19294E-01  8160   0.922E-01    0.921E-02
DAV:   2    -0.191478187613E+03   -0.56959E-03   -0.47183E-03 12440   0.263E-01    0.197E-01
DAV:   3    -0.191477940097E+03    0.24752E-03   -0.15593E-03  9680   0.250E-01    0.131E-01
DAV:   4    -0.191477789621E+03    0.15048E-03   -0.41326E-04  7560   0.114E-01    0.413E-02
DAV:   5    -0.191477796595E+03   -0.69741E-05   -0.10421E-04  5640   0.607E-02
  17 F= -.19147780E+03 E0= -.19136768E+03  d E =-.477969E-02
       N       E                     dE             d eps       ncg     rms          rms(c)
DAV:   1    -0.191492357559E+03   -0.14568E-01   -0.89879E-01  8160   0.202E+00    0.235E-01
DAV:   2    -0.191497108121E+03   -0.47506E-02   -0.31426E-02 12800   0.718E-01    0.618E-01
DAV:   3    -0.191494023002E+03    0.30851E-02   -0.11471E-02 11520   0.681E-01    0.270E-01
DAV:   4    -0.191493415186E+03    0.60782E-03   -0.18865E-03 10080   0.224E-01    0.104E-01
DAV:   5    -0.191493297190E+03    0.11800E-03   -0.67718E-04 10320   0.132E-01    0.962E-02
DAV:   6    -0.191493366159E+03   -0.68969E-04   -0.71332E-04 10080   0.186E-01
  18 F= -.19149337E+03 E0= -.19138202E+03  d E =-.155696E-01
       N       E                     dE             d eps       ncg     rms          rms(c)
DAV:   1    -0.191499318877E+03   -0.60217E-02   -0.63572E-01  8160   0.166E+00    0.165E-01
DAV:   2    -0.191501271685E+03   -0.19528E-02   -0.13737E-02 12280   0.488E-01    0.391E-01
DAV:   3    -0.191500026588E+03    0.12451E-02   -0.49629E-03 10680   0.460E-01    0.186E-01
DAV:   4    -0.191499851848E+03    0.17474E-03   -0.13114E-03  9560   0.215E-01    0.133E-01
DAV:   5    -0.191499776997E+03    0.74851E-04   -0.79616E-04  9080   0.192E-01
  19 F= -.19149978E+03 E0= -.19138730E+03  d E =-.641084E-02
       N       E                     dE             d eps       ncg     rms          rms(c)
DAV:   1    -0.191507554992E+03   -0.77031E-02   -0.38132E+00  8160   0.408E+00    0.382E-01
DAV:   2    -0.191512731817E+03   -0.51768E-02   -0.76729E-02 12160   0.769E-01    0.360E-01
DAV:   3    -0.191513520977E+03   -0.78916E-03   -0.14594E-02 13000   0.723E-01    0.528E-01
DAV:   4    -0.191510897561E+03    0.26234E-02   -0.67994E-03 10920   0.581E-01    0.241E-01
DAV:   5    -0.191510854252E+03    0.43309E-04   -0.34032E-03 10120   0.357E-01    0.285E-01
DAV:   6    -0.191510328442E+03    0.52581E-03   -0.28616E-03  9880   0.337E-01    0.148E-01
DAV:   7    -0.191510202306E+03    0.12614E-03   -0.80264E-04  9760   0.160E-01    0.889E-02
DAV:   8    -0.191510147877E+03    0.54428E-04   -0.34811E-04  8280   0.122E-01
  20 F= -.19151015E+03 E0= -.19139733E+03  d E =-.103709E-01
       N       E                     dE             d eps       ncg     rms          rms(c)
DAV:   1    -0.191511129157E+03   -0.92685E-03   -0.13712E-02  8160   0.254E-01    0.307E-02
DAV:   2    -0.191511178883E+03   -0.49726E-04   -0.42046E-04 12200   0.717E-02
  21 F= -.19151118E+03 E0= -.19139824E+03  d E =-.103101E-02
       N       E                     dE             d eps       ncg     rms          rms(c)
DAV:   1    -0.191527631614E+03   -0.16502E-01   -0.24667E+00  8160   0.332E+00    0.382E-01
DAV:   2    -0.191536251744E+03   -0.86201E-02   -0.66786E-02 13600   0.110E+00    0.894E-01
DAV:   3    -0.191530522503E+03    0.57292E-02   -0.27660E-02 11840   0.105E+00    0.462E-01
DAV:   4    -0.191528805192E+03    0.17173E-02   -0.71749E-03 10920   0.473E-01    0.252E-01
DAV:   5    -0.191528817194E+03   -0.12002E-04   -0.43848E-03 11080   0.434E-01    0.288E-01
DAV:   6    -0.191527956221E+03    0.86097E-03   -0.25434E-03 11000   0.305E-01    0.107E-01
DAV:   7    -0.191528165393E+03   -0.20917E-03   -0.12186E-03  9600   0.225E-01    0.178E-01
DAV:   8    -0.191527833438E+03    0.33196E-03   -0.60768E-04  8160   0.163E-01    0.262E-02
DAV:   9    -0.191527834454E+03   -0.10166E-05   -0.41012E-05  5640   0.264E-02
  22 F= -.19152783E+03 E0= -.19141354E+03  d E =-.166556E-01
       N       E                     dE             d eps       ncg     rms          rms(c)
DAV:   1    -0.191548183940E+03   -0.20351E-01   -0.11037E+00  8160   0.225E+00    0.256E-01
DAV:   2    -0.191550722249E+03   -0.25383E-02   -0.29954E-02 12160   0.578E-01    0.424E-01
DAV:   3    -0.191550116916E+03    0.60533E-03   -0.98564E-03 12320   0.638E-01    0.368E-01
DAV:   4    -0.191548890981E+03    0.12259E-02   -0.32529E-03 10920   0.338E-01    0.135E-01
DAV:   5    -0.191548968631E+03   -0.77649E-04   -0.18233E-03 10200   0.244E-01    0.212E-01
DAV:   6    -0.191548634562E+03    0.33407E-03   -0.13176E-03  8880   0.227E-01    0.884E-02
DAV:   7    -0.191548557850E+03    0.76711E-04   -0.22336E-04  5560   0.783E-02
  23 F= -.19154856E+03 E0= -.19143356E+03  d E =-.207234E-01
       N       E                     dE             d eps       ncg     rms          rms(c)
DAV:   1    -0.191549272101E+03   -0.63754E-03   -0.88568E-01  8160   0.197E+00    0.218E-01
DAV:   2    -0.191551169725E+03   -0.18976E-02   -0.20101E-02 13160   0.586E-01    0.382E-01
DAV:   3    -0.191549995706E+03    0.11740E-02   -0.62787E-03 11440   0.523E-01    0.231E-01
DAV:   4    -0.191549766259E+03    0.22945E-03   -0.26729E-03 10040   0.300E-01    0.212E-01
DAV:   5    -0.191549530995E+03    0.23526E-03   -0.17576E-03  9560   0.266E-01    0.151E-01
DAV:   6    -0.191549335557E+03    0.19544E-03   -0.71200E-04  8520   0.163E-01    0.649E-02
DAV:   7    -0.191549384331E+03   -0.48774E-04   -0.40664E-04  7680   0.128E-01
  24 F= -.19154938E+03 E0= -.19143482E+03  d E =-.826480E-03
       N       E                     dE             d eps       ncg     rms          rms(c)
DAV:   1    -0.191579442654E+03   -0.30107E-01   -0.35978E+00  8160   0.406E+00    0.445E-01
DAV:   2    -0.191583681275E+03   -0.42386E-02   -0.89849E-02 12160   0.798E-01    0.360E-01
DAV:   3    -0.191587563759E+03   -0.38825E-02   -0.21289E-02 12840   0.880E-01    0.799E-01
DAV:   4    -0.191582064071E+03    0.54997E-02   -0.14290E-02 11320   0.759E-01    0.271E-01
DAV:   5    -0.191581680219E+03    0.38385E-03   -0.46613E-03 10440   0.371E-01    0.268E-01
DAV:   6    -0.191581400561E+03    0.27966E-03   -0.35439E-03 11760   0.390E-01    0.203E-01
DAV:   7    -0.191581089540E+03    0.31102E-03   -0.14100E-03  9640   0.236E-01    0.127E-01
DAV:   8    -0.191580931982E+03    0.15756E-03   -0.47595E-04  8320   0.150E-01    0.505E-02
DAV:   9    -0.191580905258E+03    0.26724E-04   -0.79004E-05  6720   0.548E-02
  25 F= -.19158091E+03 E0= -.19146588E+03  d E =-.315209E-01
       N       E                     dE             d eps       ncg     rms          rms(c)
DAV:   1    -0.191638958105E+03   -0.58026E-01   -0.66815E+00  8160   0.561E+00    0.666E-01
DAV:   2    -0.191646325275E+03   -0.73672E-02   -0.18882E-01 12080   0.115E+00    0.524E-01
DAV:   3    -0.191655981899E+03   -0.96566E-02   -0.46735E-02 12360   0.132E+00    0.125E+00
DAV:   4    -0.191642576511E+03    0.13405E-01   -0.34790E-02 11440   0.115E+00    0.361E-01
DAV:   5    -0.191641634362E+03    0.94215E-03   -0.91755E-03 10760   0.498E-01    0.335E-01
DAV:   6    -0.191641313195E+03    0.32117E-03   -0.62896E-03 12040   0.550E-01    0.286E-01
DAV:   7    -0.191640307549E+03    0.10056E-02   -0.22713E-03 10680   0.307E-01    0.933E-02
DAV:   8    -0.191640313382E+03   -0.58332E-05   -0.60458E-04  9080   0.165E-01
  26 F= -.19164031E+03 E0= -.19152710E+03  d E =-.594081E-01
       N       E                     dE             d eps       ncg     rms          rms(c)
DAV:   1    -0.191653981575E+03   -0.13674E-01   -0.42889E-01  8160   0.139E+00    0.150E-01
DAV:   2    -0.191655485777E+03   -0.15042E-02   -0.12493E-02 12200   0.449E-01    0.313E-01
DAV:   3    -0.191654746093E+03    0.73968E-03   -0.39516E-03 11560   0.386E-01    0.183E-01
DAV:   4    -0.191654596251E+03    0.14984E-03   -0.11217E-03  8560   0.199E-01    0.127E-01
DAV:   5    -0.191654472448E+03    0.12380E-03   -0.54631E-04  8680   0.172E-01    0.759E-02
DAV:   6    -0.191654441297E+03    0.31151E-04   -0.19286E-04  7120   0.938E-02
  27 F= -.19165444E+03 E0= -.19154256E+03  d E =-.141279E-01
       N       E                     dE             d eps       ncg     rms          rms(c)
DAV:   1    -0.191662989945E+03   -0.85175E-02   -0.44693E-01  8160   0.143E+00    0.176E-01
DAV:   2    -0.191664386576E+03   -0.13966E-02   -0.14755E-02 11720   0.525E-01    0.306E-01
DAV:   3    -0.191663518267E+03    0.86831E-03   -0.34388E-03 12280   0.427E-01    0.149E-01
DAV:   4    -0.191663330784E+03    0.18748E-03   -0.10130E-03  9880   0.190E-01    0.110E-01
DAV:   5    -0.191663330806E+03   -0.22476E-07   -0.71417E-04  8840   0.173E-01
  28 F= -.19166333E+03 E0= -.19155217E+03  d E =-.888951E-02
       N       E                     dE             d eps       ncg     rms          rms(c)
DAV:   1    -0.191700267032E+03   -0.36936E-01   -0.26129E+00  8160   0.348E+00    0.406E-01
DAV:   2    -0.191708318293E+03   -0.80513E-02   -0.84492E-02 12400   0.101E+00    0.722E-01
DAV:   3    -0.191705813914E+03    0.25044E-02   -0.26586E-02 12120   0.105E+00    0.579E-01
DAV:   4    -0.191702551098E+03    0.32628E-02   -0.71747E-03 11080   0.480E-01    0.171E-01
DAV:   5    -0.191702874006E+03   -0.32291E-03   -0.29888E-03 11480   0.353E-01    0.275E-01
DAV:   6    -0.191702366070E+03    0.50794E-03   -0.25926E-03 11280   0.371E-01    0.156E-01
DAV:   7    -0.191702063866E+03    0.30220E-03   -0.68070E-04  9200   0.155E-01    0.369E-02
DAV:   8    -0.191702040192E+03    0.23674E-04   -0.83886E-05  7120   0.375E-02
  29 F= -.19170204E+03 E0= -.19159416E+03  d E =-.387094E-01
       N       E                     dE             d eps       ncg     rms          rms(c)
DAV:   1    -0.191712212443E+03   -0.10149E-01   -0.19355E-01  8160   0.940E-01    0.102E-01
DAV:   2    -0.191712580203E+03   -0.36776E-03   -0.56698E-03 11480   0.208E-01    0.108E-01
DAV:   3    -0.191712683871E+03   -0.10367E-03   -0.12032E-03 11160   0.236E-01    0.154E-01
DAV:   4    -0.191712447630E+03    0.23624E-03   -0.51449E-04  8360   0.152E-01    0.646E-02
DAV:   5    -0.191712456723E+03   -0.90930E-05   -0.23921E-04  6280   0.112E-01
  30 F= -.19171246E+03 E0= -.19160552E+03  d E =-.104165E-01
       N       E                     dE             d eps       ncg     rms          rms(c)
DAV:   1    -0.191717246706E+03   -0.47991E-02   -0.79124E-01  8160   0.186E+00    0.230E-01
DAV:   2    -0.191720767043E+03   -0.35203E-02   -0.23294E-02 13200   0.779E-01    0.526E-01
DAV:   3    -0.191717791202E+03    0.29758E-02   -0.77567E-03 11160   0.648E-01    0.205E-01
DAV:   4    -0.191717753886E+03    0.37317E-04   -0.22897E-03  9800   0.303E-01    0.221E-01
DAV:   5    -0.191717449283E+03    0.30460E-03   -0.18004E-03  9760   0.264E-01    0.135E-01
DAV:   6    -0.191717267049E+03    0.18223E-03   -0.65225E-04  9280   0.142E-01    0.548E-02
DAV:   7    -0.191717341015E+03   -0.73966E-04   -0.34774E-04  8160   0.138E-01
  31 F= -.19171734E+03 E0= -.19161149E+03  d E =-.488429E-02
       N       E                     dE             d eps       ncg     rms          rms(c)
DAV:   1    -0.191717968727E+03   -0.70168E-03   -0.18196E-02  8160   0.299E-01    0.326E-02
DAV:   2    -0.191718082168E+03   -0.11344E-03   -0.59516E-04 11600   0.111E-01    0.961E-02
DAV:   3    -0.191717989088E+03    0.93080E-04   -0.24149E-04  6880   0.102E-01
  32 F= -.19171799E+03 E0= -.19161223E+03  d E =-.648073E-03
       N       E                     dE             d eps       ncg     rms          rms(c)
DAV:   1    -0.191756076294E+03   -0.37994E-01   -0.35425E+00  8160   0.399E+00    0.458E-01
DAV:   2    -0.191770841842E+03   -0.14766E-01   -0.11955E-01 12920   0.133E+00    0.102E+00
DAV:   3    -0.191762467103E+03    0.83747E-02   -0.37953E-02 12480   0.129E+00    0.519E-01
DAV:   4    -0.191759901303E+03    0.25658E-02   -0.63676E-03 11080   0.465E-01    0.210E-01
DAV:   5    -0.191759899312E+03    0.19911E-05   -0.29934E-03 11920   0.392E-01    0.259E-01
DAV:   6    -0.191759298213E+03    0.60110E-03   -0.24531E-03 11760   0.346E-01    0.106E-01
DAV:   7    -0.191759133057E+03    0.16516E-03   -0.47366E-04  9160   0.108E-01    0.305E-02
DAV:   8    -0.191759120487E+03    0.12570E-04   -0.87003E-05  7840   0.415E-02
  33 F= -.19175912E+03 E0= -.19165662E+03  d E =-.411314E-01
       N       E                     dE             d eps       ncg     rms          rms(c)
DAV:   1    -0.191762566958E+03   -0.34339E-02   -0.21879E-02  8160   0.319E-01    0.478E-02
DAV:   2    -0.191762894163E+03   -0.32720E-03   -0.11973E-03 13160   0.195E-01    0.169E-01
DAV:   3    -0.191762580580E+03    0.31358E-03   -0.55197E-04  8400   0.179E-01    0.269E-02
DAV:   4    -0.191762592475E+03   -0.11896E-04   -0.41739E-05  5600   0.393E-02
  34 F= -.19176259E+03 E0= -.19166041E+03  d E =-.347199E-02
       N       E                     dE             d eps       ncg     rms          rms(c)
DAV:   1    -0.191775156591E+03   -0.12576E-01   -0.97187E-01  8160   0.206E+00    0.221E-01
DAV:   2    -0.191778714135E+03   -0.35575E-02   -0.23188E-02 13080   0.771E-01    0.516E-01
DAV:   3    -0.191775913146E+03    0.28010E-02   -0.70620E-03 11440   0.625E-01    0.175E-01
DAV:   4    -0.191776028159E+03   -0.11501E-03   -0.19039E-03  9600   0.282E-01    0.210E-01
DAV:   5    -0.191775651946E+03    0.37621E-03   -0.12655E-03  9680   0.263E-01    0.107E-01
DAV:   6    -0.191775640449E+03    0.11497E-04   -0.52307E-04  8840   0.153E-01
  35 F= -.19177564E+03 E0= -.19167517E+03  d E =-.130480E-01
       N       E                     dE             d eps       ncg     rms          rms(c)
DAV:   1    -0.191771770466E+03    0.38815E-02   -0.11272E+00  8160   0.222E+00    0.268E-01
DAV:   2    -0.191777090873E+03   -0.53204E-02   -0.31815E-02 12400   0.847E-01    0.695E-01
DAV:   3    -0.191772454169E+03    0.46367E-02   -0.14333E-02 11360   0.836E-01    0.258E-01
DAV:   4    -0.191771925647E+03    0.52852E-03   -0.22348E-03 10440   0.275E-01    0.154E-01
DAV:   5    -0.191772073144E+03   -0.14750E-03   -0.17749E-03 10600   0.297E-01    0.212E-01
DAV:   6    -0.191771593599E+03    0.47955E-03   -0.10912E-03  8800   0.219E-01    0.493E-02
DAV:   7    -0.191771679720E+03   -0.86121E-04   -0.29565E-04  7000   0.126E-01
  36 F= -.19177168E+03 E0= -.19167045E+03  d E =0.396073E-02
       N       E                     dE             d eps       ncg     rms          rms(c)
DAV:   1    -0.191798013605E+03   -0.26420E-01   -0.58539E+00  8160   0.507E+00    0.594E-01
DAV:   2    -0.191820724375E+03   -0.22711E-01   -0.16631E-01 13560   0.175E+00    0.137E+00
DAV:   3    -0.191803811808E+03    0.16913E-01   -0.64690E-02 12600   0.176E+00    0.614E-01
DAV:   4    -0.191800715883E+03    0.30959E-02   -0.10791E-02 11800   0.645E-01    0.340E-01
DAV:   5    -0.191800506959E+03    0.20892E-03   -0.69760E-03 11600   0.614E-01    0.380E-01
DAV:   6    -0.191798901051E+03    0.16059E-02   -0.48627E-03 11600   0.458E-01    0.122E-01
DAV:   7    -0.191799186514E+03   -0.28546E-03   -0.14848E-03 10280   0.267E-01    0.195E-01
DAV:   8    -0.191798753883E+03    0.43263E-03   -0.72731E-04  9080   0.217E-01    0.446E-02
DAV:   9    -0.191798733364E+03    0.20519E-04   -0.74182E-05  5760   0.448E-02
  37 F= -.19179873E+03 E0= -.19169880E+03  d E =-.270536E-01
       N       E                     dE             d eps       ncg     rms          rms(c)
DAV:   1    -0.191851272701E+03   -0.52519E-01   -0.90605E+00  8160   0.635E+00    0.725E-01
DAV:   2    -0.191887109483E+03   -0.35837E-01   -0.28702E-01 13600   0.214E+00    0.156E+00
DAV:   3    -0.191864246866E+03    0.22863E-01   -0.91761E-02 12120   0.211E+00    0.772E-01
DAV:   4    -0.191857918669E+03    0.63282E-02   -0.13651E-02 12440   0.736E-01    0.269E-01
DAV:   5    -0.191856414525E+03    0.15041E-02   -0.50739E-03 10560   0.255E-01    0.144E-01
DAV:   6    -0.191856722630E+03   -0.30810E-03   -0.27333E-03 12720   0.241E-01    0.182E-01
DAV:   7    -0.191856322443E+03    0.40019E-03   -0.12716E-03 10840   0.270E-01    0.113E-01
DAV:   8    -0.191856170085E+03    0.15236E-03   -0.32601E-04  8600   0.131E-01    0.367E-02
DAV:   9    -0.191856184317E+03   -0.14232E-04   -0.10399E-04  6640   0.800E-02
  38 F= -.19185618E+03 E0= -.19176000E+03  d E =-.574510E-01
       N       E                     dE             d eps       ncg     rms          rms(c)
DAV:   1    -0.191914847092E+03   -0.58677E-01   -0.10928E+01  8160   0.702E+00    0.804E-01
DAV:   2    -0.191957048832E+03   -0.42202E-01   -0.36696E-01 13400   0.232E+00    0.160E+00
DAV:   3    -0.191933519158E+03    0.23530E-01   -0.10125E-01 12160   0.228E+00    0.852E-01
DAV:   4    -0.191925637976E+03    0.78812E-02   -0.16451E-02 12480   0.852E-01    0.315E-01
DAV:   5    -0.191924009418E+03    0.16286E-02   -0.76757E-03 10920   0.390E-01    0.228E-01
DAV:   6    -0.191924730403E+03   -0.72098E-03   -0.54113E-03 12160   0.523E-01    0.325E-01
DAV:   7    -0.191923462910E+03    0.12675E-02   -0.27007E-03 11840   0.418E-01    0.100E-01
DAV:   8    -0.191923330801E+03    0.13211E-03   -0.42790E-04  9320   0.134E-01    0.645E-02
DAV:   9    -0.191923307995E+03    0.22805E-04   -0.17109E-04  7960   0.105E-01
  39 F= -.19192331E+03 E0= -.19183119E+03  d E =-.671237E-01
       N       E                     dE             d eps       ncg     rms          rms(c)
DAV:   1    -0.191944603054E+03   -0.21272E-01   -0.94452E-01  8160   0.207E+00    0.235E-01
DAV:   2    -0.191948407508E+03   -0.38045E-02   -0.35184E-02 11400   0.781E-01    0.423E-01
DAV:   3    -0.191946621037E+03    0.17865E-02   -0.74033E-03 12040   0.610E-01    0.215E-01
DAV:   4    -0.191946347264E+03    0.27377E-03   -0.15813E-03 10400   0.293E-01    0.167E-01
DAV:   5    -0.191946128409E+03    0.21885E-03   -0.88578E-04 10520   0.246E-01    0.104E-01
DAV:   6    -0.191946100461E+03    0.27948E-04   -0.46563E-04  9520   0.147E-01
  40 F= -.19194610E+03 E0= -.19185591E+03  d E =-.227925E-01
       N       E                     dE             d eps       ncg     rms          rms(c)
DAV:   1    -0.191965561971E+03   -0.19434E-01   -0.78831E-01  8160   0.189E+00    0.203E-01
DAV:   2    -0.191968035946E+03   -0.24740E-02   -0.24645E-02 13000   0.535E-01    0.341E-01
DAV:   3    -0.191967126971E+03    0.90898E-03   -0.55413E-03 12000   0.533E-01    0.229E-01
DAV:   4    -0.191966619650E+03    0.50732E-03   -0.11280E-03 10080   0.239E-01    0.973E-02
DAV:   5    -0.191966554106E+03    0.65544E-04   -0.54203E-04  9800   0.153E-01
  41 F= -.19196655E+03 E0= -.19187796E+03  d E =-.204536E-01
       N       E                     dE             d eps       ncg     rms          rms(c)
DAV:   1    -0.192005886824E+03   -0.39267E-01   -0.33608E+00  8160   0.391E+00    0.419E-01
DAV:   2    -0.192017284271E+03   -0.11397E-01   -0.10477E-01 12600   0.114E+00    0.729E-01
DAV:   3    -0.192012264783E+03    0.50195E-02   -0.22921E-02 11880   0.109E+00    0.414E-01
DAV:   4    -0.192010969334E+03    0.12954E-02   -0.43235E-03 11640   0.499E-01    0.271E-01
DAV:   5    -0.192010292122E+03    0.67721E-03   -0.23990E-03 11720   0.407E-01    0.159E-01
DAV:   6    -0.192010302266E+03   -0.10144E-04   -0.13473E-03 12080   0.233E-01    0.111E-01
DAV:   7    -0.192010033041E+03    0.26923E-03   -0.51546E-04 11560   0.110E-01    0.195E-02
DAV:   8    -0.192010037083E+03   -0.40425E-05   -0.56342E-05  6720   0.251E-02
  42 F= -.19201004E+03 E0= -.19192460E+03  d E =-.434830E-01
       N       E                     dE             d eps       ncg     rms          rms(c)
DAV:   1    -0.192065832168E+03   -0.55799E-01   -0.79471E+00  8160   0.598E+00    0.601E-01
DAV:   2    -0.192084096440E+03   -0.18264E-01   -0.22096E-01 12240   0.146E+00    0.721E-01
DAV:   3    -0.192082304351E+03    0.17921E-02   -0.39270E-02 11320   0.138E+00    0.704E-01
DAV:   4    -0.192077490921E+03    0.48134E-02   -0.12432E-02 11760   0.843E-01    0.356E-01
DAV:   5    -0.192076610878E+03    0.88004E-03   -0.46337E-03 10800   0.565E-01    0.274E-01
DAV:   6    -0.192076497968E+03    0.11291E-03   -0.32134E-03 11760   0.435E-01    0.197E-01
DAV:   7    -0.192075780074E+03    0.71789E-03   -0.12179E-03 11480   0.204E-01    0.281E-02
DAV:   8    -0.192075803639E+03   -0.23565E-04   -0.11907E-04  6880   0.562E-02
  43 F= -.19207580E+03 E0= -.19199514E+03  d E =-.657666E-01
       N       E                     dE             d eps       ncg     rms          rms(c)
DAV:   1    -0.192122887479E+03   -0.47107E-01   -0.67307E+00  8160   0.549E+00    0.558E-01
DAV:   2    -0.192139022272E+03   -0.16135E-01   -0.19976E-01 12200   0.140E+00    0.644E-01
DAV:   3    -0.192138768272E+03    0.25400E-03   -0.32915E-02 11400   0.130E+00    0.702E-01
DAV:   4    -0.192133698839E+03    0.50694E-02   -0.10661E-02 11800   0.829E-01    0.292E-01
DAV:   5    -0.192133073706E+03    0.62513E-03   -0.34878E-03 10920   0.453E-01    0.228E-01
DAV:   6    -0.192133161112E+03   -0.87406E-04   -0.28550E-03 12800   0.425E-01    0.201E-01
DAV:   7    -0.192132500060E+03    0.66105E-03   -0.11417E-03 10520   0.223E-01    0.312E-02
DAV:   8    -0.192132500984E+03   -0.92356E-06   -0.11025E-04  6880   0.365E-02
  44 F= -.19213250E+03 E0= -.19205601E+03  d E =-.566973E-01
       N       E                     dE             d eps       ncg     rms          rms(c)
DAV:   1    -0.192182572421E+03   -0.50072E-01   -0.24768E+01  8160   0.105E+01    0.105E+00
DAV:   2    -0.192235468904E+03   -0.52896E-01   -0.72350E-01 12240   0.233E+00    0.910E-01
DAV:   3    -0.192243224746E+03   -0.77558E-02   -0.93222E-02 11280   0.212E+00    0.135E+00
DAV:   4    -0.192223579650E+03    0.19645E-01   -0.43514E-02 11720   0.166E+00    0.538E-01
DAV:   5    -0.192221428758E+03    0.21509E-02   -0.10862E-02 11400   0.819E-01    0.425E-01
DAV:   6    -0.192221732633E+03   -0.30387E-03   -0.95477E-03 12600   0.821E-01    0.403E-01
DAV:   7    -0.192219169097E+03    0.25635E-02   -0.43036E-03 12520   0.473E-01    0.605E-02
DAV:   8    -0.192219177841E+03   -0.87444E-05   -0.45797E-04 10440   0.879E-02
  45 F= -.19221918E+03 E0= -.19214878E+03  d E =-.866769E-01
       N       E                     dE             d eps       ncg     rms          rms(c)
DAV:   1    -0.192208952486E+03    0.10217E-01   -0.20602E+00  8160   0.311E+00    0.357E-01
DAV:   2    -0.192214246934E+03   -0.52944E-02   -0.59225E-02 12240   0.945E-01    0.580E-01
DAV:   3    -0.192211381815E+03    0.28651E-02   -0.12231E-02 12480   0.909E-01    0.352E-01
DAV:   4    -0.192209732779E+03    0.16490E-02   -0.30657E-03 11600   0.386E-01    0.135E-01
DAV:   5    -0.192209535997E+03    0.19678E-03   -0.17054E-03 11240   0.202E-01    0.110E-01
DAV:   6    -0.192209484324E+03    0.51673E-04   -0.10150E-03 11640   0.222E-01    0.105E-01
DAV:   7    -0.192209340655E+03    0.14367E-03   -0.33754E-04  9240   0.145E-01    0.323E-02
DAV:   8    -0.192209336399E+03    0.42562E-05   -0.50577E-05  6560   0.436E-02
  46 F= -.19220934E+03 E0= -.19213798E+03  d E =0.984144E-02
       N       E                     dE             d eps       ncg     rms          rms(c)
DAV:   1    -0.192229746667E+03   -0.20406E-01   -0.28851E+00  8160   0.361E+00    0.354E-01
DAV:   2    -0.192234966959E+03   -0.52203E-02   -0.71851E-02 12240   0.796E-01    0.393E-01
DAV:   3    -0.192235069169E+03   -0.10221E-03   -0.11588E-02 12360   0.811E-01    0.450E-01
DAV:   4    -0.192232841566E+03    0.22276E-02   -0.39772E-03 11320   0.526E-01    0.175E-01
DAV:   5    -0.192232555928E+03    0.28564E-03   -0.14911E-03 10760   0.262E-01    0.130E-01
DAV:   6    -0.192232618715E+03   -0.62787E-04   -0.11715E-03 10720   0.276E-01    0.135E-01
DAV:   7    -0.192232320623E+03    0.29809E-03   -0.45839E-04  9040   0.165E-01    0.182E-02
DAV:   8    -0.192232327918E+03   -0.72948E-05   -0.56774E-05  6720   0.276E-02
  47 F= -.19223233E+03 E0= -.19216283E+03  d E =-.229915E-01
       N       E                     dE             d eps       ncg     rms          rms(c)
DAV:   1    -0.192245195692E+03   -0.12875E-01   -0.17345E+00  8160   0.276E+00    0.283E-01
DAV:   2    -0.192249261063E+03   -0.40654E-02   -0.55598E-02 12240   0.678E-01    0.231E-01
DAV:   3    -0.192249512539E+03   -0.25148E-03   -0.55093E-03 13040   0.537E-01    0.296E-01
DAV:   4    -0.192248411495E+03    0.11010E-02   -0.21751E-03 11880   0.401E-01    0.123E-01
DAV:   5    -0.192248391668E+03    0.19828E-04   -0.80783E-04 10640   0.207E-01
  48 F= -.19224839E+03 E0= -.19218007E+03  d E =-.160637E-01
       N       E                     dE             d eps       ncg     rms          rms(c)
DAV:   1    -0.192259869444E+03   -0.11458E-01   -0.28753E+00  8160   0.357E+00    0.388E-01
DAV:   2    -0.192267407116E+03   -0.75377E-02   -0.92407E-02 12280   0.950E-01    0.440E-01
DAV:   3    -0.192266642221E+03    0.76490E-03   -0.13315E-02 12480   0.907E-01    0.400E-01
DAV:   4    -0.192264638689E+03    0.20035E-02   -0.37635E-03 11560   0.494E-01    0.170E-01
DAV:   5    -0.192264933997E+03   -0.29531E-03   -0.18221E-03 11600   0.383E-01    0.229E-01
DAV:   6    -0.192264452332E+03    0.48166E-03   -0.12189E-03 11240   0.277E-01    0.583E-02
DAV:   7    -0.192264377307E+03    0.75026E-04   -0.17157E-04  6600   0.666E-02
  49 F= -.19226438E+03 E0= -.19219745E+03  d E =-.159856E-01
       N       E                     dE             d eps       ncg     rms          rms(c)
DAV:   1    -0.192267671835E+03   -0.32195E-02   -0.70364E+00  8160   0.557E+00    0.567E-01
DAV:   2    -0.192284009399E+03   -0.16338E-01   -0.22652E-01 12240   0.131E+00    0.410E-01
DAV:   3    -0.192285236321E+03   -0.12269E-02   -0.17823E-02 13280   0.941E-01    0.575E-01
DAV:   4    -0.192281292360E+03    0.39440E-02   -0.75179E-03 12160   0.796E-01    0.266E-01
DAV:   5    -0.192280979541E+03    0.31282E-03   -0.34560E-03 11840   0.434E-01    0.240E-01
DAV:   6    -0.192281033584E+03   -0.54043E-04   -0.34325E-03 11600   0.439E-01    0.221E-01
DAV:   7    -0.192280360793E+03    0.67279E-03   -0.13363E-03 10120   0.259E-01    0.433E-02
DAV:   8    -0.192280344075E+03    0.16719E-04   -0.11549E-04  6800   0.454E-02
  50 F= -.19228034E+03 E0= -.19221506E+03  d E =-.159668E-01
       N       E                     dE             d eps       ncg     rms          rms(c)
DAV:   1    -0.192280787760E+03   -0.42697E-03   -0.43441E-01  8160   0.140E+00    0.152E-01
DAV:   2    -0.192282604316E+03   -0.18166E-02   -0.18413E-02 12040   0.474E-01    0.243E-01
DAV:   3    -0.192282228708E+03    0.37561E-03   -0.23063E-03 12640   0.412E-01    0.166E-01
DAV:   4    -0.192281866898E+03    0.36181E-03   -0.44465E-04  8920   0.176E-01    0.447E-02
DAV:   5    -0.192281922774E+03   -0.55876E-04   -0.30905E-04  8400   0.116E-01
  51 F= -.19228192E+03 E0= -.19221650E+03  d E =-.157870E-02
       N       E                     dE             d eps       ncg     rms          rms(c)
DAV:   1    -0.192283575171E+03   -0.17083E-02   -0.20428E-01  8160   0.954E-01    0.980E-02
DAV:   2    -0.192283920383E+03   -0.34521E-03   -0.51542E-03 12160   0.231E-01    0.111E-01
DAV:   3    -0.192283883578E+03    0.36805E-04   -0.77089E-04 11120   0.221E-01
  52 F= -.19228388E+03 E0= -.19221875E+03  d E =-.196080E-02
       N       E                     dE             d eps       ncg     rms          rms(c)
DAV:   1    -0.192285330659E+03   -0.14103E-02   -0.12105E-01  8160   0.750E-01    0.967E-02
DAV:   2    -0.192285698353E+03   -0.36769E-03   -0.45493E-03 13360   0.236E-01    0.121E-01
DAV:   3    -0.192285610115E+03    0.88239E-04   -0.77130E-04 11440   0.230E-01
  53 F= -.19228561E+03 E0= -.19222068E+03  d E =-.172654E-02
       N       E                     dE             d eps       ncg     rms          rms(c)
DAV:   1    -0.192286291752E+03   -0.59340E-03   -0.25462E-02  8160   0.365E-01    0.717E-02
DAV:   2    -0.192286490038E+03   -0.19829E-03   -0.13639E-03 13600   0.181E-01    0.131E-01
DAV:   3    -0.192286292550E+03    0.19749E-03   -0.49895E-04  9080   0.197E-01    0.698E-02
DAV:   4    -0.192286260205E+03    0.32345E-04   -0.12882E-04  5960   0.898E-02
  54 F= -.19228626E+03 E0= -.19222147E+03  d E =-.650090E-03
       N       E                     dE             d eps       ncg     rms          rms(c)
DAV:   1    -0.192287905502E+03   -0.16130E-02   -0.21094E-01  8160   0.969E-01    0.119E-01
DAV:   2    -0.192288822261E+03   -0.91676E-03   -0.90042E-03 11640   0.377E-01    0.187E-01
DAV:   3    -0.192288446467E+03    0.37579E-03   -0.13694E-03 12320   0.307E-01    0.100E-01
DAV:   4    -0.192288364274E+03    0.82193E-04   -0.28490E-04  8480   0.142E-01
  55 F= -.19228836E+03 E0= -.19222388E+03  d E =-.210407E-02
       N       E                     dE             d eps       ncg     rms          rms(c)
DAV:   1    -0.192290109953E+03   -0.16635E-02   -0.33775E-01  8160   0.124E+00    0.148E-01
DAV:   2    -0.192291036942E+03   -0.92699E-03   -0.12039E-02 12280   0.349E-01    0.181E-01
DAV:   3    -0.192290974455E+03    0.62487E-04   -0.20426E-03 12320   0.354E-01    0.183E-01
DAV:   4    -0.192290605511E+03    0.36894E-03   -0.59213E-04  8800   0.203E-01    0.625E-02
DAV:   5    -0.192290637309E+03   -0.31798E-04   -0.31598E-04  9320   0.142E-01
  56 F= -.19229064E+03 E0= -.19222659E+03  d E =-.227303E-02
       N       E                     dE             d eps       ncg     rms          rms(c)
DAV:   1    -0.192291347880E+03   -0.74237E-03   -0.57158E-02  8160   0.513E-01    0.688E-02
DAV:   2    -0.192291554884E+03   -0.20700E-03   -0.25538E-03 12000   0.173E-01    0.907E-02
DAV:   3    -0.192291478911E+03    0.75973E-04   -0.51933E-04 10360   0.164E-01
  57 F= -.19229148E+03 E0= -.19222754E+03  d E =-.841602E-03
