unknown system                          
           1
     8.858785    5.101405    0.000000
    -8.863155    5.108924    0.000000
     0.000000    0.000000   30.000000
   V    Mo   W    S 
   3   3   3  18
Direct configuration=     1
   0.33333334  0.66666669  0.00000000
   0.33333334  0.33333334  0.00000000
   1.00000000  0.33333334  0.00000000
   0.00000000  0.00000000  0.00000000
   0.00000000  0.66666669  0.00000000
   0.33333334  0.00000000  0.00000000
   0.66666669  0.00000000  0.00000000
   0.66666669  0.33333334  0.00000000
   0.66666669  0.66666669  0.00000000
   0.11068511  0.22244981  0.95539999
   0.22244981  0.11068511  0.04460000
   0.11068511  0.55578315  0.95539999
   0.22244981  0.44401845  0.04460000
   0.11068511  0.88911647  0.95539999
   0.22244981  0.77735180  0.04460000
   0.44401845  0.22244981  0.95539999
   0.55578315  0.11068511  0.04460000
   0.44401845  0.55578315  0.95539999
   0.55578315  0.44401845  0.04460000
   0.44401845  0.88911647  0.95539999
   0.55578315  0.77735180  0.04460000
   0.77735180  0.22244981  0.95539999
   0.88911647  0.11068511  0.04460000
   0.77735180  0.55578315  0.95539999
   0.88911647  0.44401845  0.04460000
   0.77735180  0.88911647  0.95539999
   0.88911647  0.77735180  0.04460000
unknown system                          
           1
     8.668785    4.994532    0.000000
    -8.672993    5.001774    0.000000
     0.000000    0.000000   30.000000
   V    Mo   W    S 
   3   3   3  18
Direct configuration=     2
   0.33172799  0.66695786 -0.00002690
   0.33178029  0.33156136 -0.00001709
   1.00094572  0.33380608  0.00003225
   0.00153977 -0.00126374  0.00016802
   0.00143926  0.66930517  0.00015132
   0.33051595 -0.00136537 -0.00012692
   0.66667875 -0.00002943 -0.00015063
   0.66669657  0.33336854 -0.00014979
   0.66894684  0.66777028  0.00007814
   0.11302486  0.22663871  0.95313997
   0.22420157  0.11547515  0.04808183
   0.11322489  0.55324541  0.95308067
   0.22218092  0.44415098  0.04585095
   0.11121085  0.88887019  0.95068848
   0.22440790  0.77515071  0.04801278
   0.44296591  0.22497552  0.95200317
   0.55619647  0.11145709  0.04917648
   0.44084858  0.55393666  0.95321204
   0.55176069  0.44269127  0.04807819
   0.44317146  0.88488613  0.95194508
   0.55176361  0.77584712  0.04807511
   0.78123496  0.22381465  0.95185758
   0.89006370  0.11497090  0.04800628
   0.77681114  0.55480114  0.95076456
   0.89030241  0.44157251  0.04794185
   0.77678032  0.88845505  0.95076474
   0.88779305  0.77716450  0.04936177
unknown system                          
           1
     8.486055    4.896672    0.000000
    -8.488426    4.900738    0.000000
     0.000000    0.000000   30.000000
   V    Mo   W    S 
   3   3   3  18
Direct configuration=     3
   0.33138987  0.66715708 -0.00007842
   0.33142623  0.33101246 -0.00006660
   1.00097819  0.33382003  0.00006448
   0.00171757 -0.00227948  0.00018368
   0.00161654  0.67049585  0.00016922
   0.32960110 -0.00181933 -0.00013425
   0.66666846  0.00007502 -0.00011304
   0.66668704  0.33325912 -0.00011287
   0.67004938  0.66832226  0.00004414
   0.11311468  0.22672345  0.95319470
   0.22427280  0.11560897  0.04816739
   0.11328010  0.55322227  0.95314147
   0.22215194  0.44415730  0.04576990
   0.11121715  0.88888641  0.95048939
   0.22444315  0.77508505  0.04810763
   0.44314518  0.22512181  0.95200242
   0.55641285  0.11154892  0.04909135
   0.44102593  0.55399745  0.95339497
   0.55191993  0.44276451  0.04798770
   0.44332092  0.88490137  0.95195191
   0.55191940  0.77587772  0.04798487
   0.78108757  0.22376887  0.95186940
   0.88990008  0.11493432  0.04792877
   0.77659242  0.55470402  0.95076950
   0.89010715  0.44144090  0.04787510
   0.77657114  0.88837368  0.95077260
   0.88759765  0.77705443  0.04954449
unknown system                          
           1
     8.282131    4.771035    0.000000
    -8.290943    4.786256    0.000000
     0.000000    0.000000   30.000000
   V    Mo   W    S 
   3   3   3  18
Direct configuration=     4
   0.33066121  0.66845297 -0.00027083
   0.33065024  0.32892924 -0.00025360
   1.00015036  0.33340064  0.00015574
   0.00166901 -0.00710328  0.00017638
   0.00157113  0.67525797  0.00016975
   0.32655321 -0.00334639 -0.00010688
   0.66660827  0.00070454  0.00007720
   0.66664097  0.33259937  0.00007351
   0.67477517  0.67067683 -0.00011210
   0.11362888  0.22751192  0.95212091
   0.22487942  0.11681935  0.04994351
   0.11369472  0.55284473  0.95209373
   0.22213692  0.44424583  0.04669158
   0.11119894  0.88891424  0.94811266
   0.22493434  0.77449655  0.04990655
   0.44253304  0.22548350  0.95053840
   0.55619372  0.11138786  0.05037828
   0.44025640  0.55352768  0.95280052
   0.55097215  0.44240279  0.04912324
   0.44260102  0.88384692  0.95051746
   0.55094912  0.77511737  0.04911547
   0.78219086  0.22440736  0.95036435
   0.89066481  0.11587846  0.04905333
   0.77676243  0.55476728  0.94915543
   0.89076075  0.44125570  0.04903748
   0.77677587  0.88861298  0.94916791
   0.88780147  0.77712203  0.05196993
unknown system                          
           1
     8.292405    4.770034    0.000000
    -8.307684    4.796459    0.000000
     0.000000    0.000000   30.000000
   V    Mo   W    S 
   3   3   3  18
Direct configuration=     5
   0.32936428  0.67089440 -0.00052769
   0.32930460  0.32512135 -0.00050577
   0.99791917  0.33228131  0.00019410
   0.00095311 -0.01664291  0.00008099
   0.00086324  0.68406425  0.00005905
   0.32168997 -0.00581476  0.00004776
   0.66631187  0.00251293  0.00034479
   0.66639084  0.33052844  0.00033708
   0.68443329  0.67549544 -0.00026094
   0.11357119  0.22698609  0.95075044
   0.22470975  0.11725624  0.05230709
   0.11355339  0.55314631  0.95074606
   0.22214588  0.44438642  0.04809286
   0.11136131  0.88897800  0.94472131
   0.22468175  0.77400788  0.05229381
   0.44163921  0.22516280  0.94860830
   0.55468068  0.11063502  0.05202038
   0.44040938  0.55349661  0.95226137
   0.55007339  0.44255691  0.05037000
   0.44162130  0.88313017  0.94860849
   0.55004119  0.77403590  0.05035524
   0.78361257  0.22513446  0.94832352
   0.89218822  0.11630337  0.05037722
   0.77794039  0.55509770  0.94712758
   0.89218013  0.44242672  0.05040219
   0.77797033  0.88948710  0.94715125
   0.88860402  0.77754628  0.05571342
unknown system                          
           1
     8.280430    4.763587    0.000000
    -8.295259    4.789232    0.000000
     0.000000    0.000000   30.000000
   V    Mo   W    S 
   3   3   3  18
Direct configuration=     6
   0.32858371  0.67135142 -0.00049587
   0.32852908  0.32386628 -0.00048433
   0.99744545  0.33204812  0.00022730
   0.00091353 -0.01677438  0.00005160
   0.00079888  0.68415933  0.00004360
   0.32209488 -0.00562542 -0.00000507
   0.66590141  0.00358663  0.00033735
   0.66600008  0.32905584  0.00033329
   0.68613452  0.67632926 -0.00012238
   0.11279452  0.22557632  0.95083600
   0.22392202  0.11642521  0.05235029
   0.11278490  0.55378978  0.95082277
   0.22212639  0.44436826  0.04804258
   0.11167296  0.88913454  0.94446900
   0.22390035  0.77405652  0.05233066
   0.44168255  0.22465769  0.94859061
   0.55381104  0.11021027  0.05216265
   0.44179990  0.55419722  0.95259303
   0.55052952  0.44307747  0.05016246
   0.44168139  0.88368857  0.94857983
   0.55050700  0.77400004  0.05014908
   0.78343205  0.22503471  0.94820257
   0.89255880  0.11551045  0.05018968
   0.77858813  0.55524779  0.94713821
   0.89255998  0.44359583  0.05020825
   0.77862197  0.88998124  0.94716524
   0.88883941  0.77766548  0.05612152
unknown system                          
           1
     8.288260    4.767274    0.000000
    -8.303850    4.794238    0.000000
     0.000000    0.000000   30.000000
   V    Mo   W    S 
   3   3   3  18
Direct configuration=     7
   0.32734741  0.67194465 -0.00051031
   0.32729508  0.32202007 -0.00049909
   0.99693968  0.33179678  0.00030471
   0.00101632 -0.01842836  0.00001405
   0.00088443  0.68590640 -0.00000019
   0.32217523 -0.00559790 -0.00006381
   0.66523934  0.00499426  0.00036291
   0.66536776  0.32701844  0.00035987
   0.68910113  0.67779390 -0.00012737
   0.11223493  0.22461171  0.95079100
   0.22347801  0.11591311  0.05258048
   0.11223136  0.55419191  0.95077899
   0.22207809  0.44435193  0.04803263
   0.11189599  0.88923594  0.94410847
   0.22345622  0.77413945  0.05256337
   0.44164615  0.22431070  0.94840519
   0.55314541  0.10988726  0.05249973
   0.44281927  0.55470250  0.95299120
   0.55085080  0.44338830  0.05001833
   0.44164485  0.88398348  0.94839109
   0.55083732  0.77403327  0.05000476
   0.78340473  0.22501546  0.94789980
   0.89285428  0.11504959  0.05009310
   0.77899843  0.55524641  0.94708441
   0.89285836  0.44436849  0.05011491
   0.77902964  0.89038315  0.94711469
   0.88938423  0.77795356  0.05668698
unknown system                          
           1
     8.285290    4.767274    0.000000
    -8.299401    4.791675    0.000000
     0.000000    0.000000   30.000000
   V    Mo   W    S 
   3   3   3  18
Direct configuration=     8
   0.32683336  0.67205210 -0.00050987
   0.32679063  0.32144360 -0.00049926
   0.99692713  0.33180199  0.00034090
   0.00124891 -0.01839023  0.00001730
   0.00113932  0.68610564  0.00000435
   0.32266614 -0.00539143 -0.00008182
   0.66484045  0.00547577  0.00037281
   0.66500260  0.32615558  0.00036898
   0.68957969  0.67803058 -0.00011835
   0.11208439  0.22439708  0.95082810
   0.22339415  0.11576350  0.05256001
   0.11210484  0.55426901  0.95081953
   0.22205019  0.44434544  0.04794764
   0.11202666  0.88929939  0.94412642
   0.22338117  0.77419413  0.05253899
   0.44169339  0.22427884  0.94841209
   0.55303103  0.10983344  0.05257891
   0.44310060  0.55485781  0.95319827
   0.55098054  0.44344834  0.04989102
   0.44168528  0.88404797  0.94839835
   0.55095646  0.77410120  0.04987295
   0.78335656  0.22499017  0.94788086
   0.89280950  0.11489620  0.04997660
   0.77906115  0.55516644  0.94717341
   0.89281975  0.44447871  0.05000010
   0.77909459  0.89052158  0.94720580
   0.88955598  0.77804160  0.05669583
unknown system                          
           1
     8.277093    4.763915    0.000000
    -8.290062    4.786339    0.000000
     0.000000    0.000000   30.000000
   V    Mo   W    S 
   3   3   3  18
Direct configuration=     9
   0.32811435  0.67178511 -0.00049830
   0.32808431  0.32304603 -0.00048448
   0.99706061  0.33188383  0.00025399
   0.00068982 -0.01788094  0.00003051
   0.00063657  0.68506098  0.00001958
   0.32164229 -0.00593606 -0.00004100
   0.66585851  0.00420030  0.00035674
   0.66601755  0.32841031  0.00035196
   0.68784263  0.67718942 -0.00011024
   0.11237248  0.22483612  0.95081240
   0.22351989  0.11601987  0.05249228
   0.11241181  0.55412510  0.95081373
   0.22211691  0.44438995  0.04806842
   0.11170522  0.88914127  0.94422393
   0.22352182  0.77405890  0.05245823
   0.44164183  0.22432581  0.94849060
   0.55333766  0.10997734  0.05227645
   0.44251234  0.55457752  0.95275046
   0.55076955  0.44333476  0.05013413
   0.44162068  0.88393801  0.94848961
   0.55072323  0.77398199  0.05011254
   0.78340904  0.22502000  0.94800756
   0.89286993  0.11522598  0.05018757
   0.77885055  0.55532174  0.94702807
   0.89287069  0.44419872  0.05020785
   0.77889555  0.89016352  0.94705569
   0.88911866  0.77781886  0.05651162
unknown system                          
           1
     8.277277    4.766092    0.000000
    -8.288386    4.785294    0.000000
     0.000000    0.000000   30.000000
   V    Mo   W    S 
   3   3   3  18
Direct configuration=    10
   0.32892575  0.67164818 -0.00050399
   0.32887558  0.32382784 -0.00049551
   0.99659250  0.33160105  0.00016778
  -0.00000288 -0.01800359  0.00003369
  -0.00016877  0.68447049  0.00001356
   0.32010224 -0.00655958 -0.00003971
   0.66736399  0.00380486  0.00036157
   0.66739941  0.33026133  0.00035205
   0.68741475  0.67697123 -0.00007995
   0.11235143  0.22474152  0.95090036
   0.22328232  0.11592254  0.05243570
   0.11229767  0.55416209  0.95087164
   0.22211546  0.44434742  0.04811718
   0.11133628  0.88895918  0.94420981
   0.22324830  0.77394384  0.05244102
   0.44163995  0.22415005  0.94861854
   0.55328587  0.10994887  0.05194294
   0.44261966  0.55458054  0.95253174
   0.55081498  0.44340770  0.05025492
   0.44166421  0.88418043  0.94858777
   0.55082629  0.77398075  0.05025810
   0.78347462  0.22504341  0.94805684
   0.89311905  0.11539098  0.05033216
   0.77879219  0.55549580  0.94685375
   0.89311684  0.44429495  0.05035221
   0.77881671  0.88993273  0.94686873
   0.88891004  0.77770984  0.05655702
unknown system                          
           1
     8.277993    4.765997    0.000000
    -8.289450    4.785802    0.000000
     0.000000    0.000000   30.000000
   V    Mo   W    S 
   3   3   3  18
Direct configuration=    11
   0.33022979  0.67154409 -0.00051135
   0.33017976  0.32519914 -0.00049794
   0.99607719  0.33134533  0.00004678
  -0.00102069 -0.01789276  0.00003819
  -0.00116108  0.68336011  0.00002920
   0.31779175 -0.00769534 -0.00001823
   0.66948512  0.00275121  0.00036575
   0.66947718  0.33337221  0.00036446
   0.68625170  0.67642618 -0.00002752
   0.11241666  0.22478527  0.95095555
   0.22306038  0.11593229  0.05239229
   0.11234819  0.55417634  0.95093010
   0.22216099  0.44436097  0.04819826
   0.11075242  0.88867303  0.94418524
   0.22302440  0.77373499  0.05238374
   0.44167826  0.22398633  0.94877129
   0.55328986  0.10994210  0.05146093
   0.44252638  0.55452393  0.95217352
   0.55083499  0.44347377  0.05047152
   0.44171202  0.88439667  0.94875809
   0.55085493  0.77394122  0.05048063
   0.78359589  0.22510270  0.94807900
   0.89344383  0.11569605  0.05061973
   0.77860588  0.55571337  0.94657173
   0.89342694  0.44431121  0.05062681
   0.77864305  0.88953262  0.94658413
   0.88852864  0.77752142  0.05656803
unknown system                          
           1
     8.281739    4.767734    0.000000
    -8.293568    4.788183    0.000000
     0.000000    0.000000   30.000000
   V    Mo   W    S 
   3   3   3  18
Direct configuration=    12
   0.32956454  0.67200026 -0.00055888
   0.32950989  0.32401667 -0.00054315
   0.99538006  0.33099662  0.00005400
  -0.00114202 -0.01838396  0.00003917
  -0.00128539  0.68373749  0.00002942
   0.31646215 -0.00833974 -0.00003172
   0.67031734  0.00310878  0.00040500
   0.67028467  0.33382365  0.00040627
   0.68755537  0.67707855  0.00000991
   0.11215163  0.22432337  0.95103385
   0.22271542  0.11562434  0.05244072
   0.11209159  0.55437974  0.95101588
   0.22213645  0.44434810  0.04805310
   0.11056804  0.88857497  0.94403534
   0.22268757  0.77371684  0.05241631
   0.44189143  0.22379358  0.94885925
   0.55288549  0.10973912  0.05130118
   0.44318104  0.55484741  0.95254492
   0.55120339  0.44369690  0.05030621
   0.44192413  0.88479464  0.94886167
   0.55122974  0.77410987  0.05031317
   0.78358773  0.22510165  0.94795038
   0.89360269  0.11550977  0.05060205
   0.77865985  0.55567752  0.94652790
   0.89358826  0.44466385  0.05060378
   0.77870645  0.88962246  0.94654023
   0.88875694  0.77765202  0.05678393
unknown system                          
           1
     8.286009    4.769508    0.000000
    -8.298550    4.791191    0.000000
     0.000000    0.000000   30.000000
   V    Mo   W    S 
   3   3   3  18
Direct configuration=    13
   0.32904905  0.67212059 -0.00056680
   0.32899333  0.32337849 -0.00055137
   0.99533738  0.33097594  0.00008343
  -0.00092605 -0.01847072  0.00003484
  -0.00107407  0.68403739  0.00002600
   0.31675420 -0.00819732 -0.00004881
   0.67002036  0.00351555  0.00040852
   0.66999622  0.33313169  0.00041045
   0.68812842  0.67735918  0.00000717
   0.11206657  0.22421048  0.95102032
   0.22270132  0.11555655  0.05248401
   0.11200989  0.55440860  0.95100303
   0.22211810  0.44433964  0.04801112
   0.11067007  0.88862558  0.94399399
   0.22267342  0.77376979  0.05245812
   0.44190508  0.22376375  0.94882942
   0.55278069  0.10968894  0.05139464
   0.44334277  0.55492776  0.95271273
   0.55126108  0.44373643  0.05022593
   0.44193682  0.88483548  0.94883266
   0.55128806  0.77413139  0.05023151
   0.78358253  0.22509994  0.94790466
   0.89359333  0.11542600  0.05054658
   0.77872956  0.55562790  0.94656930
   0.89358091  0.44474049  0.05054878
   0.77877664  0.88974045  0.94658389
   0.88891880  0.77773450  0.05684578
unknown system                          
           1
     8.283726    4.768833    0.000000
    -8.295704    4.789540    0.000000
     0.000000    0.000000   30.000000
   V    Mo   W    S 
   3   3   3  18
Direct configuration=    14
   0.32760032  0.67259042 -0.00060860
   0.32753816  0.32147720 -0.00059306
   0.99482167  0.33073232  0.00013753
  -0.00063810 -0.01879772  0.00002606
  -0.00076114  0.68466536  0.00001689
   0.31633225 -0.00844741 -0.00010403
   0.67022445  0.00453498  0.00043645
   0.67022476  0.33231971  0.00043605
   0.68985224  0.67822368  0.00002156
   0.11177133  0.22384500  0.95101616
   0.22254676  0.11528525  0.05259946
   0.11175023  0.55449520  0.95100956
   0.22204111  0.44431785  0.04785418
   0.11071424  0.88864495  0.94387223
   0.22253613  0.77387963  0.05256122
   0.44201567  0.22354531  0.94884184
   0.55241659  0.10950880  0.05142750
   0.44392177  0.55523042  0.95322856
   0.55153329  0.44393272  0.04999082
   0.44202919  0.88513036  0.94885529
   0.55154174  0.77420626  0.04998883
   0.78362684  0.22512721  0.94778397
   0.89371082  0.11530999  0.05045602
   0.77888290  0.55557690  0.94662144
   0.89370125  0.44498180  0.05045934
   0.77893790  0.88994279  0.94663667
   0.88934208  0.77795546  0.05702796
unknown system                          
           1
     8.285233    4.770585    0.000000
    -8.296426    4.789933    0.000000
     0.000000    0.000000   30.000000
   V    Mo   W    S 
   3   3   3  18
Direct configuration=    15
   0.32870869  0.67233101 -0.00058565
   0.32866021  0.32287870 -0.00056898
   0.99504851  0.33085062  0.00008732
  -0.00098659 -0.01869982  0.00003053
  -0.00108613  0.68422595  0.00002301
   0.31627541 -0.00849108 -0.00006740
   0.67031261  0.00370210  0.00041231
   0.67031362  0.33323079  0.00041247
   0.68873756  0.67767164  0.00001753
   0.11193132  0.22402582  0.95104341
   0.22256791  0.11542270  0.05252381
   0.11191851  0.55447709  0.95103899
   0.22208989  0.44434683  0.04794859
   0.11062451  0.88860061  0.94393495
   0.22256192  0.77376365  0.05248183
   0.44198111  0.22365627  0.94884612
   0.55260766  0.10960078  0.05135138
   0.44361597  0.55508559  0.95287261
   0.55140828  0.44384391  0.05016992
   0.44198915  0.88498304  0.94886292
   0.55140958  0.77416226  0.05016654
   0.78357676  0.22510109  0.94786764
   0.89366913  0.11537358  0.05052948
   0.77876647  0.55562522  0.94656005
   0.89365850  0.44487028  0.05053146
   0.77882386  0.88977946  0.94657490
   0.88903004  0.77779637  0.05693417
unknown system                          
           1
     8.284221    4.770318    0.000000
    -8.295120    4.789157    0.000000
     0.000000    0.000000   30.000000
   V    Mo   W    S 
   3   3   3  18
Direct configuration=    16
   0.33003953  0.67227731 -0.00058044
   0.33001126  0.32420462 -0.00056722
   0.99521818  0.33091638 -0.00001161
  -0.00148533 -0.01867931  0.00005409
  -0.00161373  0.68370987  0.00003930
   0.31511465 -0.00900395 -0.00001227
   0.67094408  0.00237408  0.00040527
   0.67086851  0.33515686  0.00040263
   0.68776366  0.67717611  0.00005207
   0.11211832  0.22410659  0.95116009
   0.22244284  0.11551680  0.05239306
   0.11207492  0.55457356  0.95114232
   0.22223829  0.44440940  0.04798920
   0.11032169  0.88845065  0.94395170
   0.22242771  0.77354985  0.05237125
   0.44196870  0.22369988  0.94894190
   0.55267996  0.10963502  0.05105178
   0.44345217  0.55498624  0.95255780
   0.55134602  0.44381321  0.05035492
   0.44199633  0.88495519  0.94894592
   0.55136421  0.77413696  0.05036186
   0.78347406  0.22504577  0.94796363
   0.89372548  0.11537463  0.05064936
   0.77862688  0.55571082  0.94641369
   0.89371327  0.44492741  0.05065189
   0.77867561  0.88955816  0.94642100
   0.88870718  0.77763236  0.05689671
unknown system                          
           1
     8.283869    4.769853    0.000000
    -8.294933    4.788978    0.000000
     0.000000    0.000000   30.000000
   V    Mo   W    S 
   3   3   3  18
Direct configuration=    17
   0.32998237  0.67241312 -0.00059718
   0.32995665  0.32400355 -0.00058320
   0.99504270  0.33083098 -0.00001712
  -0.00159958 -0.01874113  0.00005144
  -0.00172193  0.68366148  0.00004051
   0.31459788 -0.00926100 -0.00001992
   0.67133852  0.00225653  0.00041331
   0.67125379  0.33565908  0.00041320
   0.68794760  0.67727065  0.00005499
   0.11208160  0.22404522  0.95118225
   0.22237410  0.11546172  0.05240873
   0.11203675  0.55459834  0.95116476
   0.22224841  0.44441211  0.04795276
   0.11023229  0.88840769  0.94392522
   0.22235880  0.77354236  0.05238283
   0.44200246  0.22361266  0.94897807
   0.55260806  0.10959758  0.05093738
   0.44357336  0.55504436  0.95262876
   0.55141736  0.44387766  0.05033901
   0.44203128  0.88507654  0.94898718
   0.55143960  0.77414859  0.05034500
   0.78345335  0.22503597  0.94798168
   0.89376016  0.11537151  0.05065463
   0.77862951  0.55573492  0.94639144
   0.89374508  0.44496634  0.05065378
   0.77867940  0.88953548  0.94639994
   0.88874486  0.77765215  0.05693043
unknown system                          
           1
     8.285406    4.771412    0.000000
    -8.295931    4.789602    0.000000
     0.000000    0.000000   30.000000
   V    Mo   W    S 
   3   3   3  18
Direct configuration=    18
   0.32899832  0.67267055 -0.00062830
   0.32895868  0.32271087 -0.00061355
   0.99469164  0.33065011  0.00003021
  -0.00139228 -0.01886254  0.00003807
  -0.00153932  0.68398160  0.00003314
   0.31441612 -0.00932772 -0.00006379
   0.67153858  0.00298568  0.00043518
   0.67144419  0.33513269  0.00044009
   0.68897493  0.67778238  0.00004666
   0.11191883  0.22386452  0.95116477
   0.22232658  0.11531516  0.05249490
   0.11185817  0.55461051  0.95114536
   0.22219890  0.44437600  0.04785583
   0.11026643  0.88842660  0.94386125
   0.22230293  0.77365253  0.05246465
   0.44205916  0.22346537  0.94899318
   0.55241704  0.10950325  0.05094293
   0.44389934  0.55519445  0.95297095
   0.55156882  0.44398742  0.05017435
   0.44209648  0.88528886  0.94900658
   0.55160739  0.77420600  0.05018104
   0.78348445  0.22505297  0.94792681
   0.89379823  0.11532949  0.05058918
   0.77872801  0.55570897  0.94644386
   0.89378121  0.44505121  0.05058384
   0.77877811  0.88965813  0.94645647
   0.88903355  0.77779939  0.05702624
unknown system                          
           1
     8.282784    4.769185    0.000000
    -8.294130    4.788800    0.000000
     0.000000    0.000000   30.000000
   V    Mo   W    S 
   3   3   3  18
Direct configuration=    19
   0.32902760  0.67288594 -0.00064878
   0.32899616  0.32255954 -0.00063318
   0.99448272  0.33055886  0.00000488
  -0.00158721 -0.01882801  0.00004640
  -0.00170017  0.68376791  0.00003993
   0.31354903 -0.00979152 -0.00005744
   0.67218073  0.00254299  0.00044928
   0.67209156  0.33620100  0.00045175
   0.68903196  0.67781914  0.00007240
   0.11188902  0.22382061  0.95118062
   0.22223344  0.11524769  0.05251656
   0.11184069  0.55462926  0.95116556
   0.22221244  0.44438839  0.04782213
   0.11010302  0.88834522  0.94381988
   0.22221729  0.77362690  0.05248263
   0.44209254  0.22332552  0.94904237
   0.55232263  0.10945378  0.05074713
   0.44400889  0.55525348  0.95302050
   0.55164738  0.44408857  0.05018964
   0.44212460  0.88545343  0.94906171
   0.55167883  0.77417909  0.05019328
   0.78348741  0.22505591  0.94795010
   0.89389145  0.11536574  0.05064006
   0.77871645  0.55575746  0.94636689
   0.89387009  0.44510930  0.05063474
   0.77876939  0.88959563  0.94637641
   0.88903651  0.77780262  0.05706445
unknown system                          
           1
     8.282894    4.769166    0.000000
    -8.294331    4.788938    0.000000
     0.000000    0.000000   30.000000
   V    Mo   W    S 
   3   3   3  18
Direct configuration=    20
   0.32782499  0.67309251 -0.00063400
   0.32778487  0.32132119 -0.00061459
   0.99437160  0.33054406  0.00010749
  -0.00115867 -0.01908309  0.00003089
  -0.00116363  0.68448176  0.00002463
   0.31484740 -0.00930141 -0.00010716
   0.67119576  0.00417052  0.00045950
   0.67122508  0.33361665  0.00045682
   0.69023687  0.67843773  0.00006704
   0.11166405  0.22357204  0.95105500
   0.22229880  0.11512222  0.05262926
   0.11171908  0.55468843  0.95106944
   0.22215707  0.44441381  0.04780542
   0.11039492  0.88848142  0.94376456
   0.22233177  0.77378830  0.05256480
   0.44215337  0.22332819  0.94892194
   0.55219844  0.10939162  0.05111943
   0.44424277  0.55543840  0.95331797
   0.55176003  0.44409327  0.04999984
   0.44212396  0.88542328  0.94896156
   0.55171179  0.77424765  0.04998027
   0.78351289  0.22507549  0.94776425
   0.89382582  0.11521926  0.05054565
   0.77885137  0.55561364  0.94650485
   0.89381330  0.44518836  0.05054390
   0.77891902  0.88987029  0.94651744
   0.88937174  0.77797889  0.05714371
unknown system                          
           1
     8.290527    4.774545    0.000000
    -8.301646    4.793768    0.000000
     0.000000    0.000000   30.000000
   V    Mo   W    S 
   3   3   3  18
Direct configuration=    21
   0.32774763  0.67310397 -0.00063358
   0.32770733  0.32124092 -0.00061449
   0.99436654  0.33054258  0.00011326
  -0.00112352 -0.01908905  0.00002947
  -0.00112495  0.68452370  0.00002287
   0.31491902 -0.00927136 -0.00011083
   0.67114219  0.00427197  0.00045990
   0.67117621  0.33346329  0.00045663
   0.69030330  0.67847115  0.00006521
   0.11165297  0.22356052  0.95104898
   0.22230303  0.11511445  0.05263474
   0.11171158  0.55469019  0.95106376
   0.22215371  0.44441443  0.04780302
   0.11041158  0.88848952  0.94376201
   0.22233714  0.77379714  0.05257119
   0.44215371  0.22332747  0.94891627
   0.55218717  0.10938645  0.05114264
   0.44425502  0.55544736  0.95333805
   0.55176514  0.44409265  0.04998792
   0.44212275  0.88542131  0.94895479
   0.55171338  0.77425083  0.04996796
   0.78351953  0.22507836  0.94775223
   0.89382346  0.11521317  0.05054002
   0.77885913  0.55560578  0.94651331
   0.89381163  0.44519250  0.05053913
   0.77892650  0.88988576  0.94652559
   0.88939329  0.77798940  0.05714984
unknown system                          
           1
     8.293123    4.775278    0.000000
    -8.304817    4.795496    0.000000
     0.000000    0.000000   30.000000
   V    Mo   W    S 
   3   3   3  18
Direct configuration=    22
   0.32724186  0.67365552 -0.00068466
   0.32725109  0.32052004 -0.00066563
   0.99386287  0.33036484  0.00007998
  -0.00124942 -0.01883847  0.00003133
  -0.00102964  0.68423080  0.00002102
   0.31310441 -0.01042458 -0.00012385
   0.67248506  0.00371060  0.00048962
   0.67262099  0.33533526  0.00047034
   0.69060207  0.67865627  0.00008511
   0.11145042  0.22344027  0.95102739
   0.22215764  0.11486324  0.05272773
   0.11163544  0.55466015  0.95106416
   0.22206821  0.44443604  0.04771285
   0.11017262  0.88836696  0.94369848
   0.22224330  0.77384177  0.05266484
   0.44223254  0.22293709  0.94902101
   0.55195319  0.10926689  0.05078904
   0.44442360  0.55560256  0.95354404
   0.55191821  0.44425059  0.04998494
   0.44214014  0.88580172  0.94905557
   0.55179156  0.77417792  0.04994408
   0.78358430  0.22510682  0.94774053
   0.89405719  0.11538910  0.05061895
   0.77888789  0.55569381  0.94639255
   0.89404159  0.44525673  0.05063885
   0.77897503  0.88982793  0.94639053
   0.88959230  0.77808458  0.05728107
unknown system                          
           1
     8.288354    4.773323    0.000000
    -8.299689    4.792921    0.000000
     0.000000    0.000000   30.000000
   V    Mo   W    S 
   3   3   3  18
Direct configuration=    23
   0.32593549  0.67380900 -0.00071427
   0.32590557  0.31883641 -0.00070805
   0.99373516  0.33023788  0.00011658
  -0.00092042 -0.01868774  0.00005072
  -0.00087699  0.68433871  0.00003609
   0.31288528 -0.01032360 -0.00015097
   0.67279323  0.00448818  0.00050948
   0.67283754  0.33487957  0.00049551
   0.69176014  0.67920898  0.00010058
   0.11144196  0.22343145  0.95101648
   0.22221284  0.11483305  0.05276504
   0.11151272  0.55462057  0.95100952
   0.22208243  0.44439935  0.04760987
   0.11011871  0.88834883  0.94364397
   0.22223339  0.77392209  0.05276528
   0.44224234  0.22287616  0.94908835
   0.55180825  0.10920485  0.05079447
   0.44462417  0.55565226  0.95392420
   0.55199528  0.44430861  0.04976538
   0.44223031  0.88595106  0.94907450
   0.55191955  0.77422852  0.04975602
   0.78370483  0.22514814  0.94769266
   0.89412722  0.11538278  0.05059649
   0.77895187  0.55565019  0.94643138
   0.89411405  0.44534358  0.05061766
   0.77899140  0.88992597  0.94642549
   0.88984812  0.77819961  0.05728746
unknown system                          
           1
     8.294090    4.775747    0.000000
    -8.305657    4.795745    0.000000
     0.000000    0.000000   30.000000
   V    Mo   W    S 
   3   3   3  18
Direct configuration=    24
   0.32634007  0.67397798 -0.00072130
   0.32632425  0.31920787 -0.00071984
   0.99355621  0.33017159  0.00006398
  -0.00118382 -0.01865933  0.00007959
  -0.00106040  0.68407442  0.00005948
   0.31203451 -0.01082802 -0.00012178
   0.67337338  0.00376521  0.00051345
   0.67345061  0.33616630  0.00049056
   0.69149870  0.67909200  0.00013958
   0.11143890  0.22343782  0.95105163
   0.22214559  0.11476704  0.05273338
   0.11155832  0.55463352  0.95104453
   0.22205916  0.44442041  0.04760260
   0.10998269  0.88828189  0.94363867
   0.22218097  0.77387336  0.05275613
   0.44227437  0.22276300  0.94915608
   0.55182144  0.10921267  0.05056825
   0.44459469  0.55567515  0.95383534
   0.55203405  0.44433515  0.04984250
   0.44224638  0.88606328  0.94912403