<?xml version="1.0" encoding="ISO-8859-1"?>
<modeling>
 <generator>
  <i name="program" type="string">vasp </i>
  <i name="version" type="string">5.4.1  </i>
  <i name="subversion" type="string">05Feb16 (build Jul 05 2020 17:13:04) complex                          parallel </i>
  <i name="platform" type="string">IFC91_ompi </i>
  <i name="date" type="string">2024 08 01 </i>
  <i name="time" type="string">05:12:19 </i>
 </generator>
 <incar>
  <i type="int" name="ISTART">     0</i>
  <i type="string" name="PREC">normal</i>
  <i type="string" name="ALGO"> Normal</i>
  <i type="int" name="ISPIN">     1</i>
  <i type="int" name="ICHARG">     2</i>
  <i type="int" name="IBRION">     1</i>
  <i type="int" name="NSW">   100</i>
  <i type="int" name="ISIF">     3</i>
  <i type="int" name="ISYM">     0</i>
  <i name="SYMPREC">      0.00000001</i>
  <i name="POTIM">      0.50000000</i>
  <i type="logical" name="LREAL"> F  </i>
  <i type="logical" name="LPLANE"> F  </i>
  <i type="int" name="ISMEAR">     0</i>
  <i type="logical" name="LWAVE"> F  </i>
  <i type="logical" name="LCHARG"> F  </i>
  <v type="int" name="KPOINT_BSE">    -1     0     0     0</v>
 </incar>
 <kpoints>
  <generation param="Gamma">
   <v type="int" name="divisions">       8        8        1 </v>
   <v name="usershift">      0.00000000       0.00000000       0.00000000 </v>
   <v name="genvec1">      0.12500000       0.00000000       0.00000000 </v>
   <v name="genvec2">     -0.00000000       0.12500000       0.00000000 </v>
   <v name="genvec3">      0.00000000       0.00000000       1.00000000 </v>
   <v name="shift">      0.00000000       0.00000000       0.00000000 </v>
  </generation>
  <varray name="kpointlist" >
   <v>       0.00000000       0.00000000       0.00000000 </v>
   <v>       0.12500000       0.00000000       0.00000000 </v>
   <v>       0.25000000       0.00000000       0.00000000 </v>
   <v>       0.37500000       0.00000000       0.00000000 </v>
   <v>       0.50000000       0.00000000       0.00000000 </v>
   <v>       0.00000000       0.12500000       0.00000000 </v>
   <v>       0.12500000       0.12500000       0.00000000 </v>
   <v>       0.25000000       0.12500000       0.00000000 </v>
   <v>       0.37500000       0.12500000       0.00000000 </v>
   <v>       0.50000000       0.12500000       0.00000000 </v>
   <v>      -0.37500000       0.12500000       0.00000000 </v>
   <v>      -0.25000000       0.12500000       0.00000000 </v>
   <v>      -0.12500000       0.12500000       0.00000000 </v>
   <v>       0.00000000       0.25000000       0.00000000 </v>
   <v>       0.12500000       0.25000000       0.00000000 </v>
   <v>       0.25000000       0.25000000       0.00000000 </v>
   <v>       0.37500000       0.25000000       0.00000000 </v>
   <v>       0.50000000       0.25000000       0.00000000 </v>
   <v>      -0.37500000       0.25000000       0.00000000 </v>
   <v>      -0.25000000       0.25000000       0.00000000 </v>
   <v>      -0.12500000       0.25000000       0.00000000 </v>
   <v>      -0.00000000       0.37500000       0.00000000 </v>
   <v>       0.12500000       0.37500000       0.00000000 </v>
   <v>       0.25000000       0.37500000       0.00000000 </v>
   <v>       0.37500000       0.37500000       0.00000000 </v>
   <v>       0.50000000       0.37500000       0.00000000 </v>
   <v>      -0.37500000       0.37500000       0.00000000 </v>
   <v>      -0.25000000       0.37500000       0.00000000 </v>
   <v>      -0.12500000       0.37500000       0.00000000 </v>
   <v>       0.00000000       0.50000000       0.00000000 </v>
   <v>       0.12500000       0.50000000       0.00000000 </v>
   <v>       0.25000000       0.50000000       0.00000000 </v>
   <v>       0.37500000       0.50000000       0.00000000 </v>
   <v>       0.50000000       0.50000000       0.00000000 </v>
  </varray>
  <varray name="weights" >
   <v>       0.01562500 </v>
   <v>       0.03125000 </v>
   <v>       0.03125000 </v>
   <v>       0.03125000 </v>
   <v>       0.01562500 </v>
   <v>       0.03125000 </v>
   <v>       0.03125000 </v>
   <v>       0.03125000 </v>
   <v>       0.03125000 </v>
   <v>       0.03125000 </v>
   <v>       0.03125000 </v>
   <v>       0.03125000 </v>
   <v>       0.03125000 </v>
   <v>       0.03125000 </v>
   <v>       0.03125000 </v>
   <v>       0.03125000 </v>
   <v>       0.03125000 </v>
   <v>       0.03125000 </v>
   <v>       0.03125000 </v>
   <v>       0.03125000 </v>
   <v>       0.03125000 </v>
   <v>       0.03125000 </v>
   <v>       0.03125000 </v>
   <v>       0.03125000 </v>
   <v>       0.03125000 </v>
   <v>       0.03125000 </v>
   <v>       0.03125000 </v>
   <v>       0.03125000 </v>
   <v>       0.03125000 </v>
   <v>       0.01562500 </v>
   <v>       0.03125000 </v>
   <v>       0.03125000 </v>
   <v>       0.03125000 </v>
   <v>       0.01562500 </v>
  </varray>
 </kpoints>
 <parameters>
  <separator name="general" >
   <i type="string" name="SYSTEM">unknown system</i>
   <i type="logical" name="LCOMPAT"> F  </i>
  </separator>
  <separator name="electronic" >
   <i type="string" name="PREC">normal</i>
   <i name="ENMAX">    280.00000000</i>
   <i name="ENAUG">    373.43800000</i>
   <i name="EDIFF">      0.00010000</i>
   <i type="int" name="IALGO">    38</i>
   <i type="int" name="IWAVPR">    11</i>
   <i type="int" name="NBANDS">   120</i>
   <i name="NELECT">    159.00000000</i>
   <i type="int" name="TURBO">     0</i>
   <i type="int" name="IRESTART">     0</i>
   <i type="int" name="NREBOOT">     0</i>
   <i type="int" name="NMIN">     0</i>
   <i name="EREF">      0.00000000</i>
   <separator name="electronic smearing" >
    <i type="int" name="ISMEAR">     0</i>
    <i name="SIGMA">      0.20000000</i>
    <i name="KSPACING">      0.50000000</i>
    <i type="logical" name="KGAMMA"> T  </i>
   </separator>
   <separator name="electronic projectors" >
    <i type="logical" name="LREAL"> F  </i>
    <v name="ROPT">      0.00000000      0.00000000      0.00000000      0.00000000</v>
    <i type="int" name="LMAXPAW">  -100</i>
    <i type="int" name="LMAXMIX">     2</i>
    <i type="logical" name="NLSPLINE"> F  </i>
   </separator>
   <separator name="electronic startup" >
    <i type="int" name="ISTART">     0</i>
    <i type="int" name="ICHARG">     2</i>
    <i type="int" name="INIWAV">     1</i>
   </separator>
   <separator name="electronic spin" >
    <i type="int" name="ISPIN">     1</i>
    <i type="logical" name="LNONCOLLINEAR"> F  </i>
    <v name="MAGMOM">      1.00000000      1.00000000      1.00000000      1.00000000      1.00000000      1.00000000      1.00000000      1.00000000      1.00000000      1.00000000      1.00000000      1.00000000      1.00000000      1.00000000      1.00000000      1.00000000      1.00000000      1.00000000      1.00000000      1.00000000
      1.00000000      1.00000000      1.00000000      1.00000000      1.00000000      1.00000000      1.00000000</v>
    <i name="NUPDOWN">     -1.00000000</i>
    <i type="logical" name="LSORBIT"> F  </i>
    <v name="SAXIS">      0.00000000      0.00000000      1.00000000</v>
    <i type="logical" name="LSPIRAL"> F  </i>
    <v name="QSPIRAL">      0.00000000      0.00000000      0.00000000</v>
    <i type="logical" name="LZEROZ"> F  </i>
   </separator>
   <separator name="electronic exchange-correlation" >
    <i type="logical" name="LASPH"> F  </i>
    <i type="logical" name="LMETAGGA"> F  </i>
   </separator>
   <separator name="electronic convergence" >
    <i type="int" name="NELM">    60</i>
    <i type="int" name="NELMDL">    -5</i>
    <i type="int" name="NELMIN">     2</i>
    <i name="ENINI">    280.00000000</i>
    <separator name="electronic convergence detail" >
     <i type="logical" name="LDIAG"> T  </i>
     <i type="logical" name="LSUBROT"> F  </i>
     <i name="WEIMIN">      0.00100000</i>
     <i name="EBREAK">      0.00000021</i>
     <i name="DEPER">      0.30000000</i>
     <i type="int" name="NRMM">     4</i>
     <i name="TIME">      0.40000000</i>
    </separator>
   </separator>
   <separator name="electronic mixer" >
    <i name="AMIX">      0.40000000</i>
    <i name="BMIX">      1.00000000</i>
    <i name="AMIN">      0.10000000</i>
    <i name="AMIX_MAG">      1.60000000</i>
    <i name="BMIX_MAG">      1.00000000</i>
    <separator name="electronic mixer details" >
     <i type="int" name="IMIX">     4</i>
     <i type="logical" name="MIXFIRST"> F  </i>
     <i type="int" name="MAXMIX">   -45</i>
     <i name="WC">    100.00000000</i>
     <i type="int" name="INIMIX">     1</i>
     <i type="int" name="MIXPRE">     1</i>
     <i type="int" name="MREMOVE">     5</i>
    </separator>
   </separator>
   <separator name="electronic dipolcorrection" >
    <i type="logical" name="LDIPOL"> F  </i>
    <i type="logical" name="LMONO"> F  </i>
    <i type="int" name="IDIPOL">     0</i>
    <i name="EPSILON">      1.00000000</i>
    <v name="DIPOL">   -100.00000000   -100.00000000   -100.00000000</v>
    <i name="EFIELD">      0.00000000</i>
   </separator>
  </separator>
  <separator name="grids" >
   <i type="int" name="NGX">    42</i>
   <i type="int" name="NGY">    42</i>
   <i type="int" name="NGZ">   126</i>
   <i type="int" name="NGXF">    84</i>
   <i type="int" name="NGYF">    84</i>
   <i type="int" name="NGZF">   252</i>
   <i type="logical" name="ADDGRID"> F  </i>
  </separator>
  <separator name="ionic" >
   <i type="int" name="NSW">   100</i>
   <i type="int" name="IBRION">     1</i>
   <i type="int" name="ISIF">     3</i>
   <i name="PSTRESS">      0.00000000</i>
   <i name="EDIFFG">      0.00100000</i>
   <i type="int" name="NFREE">     0</i>
   <i name="POTIM">      0.50000000</i>
   <i name="SMASS">     -3.00000000</i>
   <i name="SCALEE">      1.00000000</i>
  </separator>
  <separator name="ionic md" >
   <i name="TEBEG">      0.00010000</i>
   <i name="TEEND">      0.00010000</i>
   <i type="int" name="NBLOCK">     1</i>
   <i type="int" name="KBLOCK">   100</i>
   <i type="int" name="NPACO">   256</i>
   <i name="APACO">     16.00000000</i>
  </separator>
  <separator name="symmetry" >
   <i type="int" name="ISYM">     0</i>
   <i name="SYMPREC">      0.00000001</i>
  </separator>
  <separator name="dos" >
   <i type="logical" name="LORBIT"> F  </i>
   <v name="RWIGS">     -1.00000000     -1.00000000     -1.00000000     -1.00000000</v>
   <i type="int" name="NEDOS">   301</i>
   <i name="EMIN">     10.00000000</i>
   <i name="EMAX">    -10.00000000</i>
   <i name="EFERMI">      0.00000000</i>
  </separator>
  <separator name="writing" >
   <i type="int" name="NWRITE">     2</i>
   <i type="logical" name="LWAVE"> F  </i>
   <i type="logical" name="LCHARG"> F  </i>
   <i type="logical" name="LPARD"> F  </i>
   <i type="logical" name="LVTOT"> F  </i>
   <i type="logical" name="LVHAR"> F  </i>
   <i type="logical" name="LELF"> F  </i>
   <i type="logical" name="LOPTICS"> F  </i>
   <v name="STM">      0.00000000      0.00000000      0.00000000      0.00000000      0.00000000      0.00000000      0.00000000</v>
  </separator>
  <separator name="performance" >
   <i type="int" name="NPAR">    40</i>
   <i type="int" name="NSIM">     4</i>
   <i type="int" name="NBLK">    -1</i>
   <i type="logical" name="LPLANE"> F  </i>
   <i type="logical" name="LSCALAPACK"> T  </i>
   <i type="logical" name="LSCAAWARE"> F  </i>
   <i type="logical" name="LSCALU"> F  </i>
   <i type="logical" name="LASYNC"> F  </i>
   <i type="logical" name="LORBITALREAL"> F  </i>
  </separator>
  <separator name="miscellaneous" >
   <i type="int" name="IDIOT">     3</i>
   <i type="logical" name="LMUSIC"> F  </i>
   <v name="POMASS">     50.94100000     95.94000000    183.85000000     32.06600000</v>
   <v name="DARWINR">      0.00000000      0.00000000      0.00000000      0.00000000</v>
   <v name="DARWINV">      1.00000000      1.00000000      1.00000000      1.00000000</v>
   <i type="logical" name="LCORR"> T  </i>
  </separator>
  <i type="logical" name="GGA_COMPAT"> T  </i>
  <i type="logical" name="LBERRY"> F  </i>
  <i type="int" name="ICORELEVEL">     0</i>
  <i type="logical" name="LDAU"> F  </i>
  <i type="int" name="I_CONSTRAINED_M">     0</i>
  <separator name="electronic exchange-correlation" >
   <i type="string" name="GGA">--</i>
   <i type="int" name="VOSKOWN">     0</i>
   <i type="logical" name="LHFCALC"> F  </i>
   <i type="string" name="PRECFOCK"></i>
   <i type="logical" name="LSYMGRAD"> F  </i>
   <i type="logical" name="LHFONE"> F  </i>
   <i type="logical" name="LRHFCALC"> F  </i>
   <i type="logical" name="LTHOMAS"> F  </i>
   <i type="logical" name="LMODELHF"> F  </i>
   <i name="ENCUT4O">     -1.00000000</i>
   <i type="int" name="EXXOEP">     0</i>
   <i type="int" name="FOURORBIT">     0</i>
   <i name="AEXX">      0.00000000</i>
   <i name="HFALPHA">      0.00000000</i>
   <i name="MCALPHA">      0.00000000</i>
   <i name="ALDAX">      1.00000000</i>
   <i name="AGGAX">      1.00000000</i>
   <i name="ALDAC">      1.00000000</i>
   <i name="AGGAC">      1.00000000</i>
   <i type="int" name="NKREDX">     1</i>
   <i type="int" name="NKREDY">     1</i>
   <i type="int" name="NKREDZ">     1</i>
   <i type="logical" name="SHIFTRED"> F  </i>
   <i type="logical" name="ODDONLY"> F  </i>
   <i type="logical" name="EVENONLY"> F  </i>
   <i type="int" name="LMAXFOCK">     0</i>
   <i type="int" name="NMAXFOCKAE">     0</i>
   <i type="logical" name="LFOCKAEDFT"> F  </i>
   <i name="HFSCREEN">      0.00000000</i>
   <i name="HFSCREENC">      0.00000000</i>
   <i type="int" name="NBANDSGWLOW">     0</i>
  </separator>
  <separator name="vdW DFT" >
   <i type="logical" name="LUSE_VDW"> F  </i>
   <i name="Zab_VDW">     -0.84910000</i>
   <i name="PARAM1">      0.12340000</i>
   <i name="PARAM2">      1.00000000</i>
   <i name="PARAM3">      0.00000000</i>
  </separator>
  <separator name="model GW" >
   <i type="int" name="MODEL_GW">     0</i>
   <i name="MODEL_EPS0">     58.26239943</i>
   <i name="MODEL_ALPHA">      1.00000000</i>
  </separator>
  <separator name="linear response parameters" >
   <i type="logical" name="LEPSILON"> F  </i>
   <i type="logical" name="LRPA"> F  </i>
   <i type="logical" name="LNABLA"> F  </i>
   <i type="logical" name="LVEL"> F  </i>
   <i type="int" name="KINTER">     0</i>
   <i name="CSHIFT">      0.10000000</i>
   <i name="OMEGAMAX">     -1.00000000</i>
   <i name="DEG_THRESHOLD">      0.00200000</i>
  </separator>
  <separator name="orbital magnetization" >
   <i type="logical" name="NUCIND"> F  </i>
   <v name="MAGPOS">      0.00000000      0.00000000      0.00000000</v>
   <i type="logical" name="LNICSALL"> T  </i>
   <i type="logical" name="ORBITALMAG"> F  </i>
   <i type="logical" name="LMAGBLOCH"> F  </i>
   <i type="logical" name="LCHIMAG"> F  </i>
   <i type="logical" name="LGAUGE"> T  </i>
   <i type="int" name="MAGATOM">     0</i>
   <v name="MAGDIPOL">      0.00000000      0.00000000      0.00000000</v>
   <v name="AVECCONST">      0.00000000      0.00000000      0.00000000</v>
  </separator>
  <separator name="response functions" >
   <i type="logical" name="LADDER"> F  </i>
   <i type="logical" name="LFXC"> F  </i>
   <i type="logical" name="LHARTREE"> T  </i>
   <i type="int" name="IBSE">     0</i>
   <v type="int" name="KPOINT">    -1     0     0     0</v>
   <i type="logical" name="LTCTE"> F  </i>
   <i type="logical" name="LTETE"> F  </i>
   <i type="logical" name="LTRIPLET"> F  </i>
   <i type="logical" name="LFXCEPS"> F  </i>
   <i type="logical" name="LFXHEG"> F  </i>
   <i type="int" name="NATURALO">     0</i>
   <i type="logical" name="L2ORDER"> F  </i>
   <i type="logical" name="LUSEW"> F  </i>
   <i name="ENCUTGW">     -2.00000000</i>
   <i name="ENCUTGWSOFT">     -2.00000000</i>
   <i name="ENCUTLF">     -1.00000000</i>
   <i type="int" name="LMAXMP2">    -1</i>
   <i name="SCISSOR">      0.00000000</i>
   <i type="int" name="NOMEGA">     0</i>
   <i type="int" name="NOMEGAR">     0</i>
   <i type="int" name="NBANDSGW">    -1</i>
   <i type="int" name="NBANDSO">    -1</i>
   <i type="int" name="NBANDSV">    -1</i>
   <i type="int" name="NELM">     1</i>
   <i type="int" name="NELMHF">     1</i>
   <i type="int" name="DIM">     3</i>
   <i type="int" name="ANTIRES">     0</i>
   <i name="OMEGAMAX">    -30.00000000</i>
   <i name="OMEGAMIN">    -30.00000000</i>
   <i name="OMEGATL">   -200.00000000</i>
   <i type="int" name="OMEGAGRID">     0</i>
   <i name="CSHIFT">     -0.10000000</i>
   <i type="logical" name="SELFENERGY"> F  </i>
   <i type="logical" name="LSPECTRAL"> F  </i>
   <i type="logical" name="LSPECTRALGW"> F  </i>
   <i type="logical" name="LSINGLES"> F  </i>
   <i type="logical" name="LFERMIGW"> F  </i>
   <i type="logical" name="ODDONLYGW"> F  </i>
   <i type="logical" name="EVENONLYGW"> F  </i>
   <i type="int" name="NKREDLFX">     1</i>
   <i type="int" name="NKREDLFY">     1</i>
   <i type="int" name="NKREDLFZ">     1</i>
   <i type="int" name="MAXMEM">  1800</i>
   <i type="int" name="TELESCOPE">     0</i>
   <i type="int" name="TAUPAR">     1</i>
   <i type="int" name="OMEGAPAR">    -1</i>
   <i name="LAMBDA">      1.00000000</i>
  </separator>
  <separator name="External order field" >
   <i name="OFIELD_KAPPA">      0.00000000</i>
   <v name="OFIELD_K">      0.00000000      0.00000000      0.00000000</v>
   <i name="OFIELD_Q6_NEAR">      0.00000000</i>
   <i name="OFIELD_Q6_FAR">      0.00000000</i>
   <i name="OFIELD_A">      0.00000000</i>
  </separator>
 </parameters>
 <atominfo>
  <atoms>      27 </atoms>
  <types>       4 </types>
  <array name="atoms" >
   <dimension dim="1">ion</dimension>
   <field type="string">element</field>
   <field type="int">atomtype</field>
   <set>
    <rc><c>V </c><c>   1</c></rc>
    <rc><c>V </c><c>   1</c></rc>
    <rc><c>V </c><c>   1</c></rc>
    <rc><c>Mo</c><c>   2</c></rc>
    <rc><c>Mo</c><c>   2</c></rc>
    <rc><c>Mo</c><c>   2</c></rc>
    <rc><c>W </c><c>   3</c></rc>
    <rc><c>W </c><c>   3</c></rc>
    <rc><c>W </c><c>   3</c></rc>
    <rc><c>S </c><c>   4</c></rc>
    <rc><c>S </c><c>   4</c></rc>
    <rc><c>S </c><c>   4</c></rc>
    <rc><c>S </c><c>   4</c></rc>
    <rc><c>S </c><c>   4</c></rc>
    <rc><c>S </c><c>   4</c></rc>
    <rc><c>S </c><c>   4</c></rc>
    <rc><c>S </c><c>   4</c></rc>
    <rc><c>S </c><c>   4</c></rc>
    <rc><c>S </c><c>   4</c></rc>
    <rc><c>S </c><c>   4</c></rc>
    <rc><c>S </c><c>   4</c></rc>
    <rc><c>S </c><c>   4</c></rc>
    <rc><c>S </c><c>   4</c></rc>
    <rc><c>S </c><c>   4</c></rc>
    <rc><c>S </c><c>   4</c></rc>
    <rc><c>S </c><c>   4</c></rc>
    <rc><c>S </c><c>   4</c></rc>
   </set>
  </array>
  <array name="atomtypes" >
   <dimension dim="1">type</dimension>
   <field type="int">atomspertype</field>
   <field type="string">element</field>
   <field>mass</field>
   <field>valence</field>
   <field type="string">pseudopotential</field>
   <set>
    <rc><c>   3</c><c>V </c><c>     50.94100000</c><c>      5.00000000</c><c> PAW_PBE V 08Apr2002                    </c></rc>
    <rc><c>   3</c><c>Mo</c><c>     95.94000000</c><c>      6.00000000</c><c> PAW_PBE Mo 08Apr2002                   </c></rc>
    <rc><c>   3</c><c>W </c><c>    183.85000000</c><c>      6.00000000</c><c> PAW_PBE W 08Apr2002                    </c></rc>
    <rc><c>  18</c><c>S </c><c>     32.06600000</c><c>      6.00000000</c><c>  PAW_PBE S 17Jan2003                   </c></rc>
   </set>
  </array>
 </atominfo>
 <structure name="initialpos" >
  <crystal>
   <varray name="basis" >
    <v>       8.66999996       5.03999989       0.00000000 </v>
    <v>      -8.66999982       5.04000013       0.00000000 </v>
    <v>       0.00000000       0.00000000      30.00000000 </v>
   </varray>
   <i name="volume">   2621.80797419 </i>
   <varray name="rec_basis" >
    <v>       0.05767013       0.09920635       0.00000000 </v>
    <v>      -0.05767013       0.09920635       0.00000000 </v>
    <v>       0.00000000       0.00000000       0.03333333 </v>
   </varray>
  </crystal>
  <varray name="positions" >
   <v>       0.33333334       0.00000000       0.00000000 </v>
   <v>       0.66666669       0.00000000       0.00000000 </v>
   <v>       1.00000000       0.33333334       0.00000000 </v>
   <v>       0.00000000       0.00000000       0.00000000 </v>
   <v>       0.00000000       0.66666669       0.00000000 </v>
   <v>       0.66666669       0.66666669       0.00000000 </v>
   <v>       0.33333334       0.33333334       0.00000000 </v>
   <v>       0.33333334       0.66666669       0.00000000 </v>
   <v>       0.66666669       0.33333334       0.00000000 </v>
   <v>       0.11068511       0.22244981       0.95539999 </v>
   <v>       0.22244981       0.11068511       0.04460000 </v>
   <v>       0.11068511       0.55578315       0.95539999 </v>
   <v>       0.22244981       0.44401845       0.04460000 </v>
   <v>       0.11068511       0.88911647       0.95539999 </v>
   <v>       0.22244981       0.77735180       0.04460000 </v>
   <v>       0.44401845       0.22244981       0.95539999 </v>
   <v>       0.55578315       0.11068511       0.04460000 </v>
   <v>       0.44401845       0.55578315       0.95539999 </v>
   <v>       0.55578315       0.44401845       0.04460000 </v>
   <v>       0.44401845       0.88911647       0.95539999 </v>
   <v>       0.55578315       0.77735180       0.04460000 </v>
   <v>       0.77735180       0.22244981       0.95539999 </v>
   <v>       0.88911647       0.11068511       0.04460000 </v>
   <v>       0.77735180       0.55578315       0.95539999 </v>
   <v>       0.88911647       0.44401845       0.04460000 </v>
   <v>       0.77735180       0.88911647       0.95539999 </v>
   <v>       0.88911647       0.77735180       0.04460000 </v>
  </varray>
 </structure>
 <calculation>
  <scstep>
   <time name="dav">   21.92   21.98</time>
   <time name="total">   21.97   22.03</time>
   <energy>
    <i name="alphaZ">     81.65567618 </i>
    <i name="ewald">  41890.23010373 </i>
    <i name="hartreedc"> -47722.85855721 </i>
    <i name="XCdc">   -242.92965735 </i>
    <i name="pawpsdc">   3467.42045192 </i>
    <i name="pawaedc">  -2871.19716117 </i>
    <i name="eentropy">     -0.53217306 </i>
    <i name="bandstr">   -238.74057587 </i>
    <i name="atom">   6761.44252427 </i>
    <i name="e_fr_energy">   1124.49063143 </i>
    <i name="e_wo_entrp">   1125.02280449 </i>
    <i name="e_0_energy">   1124.75671796 </i>
   </energy>
  </scstep>
  <scstep>
   <time name="dav">   28.44   28.51</time>
   <time name="total">   28.45   28.52</time>
   <energy>
    <i name="e_fr_energy">     -1.21578321 </i>
    <i name="e_wo_entrp">     -1.00978831 </i>
    <i name="e_0_energy">     -1.11278576 </i>
   </energy>
  </scstep>
  <scstep>
   <time name="dav">   27.64   27.70</time>
   <time name="total">   27.64   27.71</time>
   <energy>
    <i name="e_fr_energy">   -199.73879913 </i>
    <i name="e_wo_entrp">   -199.46317222 </i>
    <i name="e_0_energy">   -199.60098567 </i>
   </energy>
  </scstep>
  <scstep>
   <time name="dav">   30.03   30.10</time>
   <time name="total">   30.03   30.11</time>
   <energy>
    <i name="e_fr_energy">   -208.89343503 </i>
    <i name="e_wo_entrp">   -208.58459660 </i>
    <i name="e_0_energy">   -208.73901581 </i>
   </energy>
  </scstep>
  <scstep>
   <time name="dav">   28.86   28.93</time>
   <time name="total">   29.32   29.40</time>
   <energy>
    <i name="e_fr_energy">   -209.24881586 </i>
    <i name="e_wo_entrp">   -208.94376124 </i>
    <i name="e_0_energy">   -209.09628855 </i>
   </energy>
  </scstep>
  <scstep>
   <time name="dav">   31.64   31.72</time>
   <time name="total">   32.13   32.22</time>
   <energy>
    <i name="e_fr_energy">   -236.67258236 </i>
    <i name="e_wo_entrp">   -236.39754891 </i>
    <i name="e_0_energy">   -236.53506564 </i>
   </energy>
  </scstep>
  <scstep>
   <time name="dav">   31.81   31.89</time>
   <time name="total">   32.32   32.40</time>
   <energy>
    <i name="e_fr_energy">   -196.77018415 </i>
    <i name="e_wo_entrp">   -196.42974414 </i>
    <i name="e_0_energy">   -196.59996414 </i>
   </energy>
  </scstep>
  <scstep>
   <time name="dav">   29.81   29.88</time>
   <time name="total">   30.32   30.40</time>
   <energy>
    <i name="e_fr_energy">   -190.22313290 </i>
    <i name="e_wo_entrp">   -189.95542752 </i>
    <i name="e_0_energy">   -190.08928021 </i>
   </energy>
  </scstep>
  <scstep>
   <time name="dav">   30.07   30.14</time>
   <time name="total">   30.59   30.67</time>
   <energy>
    <i name="e_fr_energy">   -188.30744865 </i>
    <i name="e_wo_entrp">   -187.97826979 </i>
    <i name="e_0_energy">   -188.14285922 </i>
   </energy>
  </scstep>
  <scstep>
   <time name="dav">   32.39   32.47</time>
   <time name="total">   32.91   33.00</time>
   <energy>
    <i name="e_fr_energy">   -187.16414179 </i>
    <i name="e_wo_entrp">   -186.82232584 </i>
    <i name="e_0_energy">   -186.99323381 </i>
   </energy>
  </scstep>
  <scstep>
   <time name="dav">   31.08   31.15</time>
   <time name="total">   31.61   31.70</time>
   <energy>
    <i name="e_fr_energy">   -187.00053492 </i>
    <i name="e_wo_entrp">   -186.65174888 </i>
    <i name="e_0_energy">   -186.82614190 </i>
   </energy>
  </scstep>
  <scstep>
   <time name="dav">   32.31   32.38</time>
   <time name="total">   32.84   32.92</time>
   <energy>
    <i name="e_fr_energy">   -187.08430771 </i>
    <i name="e_wo_entrp">   -186.75093426 </i>
    <i name="e_0_energy">   -186.91762098 </i>
   </energy>
  </scstep>
  <scstep>
   <time name="dav">   32.32   32.40</time>
   <time name="total">   32.85   32.94</time>
   <energy>
    <i name="e_fr_energy">   -186.93677466 </i>
    <i name="e_wo_entrp">   -186.60134574 </i>
    <i name="e_0_energy">   -186.76906020 </i>
   </energy>
  </scstep>
  <scstep>
   <time name="dav">   32.41   32.49</time>
   <time name="total">   32.94   33.03</time>
   <energy>
    <i name="e_fr_energy">   -186.90375979 </i>
    <i name="e_wo_entrp">   -186.56300460 </i>
    <i name="e_0_energy">   -186.73338220 </i>
   </energy>
  </scstep>
  <scstep>
   <time name="dav">   31.72   31.80</time>
   <time name="total">   32.26   32.34</time>
   <energy>
    <i name="e_fr_energy">   -186.89663531 </i>
    <i name="e_wo_entrp">   -186.55342288 </i>
    <i name="e_0_energy">   -186.72502910 </i>
   </energy>
  </scstep>
  <scstep>
   <time name="dav">   31.67   31.75</time>
   <time name="total">   32.20   32.29</time>
   <energy>
    <i name="e_fr_energy">   -186.88925769 </i>
    <i name="e_wo_entrp">   -186.54574705 </i>
    <i name="e_0_energy">   -186.71750237 </i>
   </energy>
  </scstep>
  <scstep>
   <time name="dav">   31.68   31.75</time>
   <time name="total">   32.21   32.29</time>
   <energy>
    <i name="e_fr_energy">   -186.88697854 </i>
    <i name="e_wo_entrp">   -186.54461232 </i>
    <i name="e_0_energy">   -186.71579543 </i>
   </energy>
  </scstep>
  <scstep>
   <time name="dav">   31.21   31.29</time>
   <time name="total">   31.74   31.83</time>
   <energy>
    <i name="e_fr_energy">   -186.88605357 </i>
    <i name="e_wo_entrp">   -186.54471301 </i>
    <i name="e_0_energy">   -186.71538329 </i>
   </energy>
  </scstep>
  <scstep>
   <time name="dav">   28.88   28.95</time>
   <time name="total">   29.42   29.50</time>
   <energy>
    <i name="e_fr_energy">   -186.88574731 </i>
    <i name="e_wo_entrp">   -186.54378985 </i>
    <i name="e_0_energy">   -186.71476858 </i>
   </energy>
  </scstep>
  <scstep>
   <time name="dav">   24.12   24.18</time>
   <time name="total">   24.65   24.72</time>
   <energy>
    <i name="e_fr_energy">   -186.88654431 </i>
    <i name="e_wo_entrp">   -186.54494214 </i>
    <i name="e_0_energy">   -186.71574323 </i>
   </energy>
  </scstep>
  <scstep>
   <time name="dav">   22.14   22.19</time>
   <time name="total">   22.67   22.74</time>
   <energy>
    <i name="e_fr_energy">   -186.88711554 </i>
    <i name="e_wo_entrp">   -186.54542563 </i>
    <i name="e_0_energy">   -186.71627058 </i>
   </energy>
  </scstep>
  <scstep>
   <time name="dav">   20.58   20.63</time>
   <time name="total">   21.11   21.17</time>
   <energy>
    <i name="e_fr_energy">   -186.88821683 </i>
    <i name="e_wo_entrp">   -186.54649158 </i>
    <i name="e_0_energy">   -186.71735421 </i>
   </energy>
  </scstep>
  <scstep>
   <time name="dav">   20.40   20.45</time>
   <time name="total">   20.93   20.99</time>
   <energy>
    <i name="e_fr_energy">   -186.88945335 </i>
    <i name="e_wo_entrp">   -186.54784928 </i>
    <i name="e_0_energy">   -186.71865131 </i>
   </energy>
  </scstep>
  <scstep>
   <time name="dav">   19.09   19.14</time>
   <time name="total">   19.62   19.68</time>
   <energy>
    <i name="e_fr_energy">   -186.89003542 </i>
    <i name="e_wo_entrp">   -186.54838504 </i>
    <i name="e_0_energy">   -186.71921023 </i>
   </energy>
  </scstep>
  <scstep>
   <time name="dav">   16.35   16.39</time>
   <time name="total">   16.89   16.94</time>
   <energy>
    <i name="e_fr_energy">   -186.89041675 </i>
    <i name="e_wo_entrp">   -186.54873652 </i>
    <i name="e_0_energy">   -186.71957664 </i>
   </energy>
  </scstep>
  <scstep>
   <time name="dav">   19.11   19.16</time>
   <time name="total">   19.65   20.02</time>
   <energy>
    <i name="e_fr_energy">   -186.89065670 </i>
    <i name="e_wo_entrp">   -186.54899360 </i>
    <i name="e_0_energy">   -186.71982515 </i>
   </energy>
  </scstep>
  <scstep>
   <time name="dav">   20.10   20.15</time>
   <time name="total">   20.14   20.19</time>
   <energy>
    <i name="alphaZ">     81.65567618 </i>
    <i name="ewald">  41890.23010373 </i>
    <i name="hartreedc"> -47833.15345795 </i>
    <i name="XCdc">   -231.59892674 </i>
    <i name="pawpsdc">   4192.17898601 </i>
    <i name="pawaedc">  -3610.20293597 </i>
    <i name="eentropy">     -0.34166531 </i>
    <i name="bandstr">  -1437.10105922 </i>
    <i name="atom">   6761.44252427 </i>
    <i name="e_fr_energy">   -186.89075500 </i>
    <i name="e_wo_entrp">   -186.54908969 </i>
    <i name="e_0_energy">   -186.71992235 </i>
   </energy>
  </scstep>
  <structure>
   <crystal>
    <varray name="basis" >
     <v>       8.66999996       5.03999989       0.00000000 </v>
     <v>      -8.66999982       5.04000013       0.00000000 </v>
     <v>       0.00000000       0.00000000      30.00000000 </v>
    </varray>
    <i name="volume">   2621.80797419 </i>
    <varray name="rec_basis" >
     <v>       0.05767013       0.09920635       0.00000000 </v>
     <v>      -0.05767013       0.09920635       0.00000000 </v>
     <v>       0.00000000       0.00000000       0.03333333 </v>
    </varray>
   </crystal>
   <varray name="positions" >
    <v>       0.33333334       0.00000000       0.00000000 </v>
    <v>       0.66666669       0.00000000       0.00000000 </v>
    <v>       1.00000000       0.33333334       0.00000000 </v>
    <v>       0.00000000       0.00000000       0.00000000 </v>
    <v>       0.00000000       0.66666669       0.00000000 </v>
    <v>       0.66666669       0.66666669       0.00000000 </v>
    <v>       0.33333334       0.33333334       0.00000000 </v>
    <v>       0.33333334       0.66666669       0.00000000 </v>
    <v>       0.66666669       0.33333334       0.00000000 </v>
    <v>       0.11068511       0.22244981       0.95539999 </v>
    <v>       0.22244981       0.11068511       0.04460000 </v>
    <v>       0.11068511       0.55578315       0.95539999 </v>
    <v>       0.22244981       0.44401845       0.04460000 </v>
    <v>       0.11068511       0.88911647       0.95539999 </v>
    <v>       0.22244981       0.77735180       0.04460000 </v>
    <v>       0.44401845       0.22244981       0.95539999 </v>
    <v>       0.55578315       0.11068511       0.04460000 </v>
    <v>       0.44401845       0.55578315       0.95539999 </v>
    <v>       0.55578315       0.44401845       0.04460000 </v>
    <v>       0.44401845       0.88911647       0.95539999 </v>
    <v>       0.55578315       0.77735180       0.04460000 </v>
    <v>       0.77735180       0.22244981       0.95539999 </v>
    <v>       0.88911647       0.11068511       0.04460000 </v>
    <v>       0.77735180       0.55578315       0.95539999 </v>
    <v>       0.88911647       0.44401845       0.04460000 </v>
    <v>       0.77735180       0.88911647       0.95539999 </v>
    <v>       0.88911647       0.77735180       0.04460000 </v>
   </varray>
  </structure>
  <varray name="forces" >
   <v>      -0.14513478      -0.30327140      -0.06989139 </v>
   <v>       0.35875223       0.04105328       0.04570884 </v>
   <v>       0.00767180      -0.06033306       0.09007548 </v>
   <v>       0.21289563      -0.43499144       0.00145894 </v>
   <v>      -0.53410989      -0.00930516      -0.14527207 </v>
   <v>       0.27152344       0.42178303      -0.01827249 </v>
   <v>       0.00332195      -0.06001747       0.09468506 </v>
   <v>      -0.08489074       0.06456434      -0.04638105 </v>
   <v>      -0.12100664       0.38082278       0.05019080 </v>
   <v>      -0.65816593       0.14587423      -2.07362960 </v>
   <v>       0.64948234       0.16761107       2.09431170 </v>
   <v>       0.60561474      -0.54133918      -2.10607250 </v>
   <v>      -0.46115531      -0.60063067       2.21829817 </v>
   <v>       0.54710088       0.70323729      -2.19214887 </v>
   <v>      -0.35369971       0.69670800       2.13683527 </v>
   <v>       0.49056911      -0.59967689      -2.17957180 </v>
   <v>       0.23035470      -0.52253971       1.36043969 </v>
   <v>       0.06326313      -0.10002804      -2.86086104 </v>
   <v>      -0.07873593      -0.13777693       2.91249390 </v>
   <v>      -0.25542080       0.50793181      -1.43975181 </v>
   <v>      -0.60262437       0.53950256       2.14242817 </v>
   <v>       0.74623567      -0.00271467      -1.46118681 </v>
   <v>      -0.91378411       0.00873261       1.46242199 </v>
   <v>       0.20945166      -0.13402777      -2.93549130 </v>
   <v>       0.69455051      -0.16437155       2.11041031 </v>
   <v>      -0.74575972      -0.00426835      -2.13076382 </v>
   <v>      -0.13629987      -0.00252871       2.93953623 </v>
  </varray>
  <varray name="stress" >
   <v>       7.43151510      -0.03959566      -1.61160439 </v>
   <v>      -0.03959573       4.34133477       0.00797479 </v>
   <v>      -1.61160441       0.00797478      30.27856094 </v>
  </varray>
  <energy>
   <i name="e_fr_energy">   -186.89075500 </i>
   <i name="e_wo_entrp">   -186.71992235 </i>
   <i name="e_0_energy">     -0.34166531 </i>
  </energy>
  <time name="totalsc">  791.13  793.56</time>
 </calculation>
 <calculation>
  <scstep>
   <time name="dav">   21.85   21.90</time>
   <time name="total">   22.39   22.45</time>
   <energy>
    <i name="alphaZ">     78.91739591 </i>
    <i name="ewald">  39378.51178623 </i>
    <i name="hartreedc"> -45336.08050249 </i>
    <i name="XCdc">   -239.05508572 </i>
    <i name="pawpsdc">   4192.15928407 </i>
    <i name="pawaedc">  -3610.18344223 </i>
    <i name="eentropy">     -0.27968749 </i>
    <i name="bandstr">  -1412.96528185 </i>
    <i name="atom">   6761.44252427 </i>
    <i name="e_fr_energy">   -187.53300929 </i>
    <i name="e_wo_entrp">   -187.25332181 </i>
    <i name="e_0_energy">   -187.39316555 </i>
   </energy>
  </scstep>
  <scstep>
   <time name="dav">   30.61   30.69</time>
   <time name="total">   31.15   31.23</time>
   <energy>
    <i name="e_fr_energy">   -189.54533247 </i>
    <i name="e_wo_entrp">   -189.21176691 </i>
    <i name="e_0_energy">   -189.37854969 </i>
   </energy>
  </scstep>
  <scstep>
   <time name="dav">   30.60   30.68</time>
   <time name="total">   31.16   31.24</time>
   <energy>
    <i name="e_fr_energy">   -189.35726785 </i>
    <i name="e_wo_entrp">   -189.08605957 </i>
    <i name="e_0_energy">   -189.22166371 </i>
   </energy>
  </scstep>
  <scstep>
   <time name="dav">   30.94   31.01</time>
   <time name="total">   31.48   31.57</time>
   <energy>
    <i name="e_fr_energy">   -188.78772423 </i>
    <i name="e_wo_entrp">   -188.50810612 </i>
    <i name="e_0_energy">   -188.64791518 </i>
   </energy>
  </scstep>
  <scstep>
   <time name="dav">   29.43   29.50</time>
   <time name="total">   29.97   30.05</time>
   <energy>
    <i name="e_fr_energy">   -188.88656199 </i>
    <i name="e_wo_entrp">   -188.59691443 </i>
    <i name="e_0_energy">   -188.74173821 </i>
   </energy>
  </scstep>
  <scstep>
   <time name="dav">   31.63   31.70</time>
   <time name="total">   32.17   32.26</time>
   <energy>
    <i name="e_fr_energy">   -188.75523047 </i>
    <i name="e_wo_entrp">   -188.47654541 </i>
    <i name="e_0_energy">   -188.61588794 </i>
   </energy>
  </scstep>
  <scstep>
   <time name="dav">   29.42   29.49</time>
   <time name="total">   29.96   30.04</time>
   <energy>
    <i name="e_fr_energy">   -188.72972079 </i>
    <i name="e_wo_entrp">   -188.45069532 </i>
    <i name="e_0_energy">   -188.59020806 </i>
   </energy>
  </scstep>
  <scstep>
   <time name="dav">   33.13   33.21</time>
   <time name="total">   33.67   33.76</time>
   <energy>
    <i name="e_fr_energy">   -188.71209004 </i>
    <i name="e_wo_entrp">   -188.43266152 </i>
    <i name="e_0_energy">   -188.57237578 </i>
   </energy>
  </scstep>
  <scstep>
   <time name="dav">   29.98   30.05</time>
   <time name="total">   30.52   30.60</time>
   <energy>
    <i name="e_fr_energy">   -188.70164279 </i>
    <i name="e_wo_entrp">   -188.42312401 </i>
    <i name="e_0_energy">   -188.56238340 </i>
   </energy>
  </scstep>
  <scstep>
   <time name="dav">   28.37   28.44</time>
   <time name="total">   28.92   28.99</time>
   <energy>
    <i name="e_fr_energy">   -188.70104064 </i>
    <i name="e_wo_entrp">   -188.42291982 </i>
    <i name="e_0_energy">   -188.56198023 </i>
   </energy>
  </scstep>
  <scstep>
   <time name="dav">   31.03   31.11</time>
   <time name="total">   31.58   31.66</time>
   <energy>
    <i name="e_fr_energy">   -188.70043563 </i>
    <i name="e_wo_entrp">   -188.42258013 </i>
    <i name="e_0_energy">   -188.56150788 </i>
   </energy>
  </scstep>
  <scstep>
   <time name="dav">   27.45   27.51</time>
   <time name="total">   27.99   28.07</time>
   <energy>
    <i name="e_fr_energy">   -188.70057221 </i>
    <i name="e_wo_entrp">   -188.42272077 </i>
    <i name="e_0_energy">   -188.56164649 </i>
   </energy>
  </scstep>
  <scstep>
   <time name="dav">   22.05   22.11</time>
   <time name="total">   22.09   22.15</time>
   <energy>
    <i name="alphaZ">     78.91739591 </i>
    <i name="ewald">  39378.51178623 </i>
    <i name="hartreedc"> -45346.81127947 </i>
    <i name="XCdc">   -237.96878551 </i>
    <i name="pawpsdc">   3950.52259842 </i>
    <i name="pawaedc">  -3365.04253215 </i>
    <i name="eentropy">     -0.27788748 </i>
    <i name="bandstr">  -1407.99437780 </i>
    <i name="atom">   6761.44252427 </i>
    <i name="e_fr_energy">   -188.70055758 </i>
    <i name="e_wo_entrp">   -188.42267010 </i>
    <i name="e_0_energy">   -188.56161384 </i>
   </energy>
  </scstep>
  <structure>
   <crystal>
    <varray name="basis" >
     <v>       8.85780488       5.10297133       0.00000000 </v>
     <v>      -8.85897172       5.10497907       0.00000000 </v>
     <v>       0.00000000       0.00000000      30.00000000 </v>
    </varray>
    <i name="volume">   2712.77961545 </i>
    <varray name="rec_basis" >
     <v>       0.05645478       0.09796931       0.00000000 </v>
     <v>      -0.05643258       0.09795641       0.00000000 </v>
     <v>       0.00000000       0.00000000       0.03333333 </v>
    </varray>
   </crystal>
   <varray name="positions" >
    <v>       0.33147810      -0.00104766      -0.00011239 </v>
    <v>       0.66786127      -0.00080163       0.00007350 </v>
    <v>       0.99973259       0.33302325       0.00014485 </v>
    <v>      -0.00148955      -0.00267417       0.00000235 </v>
    <v>      -0.00153051       0.66810813      -0.00023361 </v>
    <v>       0.66944075       0.66792991      -0.00002938 </v>
    <v>       0.33305534       0.33303686       0.00015226 </v>
    <v>       0.33340617       0.66721187      -0.00007458 </v>
    <v>       0.66815264       0.33549261       0.00008071 </v>
    <v>       0.10955214       0.22497908       0.95206541 </v>
    <v>       0.22505896       0.10968033       0.04796784 </v>
    <v>       0.10977919       0.55150740       0.95201324 </v>
    <v>       0.21829220       0.44242686       0.04816722 </v>
    <v>       0.11557291       0.89096002       0.95187482 </v>
    <v>       0.22480019       0.78167027       0.04803622 </v>
    <v>       0.44251326       0.21821493       0.95189505 </v>
    <v>       0.55392317       0.10754336       0.04678771 </v>
    <v>       0.44371573       0.55512841       0.95079947 </v>
    <v>       0.55490470       0.44357811       0.04928355 </v>
    <v>       0.44573878       0.89225804       0.95308474 </v>
    <v>       0.55668860       0.78161044       0.04804521 </v>
    <v>       0.77941495       0.22036067       0.95305027 </v>
    <v>       0.88661597       0.11326920       0.04695170 </v>
    <v>       0.77729307       0.55455897       0.95067946 </v>
    <v>       0.89026214       0.44129942       0.04799373 </v>
    <v>       0.77525655       0.89117086       0.95197353 </v>
    <v>       0.88872516       0.77771890       0.04932703 </v>
   </varray>
  </structure>
  <varray name="forces" >
   <v>      -0.13187173      -0.28133202       0.05086612 </v>
   <v>       0.29306604       0.00575946       0.09685412 </v>
   <v>       0.06226135       0.02436425      -0.03740201 </v>
   <v>       0.32274249      -0.49974026      -0.01017191 </v>
   <v>      -0.64640768      -0.10687609      -0.03059907 </v>
   <v>       0.44594686       0.35812895      -0.00165123 </v>
   <v>      -0.05069335       0.08674059      -0.05803712 </v>
   <v>       0.07201742      -0.05044700      -0.08247671 </v>
   <v>      -0.34135756       0.41337588       0.10405904 </v>
   <v>       0.02677347       0.09509137       0.14001678 </v>
   <v>      -0.01496624       0.10218558      -0.02448727 </v>
   <v>       0.07174768       0.05894048       0.12471487 </v>
   <v>       0.04568956       0.04211841      -0.01472641 </v>
   <v>       0.02224865       0.06341065      -0.20405170 </v>
   <v>       0.10488855       0.04583751      -0.08888691 </v>
   <v>      -0.03924359       0.05431672       0.14288484 </v>
   <v>      -0.06276920       0.08083868      -0.31429204 </v>
   <v>      -0.06099548      -0.08918976       0.10858264 </v>
   <v>       0.05996207      -0.08559150       0.03160246 </v>
   <v>       0.05720884      -0.06851805       0.11074587 </v>
   <v>      -0.07544003      -0.05439332      -0.05453073 </v>
   <v>      -0.10446694      -0.00666703       0.18258080 </v>
   <v>      -0.02594007      -0.01560527      -0.06539728 </v>
   <v>       0.04980338      -0.09532762      -0.28319425 </v>
   <v>      -0.03128570      -0.09450249      -0.00977040 </v>
   <v>      -0.06062588       0.00980036      -0.16672435 </v>
   <v>       0.01170710       0.00728151       0.35349183 </v>
  </varray>
  <varray name="stress" >
   <v>     -19.89932901       0.01268908       0.04992398 </v>
   <v>       0.01268909     -19.44015701       0.01122528 </v>
   <v>       0.04992405       0.01122541      -1.75213383 </v>
  </varray>
  <energy>
   <i name="e_fr_energy">   -188.70055758 </i>
   <i name="e_wo_entrp">   -188.56161384 </i>
   <i name="e_0_energy">     -0.27788748 </i>
  </energy>
  <time name="totalsc">  424.90  426.03</time>
 </calculation>
 <calculation>
  <scstep>
   <time name="dav">   23.62   23.68</time>
   <time name="total">   24.16   24.22</time>
   <energy>
    <i name="alphaZ">     82.34471769 </i>
    <i name="ewald">  41303.39647703 </i>
    <i name="hartreedc"> -47302.14819006 </i>
    <i name="XCdc">   -233.84429473 </i>
    <i name="pawpsdc">   3949.66717703 </i>
    <i name="pawaedc">  -3364.17967083 </i>
    <i name="eentropy">     -0.23478175 </i>
    <i name="bandstr">  -1387.07262924 </i>
    <i name="atom">   6761.44252427 </i>
    <i name="e_fr_energy">   -190.62867059 </i>
    <i name="e_wo_entrp">   -190.39388884 </i>
    <i name="e_0_energy">   -190.51127971 </i>
   </energy>
  </scstep>
  <scstep>
   <time name="dav">   28.17   28.23</time>
   <time name="total">   28.68   28.76</time>
   <energy>
    <i name="e_fr_energy">   -190.57509698 </i>
    <i name="e_wo_entrp">   -190.34140510 </i>
    <i name="e_0_energy">   -190.45825104 </i>
   </energy>
  </scstep>
  <scstep>
   <time name="dav">   30.39   30.46</time>
   <time name="total">   30.91   31.00</time>
   <energy>
    <i name="e_fr_energy">   -190.11049192 </i>
    <i name="e_wo_entrp">   -189.86007144 </i>
    <i name="e_0_energy">   -189.98528168 </i>
   </energy>
  </scstep>
  <scstep>
   <time name="dav">   31.38   31.46</time>
   <time name="total">   31.91   32.00</time>
   <energy>
    <i name="e_fr_energy">   -189.90081825 </i>
    <i name="e_wo_entrp">   -189.66761396 </i>
    <i name="e_0_energy">   -189.78421611 </i>
   </energy>
  </scstep>
  <scstep>
   <time name="dav">   30.23   30.31</time>
   <time name="total">   30.76   30.84</time>
   <energy>
    <i name="e_fr_energy">   -189.88177329 </i>
    <i name="e_wo_entrp">   -189.64367675 </i>
    <i name="e_0_energy">   -189.76272502 </i>
   </energy>
  </scstep>
  <scstep>
   <time name="dav">   31.02   31.09</time>
   <time name="total">   31.55   31.63</time>
   <energy>
    <i name="e_fr_energy">   -189.80210432 </i>
    <i name="e_wo_entrp">   -189.56505980 </i>
    <i name="e_0_energy">   -189.68358206 </i>
   </energy>
  </scstep>
  <scstep>
   <time name="dav">   28.78   28.85</time>
   <time name="total">   29.31   29.39</time>
   <energy>
    <i name="e_fr_energy">   -189.79577554 </i>
    <i name="e_wo_entrp">   -189.55939066 </i>
    <i name="e_0_energy">   -189.67758310 </i>
   </energy>
  </scstep>
  <scstep>
   <time name="dav">   30.13   30.20</time>
   <time name="total">   30.66   30.74</time>
   <energy>
    <i name="e_fr_energy">   -189.79645852 </i>
    <i name="e_wo_entrp">   -189.56003636 </i>
    <i name="e_0_energy">   -189.67824744 </i>
   </energy>
  </scstep>
  <scstep>
   <time name="dav">   26.73   26.80</time>
   <time name="total">   27.27   27.34</time>
   <energy>
    <i name="e_fr_energy">   -189.79574694 </i>
    <i name="e_wo_entrp">   -189.55926546 </i>
    <i name="e_0_energy">   -189.67750620 </i>
   </energy>
  </scstep>
  <scstep>
   <time name="dav">   25.21   25.27</time>
   <time name="total">   25.74   25.81</time>
   <energy>
    <i name="e_fr_energy">   -189.79605739 </i>
    <i name="e_wo_entrp">   -189.55960135 </i>
    <i name="e_0_energy">   -189.67782937 </i>
   </energy>
  </scstep>
  <scstep>
   <time name="dav">   24.01   24.07</time>
   <time name="total">   24.54   24.61</time>
   <energy>
    <i name="e_fr_energy">   -189.79578182 </i>
    <i name="e_wo_entrp">   -189.55921452 </i>
    <i name="e_0_energy">   -189.67749817 </i>
   </energy>
  </scstep>
  <scstep>
   <time name="dav">   20.15   20.19</time>
   <time name="total">   20.18   20.24</time>
   <energy>
    <i name="alphaZ">     82.34471769 </i>
    <i name="ewald">  41303.39647703 </i>
    <i name="hartreedc"> -47275.66619540 </i>
    <i name="XCdc">   -235.23606151 </i>
    <i name="pawpsdc">   4039.02859704 </i>
    <i name="pawaedc">  -3454.74504916 </i>
    <i name="eentropy">     -0.23655631 </i>
    <i name="bandstr">  -1410.12426064 </i>
    <i name="atom">   6761.44252427 </i>
    <i name="e_fr_energy">   -189.79580698 </i>
    <i name="e_wo_entrp">   -189.55925067 </i>
    <i name="e_0_energy">   -189.67752883 </i>
   </energy>
  </scstep>
  <structure>
   <crystal>
    <varray name="basis" >
     <v>       8.66940266       4.99701874       0.00000000 </v>
     <v>      -8.67040618       4.99874436       0.00000000 </v>
     <v>       0.00000000       0.00000000      30.00000000 </v>
    </varray>
    <i name="volume">   2599.86929273 </i>
    <varray name="rec_basis" >
     <v>       0.05768072       0.10004818       0.00000000 </v>
     <v>      -0.05766081       0.10003660       0.00000000 </v>
     <v>       0.00000000       0.00000000       0.03333333 </v>
    </varray>
   </crystal>
   <varray name="positions" >
    <v>       0.33088122      -0.00139066      -0.00008348 </v>
    <v>       0.66815300      -0.00107400       0.00012855 </v>
    <v>       0.99983322       0.33300403       0.00012359 </v>
    <v>      -0.00201367      -0.00381939      -0.00000344 </v>
    <v>      -0.00233127       0.66855161      -0.00025100 </v>
    <v>       0.67046825       0.66809897      -0.00003032 </v>
    <v>       0.33315144       0.33323051       0.00011928 </v>
    <v>       0.33339122       0.66705832      -0.00012146 </v>
    <v>       0.66851457       0.33651150       0.00013985 </v>
    <v>       0.10973675       0.22511214       0.95214499 </v>
    <v>       0.22521524       0.10986540       0.04795392 </v>
    <v>       0.10994671       0.55153681       0.95208412 </v>
    <v>       0.21840653       0.44245324       0.04815885 </v>
    <v>       0.11570025       0.89104452       0.95175885 </v>
    <v>       0.22497772       0.78164591       0.04798570 </v>
    <v>       0.44256621       0.21834341       0.95197626 </v>
    <v>       0.55399779       0.10773878       0.04660908 </v>
    <v>       0.44350803       0.55503814       0.95086119 </v>
    <v>       0.55481944       0.44337746       0.04930151 </v>
    <v>       0.44567940       0.89208855       0.95314768 </v>
    <v>       0.55652512       0.78159218       0.04801422 </v>
    <v>       0.77930326       0.22045005       0.95315404 </v>
    <v>       0.88656493       0.11326809       0.04691453 </v>
    <v>       0.77718177       0.55435183       0.95051851 </v>
    <v>       0.89007416       0.44117169       0.04798817 </v>
    <v>       0.77521456       0.89124556       0.95187877 </v>
    <v>       0.88874859       0.77771980       0.04952794 </v>
   </varray>
  </structure>
  <varray name="forces" >
   <v>      -0.14902739      -0.27861018       0.06987792 </v>
   <v>       0.28607608      -0.01717900       0.08776864 </v>
   <v>       0.08627999       0.07929164      -0.05715443 </v>
   <v>       0.35228971      -0.49310765      -0.01276003 </v>
   <v>      -0.67355782      -0.14147867       0.00152936 </v>
   <v>       0.49870150       0.31499644       0.00200718 </v>
   <v>      -0.07113210       0.13394428      -0.07614680 </v>
   <v>       0.12744561      -0.09873943      -0.06275808 </v>
   <v>      -0.41635798       0.41784957       0.08694396 </v>
   <v>      -0.07054018       0.00224852      -0.33500989 </v>
   <v>       0.08420992       0.01858469       0.46194076 </v>
   <v>       0.04183214      -0.07521474      -0.35322464 </v>
   <v>      -0.03364741      -0.08026388       0.50871924 </v>
   <v>       0.05319937       0.12126561      -0.71611531 </v>
   <v>      -0.01522563       0.08395417       0.39055880 </v>
   <v>       0.04623413      -0.05723121      -0.35362950 </v>
   <v>       0.00854840      -0.04079991       0.11764580 </v>
   <v>      -0.01025524      -0.00490888      -0.43432305 </v>
   <v>       0.00625110      -0.01070677       0.59799573 </v>
   <v>      -0.02377975       0.08093363      -0.35019598 </v>
   <v>      -0.05422940       0.07051236       0.43344526 </v>
   <v>       0.03585151      -0.01179130      -0.26092521 </v>
   <v>      -0.07902344      -0.01133173       0.38072044 </v>
   <v>       0.01044944      -0.02521514      -0.86583677 </v>
   <v>       0.07387046       0.00326427       0.48640645 </v>
   <v>      -0.12778379       0.00938326      -0.66420607 </v>
   <v>       0.01332077       0.01035001       0.91672620 </v>
  </varray>
  <varray name="stress" >
   <v>     -10.14829471       0.00803906       0.04919850 </v>
   <v>       0.00803901      -9.78270050       0.01088124 </v>
   <v>       0.04919856       0.01088132       6.48996443 </v>
  </varray>
  <energy>
   <i name="e_fr_energy">   -189.79580698 </i>
   <i name="e_wo_entrp">   -189.67752883 </i>
   <i name="e_0_energy">     -0.23655631 </i>
  </energy>
  <time name="totalsc">  377.45  378.46</time>
 </calculation>
 <calculation>
  <scstep>
   <time name="dav">   21.90   21.95</time>
   <time name="total">   22.42   22.47</time>
   <energy>
    <i name="alphaZ">     85.81334797 </i>
    <i name="ewald">  42830.80959989 </i>
    <i name="hartreedc"> -48847.42111180 </i>
    <i name="XCdc">   -232.95510177 </i>
    <i name="pawpsdc">   4039.11645525 </i>
    <i name="pawaedc">  -3454.83088310 </i>
    <i name="eentropy">     -0.20493583 </i>
    <i name="bandstr">  -1373.13686977 </i>
    <i name="atom">   6761.44252427 </i>
    <i name="e_fr_energy">   -191.36697490 </i>
    <i name="e_wo_entrp">   -191.16203906 </i>
    <i name="e_0_energy">   -191.26450698 </i>
   </energy>
  </scstep>
  <scstep>
   <time name="dav">   32.27   32.34</time>
   <time name="total">   32.78   32.86</time>
   <energy>
    <i name="e_fr_energy">   -191.20368931 </i>
    <i name="e_wo_entrp">   -190.99878805 </i>
    <i name="e_0_energy">   -191.10123868 </i>
   </energy>
  </scstep>
  <scstep>
   <time name="dav">   30.05   30.12</time>
   <time name="total">   30.55   30.64</time>
   <energy>
    <i name="e_fr_energy">   -191.31214285 </i>
    <i name="e_wo_entrp">   -191.08390208 </i>
    <i name="e_0_energy">   -191.19802247 </i>
   </energy>
  </scstep>
  <scstep>
   <time name="dav">   30.59   30.67</time>
   <time name="total">   31.11   31.19</time>
   <energy>
    <i name="e_fr_energy">   -190.93902572 </i>
    <i name="e_wo_entrp">   -190.73070802 </i>
    <i name="e_0_energy">   -190.83486687 </i>
   </energy>
  </scstep>
  <scstep>
   <time name="dav">   30.84   30.92</time>
   <time name="total">   31.36   31.44</time>
   <energy>
    <i name="e_fr_energy">   -190.89549540 </i>
    <i name="e_wo_entrp">   -190.68883042 </i>
    <i name="e_0_energy">   -190.79216291 </i>
   </energy>
  </scstep>
  <scstep>
   <time name="dav">   30.25   30.32</time>
   <time name="total">   30.76   30.85</time>
   <energy>
    <i name="e_fr_energy">   -190.80551083 </i>
    <i name="e_wo_entrp">   -190.59502503 </i>
    <i name="e_0_energy">   -190.70026793 </i>
   </energy>
  </scstep>
  <scstep>
   <time name="dav">   31.12   31.19</time>
   <time name="total">   31.63   31.72</time>
   <energy>
    <i name="e_fr_energy">   -190.79160109 </i>
    <i name="e_wo_entrp">   -190.58195181 </i>
    <i name="e_0_energy">   -190.68677645 </i>
   </energy>
  </scstep>
  <scstep>
   <time name="dav">   28.50   28.57</time>
   <time name="total">   29.01   29.09</time>
   <energy>
    <i name="e_fr_energy">   -190.79004810 </i>
    <i name="e_wo_entrp">   -190.58052181 </i>
    <i name="e_0_energy">   -190.68528495 </i>
   </energy>
  </scstep>
  <scstep>
   <time name="dav">   27.45   27.52</time>
   <time name="total">   27.97   28.04</time>
   <energy>
    <i name="e_fr_energy">   -190.78882968 </i>
    <i name="e_wo_entrp">   -190.57934195 </i>
    <i name="e_0_energy">   -190.68408581 </i>
   </energy>
  </scstep>
  <scstep>
   <time name="dav">   28.45   28.52</time>
   <time name="total">   28.97   29.05</time>
   <energy>
    <i name="e_fr_energy">   -190.78906936 </i>
    <i name="e_wo_entrp">   -190.57952190 </i>
    <i name="e_0_energy">   -190.68429563 </i>
   </energy>
  </scstep>
  <scstep>
   <time name="dav">   24.90   24.96</time>
   <time name="total">   25.42   25.49</time>
   <energy>
    <i name="e_fr_energy">   -190.78891609 </i>
    <i name="e_wo_entrp">   -190.57938685 </i>
    <i name="e_0_energy">   -190.68415147 </i>
   </energy>
  </scstep>
  <scstep>
   <time name="dav">   19.51   19.56</time>
   <time name="total">   19.55   19.72</time>
   <energy>
    <i name="alphaZ">     85.81334797 </i>
    <i name="ewald">  42830.80959989 </i>
    <i name="hartreedc"> -48818.93834444 </i>
    <i name="XCdc">   -234.28052732 </i>
    <i name="pawpsdc">   4064.20394781 </i>
    <i name="pawaedc">  -3480.10054419 </i>
    <i name="eentropy">     -0.20957101 </i>
    <i name="bandstr">  -1399.52934869 </i>
    <i name="atom">   6761.44252427 </i>
    <i name="e_fr_energy">   -190.78891571 </i>
    <i name="e_wo_entrp">   -190.57934470 </i>
    <i name="e_0_energy">   -190.68413021 </i>
   </energy>
  </scstep>
  <structure>
   <crystal>
    <varray name="basis" >
     <v>       8.48746307       4.89806868       0.00000000 </v>
     <v>      -8.48823362       4.89939247       0.00000000 </v>
     <v>       0.00000000       0.00000000      30.00000000 </v>
    </varray>
    <i name="volume">   2494.78091705 </i>
    <varray name="rec_basis" >
     <v>       0.05891570       0.10207189       0.00000000 </v>
     <v>      -0.05889979       0.10206263       0.00000000 </v>
     <v>       0.00000000       0.00000000       0.03333333 </v>
    </varray>
   </crystal>
   <varray name="positions" >
    <v>       0.32857823      -0.00256707       0.00007733 </v>
    <v>       0.66901228      -0.00226246       0.00030262 </v>
    <v>       1.00081326       0.33329148      -0.00001149 </v>
    <v>      -0.00377243      -0.00820895      -0.00003205 </v>
    <v>      -0.00577786       0.67005157      -0.00022063 </v>
    <v>       0.67421377       0.66808832      -0.00002307 </v>
    <v>       0.33382211       0.33447383      -0.00005375 </v>
    <v>       0.33319226       0.66577930      -0.00023473 </v>
    <v>       0.66953245       0.34075365       0.00030542 </v>
    <v>       0.10912529       0.22528962       0.95104903 </v>
    <v>       0.22557031       0.10932743       0.04932240 </v>
    <v>       0.10924970       0.55062330       0.95094797 </v>
    <v>       0.21736347       0.44188097       0.04965554 </v>
    <v>       0.11684105       0.89171194       0.94984229 </v>
    <v>       0.22537157       0.78249414       0.04920044 </v>
    <v>       0.44221957       0.21741756       0.95082354 </v>
    <v>       0.55357251       0.10704729       0.04721842 </v>
    <v>       0.44372267       0.55518139       0.94950209 </v>
    <v>       0.55488425       0.44355107       0.05101945 </v>
    <v>       0.44635654       0.89316969       0.95203220 </v>
    <v>       0.55711234       0.78251047       0.04932500 </v>
    <v>       0.77954739       0.22003272       0.95223819 </v>
    <v>       0.88614277       0.11356934       0.04808068 </v>
    <v>       0.77717952       0.55438688       0.94823214 </v>
    <v>       0.89075571       0.44101774       0.04941557 </v>
    <v>       0.77471414       0.89186135       0.95008207 </v>
    <v>       0.88887157       0.77774186       0.05190327 </v>
   </varray>
  </structure>
  <varray name="forces" >
   <v>      -0.13699747      -0.28211826       0.07287110 </v>
   <v>       0.24907480      -0.03951841       0.03918364 </v>
   <v>       0.13432418       0.13151926      -0.06171278 </v>
   <v>       0.34311980      -0.45347990      -0.02249171 </v>
   <v>      -0.64991441      -0.16334582       0.02540482 </v>
   <v>       0.52099520       0.24062944       0.00538371 </v>
   <v>      -0.10810853       0.17604083      -0.04983878 </v>
   <v>       0.15775498      -0.13444939      -0.01262551 </v>
   <v>      -0.43125013       0.41870733       0.02204552 </v>
   <v>       0.03709626      -0.08383158      -0.18738173 </v>
   <v>      -0.01609616      -0.03712619       0.26824417 </v>
   <v>      -0.08681409      -0.02294938      -0.20431776 </v>
   <v>      -0.01866672      -0.04783161       0.39289069 </v>
   <v>       0.00952766      -0.01161501      -0.55791057 </v>
   <v>      -0.03337183      -0.04434795       0.20856067 </v>
   <v>       0.04479915       0.00768703      -0.20442563 </v>
   <v>      -0.03467845       0.03542909       0.02920184 </v>
   <v>       0.04728999       0.10226832      -0.30111069 </v>
   <v>      -0.06294897       0.05557414       0.46295368 </v>
   <v>       0.00148800       0.03814887      -0.23740140 </v>
   <v>       0.05270867       0.02297143       0.26687248 </v>
   <v>      -0.02780353      -0.00153106      -0.13327007 </v>
   <v>       0.04465204      -0.01150723       0.30365771 </v>
   <v>      -0.00913867       0.04711871      -0.68209572 </v>
   <v>      -0.03538278       0.06167957       0.30844319 </v>
   <v>       0.01796531      -0.00555138      -0.46548290 </v>
   <v>      -0.00962431       0.00142915       0.71435202 </v>
  </varray>
  <varray name="stress" >
   <v>      -5.58190697       0.00084311      -0.14531284 </v>
   <v>       0.00084298      -5.78577997      -0.03450522 </v>
   <v>      -0.14531279      -0.03450537       4.48686639 </v>
  </varray>
  <energy>
   <i name="e_fr_energy">   -190.78891571 </i>
   <i name="e_wo_entrp">   -190.68413021 </i>
   <i name="e_0_energy">     -0.20957101 </i>
  </energy>
  <time name="totalsc">  383.33  384.46</time>
 </calculation>
 <calculation>
  <scstep>
   <time name="dav">   21.90   21.95</time>
   <time name="total">   22.40   22.46</time>
   <energy>
    <i name="alphaZ">     90.04558004 </i>
    <i name="ewald">  44613.78320025 </i>
    <i name="hartreedc"> -50655.59386388 </i>
    <i name="XCdc">   -231.88532606 </i>
    <i name="pawpsdc">   4064.14067624 </i>
    <i name="pawaedc">  -3480.03341979 </i>
    <i name="eentropy">     -0.20263572 </i>
    <i name="bandstr">  -1353.79314838 </i>
    <i name="atom">   6761.44252427 </i>
    <i name="e_fr_energy">   -192.09641304 </i>
    <i name="e_wo_entrp">   -191.89377732 </i>
    <i name="e_0_energy">   -191.99509518 </i>
   </energy>
  </scstep>
  <scstep>
   <time name="dav">   28.69   28.76</time>
   <time name="total">   29.19   29.27</time>
   <energy>
    <i name="e_fr_energy">   -191.85575233 </i>
    <i name="e_wo_entrp">   -191.64751711 </i>
    <i name="e_0_energy">   -191.75163472 </i>
   </energy>
  </scstep>
  <scstep>
   <time name="dav">   27.85   27.91</time>
   <time name="total">   28.35   28.42</time>
   <energy>
    <i name="e_fr_energy">   -192.05367843 </i>
    <i name="e_wo_entrp">   -191.83398261 </i>
    <i name="e_0_energy">   -191.94383052 </i>
   </energy>
  </scstep>
  <scstep>
   <time name="dav">   28.55   28.62</time>
   <time name="total">   29.05   29.13</time>
   <energy>
    <i name="e_fr_energy">   -191.74213357 </i>
    <i name="e_wo_entrp">   -191.52757930 </i>
    <i name="e_0_energy">   -191.63485644 </i>
   </energy>
  </scstep>
  <scstep>
   <time name="dav">   30.37   30.44</time>
   <time name="total">   30.88   30.96</time>
   <energy>
    <i name="e_fr_energy">   -191.57294361 </i>
    <i name="e_wo_entrp">   -191.37369965 </i>
    <i name="e_0_energy">   -191.47332163 </i>
   </energy>
  </scstep>
  <scstep>
   <time name="dav">   30.24   30.31</time>
   <time name="total">   30.75   30.83</time>
   <energy>
    <i name="e_fr_energy">   -191.44497996 </i>
    <i name="e_wo_entrp">   -191.23302128 </i>
    <i name="e_0_energy">   -191.33900062 </i>
   </energy>
  </scstep>
  <scstep>
   <time name="dav">   30.27   30.34</time>
   <time name="total">   30.77   30.85</time>
   <energy>
    <i name="e_fr_energy">   -191.43139549 </i>
    <i name="e_wo_entrp">   -191.22117136 </i>
    <i name="e_0_energy">   -191.32628343 </i>
   </energy>
  </scstep>
  <scstep>
   <time name="dav">   27.23   27.30</time>
   <time name="total">   27.73   27.81</time>
   <energy>
    <i name="e_fr_energy">   -191.42747283 </i>
    <i name="e_wo_entrp">   -191.21744218 </i>
    <i name="e_0_energy">   -191.32245750 </i>
   </energy>
  </scstep>
  <scstep>
   <time name="dav">   30.93   31.01</time>
   <time name="total">   31.44   31.52</time>
   <energy>
    <i name="e_fr_energy">   -191.42844400 </i>
    <i name="e_wo_entrp">   -191.21863168 </i>
    <i name="e_0_energy">   -191.32353784 </i>
   </energy>
  </scstep>
  <scstep>
   <time name="dav">   28.42   28.49</time>
   <time name="total">   28.93   29.00</time>
   <energy>
    <i name="e_fr_energy">   -191.42728161 </i>
    <i name="e_wo_entrp">   -191.21707075 </i>
    <i name="e_0_energy">   -191.32217618 </i>
   </energy>
  </scstep>
  <scstep>
   <time name="dav">   23.86   23.91</time>
   <time name="total">   23.89   23.96</time>
   <energy>
    <i name="alphaZ">     90.04558004 </i>
    <i name="ewald">  44613.78320025 </i>
    <i name="hartreedc"> -50622.70036599 </i>
    <i name="XCdc">   -233.36493005 </i>
    <i name="pawpsdc">   4086.04153753 </i>
    <i name="pawaedc">  -3502.04208096 </i>
    <i name="eentropy">     -0.21016642 </i>
    <i name="bandstr">  -1384.42264561 </i>
    <i name="atom">   6761.44252427 </i>
    <i name="e_fr_energy">   -191.42734694 </i>
    <i name="e_wo_entrp">   -191.21718052 </i>
    <i name="e_0_energy">   -191.32226373 </i>
   </energy>
  </scstep>
  <structure>
   <crystal>
    <varray name="basis" >
     <v>       8.29026782       4.77891239       0.00000000 </v>
     <v>      -8.29099741       4.78016410       0.00000000 </v>
     <v>       0.00000000       0.00000000      30.00000000 </v>
    </varray>
    <i name="volume">   2377.52372577 </i>
    <varray name="rec_basis" >
     <v>       0.06031693       0.10461722       0.00000000 </v>
     <v>      -0.06030113       0.10460801       0.00000000 </v>
     <v>       0.00000000       0.00000000       0.03333333 </v>
    </varray>
   </crystal>
   <varray name="positions" >
    <v>       0.32421553      -0.00495365       0.00037881 </v>
    <v>       0.67025949      -0.00451362       0.00047239 </v>
    <v>       1.00338576       0.33401439      -0.00026921 </v>
    <v>      -0.00682948      -0.01613246      -0.00011748 </v>
    <v>      -0.01236992       0.67259802      -0.00010326 </v>
    <v>       0.68077783       0.66730400      -0.00000030 </v>
    <v>       0.33525159       0.33739826      -0.00027936 </v>
    <v>       0.33265507       0.66293503      -0.00029137 </v>
    <v>       0.67147664       0.34888632       0.00040897 </v>
    <v>       0.10800180       0.22416188       0.94979228 </v>
    <v>       0.22512194       0.10860005       0.05093000 </v>
    <v>       0.10798842       0.55042262       0.94962156 </v>
    <v>       0.21612830       0.44118551       0.05174561 </v>
    <v>       0.11723086       0.89179005       0.94709547 </v>
    <v>       0.22474427       0.78267906       0.05056192 </v>
    <v>       0.44234705       0.21664876       0.94947905 </v>
    <v>       0.55345228       0.10710013       0.04778519 </v>
    <v>       0.44536763       0.55611542       0.94774383 </v>
    <v>       0.55519469       0.44477717       0.05343400 </v>
    <v>       0.44715484       0.89425247       0.95061096 </v>
    <v>       0.55811052       0.78290834       0.05091472 </v>
    <v>       0.77958849       0.21989360       0.95123315 </v>
    <v>       0.88612697       0.11333303       0.04972879 </v>
    <v>       0.77771543       0.55513869       0.94491977 </v>
    <v>       0.89169711       0.44191164       0.05118153 </v>
    <v>       0.77455269       0.89193505       0.94768974 </v>
    <v>       0.88886865       0.77782470       0.05533315 </v>
   </varray>
  </structure>
  <varray name="forces" >
   <v>      -0.09069517      -0.29834232      -0.02015054 </v>
   <v>       0.21676535      -0.04778449      -0.00201027 </v>
   <v>       0.21787895       0.13701364       0.01582619 </v>
   <v>       0.09112759      -0.14317705       0.02665912 </v>
   <v>      -0.11596031       0.00585066      -0.01413217 </v>
   <v>       0.07240696      -0.09652914       0.04997760 </v>
   <v>      -0.16494067       0.27749935       0.02490828 </v>
   <v>       0.20264764      -0.11380452      -0.00875560 </v>
   <v>      -0.29624269       0.23778241      -0.05101230 </v>
   <v>       0.17780473      -0.13037278       0.05049131 </v>
   <v>      -0.12853127      -0.06053877      -0.07118855 </v>
   <v>      -0.21518926       0.04706437       0.07841575 </v>
   <v>       0.03193847      -0.01330842       0.15444939 </v>
   <v>      -0.01429700      -0.12542201      -0.16004653 </v>
   <v>      -0.02001008      -0.20894702      -0.05343404 </v>
   <v>      -0.00663507       0.08220533       0.05668324 </v>
   <v>      -0.11046918       0.14015177      -0.19070521 </v>
   <v>       0.08083840       0.18595137      -0.09001733 </v>
   <v>      -0.10153936       0.08151238       0.18469216 </v>
   <v>       0.01808302      -0.03346552       0.02853823 </v>
   <v>       0.16503336      -0.05904207      -0.00472459 </v>
   <v>      -0.11293128       0.02095919       0.11777510 </v>
   <v>       0.15315980       0.01317031       0.00810169 </v>
   <v>      -0.01009699       0.08811017      -0.27678598 </v>
   <v>      -0.15144708       0.09735091      -0.02530237 </v>
   <v>       0.16168430      -0.05011629      -0.09455166 </v>
   <v>      -0.05038320      -0.03377146       0.26629908 </v>
  </varray>
  <varray name="stress" >
   <v>       0.39979627      -0.03574203      -0.31865219 </v>
   <v>      -0.03574197      -0.05714528      -0.14749134 </v>
   <v>      -0.31865239      -0.14749126      -0.48547549 </v>
  </varray>
  <energy>
   <i name="e_fr_energy">   -191.42734694 </i>
   <i name="e_wo_entrp">   -191.32226373 </i>
   <i name="e_0_energy">     -0.21016642 </i>
  </energy>
  <time name="totalsc">  355.37  356.31</time>
 </calculation>
 <calculation>
  <scstep>
   <time name="dav">   21.90   21.96</time>
   <time name="total">   22.41   22.46</time>
   <energy>
    <i name="alphaZ">     89.91230895 </i>
    <i name="ewald">  44539.74510474 </i>
    <i name="hartreedc"> -50547.80279294 </i>
    <i name="XCdc">   -233.51478546 </i>
    <i name="pawpsdc">   4086.20397325 </i>
    <i name="pawaedc">  -3502.20185119 </i>
    <i name="eentropy">     -0.21323164 </i>
    <i name="bandstr">  -1385.04528391 </i>
    <i name="atom">   6761.44252427 </i>
    <i name="e_fr_energy">   -191.47403393 </i>
    <i name="e_wo_entrp">   -191.26080229 </i>
    <i name="e_0_energy">   -191.36741811 </i>
   </energy>
  </scstep>
  <scstep>
   <time name="dav">   30.95   31.03</time>
   <time name="total">   31.46   31.55</time>
   <energy>
    <i name="e_fr_energy">   -191.52431857 </i>
    <i name="e_wo_entrp">   -191.30170072 </i>
    <i name="e_0_energy">   -191.41300965 </i>
   </energy>
  </scstep>
  <scstep>
   <time name="dav">   30.58   30.65</time>
   <time name="total">   31.08   31.16</time>
   <energy>
    <i name="e_fr_energy">   -191.48349856 </i>
    <i name="e_wo_entrp">   -191.26977283 </i>
    <i name="e_0_energy">   -191.37663570 </i>
   </energy>
  </scstep>
  <scstep>
   <time name="dav">   28.52   28.59</time>
   <time name="total">   29.02   29.10</time>
   <energy>
    <i name="e_fr_energy">   -191.48505588 </i>
    <i name="e_wo_entrp">   -191.26985608 </i>
    <i name="e_0_energy">   -191.37745598 </i>
   </energy>
  </scstep>
  <scstep>
   <time name="dav">   26.10   26.16</time>
   <time name="total">   26.60   26.67</time>
   <energy>
    <i name="e_fr_energy">   -191.48190716 </i>
    <i name="e_wo_entrp">   -191.26712004 </i>
    <i name="e_0_energy">   -191.37451360 </i>
   </energy>
  </scstep>
  <scstep>
   <time name="dav">   26.79   26.86</time>
   <time name="total">   27.29   27.37</time>
   <energy>
    <i name="e_fr_energy">   -191.48182878 </i>
    <i name="e_wo_entrp">   -191.26696032 </i>
    <i name="e_0_energy">   -191.37439455 </i>
   </energy>
  </scstep>
  <scstep>
   <time name="dav">   26.20   26.26</time>
   <time name="total">   26.70   26.77</time>
   <energy>
    <i name="e_fr_energy">   -191.48155608 </i>
    <i name="e_wo_entrp">   -191.26696507 </i>
    <i name="e_0_energy">   -191.37426058 </i>
   </energy>
  </scstep>
  <scstep>
   <time name="dav">   21.36   21.41</time>
   <time name="total">   21.39   21.45</time>
   <energy>
    <i name="alphaZ">     89.91230895 </i>
    <i name="ewald">  44539.74510474 </i>
    <i name="hartreedc"> -50549.73981926 </i>
    <i name="XCdc">   -233.45650434 </i>
    <i name="pawpsdc">   4082.85973067 </i>
    <i name="pawaedc">  -3498.80873715 </i>
    <i name="eentropy">     -0.21468741 </i>
    <i name="bandstr">  -1383.22148397 </i>
    <i name="atom">   6761.44252427 </i>
    <i name="e_fr_energy">   -191.48156350 </i>
    <i name="e_wo_entrp">   -191.26687609 </i>
    <i name="e_0_energy">   -191.37421980 </i>
   </energy>
  </scstep>
  <structure>
   <crystal>
    <varray name="basis" >
     <v>       8.30072525       4.77895887       0.00000000 </v>
     <v>      -8.30232801       4.78172374       0.00000000 </v>
     <v>       0.00000000       0.00000000      30.00000000 </v>
    </varray>
    <i name="volume">   2381.04777238 </i>
    <varray name="rec_basis" >
     <v>       0.06024731       0.10460514       0.00000000 </v>
     <v>      -0.06021247       0.10458495       0.00000000 </v>
     <v>       0.00000000       0.00000000       0.03333333 </v>
    </varray>
   </crystal>
   <varray name="positions" >
    <v>       0.32260781      -0.00609765       0.00034076 </v>
    <v>       0.67060729      -0.00530277       0.00046531 </v>
    <v>       1.00460457       0.33405286      -0.00023882 </v>
    <v>      -0.00720299      -0.01690798      -0.00007437 </v>
    <v>      -0.01251980       0.67289530      -0.00012799 </v>
    <v>       0.68036663       0.66665035       0.00007656 </v>
    <v>       0.33610558       0.33914347      -0.00023539 </v>
    <v>       0.33268184       0.66187897      -0.00030358 </v>
    <v>       0.67176092       0.35069118       0.00032746 </v>
    <v>       0.10789678       0.22305307       0.94990599 </v>
    <v>       0.22447584       0.10868785       0.05077603 </v>
    <v>       0.10764777       0.55126646       0.94978008 </v>
    <v>       0.21618832       0.44105047       0.05193050 </v>
    <v>       0.11656572       0.89121465       0.94691647 </v>
    <v>       0.22368455       0.78170839       0.05044102 </v>
    <v>       0.44272933       0.21709204       0.94960459 </v>
    <v>       0.55383112       0.10809871       0.04747059 </v>
    <v>       0.44646025       0.55677151       0.94765185 </v>
    <v>       0.55529828       0.44542886       0.05365784 </v>
    <v>       0.44702033       0.89400577       0.95069380 </v>
    <v>       0.55825863       0.78214306       0.05086424 </v>
    <v>       0.77936920       0.22031958       0.95144491 </v>
    <v>       0.88662326       0.11297000       0.04969820 </v>
    <v>       0.77810303       0.55557672       0.94457363 </v>
    <v>       0.89171841       0.44279062       0.05109512 </v>
    <v>       0.77476903       0.89123302       0.94760449 </v>
    <v>       0.88856275       0.77779993       0.05566061 </v>
   </varray>
  </structure>
  <varray name="forces" >
   <v>      -0.06410667      -0.33482661       0.00625311 </v>
   <v>       0.24891503      -0.03951352      -0.00908301 </v>
   <v>       0.22370686       0.10981228      -0.02016573 </v>
   <v>       0.11219637      -0.23043815       0.03481776 </v>
   <v>      -0.24254990       0.01249390       0.03184198 </v>
   <v>       0.11353019      -0.07200334       0.01867718 </v>
   <v>      -0.18047636       0.33970505      -0.00182984 </v>
   <v>       0.22266953      -0.09783670      -0.02748563 </v>
   <v>      -0.31306535       0.24771315      -0.02814477 </v>
   <v>       0.12306492      -0.05653099       0.07248531 </v>
   <v>      -0.08930012      -0.02253108      -0.09418181 </v>
   <v>      -0.10849906       0.02483436       0.08519055 </v>
   <v>       0.02173194      -0.00532873       0.15573942 </v>
   <v>      -0.02291960      -0.06742050      -0.14836888 </v>
   <v>       0.01501734      -0.13300491      -0.04580087 </v>
   <v>      -0.03283918       0.05533713       0.07476515 </v>
   <v>      -0.07546033       0.08804772      -0.23583001 </v>
   <v>       0.03172329       0.11283087      -0.12147392 </v>
   <v>      -0.05785942       0.03443188       0.17545679 </v>
   <v>       0.01728456      -0.02787859       0.05027554 </v>
   <v>       0.08106495      -0.04201842       0.02766715 </v>
   <v>      -0.07263509       0.02605490       0.15613479 </v>
   <v>       0.09210329       0.01252495       0.00201263 </v>
   <v>      -0.03074651       0.07438649      -0.19010899 </v>
   <v>      -0.08625731       0.05766154      -0.04207877 </v>
   <v>       0.09647082      -0.03430967      -0.07152662 </v>
   <v>      -0.02276419      -0.03219305       0.14476148 </v>
  </varray>
  <varray name="stress" >
   <v>      -0.21894688      -0.05988512      -0.12337331 </v>
   <v>      -0.05988516      -0.20586272      -0.16751707 </v>
   <v>      -0.12337322      -0.16751709      -0.99918541 </v>
  </varray>
  <energy>
   <i name="e_fr_energy">   -191.48156350 </i>
   <i name="e_wo_entrp">   -191.37421980 </i>
   <i name="e_0_energy">     -0.21468741 </i>
  </energy>
  <time name="totalsc">  257.89  258.57</time>
 </calculation>
 <calculation>
  <scstep>
   <time name="dav">   21.89   21.94</time>
   <time name="total">   22.39   22.44</time>
   <energy>
    <i name="alphaZ">     90.07235786 </i>
    <i name="ewald">  44605.44306742 </i>
    <i name="hartreedc"> -50617.38020685 </i>
    <i name="XCdc">   -233.37793663 </i>
    <i name="pawpsdc">   4082.76213187 </i>
    <i name="pawaedc">  -3498.70971934 </i>
    <i name="eentropy">     -0.21661151 </i>
    <i name="bandstr">  -1381.57627436 </i>
    <i name="atom">   6761.44252427 </i>
    <i name="e_fr_energy">   -191.54066727 </i>
    <i name="e_wo_entrp">   -191.32405576 </i>
    <i name="e_0_energy">   -191.43236151 </i>
   </energy>
  </scstep>
  <scstep>
   <time name="dav">   33.15   33.23</time>
   <time name="total">   33.65   33.74</time>
   <energy>
    <i name="e_fr_energy">   -191.58027734 </i>
    <i name="e_wo_entrp">   -191.35145774 </i>
    <i name="e_0_energy">   -191.46586754 </i>
   </energy>
  </scstep>
  <scstep>
   <time name="dav">   30.50   30.57</time>
   <time name="total">   31.00   31.09</time>
   <energy>
    <i name="e_fr_energy">   -191.54920819 </i>
    <i name="e_wo_entrp">   -191.33288835 </i>
    <i name="e_0_energy">   -191.44104827 </i>
   </energy>
  </scstep>
  <scstep>
   <time name="dav">   28.00   28.07</time>
   <time name="total">   28.51   28.58</time>
   <energy>
    <i name="e_fr_energy">   -191.54838682 </i>
    <i name="e_wo_entrp">   -191.32937482 </i>
    <i name="e_0_energy">   -191.43888082 </i>
   </energy>
  </scstep>
  <scstep>
   <time name="dav">   27.03   27.10</time>
   <time name="total">   27.54   27.61</time>
   <energy>
    <i name="e_fr_energy">   -191.54651265 </i>
    <i name="e_wo_entrp">   -191.32831743 </i>
    <i name="e_0_energy">   -191.43741504 </i>
   </energy>
  </scstep>
  <scstep>
   <time name="dav">   25.59   25.65</time>
   <time name="total">   26.09   26.16</time>
   <energy>
    <i name="e_fr_energy">   -191.54554510 </i>
    <i name="e_wo_entrp">   -191.32658981 </i>
    <i name="e_0_energy">   -191.43606745 </i>
   </energy>
  </scstep>
  <scstep>
   <time name="dav">   26.54   26.61</time>
   <time name="total">   27.05   27.12</time>
   <energy>
    <i name="e_fr_energy">   -191.54533520 </i>
    <i name="e_wo_entrp">   -191.32630139 </i>
    <i name="e_0_energy">   -191.43581829 </i>
   </energy>
  </scstep>
  <scstep>
   <time name="dav">   24.60   24.66</time>
   <time name="total">   24.63   24.70</time>
   <energy>
    <i name="alphaZ">     90.07235786 </i>
    <i name="ewald">  44605.44306742 </i>
    <i name="hartreedc"> -50616.53796498 </i>
    <i name="XCdc">   -233.41784288 </i>
    <i name="pawpsdc">   4084.18577176 </i>
    <i name="pawaedc">  -3500.14862208 </i>
    <i name="eentropy">     -0.21890900 </i>
    <i name="bandstr">  -1382.36574057 </i>
    <i name="atom">   6761.44252427 </i>
    <i name="e_fr_energy">   -191.54535820 </i>
    <i name="e_wo_entrp">   -191.32644920 </i>
[...]
      <set comment="kpoint 31">
       <r>  -17.5155    1.0000 </r>
       <r>  -17.2246    1.0000 </r>
       <r>  -16.9045    1.0000 </r>
       <r>  -16.5225    1.0000 </r>
       <r>  -16.4735    1.0000 </r>
       <r>  -16.3946    1.0000 </r>
       <r>  -16.2812    1.0000 </r>
       <r>  -16.1699    1.0000 </r>
       <r>  -16.0976    1.0000 </r>
       <r>  -16.0325    1.0000 </r>
       <r>  -15.9284    1.0000 </r>
       <r>  -15.8882    1.0000 </r>
       <r>  -15.8185    1.0000 </r>
       <r>  -15.6678    1.0000 </r>
       <r>  -15.6360    1.0000 </r>
       <r>  -15.5619    1.0000 </r>
       <r>  -15.4631    1.0000 </r>
       <r>  -15.3770    1.0000 </r>
       <r>   -9.7314    1.0000 </r>
       <r>   -9.4052    1.0000 </r>
       <r>   -9.3298    1.0000 </r>
       <r>   -8.9408    1.0000 </r>
       <r>   -8.8524    1.0000 </r>
       <r>   -8.7571    1.0000 </r>
       <r>   -8.5138    1.0000 </r>
       <r>   -8.4618    1.0000 </r>
       <r>   -8.3776    1.0000 </r>
       <r>   -8.3059    1.0000 </r>
       <r>   -8.2546    1.0000 </r>
       <r>   -8.2141    1.0000 </r>
       <r>   -8.1645    1.0000 </r>
       <r>   -8.0824    1.0000 </r>
       <r>   -7.9604    1.0000 </r>
       <r>   -7.8588    1.0000 </r>
       <r>   -7.7855    1.0000 </r>
       <r>   -7.6310    1.0000 </r>
       <r>   -7.5755    1.0000 </r>
       <r>   -7.4146    1.0000 </r>
       <r>   -7.3415    1.0000 </r>
       <r>   -7.1908    1.0000 </r>
       <r>   -7.0585    1.0000 </r>
       <r>   -7.0093    1.0000 </r>
       <r>   -6.9871    1.0000 </r>
       <r>   -6.9346    1.0000 </r>
       <r>   -6.8535    1.0000 </r>
       <r>   -6.7820    1.0000 </r>
       <r>   -6.7051    1.0000 </r>
       <r>   -6.6683    1.0000 </r>
       <r>   -6.6059    1.0000 </r>
       <r>   -6.4953    1.0000 </r>
       <r>   -6.4354    1.0000 </r>
       <r>   -6.3008    1.0000 </r>
       <r>   -6.2613    1.0000 </r>
       <r>   -6.1853    1.0000 </r>
       <r>   -6.1379    1.0000 </r>
       <r>   -6.0146    1.0000 </r>
       <r>   -5.9775    1.0000 </r>
       <r>   -5.9113    1.0000 </r>
       <r>   -5.8769    1.0000 </r>
       <r>   -5.7850    1.0000 </r>
       <r>   -5.6931    1.0000 </r>
       <r>   -5.6485    1.0000 </r>
       <r>   -5.6050    1.0000 </r>
       <r>   -5.4697    1.0000 </r>
       <r>   -5.3221    1.0000 </r>
       <r>   -5.1418    1.0000 </r>
       <r>   -5.0745    1.0000 </r>
       <r>   -4.9252    1.0000 </r>
       <r>   -4.8411    1.0000 </r>
       <r>   -4.7270    1.0000 </r>
       <r>   -4.5125    1.0000 </r>
       <r>   -4.4351    1.0000 </r>
       <r>   -4.3658    1.0000 </r>
       <r>   -4.0907    1.0000 </r>
       <r>   -3.9222    1.0000 </r>
       <r>   -3.8197    1.0000 </r>
       <r>   -3.7246    1.0000 </r>
       <r>   -3.5221    0.9968 </r>
       <r>   -3.3425    0.9278 </r>
       <r>   -3.1470    0.5308 </r>
       <r>   -2.9971    0.1629 </r>
       <r>   -2.8700    0.0299 </r>
       <r>   -2.7753    0.0054 </r>
       <r>   -2.6687    0.0005 </r>
       <r>   -2.5665    0.0000 </r>
       <r>   -2.4776    0.0000 </r>
       <r>   -2.4013    0.0000 </r>
       <r>   -2.3091    0.0000 </r>
       <r>   -2.1783    0.0000 </r>
       <r>   -2.0947    0.0000 </r>
       <r>   -1.7178    0.0000 </r>
       <r>   -1.5271    0.0000 </r>
       <r>   -1.3892    0.0000 </r>
       <r>   -1.3552    0.0000 </r>
       <r>   -1.1941    0.0000 </r>
       <r>   -1.1155    0.0000 </r>
       <r>   -1.0865    0.0000 </r>
       <r>   -0.9954    0.0000 </r>
       <r>   -0.9506    0.0000 </r>
       <r>   -0.8241    0.0000 </r>
       <r>   -0.8116    0.0000 </r>
       <r>   -0.7480    0.0000 </r>
       <r>   -0.6780    0.0000 </r>
       <r>   -0.5893    0.0000 </r>
       <r>   -0.4706    0.0000 </r>
       <r>   -0.3753    0.0000 </r>
       <r>   -0.2977    0.0000 </r>
       <r>   -0.1422    0.0000 </r>
       <r>   -0.0412    0.0000 </r>
       <r>    0.1507    0.0000 </r>
       <r>    0.4279    0.0000 </r>
       <r>    0.6726    0.0000 </r>
       <r>    0.9090    0.0000 </r>
       <r>    0.9858    0.0000 </r>
       <r>    1.2231    0.0000 </r>
       <r>    1.3596    0.0000 </r>
       <r>    1.5244    0.0000 </r>
       <r>    2.1558    0.0000 </r>
       <r>    2.3036    0.0000 </r>
       <r>    2.4144    0.0000 </r>
      </set>
      <set comment="kpoint 32">
       <r>  -17.5216    1.0000 </r>
       <r>  -17.1570    1.0000 </r>
       <r>  -17.0230    1.0000 </r>
       <r>  -16.5232    1.0000 </r>
       <r>  -16.3888    1.0000 </r>
       <r>  -16.3368    1.0000 </r>
       <r>  -16.2374    1.0000 </r>
       <r>  -16.2312    1.0000 </r>
       <r>  -16.1154    1.0000 </r>
       <r>  -16.0554    1.0000 </r>
       <r>  -15.9734    1.0000 </r>
       <r>  -15.8923    1.0000 </r>
       <r>  -15.8367    1.0000 </r>
       <r>  -15.6436    1.0000 </r>
       <r>  -15.6170    1.0000 </r>
       <r>  -15.5748    1.0000 </r>
       <r>  -15.4603    1.0000 </r>
       <r>  -15.3693    1.0000 </r>
       <r>   -9.6419    1.0000 </r>
       <r>   -9.5381    1.0000 </r>
       <r>   -9.4148    1.0000 </r>
       <r>   -8.9314    1.0000 </r>
       <r>   -8.7473    1.0000 </r>
       <r>   -8.5459    1.0000 </r>
       <r>   -8.5164    1.0000 </r>
       <r>   -8.3980    1.0000 </r>
       <r>   -8.3737    1.0000 </r>
       <r>   -8.3312    1.0000 </r>
       <r>   -8.3118    1.0000 </r>
       <r>   -8.2701    1.0000 </r>
       <r>   -8.1864    1.0000 </r>
       <r>   -8.1214    1.0000 </r>
       <r>   -8.0721    1.0000 </r>
       <r>   -7.8954    1.0000 </r>
       <r>   -7.8180    1.0000 </r>
       <r>   -7.6200    1.0000 </r>
       <r>   -7.4655    1.0000 </r>
       <r>   -7.3734    1.0000 </r>
       <r>   -7.3343    1.0000 </r>
       <r>   -7.1802    1.0000 </r>
       <r>   -7.1154    1.0000 </r>
       <r>   -7.0775    1.0000 </r>
       <r>   -7.0026    1.0000 </r>
       <r>   -6.9240    1.0000 </r>
       <r>   -6.8391    1.0000 </r>
       <r>   -6.7833    1.0000 </r>
       <r>   -6.6983    1.0000 </r>
       <r>   -6.6424    1.0000 </r>
       <r>   -6.5496    1.0000 </r>
       <r>   -6.5113    1.0000 </r>
       <r>   -6.4436    1.0000 </r>
       <r>   -6.3720    1.0000 </r>
       <r>   -6.2805    1.0000 </r>
       <r>   -6.2264    1.0000 </r>
       <r>   -6.1317    1.0000 </r>
       <r>   -6.0459    1.0000 </r>
       <r>   -5.9671    1.0000 </r>
       <r>   -5.8974    1.0000 </r>
       <r>   -5.8075    1.0000 </r>
       <r>   -5.7253    1.0000 </r>
       <r>   -5.6818    1.0000 </r>
       <r>   -5.5690    1.0000 </r>
       <r>   -5.4501    1.0000 </r>
       <r>   -5.4160    1.0000 </r>
       <r>   -5.3417    1.0000 </r>
       <r>   -5.2618    1.0000 </r>
       <r>   -5.1670    1.0000 </r>
       <r>   -5.0267    1.0000 </r>
       <r>   -4.9456    1.0000 </r>
       <r>   -4.6432    1.0000 </r>
       <r>   -4.5221    1.0000 </r>
       <r>   -4.4253    1.0000 </r>
       <r>   -4.3371    1.0000 </r>
       <r>   -4.1152    1.0000 </r>
       <r>   -3.9484    1.0000 </r>
       <r>   -3.8204    1.0000 </r>
       <r>   -3.7011    1.0000 </r>
       <r>   -3.5244    0.9970 </r>
       <r>   -3.3583    0.9419 </r>
       <r>   -3.0427    0.2545 </r>
       <r>   -3.0084    0.1833 </r>
       <r>   -2.8492    0.0212 </r>
       <r>   -2.7840    0.0064 </r>
       <r>   -2.7151    0.0015 </r>
       <r>   -2.6064    0.0001 </r>
       <r>   -2.4627    0.0000 </r>
       <r>   -2.3538    0.0000 </r>
       <r>   -2.3121    0.0000 </r>
       <r>   -2.1820    0.0000 </r>
       <r>   -2.0627    0.0000 </r>
       <r>   -1.7484    0.0000 </r>
       <r>   -1.5473    0.0000 </r>
       <r>   -1.3884    0.0000 </r>
       <r>   -1.3588    0.0000 </r>
       <r>   -1.2174    0.0000 </r>
       <r>   -1.1161    0.0000 </r>
       <r>   -1.0772    0.0000 </r>
       <r>   -1.0093    0.0000 </r>
       <r>   -0.9174    0.0000 </r>
       <r>   -0.8638    0.0000 </r>
       <r>   -0.8364    0.0000 </r>
       <r>   -0.7623    0.0000 </r>
       <r>   -0.6737    0.0000 </r>
       <r>   -0.5653    0.0000 </r>
       <r>   -0.4694    0.0000 </r>
       <r>   -0.2833    0.0000 </r>
       <r>   -0.2578    0.0000 </r>
       <r>   -0.1858    0.0000 </r>
       <r>    0.0288    0.0000 </r>
       <r>    0.1690    0.0000 </r>
       <r>    0.4262    0.0000 </r>
       <r>    0.7006    0.0000 </r>
       <r>    0.8393    0.0000 </r>
       <r>    0.9800    0.0000 </r>
       <r>    1.1675    0.0000 </r>
       <r>    1.2962    0.0000 </r>
       <r>    1.5153    0.0000 </r>
       <r>    2.1231    0.0000 </r>
       <r>    2.2734    0.0000 </r>
       <r>    2.5843    0.0000 </r>
      </set>
      <set comment="kpoint 33">
       <r>  -17.4973    1.0000 </r>
       <r>  -17.2696    1.0000 </r>
       <r>  -16.8773    1.0000 </r>
       <r>  -16.5246    1.0000 </r>
       <r>  -16.4386    1.0000 </r>
       <r>  -16.3989    1.0000 </r>
       <r>  -16.2932    1.0000 </r>
       <r>  -16.1664    1.0000 </r>
       <r>  -16.1120    1.0000 </r>
       <r>  -16.0373    1.0000 </r>
       <r>  -15.9564    1.0000 </r>
       <r>  -15.8805    1.0000 </r>
       <r>  -15.8132    1.0000 </r>
       <r>  -15.6507    1.0000 </r>
       <r>  -15.6301    1.0000 </r>
       <r>  -15.5582    1.0000 </r>
       <r>  -15.4644    1.0000 </r>
       <r>  -15.3893    1.0000 </r>
       <r>   -9.7235    1.0000 </r>
       <r>   -9.4062    1.0000 </r>
       <r>   -9.3448    1.0000 </r>
       <r>   -8.9420    1.0000 </r>
       <r>   -8.8612    1.0000 </r>
       <r>   -8.7382    1.0000 </r>
       <r>   -8.5260    1.0000 </r>
       <r>   -8.4643    1.0000 </r>
       <r>   -8.3728    1.0000 </r>
       <r>   -8.3267    1.0000 </r>
       <r>   -8.2715    1.0000 </r>
       <r>   -8.1770    1.0000 </r>
       <r>   -8.1544    1.0000 </r>
       <r>   -8.0676    1.0000 </r>
       <r>   -7.9359    1.0000 </r>
       <r>   -7.8935    1.0000 </r>
       <r>   -7.8205    1.0000 </r>
       <r>   -7.6335    1.0000 </r>
       <r>   -7.5250    1.0000 </r>
       <r>   -7.3560    1.0000 </r>
       <r>   -7.3326    1.0000 </r>
       <r>   -7.1718    1.0000 </r>
       <r>   -7.1198    1.0000 </r>
       <r>   -7.0466    1.0000 </r>
       <r>   -6.9801    1.0000 </r>
       <r>   -6.9358    1.0000 </r>
       <r>   -6.8872    1.0000 </r>
       <r>   -6.8045    1.0000 </r>
       <r>   -6.6449    1.0000 </r>
       <r>   -6.6274    1.0000 </r>
       <r>   -6.5794    1.0000 </r>
       <r>   -6.5228    1.0000 </r>
       <r>   -6.4472    1.0000 </r>
       <r>   -6.3170    1.0000 </r>
       <r>   -6.2393    1.0000 </r>
       <r>   -6.1712    1.0000 </r>
       <r>   -6.1336    1.0000 </r>
       <r>   -6.0651    1.0000 </r>
       <r>   -6.0110    1.0000 </r>
       <r>   -5.9238    1.0000 </r>
       <r>   -5.8716    1.0000 </r>
       <r>   -5.8150    1.0000 </r>
       <r>   -5.7141    1.0000 </r>
       <r>   -5.6662    1.0000 </r>
       <r>   -5.5931    1.0000 </r>
       <r>   -5.4165    1.0000 </r>
       <r>   -5.2856    1.0000 </r>
       <r>   -5.1470    1.0000 </r>
       <r>   -5.0621    1.0000 </r>
       <r>   -4.9826    1.0000 </r>
       <r>   -4.8232    1.0000 </r>
       <r>   -4.7041    1.0000 </r>
       <r>   -4.5136    1.0000 </r>
       <r>   -4.4394    1.0000 </r>
       <r>   -4.3184    1.0000 </r>
       <r>   -4.1385    1.0000 </r>
       <r>   -3.9808    1.0000 </r>
       <r>   -3.7980    1.0000 </r>
       <r>   -3.7074    1.0000 </r>
       <r>   -3.5624    0.9987 </r>
       <r>   -3.4061    0.9719 </r>
       <r>   -3.0661    0.3104 </r>
       <r>   -2.9536    0.0984 </r>
       <r>   -2.8480    0.0208 </r>
       <r>   -2.8047    0.0096 </r>
       <r>   -2.6853    0.0007 </r>
       <r>   -2.6128    0.0001 </r>
       <r>   -2.4455    0.0000 </r>
       <r>   -2.2983    0.0000 </r>
       <r>   -2.2769    0.0000 </r>
       <r>   -2.2035    0.0000 </r>
       <r>   -2.0670    0.0000 </r>
       <r>   -1.7691    0.0000 </r>
       <r>   -1.5579    0.0000 </r>
       <r>   -1.3894    0.0000 </r>
       <r>   -1.3797    0.0000 </r>
       <r>   -1.2214    0.0000 </r>
       <r>   -1.1381    0.0000 </r>
       <r>   -1.0549    0.0000 </r>
       <r>   -1.0180    0.0000 </r>
       <r>   -0.9199    0.0000 </r>
       <r>   -0.8688    0.0000 </r>
       <r>   -0.8168    0.0000 </r>
       <r>   -0.7524    0.0000 </r>
       <r>   -0.6886    0.0000 </r>
       <r>   -0.6256    0.0000 </r>
       <r>   -0.4484    0.0000 </r>
       <r>   -0.3395    0.0000 </r>
       <r>   -0.2098    0.0000 </r>
       <r>   -0.0994    0.0000 </r>
       <r>   -0.0390    0.0000 </r>
       <r>    0.3092    0.0000 </r>
       <r>    0.4108    0.0000 </r>
       <r>    0.7146    0.0000 </r>
       <r>    0.7839    0.0000 </r>
       <r>    0.9935    0.0000 </r>
       <r>    1.1431    0.0000 </r>
       <r>    1.2697    0.0000 </r>
       <r>    1.5280    0.0000 </r>
       <r>    2.1542    0.0000 </r>
       <r>    2.3046    0.0000 </r>
       <r>    2.4129    0.0000 </r>
      </set>
      <set comment="kpoint 34">
       <r>  -17.4662    1.0000 </r>
       <r>  -17.3407    1.0000 </r>
       <r>  -16.6917    1.0000 </r>
       <r>  -16.6455    1.0000 </r>
       <r>  -16.5101    1.0000 </r>
       <r>  -16.4146    1.0000 </r>
       <r>  -16.2692    1.0000 </r>
       <r>  -16.1807    1.0000 </r>
       <r>  -16.0971    1.0000 </r>
       <r>  -16.0243    1.0000 </r>
       <r>  -15.9556    1.0000 </r>
       <r>  -15.8563    1.0000 </r>
       <r>  -15.7452    1.0000 </r>
       <r>  -15.7125    1.0000 </r>
       <r>  -15.6349    1.0000 </r>
       <r>  -15.5291    1.0000 </r>
       <r>  -15.4783    1.0000 </r>
       <r>  -15.4066    1.0000 </r>
       <r>   -9.7655    1.0000 </r>
       <r>   -9.3106    1.0000 </r>
       <r>   -9.1779    1.0000 </r>
       <r>   -9.0682    1.0000 </r>
       <r>   -8.9518    1.0000 </r>
       <r>   -8.8533    1.0000 </r>
       <r>   -8.5563    1.0000 </r>
       <r>   -8.4899    1.0000 </r>
       <r>   -8.3849    1.0000 </r>
       <r>   -8.3004    1.0000 </r>
       <r>   -8.2872    1.0000 </r>
       <r>   -8.1642    1.0000 </r>
       <r>   -8.1055    1.0000 </r>
       <r>   -7.9913    1.0000 </r>
       <r>   -7.9328    1.0000 </r>
       <r>   -7.7724    1.0000 </r>
       <r>   -7.7370    1.0000 </r>
       <r>   -7.6625    1.0000 </r>
       <r>   -7.6306    1.0000 </r>
       <r>   -7.3538    1.0000 </r>
       <r>   -7.3464    1.0000 </r>
       <r>   -7.2106    1.0000 </r>
       <r>   -7.1192    1.0000 </r>
       <r>   -7.0311    1.0000 </r>
       <r>   -7.0061    1.0000 </r>
       <r>   -6.9154    1.0000 </r>
       <r>   -6.8844    1.0000 </r>
       <r>   -6.7408    1.0000 </r>
       <r>   -6.6424    1.0000 </r>
       <r>   -6.6024    1.0000 </r>
       <r>   -6.5656    1.0000 </r>
       <r>   -6.5151    1.0000 </r>
       <r>   -6.4276    1.0000 </r>
       <r>   -6.3588    1.0000 </r>
       <r>   -6.2391    1.0000 </r>
       <r>   -6.1699    1.0000 </r>
       <r>   -6.1441    1.0000 </r>
       <r>   -6.0905    1.0000 </r>
       <r>   -6.0433    1.0000 </r>
       <r>   -5.9285    1.0000 </r>
       <r>   -5.8810    1.0000 </r>
       <r>   -5.8397    1.0000 </r>
       <r>   -5.7768    1.0000 </r>
       <r>   -5.6979    1.0000 </r>
       <r>   -5.6062    1.0000 </r>
       <r>   -5.4715    1.0000 </r>
       <r>   -5.3641    1.0000 </r>
       <r>   -5.0809    1.0000 </r>
       <r>   -4.9709    1.0000 </r>
       <r>   -4.8294    1.0000 </r>
       <r>   -4.7492    1.0000 </r>
       <r>   -4.6797    1.0000 </r>
       <r>   -4.5996    1.0000 </r>
       <r>   -4.5117    1.0000 </r>
       <r>   -4.2723    1.0000 </r>
       <r>   -4.1313    1.0000 </r>
       <r>   -3.9935    1.0000 </r>
       <r>   -3.7959    1.0000 </r>
       <r>   -3.7281    1.0000 </r>
       <r>   -3.5869    0.9993 </r>
       <r>   -3.4323    0.9819 </r>
       <r>   -3.0704    0.3213 </r>
       <r>   -2.9594    0.1057 </r>
       <r>   -2.8744    0.0321 </r>
       <r>   -2.7795    0.0058 </r>
       <r>   -2.6767    0.0006 </r>
       <r>   -2.5866    0.0001 </r>
       <r>   -2.4291    0.0000 </r>
       <r>   -2.2751    0.0000 </r>
       <r>   -2.2567    0.0000 </r>
       <r>   -2.2186    0.0000 </r>
       <r>   -2.0832    0.0000 </r>
       <r>   -1.7726    0.0000 </r>
       <r>   -1.5601    0.0000 </r>
       <r>   -1.3951    0.0000 </r>
       <r>   -1.3855    0.0000 </r>
       <r>   -1.2108    0.0000 </r>
       <r>   -1.1575    0.0000 </r>
       <r>   -1.0482    0.0000 </r>
       <r>   -1.0380    0.0000 </r>
       <r>   -0.9075    0.0000 </r>
       <r>   -0.8404    0.0000 </r>
       <r>   -0.8051    0.0000 </r>
       <r>   -0.7636    0.0000 </r>
       <r>   -0.6954    0.0000 </r>
       <r>   -0.6633    0.0000 </r>
       <r>   -0.4621    0.0000 </r>
       <r>   -0.3581    0.0000 </r>
       <r>   -0.1567    0.0000 </r>
       <r>   -0.0944    0.0000 </r>
       <r>   -0.0749    0.0000 </r>
       <r>    0.3631    0.0000 </r>
       <r>    0.4163    0.0000 </r>
       <r>    0.7237    0.0000 </r>
       <r>    0.7595    0.0000 </r>
       <r>    1.0001    0.0000 </r>
       <r>    1.1374    0.0000 </r>
       <r>    1.2758    0.0000 </r>
       <r>    1.5400    0.0000 </r>
       <r>    2.2383    0.0000 </r>
       <r>    2.2632    0.0000 </r>
       <r>    2.3922    0.0000 </r>
      </set>
     </set>
    </set>
   </array>
  </eigenvalues>
  <separator name="orbital magnetization" >
   <v name="MAGDIPOLOUT">      0.00000000      0.00000000      0.00000000</v>
  </separator>
 </calculation>
 <structure name="finalpos" >
  <crystal>
   <varray name="basis" >
    <v>       8.33916919       4.81696962       0.00000000 </v>
    <v>      -8.32528193       4.79281334       0.00000000 </v>
    <v>       0.00000000       0.00000000      30.00000000 </v>
   </varray>
   <i name="volume">   2402.12134456 </i>
   <varray name="rec_basis" >
    <v>       0.05985726       0.10397412       0.00000000 </v>
    <v>      -0.06015895       0.10414756       0.00000000 </v>
    <v>       0.00000000       0.00000000       0.03333333 </v>
   </varray>
  </crystal>
  <varray name="positions" >
   <v>       0.32195241       0.00275994      -0.00001451 </v>
   <v>       0.66415074      -0.01162822       0.00050251 </v>
   <v>       1.02287248       0.34058872      -0.00035483 </v>
   <v>      -0.00620936      -0.02028861       0.00046222 </v>
   <v>      -0.01441505       0.67393213      -0.00001197 </v>
   <v>       0.69578201       0.67574535       0.00043940 </v>
   <v>       0.32219677       0.33555886      -0.00021162 </v>
   <v>       0.31937343       0.64448984      -0.00035259 </v>
   <v>       0.67076983       0.35760822      -0.00018559 </v>
   <v>       0.10599907       0.21884735       0.94882746 </v>
   <v>       0.22409554       0.10905008       0.05155149 </v>
   <v>       0.10510439       0.55004310       0.94880324 </v>
   <v>       0.21449038       0.43836709       0.05501825 </v>
   <v>       0.11604537       0.88980784       0.94657917 </v>
   <v>       0.22466710       0.78082070       0.04907281 </v>
   <v>       0.44166977       0.21995259       0.94954017 </v>
   <v>       0.55394448       0.11195356       0.04620963 </v>
   <v>       0.45155707       0.55891815       0.94970054 </v>
   <v>       0.55513974       0.44951162       0.05267242 </v>
   <v>       0.44229159       0.88900607       0.95214148 </v>
   <v>       0.55675425       0.77755060       0.04962340 </v>
   <v>       0.78110132       0.22285222       0.95363698 </v>
   <v>       0.88705342       0.11267902       0.04833868 </v>
   <v>       0.78077116       0.55880298       0.94343454 </v>
   <v>       0.89114026       0.44175847       0.04956447 </v>
   <v>       0.77745701       0.89111201       0.94762479 </v>
   <v>       0.89245927       0.77841473       0.05738740 </v>
  </varray>
 </structure>
</modeling>
