unknown system                          
           1
     8.857805    5.102971    0.000000
    -8.858972    5.104979    0.000000
     0.000000    0.000000   30.000000
   V    Mo   W    S 
   3   3   3  18
Direct configuration=     1
   0.33333334  0.00000000  0.00000000
   0.66666669  0.00000000  0.00000000
   1.00000000  0.33333334  0.00000000
   0.00000000  0.00000000  0.00000000
   0.00000000  0.66666669  0.00000000
   0.66666669  0.66666669  0.00000000
   0.33333334  0.33333334  0.00000000
   0.33333334  0.66666669  0.00000000
   0.66666669  0.33333334  0.00000000
   0.11068511  0.22244981  0.95539999
   0.22244981  0.11068511  0.04460000
   0.11068511  0.55578315  0.95539999
   0.22244981  0.44401845  0.04460000
   0.11068511  0.88911647  0.95539999
   0.22244981  0.77735180  0.04460000
   0.44401845  0.22244981  0.95539999
   0.55578315  0.11068511  0.04460000
   0.44401845  0.55578315  0.95539999
   0.55578315  0.44401845  0.04460000
   0.44401845  0.88911647  0.95539999
   0.55578315  0.77735180  0.04460000
   0.77735180  0.22244981  0.95539999
   0.88911647  0.11068511  0.04460000
   0.77735180  0.55578315  0.95539999
   0.88911647  0.44401845  0.04460000
   0.77735180  0.88911647  0.95539999
   0.88911647  0.77735180  0.04460000
unknown system                          
           1
     8.669403    4.997019    0.000000
    -8.670406    4.998744    0.000000
     0.000000    0.000000   30.000000
   V    Mo   W    S 
   3   3   3  18
Direct configuration=     2
   0.33147810 -0.00104766 -0.00011239
   0.66786127 -0.00080163  0.00007350
   0.99973259  0.33302325  0.00014485
  -0.00148955 -0.00267417  0.00000235
  -0.00153051  0.66810813 -0.00023361
   0.66944075  0.66792991 -0.00002938
   0.33305534  0.33303686  0.00015226
   0.33340617  0.66721187 -0.00007458
   0.66815264  0.33549261  0.00008071
   0.10955214  0.22497908  0.95206541
   0.22505896  0.10968033  0.04796784
   0.10977919  0.55150740  0.95201324
   0.21829220  0.44242686  0.04816722
   0.11557291  0.89096002  0.95187482
   0.22480019  0.78167027  0.04803622
   0.44251326  0.21821493  0.95189505
   0.55392317  0.10754336  0.04678771
   0.44371573  0.55512841  0.95079947
   0.55490470  0.44357811  0.04928355
   0.44573878  0.89225804  0.95308474
   0.55668860  0.78161044  0.04804521
   0.77941495  0.22036067  0.95305027
   0.88661597  0.11326920  0.04695170
   0.77729307  0.55455897  0.95067946
   0.89026214  0.44129942  0.04799373
   0.77525655  0.89117086  0.95197353
   0.88872516  0.77771890  0.04932703
unknown system                          
           1
     8.487463    4.898069    0.000000
    -8.488234    4.899392    0.000000
     0.000000    0.000000   30.000000
   V    Mo   W    S 
   3   3   3  18
Direct configuration=     3
   0.33088122 -0.00139066 -0.00008348
   0.66815300 -0.00107400  0.00012855
   0.99983322  0.33300403  0.00012359
  -0.00201367 -0.00381939 -0.00000344
  -0.00233127  0.66855161 -0.00025100
   0.67046825  0.66809897 -0.00003032
   0.33315144  0.33323051  0.00011928
   0.33339122  0.66705832 -0.00012146
   0.66851457  0.33651150  0.00013985
   0.10973675  0.22511214  0.95214499
   0.22521524  0.10986540  0.04795392
   0.10994671  0.55153681  0.95208412
   0.21840653  0.44245324  0.04815885
   0.11570025  0.89104452  0.95175885
   0.22497772  0.78164591  0.04798570
   0.44256621  0.21834341  0.95197626
   0.55399779  0.10773878  0.04660908
   0.44350803  0.55503814  0.95086119
   0.55481944  0.44337746  0.04930151
   0.44567940  0.89208855  0.95314768
   0.55652512  0.78159218  0.04801422
   0.77930326  0.22045005  0.95315404
   0.88656493  0.11326809  0.04691453
   0.77718177  0.55435183  0.95051851
   0.89007416  0.44117169  0.04798817
   0.77521456  0.89124556  0.95187877
   0.88874859  0.77771980  0.04952794
unknown system                          
           1
     8.290268    4.778912    0.000000
    -8.290997    4.780164    0.000000
     0.000000    0.000000   30.000000
   V    Mo   W    S 
   3   3   3  18
Direct configuration=     4
   0.32857823 -0.00256707  0.00007733
   0.66901228 -0.00226246  0.00030262
   1.00081326  0.33329148 -0.00001149
  -0.00377243 -0.00820895 -0.00003205
  -0.00577786  0.67005157 -0.00022063
   0.67421377  0.66808832 -0.00002307
   0.33382211  0.33447383 -0.00005375
   0.33319226  0.66577930 -0.00023473
   0.66953245  0.34075365  0.00030542
   0.10912529  0.22528962  0.95104903
   0.22557031  0.10932743  0.04932240
   0.10924970  0.55062330  0.95094797
   0.21736347  0.44188097  0.04965554
   0.11684105  0.89171194  0.94984229
   0.22537157  0.78249414  0.04920044
   0.44221957  0.21741756  0.95082354
   0.55357251  0.10704729  0.04721842
   0.44372267  0.55518139  0.94950209
   0.55488425  0.44355107  0.05101945
   0.44635654  0.89316969  0.95203220
   0.55711234  0.78251047  0.04932500
   0.77954739  0.22003272  0.95223819
   0.88614277  0.11356934  0.04808068
   0.77717952  0.55438688  0.94823214
   0.89075571  0.44101774  0.04941557
   0.77471414  0.89186135  0.95008207
   0.88887157  0.77774186  0.05190327
unknown system                          
           1
     8.300725    4.778959    0.000000
    -8.302328    4.781724    0.000000
     0.000000    0.000000   30.000000
   V    Mo   W    S 
   3   3   3  18
Direct configuration=     5
   0.32421553 -0.00495365  0.00037881
   0.67025949 -0.00451362  0.00047239
   1.00338576  0.33401439 -0.00026921
  -0.00682948 -0.01613246 -0.00011748
  -0.01236992  0.67259802 -0.00010326
   0.68077783  0.66730400 -0.00000030
   0.33525159  0.33739826 -0.00027936
   0.33265507  0.66293503 -0.00029137
   0.67147664  0.34888632  0.00040897
   0.10800180  0.22416188  0.94979228
   0.22512194  0.10860005  0.05093000
   0.10798842  0.55042262  0.94962156
   0.21612830  0.44118551  0.05174561
   0.11723086  0.89179005  0.94709547
   0.22474427  0.78267906  0.05056192
   0.44234705  0.21664876  0.94947905
   0.55345228  0.10710013  0.04778519
   0.44536763  0.55611542  0.94774383
   0.55519469  0.44477717  0.05343400
   0.44715484  0.89425247  0.95061096
   0.55811052  0.78290834  0.05091472
   0.77958849  0.21989360  0.95123315
   0.88612697  0.11333303  0.04972879
   0.77771543  0.55513869  0.94491977
   0.89169711  0.44191164  0.05118153
   0.77455269  0.89193505  0.94768974
   0.88886865  0.77782470  0.05533315
unknown system                          
           1
     8.292685    4.773232    0.000000
    -8.295895    4.778790    0.000000
     0.000000    0.000000   30.000000
   V    Mo   W    S 
   3   3   3  18
Direct configuration=     6
   0.32260781 -0.00609765  0.00034076
   0.67060729 -0.00530277  0.00046531
   1.00460457  0.33405286 -0.00023882
  -0.00720299 -0.01690798 -0.00007437
  -0.01251980  0.67289530 -0.00012799
   0.68036663  0.66665035  0.00007656
   0.33610558  0.33914347 -0.00023539
   0.33268184  0.66187897 -0.00030358
   0.67176092  0.35069118  0.00032746
   0.10789678  0.22305307  0.94990599
   0.22447584  0.10868785  0.05077603
   0.10764777  0.55126646  0.94978008
   0.21618832  0.44105047  0.05193050
   0.11656572  0.89121465  0.94691647
   0.22368455  0.78170839  0.05044102
   0.44272933  0.21709204  0.94960459
   0.55383112  0.10809871  0.04747059
   0.44646025  0.55677151  0.94765185
   0.55529828  0.44542886  0.05365784
   0.44702033  0.89400577  0.95069380
   0.55825863  0.78214306  0.05086424
   0.77936920  0.22031958  0.95144491
   0.88662326  0.11297000  0.04969820
   0.77810303  0.55557672  0.94457363
   0.89171841  0.44279062  0.05109512
   0.77476903  0.89123302  0.94760449
   0.88856275  0.77779993  0.05566061
unknown system                          
           1
     8.297013    4.774994    0.000000
    -8.300805    4.781559    0.000000
     0.000000    0.000000   30.000000
   V    Mo   W    S 
   3   3   3  18
Direct configuration=     7
   0.32049392 -0.00775734  0.00035718
   0.67119414 -0.00634531  0.00045429
   1.00596457  0.33397413 -0.00027765
  -0.00815836 -0.01867438 -0.00001668
  -0.01335238  0.67376378 -0.00007286
   0.68047552  0.66588610  0.00011138
   0.33740775  0.34160358 -0.00024261
   0.33282845  0.66058396 -0.00035131
   0.67217021  0.35319932  0.00028007
   0.10793382  0.22231726  0.94999200
   0.22405395  0.10881799  0.05066134
   0.10740002  0.55174326  0.94988733
   0.21618939  0.44093066  0.05225727
   0.11613459  0.89091452  0.94658610
   0.22297859  0.78094152  0.05040203
   0.44293372  0.21746999  0.94969240
   0.55407149  0.10881732  0.04708656
   0.44723130  0.55731551  0.94739350
   0.55531720  0.44584121  0.05402774
   0.44694613  0.89383508  0.95073812
   0.55831936  0.78166636  0.05095594
   0.77928302  0.22068284  0.95168093
   0.88698259  0.11274142  0.04974800
   0.77842854  0.55609589  0.94415188
   0.89179134  0.44340731  0.05107378
   0.77488130  0.89074124  0.94741433
   0.88831428  0.77770124  0.05600883
unknown system                          
           1
     8.286462    4.768174    0.000000
    -8.289213    4.772932    0.000000
     0.000000    0.000000   30.000000
   V    Mo   W    S 
   3   3   3  18
Direct configuration=     8
   0.31998693 -0.00823583  0.00036011
   0.67131138 -0.00658612  0.00045437
   1.00624219  0.33389429 -0.00028501
  -0.00830731 -0.01890790 -0.00000785
  -0.01325284  0.67400504 -0.00007993
   0.68016540  0.66569736  0.00012055
   0.33778963  0.34228111 -0.00023575
   0.33292650  0.66034316 -0.00036144
   0.67215927  0.35353834  0.00027279
   0.10803897  0.22223284  0.95006189
   0.22401111  0.10889364  0.05056045
   0.10740231  0.55181677  0.94996606
   0.21624247  0.44094781  0.05227540
   0.11606333  0.89088389  0.94659319
   0.22288379  0.78079251  0.05035237
   0.44295739  0.21756920  0.94976943
   0.55408885  0.10893970  0.04694506
   0.44732156  0.55740020  0.94735239
   0.55528578  0.44585885  0.05405524
   0.44689952  0.89377162  0.95079704
   0.55827208  0.78159130  0.05094577
   0.77927652  0.22076845  0.95178247
   0.88705033  0.11272022  0.04971498
   0.77850465  0.55620750  0.94415615
   0.89177884  0.44348262  0.05100834
   0.77490204  0.89064778  0.94742935
   0.88821374  0.77766009  0.05599649
unknown system                          
           1
     8.278478    4.763114    0.000000
    -8.281017    4.767506    0.000000
     0.000000    0.000000   30.000000
   V    Mo   W    S 
   3   3   3  18
Direct configuration=     9
   0.32012381 -0.00760396  0.00035006
   0.67105999 -0.00606615  0.00045697
   1.00649398  0.33445238 -0.00027868
  -0.00755424 -0.01876562 -0.00002817
  -0.01351144  0.67382958 -0.00011176
   0.68096451  0.66561195  0.00014232
   0.33703309  0.34121925 -0.00025985
   0.33217673  0.66013123 -0.00033833
   0.67225022  0.35365441  0.00026949
   0.10764756  0.22206966  0.94991277
   0.22390221  0.10859205  0.05080050
   0.10722281  0.55180445  0.94979928
   0.21598420  0.44076553  0.05238274
   0.11609324  0.89077572  0.94648991
   0.22280802  0.78094606  0.05042132
   0.44302890  0.21738030  0.94960339
   0.55401434  0.10909710  0.04717162
   0.44754109  0.55742568  0.94738149
   0.55541979  0.44607519  0.05413246
   0.44679169  0.89382697  0.95064743
   0.55836150  0.78128515  0.05102396
   0.77940074  0.22093302  0.95157008
   0.88726947  0.11283934  0.04985281
   0.77850587  0.55613595  0.94391606
   0.89183481  0.44354931  0.05119139
   0.77499523  0.89049562  0.94725706
   0.88835631  0.77775425  0.05624358
unknown system                          
           1
     8.273875    4.760398    0.000000
    -8.276498    4.764934    0.000000
     0.000000    0.000000   30.000000
   V    Mo   W    S 
   3   3   3  18
Direct configuration=    10
   0.32033791 -0.00684557  0.00031125
   0.67092277 -0.00552471  0.00046344
   1.00691598  0.33505481 -0.00024055
  -0.00701249 -0.01857619 -0.00001273
  -0.01374963  0.67351655 -0.00007979
   0.68183553  0.66572747  0.00014865
   0.33612592  0.34015305 -0.00029216
   0.33139765  0.65976240 -0.00032315
   0.67239544  0.35374395  0.00025671
   0.10729337  0.22192521  0.94978754
   0.22384114  0.10837794  0.05105074
   0.10701754  0.55176111  0.94962126
   0.21575607  0.44053856  0.05248202
   0.11612955  0.89065744  0.94636614
   0.22270018  0.78099709  0.05047637
   0.44308802  0.21727169  0.94946968
   0.55396879  0.10928622  0.04734205
   0.44770096  0.55744303  0.94749184
   0.55542657  0.44617917  0.05416602
   0.44664591  0.89378576  0.95057955
   0.55839018  0.78098666  0.05098874
   0.77954753  0.22112827  0.95143235
   0.88748128  0.11295098  0.04987621
   0.77854001  0.55608620  0.94374106
   0.89184567  0.44363009  0.05130079
   0.77512341  0.89035533  0.94722851
   0.88854920  0.77784197  0.05636735
unknown system                          
           1
     8.297363    4.773201    0.000000
    -8.302369    4.781884    0.000000
     0.000000    0.000000   30.000000
   V    Mo   W    S 
   3   3   3  18
Direct configuration=    11
   0.32040164 -0.00695809  0.00032262
   0.67086154 -0.00553418  0.00046085
   1.00659006  0.33488491 -0.00023632
  -0.00703989 -0.01861484 -0.00001223
  -0.01376551  0.67357941 -0.00005272
   0.68169568  0.66565229  0.00013781
   0.33636075  0.34024790 -0.00030399
   0.33164168  0.66003853 -0.00031959
   0.67239861  0.35362947  0.00026616
   0.10732338  0.22196810  0.94979094
   0.22381795  0.10834980  0.05102745
   0.10705246  0.55178850  0.94963545
   0.21576407  0.44059646  0.05244223
   0.11617958  0.89071547  0.94637031
   0.22270955  0.78104459  0.05048799
   0.44309079  0.21721826  0.94946909
   0.55394501  0.10921283  0.04738495
   0.44763722  0.55741728  0.94745918
   0.55548323  0.44618179  0.05418903
   0.44668714  0.89385866  0.95053114
   0.55840575  0.78103370  0.05105271
   0.77951268  0.22107730  0.95138873
   0.88746243  0.11294557  0.04991251
   0.77848402  0.55603863  0.94374979
   0.89186325  0.44361951  0.05130730
   0.77510848  0.89038518  0.94718576
   0.88854289  0.77783744  0.05635275
unknown system                          
           1
     8.298964    4.772785    0.000000
    -8.304067    4.781635    0.000000
     0.000000    0.000000   30.000000
   V    Mo   W    S 
   3   3   3  18
Direct configuration=    12
   0.31883579 -0.00771169  0.00028637
   0.67204797 -0.00640525  0.00049037
   1.00948928  0.33548461 -0.00024382
  -0.00830617 -0.01961704  0.00008631
  -0.01410747  0.67381601 -0.00001898
   0.68225316  0.66600823  0.00021749
   0.33598722  0.34208769 -0.00026777
   0.33060725  0.65742007 -0.00038994
   0.67273700  0.35560120  0.00021913
   0.10745894  0.22157530  0.94996281
   0.22375343  0.10881371  0.05089493
   0.10680953  0.55167496  0.94975452
   0.21575201  0.44029923  0.05275098
   0.11564193  0.89037593  0.94621112
   0.22233232  0.78019276  0.05031368
   0.44312700  0.21793807  0.94968271
   0.55427956  0.10990712  0.04669302
   0.44814981  0.55776908  0.94751601
   0.55506534  0.44621734  0.05418967
   0.44645476  0.89323755  0.95098099
   0.55818974  0.78073999  0.05066841
   0.77971540  0.22153502  0.95199926
   0.88767810  0.11294554  0.04957924
   0.77893749  0.55666500  0.94363849
   0.89174411  0.44388583  0.05100388
   0.77519282  0.89006352  0.94742006
   0.88838814  0.77769467  0.05636098
unknown system                          
           1
     8.297394    4.772805    0.000000
    -8.301458    4.779849    0.000000
     0.000000    0.000000   30.000000
   V    Mo   W    S 
   3   3   3  18
Direct configuration=    13
   0.31703398 -0.00933740  0.00031981
   0.67235525 -0.00747736  0.00048275
   1.01027746  0.33518595 -0.00029203
  -0.00871679 -0.02068441  0.00008247
  -0.01388127  0.67488255 -0.00010515
   0.68153114  0.66548023  0.00022843
   0.33735372  0.34426938 -0.00025079
   0.33101768  0.65672763 -0.00044229
   0.67249729  0.35677628  0.00017999
   0.10781318  0.22128759  0.95006180
   0.22366092  0.10898379  0.05059722
   0.10681113  0.55189281  0.94991721
   0.21598926  0.44047141  0.05294108
   0.11548459  0.89039233  0.94621988
   0.22221534  0.77995285  0.05021691
   0.44313943  0.21814874  0.94988807
   0.55426760  0.11007137  0.04630254
   0.44839604  0.55801553  0.94726999
   0.55498604  0.44629855  0.05433631
   0.44637497  0.89314917  0.95109759
   0.55804074  0.78068351  0.05077966
   0.77961218  0.22167475  0.95223778
   0.88778227  0.11281691  0.04964033
   0.77912595  0.55698424  0.94360696
   0.89176134  0.44403780  0.05090094
   0.77518407  0.88993307  0.94730226
   0.88810096  0.77759720  0.05648018
unknown system                          
           1
     8.298370    4.779534    0.000000
    -8.295428    4.774412    0.000000
     0.000000    0.000000   30.000000
   V    Mo   W    S 
   3   3   3  18
Direct configuration=    14
   0.31738768 -0.00881765  0.00030266
   0.67237033 -0.00719239  0.00047981
   1.01043668  0.33545005 -0.00029216
  -0.00854786 -0.02046120  0.00007480
  -0.01397970  0.67463733 -0.00013577
   0.68202760  0.66569462  0.00023320
   0.33672855  0.34359795 -0.00025299
   0.33058870  0.65657124 -0.00043711
   0.67257759  0.35666574  0.00016743
   0.10767721  0.22130992  0.95003379
   0.22368210  0.10894282  0.05066387
   0.10678969  0.55180543  0.94987613
   0.21591332  0.44039266  0.05293502
   0.11543206  0.89032899  0.94628135
   0.22227135  0.77999850  0.05019936
   0.44314168  0.21817307  0.94986582
   0.55430572  0.11010966  0.04634908
   0.44837079  0.55794105  0.94738974
   0.55497935  0.44629862  0.05424180
   0.44634807  0.89307579  0.95113098
   0.55804594  0.78063348  0.05068940
   0.77967123  0.22169144  0.95222138
   0.88777831  0.11287535  0.04960993
   0.77909492  0.55692766  0.94363795
   0.89174710  0.44399100  0.05091777
   0.77516913  0.88992824  0.94735454
   0.88820692  0.77764508  0.05646211
unknown system                          
           1
     8.301388    4.783699    0.000000
    -8.295871    4.774107    0.000000
     0.000000    0.000000   30.000000
   V    Mo   W    S 
   3   3   3  18
Direct configuration=    15
   0.32109847 -0.00433316  0.00021826
   0.67190491 -0.00469132  0.00048447
   1.01009246  0.33703755 -0.00021451
  -0.00690448 -0.01803153  0.00005892
  -0.01449226  0.67236294 -0.00016423
   0.68524025  0.66718801  0.00025517
   0.33228693  0.33767514 -0.00028473
   0.32803866  0.65675439 -0.00032392
   0.67298442  0.35473863  0.00017556
   0.10652201  0.22153618  0.94964041
   0.22385204  0.10839571  0.05135344
   0.10661952  0.55128029  0.94935401
   0.21524395  0.43982227  0.05282208
   0.11546939  0.89010640  0.94657327
   0.22277194  0.78069374  0.05020324
   0.44307275  0.21786238  0.94948337
   0.55445369  0.11005850  0.04705109
   0.44811246  0.55734177  0.94820553
   0.55509745  0.44632324  0.05365205
   0.44626498  0.89288410  0.95113030
   0.55829699  0.78040767  0.05017830
   0.77997939  0.22153642  0.95173911
   0.88760192  0.11325229  0.04952642
   0.77872543  0.55630500  0.94369489
   0.89169986  0.44362975  0.05120375
   0.77501714  0.89002232  0.94761916
   0.88916417  0.77805577  0.05636449
unknown system                          
           1
     8.305800    4.787610    0.000000
    -8.298579    4.775060    0.000000
     0.000000    0.000000   30.000000
   V    Mo   W    S 
   3   3   3  18
Direct configuration=    16
   0.32379528  0.00026640  0.00014250
   0.67181192 -0.00261540  0.00050131
   1.01078083  0.33874521 -0.00013962
  -0.00487928 -0.01594521  0.00011167
  -0.01512748  0.67044369 -0.00006294
   0.68976271  0.66944656  0.00026148
   0.32683152  0.33123212 -0.00031325
   0.32443946  0.65583200 -0.00026556
   0.67339936  0.35354068  0.00018405
   0.10546917  0.22145809  0.94920227
   0.22396252  0.10781144  0.05196311
   0.10634642  0.55089560  0.94880098
   0.21469596  0.43914923  0.05291450
   0.11563171  0.89005190  0.94682627
   0.22329127  0.78141184  0.05006404
   0.44293809  0.21767368  0.94922103
   0.55452575  0.11026639  0.04741737
   0.44823103  0.55690097  0.94915980
   0.55498847  0.44655062  0.05307487
   0.44575064  0.89252717  0.95133236
   0.55825616  0.77962188  0.04962702
   0.78029461  0.22172831  0.95143610
   0.88755385  0.11355090  0.04947830
   0.77856962  0.55597228  0.94359717
   0.89143626  0.44327553  0.05129756
   0.77507230  0.88998059  0.94780737
   0.89038629  0.77844201  0.05636015
unknown system                          
           1
     8.307005    4.788686    0.000000
    -8.299173    4.775075    0.000000
     0.000000    0.000000   30.000000
   V    Mo   W    S 
   3   3   3  18
Direct configuration=    17
   0.32375127  0.00105867  0.00007291
   0.67212923 -0.00280770  0.00052533
   1.01144637  0.33894204 -0.00014694
  -0.00452238 -0.01580672  0.00011668
  -0.01533127  0.67018848 -0.00009773
   0.69094668  0.67041702  0.00023514
   0.32534221  0.33004931 -0.00029312
   0.32343272  0.65512223 -0.00029910
   0.67357823  0.35396374  0.00017630
   0.10533110  0.22126531  0.94909448
   0.22401589  0.10783330  0.05207095
   0.10613870  0.55082642  0.94873531
   0.21464328  0.43896788  0.05301642
   0.11565892  0.89002903  0.94683723
   0.22341880  0.78147653  0.05003650
   0.44276671  0.21772121  0.94923474
   0.55451647  0.11037925  0.04729106
   0.44846024  0.55687324  0.94942586
   0.55484599  0.44672735  0.05292358
   0.44546209  0.89241783  0.95148941
   0.55814752  0.77930512  0.04949042
   0.78031005  0.22185073  0.95151956
   0.88759732  0.11355894  0.04947925
   0.77872209  0.55611772  0.94354607
   0.89142387  0.44320143  0.05124698
   0.77525190  0.88998436  0.94778635
   0.89073047  0.77855173  0.05648625
unknown system                          
           1
     8.305887    4.788481    0.000000
    -8.297621    4.774115    0.000000
     0.000000    0.000000   30.000000
   V    Mo   W    S 
   3   3   3  18
Direct configuration=    18
   0.32302868  0.00088307  0.00005451
   0.67252221 -0.00349753  0.00054998
   1.01198852  0.33880226 -0.00016270
  -0.00458493 -0.01608493  0.00015414
  -0.01536579  0.67043431 -0.00006782
   0.69132767  0.67092884  0.00024639
   0.32498643  0.33019245 -0.00027366
   0.32311036  0.65454197 -0.00033061
   0.67367053  0.35464311  0.00018551
   0.10538687  0.22106832  0.94906032
   0.22400396  0.10791832  0.05205283
   0.10600478  0.55082299  0.94876434
   0.21468543  0.43894564  0.05311332
   0.11563274  0.89002038  0.94677305
   0.22346014  0.78138876  0.05000000
   0.44267280  0.21785256  0.94929969
   0.55452037  0.11048304  0.04706244
   0.44865465  0.55695273  0.94948973
   0.55475756  0.44690871  0.05288270
   0.44528013  0.89233322  0.95160963
   0.55802178  0.77912696  0.04947743
   0.78024019  0.22193106  0.95166875
   0.88765750  0.11347883  0.04949319
   0.77885781  0.55633902  0.94349630
   0.89142588  0.44321319  0.05115296
   0.77544028  0.89002255  0.94770098
   0.89082790  0.77856462  0.05654650
unknown system                          
           1
     8.313342    4.791905    0.000000
    -8.305461    4.778208    0.000000
     0.000000    0.000000   30.000000
   V    Mo   W    S 
   3   3   3  18
Direct configuration=    19
   0.32301341  0.00100436  0.00003714
   0.67255316 -0.00357854  0.00055984
   1.01215830  0.33883345 -0.00016133
  -0.00454378 -0.01618121  0.00016265
  -0.01548513  0.67037489 -0.00006627
   0.69157309  0.67113093  0.00024316
   0.32474709  0.33006282 -0.00025711
   0.32293002  0.65438832 -0.00033620
   0.67370771  0.35481820  0.00018967
   0.10539304  0.22099724  0.94904088
   0.22402406  0.10795481  0.05205175
   0.10597073  0.55085288  0.94875518
   0.21471750  0.43891693  0.05313890
   0.11564531  0.89002181  0.94677198
   0.22347118  0.78136837  0.04999057
   0.44261530  0.21787794  0.94931399
   0.55451443  0.11052889  0.04702267
   0.44872276  0.55695443  0.94954859
   0.55470502  0.44692863  0.05284542
   0.44519249  0.89230786  0.95164629
   0.55797832  0.77903471  0.04943750
   0.78023514  0.22198193  0.95169865
   0.88767527  0.11346958  0.04948904
   0.77890700  0.55637717  0.94347631
   0.89141047  0.44320981  0.05113142
   0.77548562  0.89000605  0.94769744
   0.89089693  0.77857217  0.05657180
unknown system                          
           1
     8.317411    4.794734    0.000000
    -8.308210    4.778746    0.000000
     0.000000    0.000000   30.000000
   V    Mo   W    S 
   3   3   3  18
Direct configuration=    20
   0.32181327  0.00046714  0.00003907
   0.67316059 -0.00443512  0.00056776
   1.01263575  0.33856393 -0.00018968
  -0.00464269 -0.01626199  0.00017987
  -0.01522285  0.67087471 -0.00006631
   0.69159551  0.67143695  0.00025074
   0.32465077  0.33044010 -0.00027056
   0.32278445  0.65378526 -0.00039252
   0.67375881  0.35548445  0.00019547
   0.10547483  0.22089141  0.94903972
   0.22396313  0.10802153  0.05202359
   0.10583004  0.55074194  0.94884301
   0.21470156  0.43891878  0.05322459
   0.11558902  0.89003961  0.94669298
   0.22353765  0.78132216  0.04995162
   0.44260120  0.21800189  0.94940153
   0.55450571  0.11056293  0.04672857
   0.44884395  0.55705087  0.94953204
   0.55470248  0.44715818  0.05285506
   0.44509223  0.89221080  0.95178337
   0.55788490  0.77896716  0.04950965
   0.78014606  0.22200488  0.95187316
   0.88773743  0.11336739  0.04952823
   0.77903609  0.55665221  0.94347384
   0.89144275  0.44323813  0.05101483
   0.77567433  0.89008906  0.94758001
   0.89091746  0.77862010  0.05663027
unknown system                          
           1
     8.307946    4.788603    0.000000
    -8.300786    4.776157    0.000000
     0.000000    0.000000   30.000000
   V    Mo   W    S 
   3   3   3  18
Direct configuration=    21
   0.32064187  0.00037657  0.00000121
   0.67395722 -0.00546365  0.00060093
   1.01340717  0.33829201 -0.00021654
  -0.00472277 -0.01643846  0.00021903
  -0.01511779  0.67131244 -0.00004191
   0.69237037  0.67240113  0.00026321
   0.32381225  0.33027446 -0.00027128
   0.32218555  0.65282989 -0.00044139
   0.67390528  0.35639620  0.00018765
   0.10546076  0.22065143  0.94896356
   0.22393758  0.10809085  0.05208016
   0.10557778  0.55064878  0.94885284
   0.21467169  0.43885308  0.05336941
   0.11552369  0.89001052  0.94660216
   0.22364846  0.78127994  0.04990564
   0.44249510  0.21813707  0.94946937
   0.55455589  0.11067398  0.04639146
   0.44912028  0.55714558  0.94964058
   0.55459071  0.44748577  0.05280626
   0.44487961  0.89209234  0.95198032
   0.55775670  0.77876237  0.04948954
   0.78003898  0.22204443  0.95208181
   0.88777794  0.11327081  0.04955521
   0.77922245  0.55697939  0.94341178
   0.89148845  0.44323927  0.05090454
   0.77593208  0.89017891  0.94746616
   0.89109713  0.77868934  0.05672820
unknown system                          
           1
     8.302699    4.785011    0.000000
    -8.297544    4.776044    0.000000
     0.000000    0.000000   30.000000
   V    Mo   W    S 
   3   3   3  18
Direct configuration=    22
   0.32404355  0.00051154  0.00009132
   0.67130172 -0.00275867  0.00052572
   1.01126282  0.33900504 -0.00011389
  -0.00457581 -0.01652343  0.00009113
  -0.01553142  0.67028193 -0.00009671
   0.69034381  0.66997529  0.00022104
   0.32640743  0.33091536 -0.00026189
   0.32415055  0.65584715 -0.00023525
   0.67337617  0.35383031  0.00012493
   0.10563426  0.22122415  0.94922484
   0.22409890  0.10788829  0.05183344
   0.10626676  0.55107841  0.94879094
   0.21493925  0.43915097  0.05298817
   0.11584013  0.89009032  0.94688964
   0.22320556  0.78132467  0.05002438
   0.44269475  0.21774621  0.94932408
   0.55430454  0.11044110  0.04735207
   0.44843363  0.55697151  0.94931197
   0.55474642  0.44650063  0.05302190
   0.44537287  0.89247604  0.95137780
   0.55806780  0.77928604  0.04949436
   0.78039574  0.22204020  0.95152127
   0.88762715  0.11347110  0.04940055
   0.77870271  0.55597207  0.94353140
   0.89139662  0.44325488  0.05124852
   0.77519520  0.88988338  0.94786778
   0.89051333  0.77832995  0.05645040
unknown system                          
           1
     8.305954    4.787291    0.000000
    -8.299324    4.775765    0.000000
     0.000000    0.000000   30.000000
   V    Mo   W    S 
   3   3   3  18
Direct configuration=    23
   0.32708722  0.00041340  0.00015019
   0.66869887 -0.00068288  0.00049286
   1.01020964  0.33987652 -0.00003292
  -0.00468356 -0.01709011  0.00000379
  -0.01607849  0.66930510 -0.00017142
   0.68881289  0.66799455  0.00016457
   0.32848191  0.33201880 -0.00024284
   0.32551593  0.65797334 -0.00010896
   0.67290898  0.35205747  0.00010540
   0.10581823  0.22149436  0.94950084
   0.22420034  0.10771738  0.05160536
   0.10683694  0.55151683  0.94880949
   0.21522403  0.43941042  0.05272651
   0.11611098  0.89001155  0.94705268
   0.22268243  0.78121706  0.05012564
   0.44278822  0.21752545  0.94920996
   0.55410578  0.11038636  0.04807036
   0.44804208  0.55699385  0.94910901
   0.55487725  0.44578603  0.05318513
   0.44566724  0.89282566  0.95087857
   0.55829316  0.77960508  0.04946674
   0.78073916  0.22214028  0.95118216
   0.88751729  0.11354883  0.04916601
   0.77839670  0.55534269  0.94355616
   0.89122702  0.44321206  0.05145555
   0.77471889  0.88966615  0.94819804
   0.89001531  0.77794822  0.05634101
unknown system                          
           1
     8.311903    4.789608    0.000000
    -8.305146    4.777864    0.000000
     0.000000    0.000000   30.000000
   V    Mo   W    S 
   3   3   3  18
Direct configuration=    24
   0.32787256 -0.00006435  0.00013432
   0.66753518 -0.00017755  0.00051058
   1.01073339  0.34028442 -0.00004067
  -0.00503702 -0.01806864  0.00000382
  -0.01637006  0.66925958 -0.00017052
   0.68865025  0.66736181  0.00017268
   0.32913976  0.33320091 -0.00024874
   0.32560598  0.65800610 -0.00004294
   0.67266034  0.35199054  0.00002801
   0.10590993  0.22131601  0.94966792
   0.22428804  0.10774533  0.05144841
   0.10692080  0.55169765  0.94883211
   0.21545427  0.43962272  0.05276796
   0.11618620  0.88979899  0.94705584
   0.22243051  0.78103851  0.05011050
   0.44277676  0.21764976  0.94924433
   0.55410939  0.11052107  0.04820552
   0.44818139  0.55725991  0.94907784
   0.55489638  0.44574080  0.05326733
   0.44566761  0.89295998  0.95074649