   27   27  100    1
  0.9710400E+02  0.1002848E-08  0.1002848E-08  0.3000000E-08  0.5000000E-15
  1.000000000000000E-004
  CAR 
 unknown system                          
    159     34    120
 
  0.0000000E+00  0.0000000E+00  0.0000000E+00  0.1562500E-01
    1      -17.786386   1.000000
    2      -16.695083   1.000000
    3      -16.596773   1.000000
    4      -16.584777   1.000000
    5      -16.492990   1.000000
    6      -16.477259   1.000000
    7      -16.410598   1.000000
    8      -16.352527   1.000000
    9      -16.131027   1.000000
   10      -16.126557   1.000000
   11      -16.097088   1.000000
   12      -16.018856   1.000000
   13      -15.884723   1.000000
   14      -15.663785   1.000000
   15      -15.635641   1.000000
   16      -15.524760   1.000000
   17      -15.319116   1.000000
   18      -15.269477   1.000000
   19       -9.214044   1.000000
   20       -8.963566   1.000000
   21       -8.934089   1.000000
   22       -8.825032   1.000000
   23       -8.743419   1.000000
   24       -8.713960   1.000000
   25       -8.650383   1.000000
   26       -8.604733   1.000000
   27       -8.502476   1.000000
   28       -8.437534   1.000000
   29       -8.378208   1.000000
   30       -8.346321   1.000000
   31       -8.316617   1.000000
   32       -8.172176   1.000000
   33       -7.995142   1.000000
   34       -7.979196   1.000000
   35       -7.863825   1.000000
   36       -7.797019   1.000000
   37       -7.775953   1.000000
   38       -7.538737   1.000000
   39       -7.407022   1.000000
   40       -7.388543   1.000000
   41       -7.343543   1.000000
   42       -7.272381   1.000000
   43       -7.104302   1.000000
   44       -6.967334   1.000000
   45       -6.831434   1.000000
   46       -6.792622   1.000000
   47       -6.735729   1.000000
   48       -6.586266   1.000000
   49       -6.568829   1.000000
   50       -6.506506   1.000000
   51       -6.425049   1.000000
   52       -6.383115   1.000000
   53       -6.286203   1.000000
   54       -6.280177   1.000000
   55       -6.234522   1.000000
   56       -6.200653   1.000000
   57       -6.039295   1.000000
   58       -5.926808   1.000000
   59       -5.704186   1.000000
   60       -5.570501   1.000000
   61       -5.528780   1.000000
   62       -5.432602   1.000000
   63       -5.304034   1.000000
   64       -5.177145   1.000000
   65       -5.139658   1.000000
   66       -5.019857   1.000000
   67       -4.992884   1.000000
   68       -4.841011   1.000000
   69       -4.810589   1.000000
   70       -4.738025   1.000000
   71       -4.652042   1.000000
   72       -4.578732   1.000000
   73       -4.477842   1.000000
   74       -4.192528   1.000000
   75       -4.158259   1.000000
   76       -4.055949   1.000000
   77       -3.740536   0.999668
   78       -3.542583   0.977498
   79       -3.519746   0.967346
   80       -3.423104   0.876931
   81       -3.314432   0.652230
   82       -2.878731   0.003578
   83       -2.636271   0.000005
   84       -2.583846   0.000001
   85       -2.447482   0.000000
   86       -2.414988   0.000000
   87       -2.253962   0.000000
   88       -2.171210   0.000000
   89       -2.147772   0.000000
   90       -2.021272   0.000000
   91       -1.973972   0.000000
   92       -1.864079   0.000000
   93       -1.444736   0.000000
   94       -1.234300   0.000000
   95       -1.120126   0.000000
   96       -1.056531   0.000000
   97       -0.995264   0.000000
   98       -0.850276   0.000000
   99       -0.713511   0.000000
  100       -0.680895   0.000000
  101       -0.658085   0.000000
  102       -0.445409   0.000000
  103       -0.406872   0.000000
  104       -0.384358   0.000000
  105       -0.267657   0.000000
  106       -0.103524   0.000000
  107       -0.082288   0.000000
  108        0.027191   0.000000
  109        0.055652   0.000000
  110        0.194974   0.000000
  111        0.318081   0.000000
  112        0.409648   0.000000
  113        0.720466   0.000000
  114        0.866709   0.000000
  115        0.988527   0.000000
  116        1.089781   0.000000
  117        1.151191   0.000000
  118        1.629773   0.000000
  119        1.824246   0.000000
  120        2.134822   0.000000
 
  0.1250000E+00  0.2775558E-16  0.0000000E+00  0.3125000E-01
    1      -17.761285   1.000000
    2      -16.772315   1.000000
    3      -16.674801   1.000000
    4      -16.602921   1.000000
    5      -16.517135   1.000000
    6      -16.433797   1.000000
    7      -16.370087   1.000000
    8      -16.290837   1.000000
    9      -16.195831   1.000000
   10      -16.110977   1.000000
   11      -16.033571   1.000000
   12      -15.985590   1.000000
   13      -15.860002   1.000000
   14      -15.680982   1.000000
   15      -15.636224   1.000000
   16      -15.530666   1.000000
   17      -15.325566   1.000000
   18      -15.274274   1.000000
   19       -9.213268   1.000000
   20       -9.131519   1.000000
   21       -8.993474   1.000000
   22       -8.931134   1.000000
   23       -8.776906   1.000000
   24       -8.718799   1.000000
   25       -8.684504   1.000000
   26       -8.548892   1.000000
   27       -8.486050   1.000000
   28       -8.448406   1.000000
   29       -8.392515   1.000000
   30       -8.262626   1.000000
   31       -8.199489   1.000000
   32       -8.064087   1.000000
   33       -7.978169   1.000000
   34       -7.890634   1.000000
   35       -7.823844   1.000000
   36       -7.748767   1.000000
   37       -7.709986   1.000000
   38       -7.569350   1.000000
   39       -7.481864   1.000000
   40       -7.382556   1.000000
   41       -7.291479   1.000000
   42       -7.237108   1.000000
   43       -7.144059   1.000000
   44       -7.013812   1.000000
   45       -6.875255   1.000000
   46       -6.823817   1.000000
   47       -6.751348   1.000000
   48       -6.623650   1.000000
   49       -6.544554   1.000000
   50       -6.450126   1.000000
   51       -6.433334   1.000000
   52       -6.382309   1.000000
   53       -6.331924   1.000000
   54       -6.262768   1.000000
   55       -6.213951   1.000000
   56       -6.170276   1.000000
   57       -5.964251   1.000000
   58       -5.939772   1.000000
   59       -5.708993   1.000000
   60       -5.572070   1.000000
   61       -5.554692   1.000000
   62       -5.440658   1.000000
   63       -5.312632   1.000000
   64       -5.288958   1.000000
   65       -5.198114   1.000000
   66       -5.079986   1.000000
   67       -5.010945   1.000000
   68       -4.853782   1.000000
   69       -4.813185   1.000000
   70       -4.708217   1.000000
   71       -4.609851   1.000000
   72       -4.492302   1.000000
   73       -4.450553   1.000000
   74       -4.175525   1.000000
   75       -4.075290   1.000000
   76       -4.039252   1.000000
   77       -3.898733   0.999997
   78       -3.697093   0.999023
   79       -3.478297   0.939436
   80       -3.418868   0.870725
   81       -3.177703   0.282488
   82       -2.847664   0.001812
   83       -2.627545   0.000004
   84       -2.588714   0.000001
   85       -2.434249   0.000000
   86       -2.404765   0.000000
   87       -2.237821   0.000000
   88       -2.159844   0.000000
   89       -2.131793   0.000000
   90       -2.019571   0.000000
   91       -1.966351   0.000000
   92       -1.869183   0.000000
   93       -1.446183   0.000000
   94       -1.243844   0.000000
   95       -1.111808   0.000000
   96       -1.052895   0.000000
   97       -0.989015   0.000000
   98       -0.862496   0.000000
   99       -0.771144   0.000000
  100       -0.728700   0.000000
  101       -0.664807   0.000000
  102       -0.512209   0.000000
  103       -0.483261   0.000000
  104       -0.433724   0.000000
  105       -0.306750   0.000000
  106       -0.176580   0.000000
  107       -0.132521   0.000000
  108       -0.015365   0.000000
  109        0.097571   0.000000
  110        0.204011   0.000000
  111        0.386432   0.000000
  112        0.493894   0.000000
  113        0.690215   0.000000
  114        0.861270   0.000000
  115        1.019847   0.000000
  116        1.095511   0.000000
  117        1.187299   0.000000
  118        1.673780   0.000000
  119        1.863658   0.000000
  120        2.169781   0.000000
 
  0.2500000E+00  0.5551115E-16  0.0000000E+00  0.3125000E-01
    1      -17.687008   1.000000
    2      -16.981603   1.000000
    3      -16.703245   1.000000
    4      -16.640946   1.000000
    5      -16.576815   1.000000
    6      -16.368678   1.000000
    7      -16.329464   1.000000
    8      -16.247480   1.000000
    9      -16.175002   1.000000
   10      -16.075203   1.000000
   11      -16.014441   1.000000
   12      -15.912293   1.000000
   13      -15.796692   1.000000
   14      -15.716804   1.000000
   15      -15.628778   1.000000
   16      -15.548322   1.000000
   17      -15.342789   1.000000
   18      -15.285574   1.000000
   19       -9.455293   1.000000
   20       -9.188608   1.000000
   21       -9.100473   1.000000
   22       -9.026972   1.000000
   23       -8.857757   1.000000
   24       -8.779250   1.000000
   25       -8.637956   1.000000
   26       -8.513260   1.000000
   27       -8.486212   1.000000
   28       -8.383605   1.000000
   29       -8.298394   1.000000
   30       -8.183830   1.000000
   31       -8.133752   1.000000
   32       -8.075565   1.000000
   33       -7.883933   1.000000
   34       -7.779356   1.000000
   35       -7.738794   1.000000
   36       -7.687452   1.000000
   37       -7.593790   1.000000
   38       -7.493211   1.000000
   39       -7.465670   1.000000
   40       -7.381199   1.000000
   41       -7.307275   1.000000
   42       -7.176019   1.000000
   43       -7.148521   1.000000
   44       -7.025485   1.000000
   45       -6.905018   1.000000
   46       -6.865233   1.000000
   47       -6.779157   1.000000
   48       -6.642258   1.000000
   49       -6.568951   1.000000
   50       -6.461806   1.000000
   51       -6.431921   1.000000
   52       -6.378682   1.000000
   53       -6.295666   1.000000
   54       -6.232110   1.000000
   55       -6.158552   1.000000
   56       -6.075416   1.000000
   57       -5.971779   1.000000
   58       -5.891807   1.000000
   59       -5.746253   1.000000
   60       -5.668550   1.000000
   61       -5.629461   1.000000
   62       -5.587908   1.000000
   63       -5.534856   1.000000
   64       -5.307172   1.000000
   65       -5.205320   1.000000
   66       -5.088938   1.000000
   67       -5.039672   1.000000
   68       -4.894435   1.000000
   69       -4.793028   1.000000
   70       -4.634076   1.000000
   71       -4.516466   1.000000
   72       -4.384168   1.000000
   73       -4.375173   1.000000
   74       -4.269641   1.000000
   75       -4.100309   1.000000
   76       -4.034388   1.000000
   77       -3.970542   1.000000
   78       -3.829366   0.999972
   79       -3.435086   0.893342
   80       -3.397737   0.836557
   81       -3.029274   0.052080
   82       -2.776254   0.000320
   83       -2.620242   0.000003
   84       -2.578021   0.000001
   85       -2.411655   0.000000
   86       -2.388088   0.000000
   87       -2.236167   0.000000
   88       -2.128278   0.000000
   89       -2.062493   0.000000
   90       -2.020372   0.000000
   91       -1.929037   0.000000
   92       -1.858574   0.000000
   93       -1.456585   0.000000
   94       -1.265072   0.000000
   95       -1.101712   0.000000
   96       -1.049381   0.000000
   97       -1.007953   0.000000
   98       -0.955061   0.000000
   99       -0.852700   0.000000
  100       -0.813777   0.000000
  101       -0.695211   0.000000
  102       -0.664735   0.000000
  103       -0.597045   0.000000
  104       -0.528254   0.000000
  105       -0.430673   0.000000
  106       -0.255899   0.000000
  107       -0.219563   0.000000
  108       -0.105907   0.000000
  109        0.117275   0.000000
  110        0.249391   0.000000
  111        0.396354   0.000000
  112        0.571342   0.000000
  113        0.711966   0.000000
  114        0.920303   0.000000
  115        1.037667   0.000000
  116        1.124327   0.000000
  117        1.303873   0.000000
  118        1.796255   0.000000
  119        1.975148   0.000000
  120        2.273407   0.000000
 
  0.3750000E+00  0.0000000E+00  0.0000000E+00  0.3125000E-01
    1      -17.567384   1.000000
    2      -17.197247   1.000000
    3      -16.740116   1.000000
    4      -16.656309   1.000000
    5      -16.596526   1.000000
    6      -16.379894   1.000000
    7      -16.315867   1.000000
    8      -16.200716   1.000000
    9      -16.120499   1.000000
   10      -16.015003   1.000000
   11      -15.980170   1.000000
   12      -15.890395   1.000000
   13      -15.782743   1.000000
   14      -15.759798   1.000000
   15      -15.583039   1.000000
   16      -15.554463   1.000000
   17      -15.371319   1.000000
   18      -15.293297   1.000000
   19       -9.667840   1.000000
   20       -9.276063   1.000000
   21       -9.177247   1.000000
   22       -9.001348   1.000000
   23       -8.914728   1.000000
   24       -8.820273   1.000000
   25       -8.569882   1.000000
   26       -8.471402   1.000000
   27       -8.420115   1.000000
   28       -8.317280   1.000000
   29       -8.284498   1.000000
   30       -8.199888   1.000000
   31       -8.143925   1.000000
   32       -8.023021   1.000000
   33       -7.944484   1.000000
   34       -7.797865   1.000000
   35       -7.723233   1.000000
   36       -7.652590   1.000000
   37       -7.573366   1.000000
   38       -7.464475   1.000000
   39       -7.388395   1.000000
   40       -7.257142   1.000000
   41       -7.212864   1.000000
   42       -7.145324   1.000000
   43       -7.072604   1.000000
   44       -7.030929   1.000000
   45       -6.871645   1.000000
   46       -6.821536   1.000000
   47       -6.697274   1.000000
   48       -6.597025   1.000000
   49       -6.577403   1.000000
   50       -6.508420   1.000000
   51       -6.409484   1.000000
   52       -6.343695   1.000000
   53       -6.267360   1.000000
   54       -6.180037   1.000000
   55       -6.149384   1.000000
   56       -6.077355   1.000000
   57       -5.995634   1.000000
   58       -5.942822   1.000000
   59       -5.865394   1.000000
   60       -5.823298   1.000000
   61       -5.754210   1.000000
   62       -5.674223   1.000000
   63       -5.595003   1.000000
   64       -5.385577   1.000000
   65       -5.187098   1.000000
   66       -5.017149   1.000000
   67       -4.999230   1.000000
   68       -4.899268   1.000000
   69       -4.836863   1.000000
   70       -4.706448   1.000000
   71       -4.515974   1.000000
   72       -4.445988   1.000000
   73       -4.308268   1.000000
   74       -4.237468   1.000000
   75       -4.154797   1.000000
   76       -4.068981   1.000000
   77       -3.955670   1.000000
   78       -3.724058   0.999495
   79       -3.471511   0.933460
   80       -3.348820   0.737126
   81       -2.928172   0.009644
   82       -2.715244   0.000060
   83       -2.630593   0.000004
   84       -2.546561   0.000000
   85       -2.398840   0.000000
   86       -2.357002   0.000000
   87       -2.264477   0.000000
   88       -2.094460   0.000000
   89       -2.021690   0.000000
   90       -1.976514   0.000000
   91       -1.888770   0.000000
   92       -1.799320   0.000000
   93       -1.475306   0.000000
   94       -1.282108   0.000000
   95       -1.177082   0.000000
   96       -1.088535   0.000000
   97       -1.057073   0.000000
   98       -0.977159   0.000000
   99       -0.899844   0.000000
  100       -0.890916   0.000000
  101       -0.827859   0.000000
  102       -0.749435   0.000000
  103       -0.675979   0.000000
  104       -0.598906   0.000000
  105       -0.485913   0.000000
  106       -0.317906   0.000000
  107       -0.281505   0.000000
  108       -0.194937   0.000000
  109        0.062143   0.000000
  110        0.234534   0.000000
  111        0.415146   0.000000
  112        0.600330   0.000000
  113        0.737327   0.000000
  114        0.979469   0.000000
  115        1.081332   0.000000
  116        1.191640   0.000000
  117        1.405795   0.000000
  118        1.979459   0.000000
  119        2.146330   0.000000
  120        2.441960   0.000000
 
  0.5000000E+00  0.1110223E-15  0.0000000E+00  0.1562500E-01
    1      -17.439833   1.000000
    2      -17.358597   1.000000
    3      -16.754400   1.000000
    4      -16.665588   1.000000
    5      -16.594729   1.000000
    6      -16.395518   1.000000
    7      -16.308914   1.000000
    8      -16.185269   1.000000
    9      -16.091144   1.000000
   10      -15.997064   1.000000
   11      -15.930887   1.000000
   12      -15.898752   1.000000
   13      -15.803714   1.000000
   14      -15.778253   1.000000
   15      -15.590013   1.000000
   16      -15.511282   1.000000
   17      -15.395348   1.000000
   18      -15.294406   1.000000
   19       -9.744278   1.000000
   20       -9.313114   1.000000
   21       -9.209698   1.000000
   22       -8.993861   1.000000
   23       -8.926050   1.000000
   24       -8.805144   1.000000
   25       -8.538974   1.000000
   26       -8.470460   1.000000
   27       -8.421023   1.000000
   28       -8.290863   1.000000
   29       -8.256933   1.000000
   30       -8.199517   1.000000
   31       -8.105584   1.000000
   32       -8.059662   1.000000
   33       -7.930769   1.000000
   34       -7.876318   1.000000
   35       -7.764960   1.000000
   36       -7.646525   1.000000
   37       -7.581251   1.000000
   38       -7.436498   1.000000
   39       -7.381188   1.000000
   40       -7.196403   1.000000
   41       -7.162133   1.000000
   42       -7.111619   1.000000
   43       -7.048676   1.000000
   44       -6.964663   1.000000
   45       -6.869025   1.000000
   46       -6.736475   1.000000
   47       -6.639553   1.000000
   48       -6.598389   1.000000
   49       -6.549352   1.000000
   50       -6.473979   1.000000
   51       -6.387977   1.000000
   52       -6.360999   1.000000
   53       -6.284241   1.000000
   54       -6.269934   1.000000
   55       -6.226700   1.000000
   56       -6.123794   1.000000
   57       -5.994583   1.000000
   58       -5.934181   1.000000
   59       -5.876506   1.000000
   60       -5.810535   1.000000
   61       -5.758963   1.000000
   62       -5.651350   1.000000
   63       -5.605694   1.000000
   64       -5.467682   1.000000
   65       -5.250144   1.000000
   66       -5.044319   1.000000
   67       -4.970865   1.000000
   68       -4.955603   1.000000
   69       -4.881528   1.000000
   70       -4.680331   1.000000
   71       -4.512177   1.000000
   72       -4.420751   1.000000
   73       -4.285719   1.000000
   74       -4.245796   1.000000
   75       -4.203131   1.000000
   76       -4.055759   1.000000
   77       -3.923545   0.999999
   78       -3.650201   0.997159
   79       -3.514909   0.964770
   80       -3.330232   0.692545
   81       -2.888139   0.004358
   82       -2.705950   0.000046
   83       -2.619285   0.000003
   84       -2.542588   0.000000
   85       -2.392901   0.000000
   86       -2.328398   0.000000
   87       -2.285204   0.000000
   88       -2.089405   0.000000
   89       -2.000526   0.000000
   90       -1.958570   0.000000
   91       -1.872723   0.000000
   92       -1.753967   0.000000
   93       -1.486296   0.000000
   94       -1.269895   0.000000
   95       -1.254904   0.000000
   96       -1.095662   0.000000
   97       -1.075403   0.000000
   98       -1.019794   0.000000
   99       -0.912795   0.000000
  100       -0.899056   0.000000
  101       -0.885192   0.000000
  102       -0.781307   0.000000
  103       -0.710434   0.000000
  104       -0.613885   0.000000
  105       -0.503163   0.000000
  106       -0.346448   0.000000
  107       -0.300419   0.000000
  108       -0.231024   0.000000
  109        0.028884   0.000000
  110        0.220526   0.000000
  111        0.427351   0.000000
  112        0.615911   0.000000
  113        0.733572   0.000000
  114        0.998279   0.000000
  115        1.113045   0.000000
  116        1.219081   0.000000
  117        1.445471   0.000000
  118        2.200299   0.000000
  119        2.221640   0.000000
  120        2.363038   0.000000
 
  0.0000000E+00  0.1250000E+00  0.0000000E+00  0.3125000E-01
    1      -17.761357   1.000000
    2      -16.767508   1.000000
    3      -16.652062   1.000000
    4      -16.622173   1.000000
    5      -16.547815   1.000000
    6      -16.415685   1.000000
    7      -16.355116   1.000000
    8      -16.311636   1.000000
    9      -16.185180   1.000000
   10      -16.114415   1.000000
   11      -16.035144   1.000000
   12      -15.967071   1.000000
   13      -15.880722   1.000000
   14      -15.684162   1.000000
   15      -15.629921   1.000000
   16      -15.523884   1.000000
   17      -15.321406   1.000000
   18      -15.280915   1.000000
   19       -9.232319   1.000000
   20       -9.112328   1.000000
   21       -8.991102   1.000000
   22       -8.951373   1.000000
   23       -8.783248   1.000000
   24       -8.727808   1.000000
   25       -8.647835   1.000000
   26       -8.586573   1.000000
   27       -8.488662   1.000000
   28       -8.398578   1.000000
   29       -8.377683   1.000000
   30       -8.327328   1.000000
   31       -8.164374   1.000000
   32       -8.057219   1.000000
   33       -7.983116   1.000000
   34       -7.930029   1.000000
   35       -7.805490   1.000000
   36       -7.737103   1.000000
   37       -7.673783   1.000000
   38       -7.554216   1.000000
   39       -7.530775   1.000000
   40       -7.383432   1.000000
   41       -7.310605   1.000000
   42       -7.229359   1.000000
   43       -7.112929   1.000000
   44       -6.980595   1.000000
   45       -6.928084   1.000000
   46       -6.842870   1.000000
   47       -6.732198   1.000000
   48       -6.600212   1.000000
   49       -6.490790   1.000000
   50       -6.468082   1.000000
   51       -6.421605   1.000000
   52       -6.394346   1.000000
   53       -6.323750   1.000000
   54       -6.277228   1.000000
   55       -6.222139   1.000000
   56       -6.193389   1.000000
   57       -5.987913   1.000000
   58       -5.942869   1.000000
   59       -5.685749   1.000000
   60       -5.608823   1.000000
   61       -5.543241   1.000000
   62       -5.440369   1.000000
   63       -5.356247   1.000000
   64       -5.234537   1.000000
   65       -5.156888   1.000000
   66       -5.024477   1.000000
   67       -4.992359   1.000000
   68       -4.926190   1.000000
   69       -4.800013   1.000000
   70       -4.730043   1.000000
   71       -4.702362   1.000000
   72       -4.506224   1.000000
   73       -4.431720   1.000000
   74       -4.178537   1.000000
   75       -4.048099   1.000000
   76       -4.033823   1.000000
   77       -3.831157   0.999974
   78       -3.752930   0.999760
   79       -3.540464   0.976685
   80       -3.319985   0.666626
   81       -3.189725   0.311903
   82       -2.851051   0.001956
   83       -2.617375   0.000003
   84       -2.604790   0.000002
   85       -2.448737   0.000000
   86       -2.379991   0.000000
   87       -2.256814   0.000000
   88       -2.157895   0.000000
   89       -2.133352   0.000000
   90       -2.017948   0.000000
   91       -1.992940   0.000000
   92       -1.847831   0.000000
   93       -1.439810   0.000000
   94       -1.228555   0.000000
   95       -1.121891   0.000000
   96       -1.044154   0.000000
   97       -0.994652   0.000000
   98       -0.871808   0.000000
   99       -0.774172   0.000000
  100       -0.731512   0.000000
  101       -0.681918   0.000000
  102       -0.553298   0.000000
  103       -0.469211   0.000000
  104       -0.415744   0.000000
  105       -0.328183   0.000000
  106       -0.122286   0.000000
  107       -0.088591   0.000000
  108        0.009187   0.000000
  109        0.059967   0.000000
  110        0.227595   0.000000
  111        0.405249   0.000000
  112        0.501238   0.000000
  113        0.730194   0.000000
  114        0.836597   0.000000
  115        0.986666   0.000000
  116        1.097602   0.000000
  117        1.123182   0.000000
  118        1.673846   0.000000
  119        1.862324   0.000000
  120        2.169906   0.000000
 
  0.1250000E+00  0.1250000E+00  0.0000000E+00  0.3125000E-01
    1      -17.711048   1.000000
    2      -16.903457   1.000000
    3      -16.757813   1.000000
    4      -16.627697   1.000000
    5      -16.499641   1.000000
    6      -16.405652   1.000000
    7      -16.311917   1.000000
    8      -16.285532   1.000000
    9      -16.187348   1.000000
   10      -16.106033   1.000000
   11      -16.005365   1.000000
   12      -15.907131   1.000000
   13      -15.838026   1.000000
   14      -15.705425   1.000000
   15      -15.633862   1.000000
   16      -15.527419   1.000000
   17      -15.336545   1.000000
   18      -15.287501   1.000000
   19       -9.380426   1.000000
   20       -9.209486   1.000000
   21       -9.102970   1.000000
   22       -9.022859   1.000000
   23       -8.796504   1.000000
   24       -8.703549   1.000000
   25       -8.668386   1.000000
   26       -8.563341   1.000000
   27       -8.454510   1.000000
   28       -8.387797   1.000000
   29       -8.314328   1.000000
   30       -8.247639   1.000000
   31       -8.129689   1.000000
   32       -8.062761   1.000000
   33       -7.918369   1.000000
   34       -7.826848   1.000000
   35       -7.765927   1.000000
   36       -7.691362   1.000000
   37       -7.643583   1.000000
   38       -7.493518   1.000000
   39       -7.440436   1.000000
   40       -7.352330   1.000000
   41       -7.308830   1.000000
   42       -7.224256   1.000000
   43       -7.131664   1.000000
   44       -7.020464   1.000000
   45       -6.954240   1.000000
   46       -6.838284   1.000000
   47       -6.757614   1.000000
   48       -6.620155   1.000000
   49       -6.570239   1.000000
   50       -6.466212   1.000000
   51       -6.422846   1.000000
   52       -6.360305   1.000000
   53       -6.307940   1.000000
   54       -6.233355   1.000000
   55       -6.174460   1.000000
   56       -6.151294   1.000000
   57       -5.998773   1.000000
   58       -5.888400   1.000000
   59       -5.750832   1.000000
   60       -5.677189   1.000000
   61       -5.582021   1.000000
   62       -5.477602   1.000000
   63       -5.411859   1.000000
   64       -5.286587   1.000000
   65       -5.227255   1.000000
   66       -5.108415   1.000000
   67       -5.049885   1.000000
   68       -4.936199   1.000000
   69       -4.779132   1.000000
   70       -4.684980   1.000000
   71       -4.593591   1.000000
   72       -4.427342   1.000000
   73       -4.370481   1.000000
   74       -4.166372   1.000000
   75       -4.147189   1.000000
   76       -4.036225   1.000000
   77       -3.914259   0.999998
   78       -3.823197   0.999967
   79       -3.494353   0.951902
   80       -3.311708   0.645087
   81       -3.048053   0.067819
   82       -2.806624   0.000689
   83       -2.632399   0.000005
   84       -2.581326   0.000001
   85       -2.436515   0.000000
   86       -2.374455   0.000000
   87       -2.262250   0.000000
   88       -2.127564   0.000000
   89       -2.090876   0.000000
   90       -2.053614   0.000000
   91       -1.952793   0.000000
   92       -1.827909   0.000000
   93       -1.443264   0.000000
   94       -1.246307   0.000000
   95       -1.120244   0.000000
   96       -1.042392   0.000000
   97       -0.974886   0.000000
   98       -0.926513   0.000000
   99       -0.859027   0.000000
  100       -0.798498   0.000000
  101       -0.699266   0.000000
  102       -0.662403   0.000000
  103       -0.544989   0.000000
  104       -0.498498   0.000000
  105       -0.393528   0.000000
  106       -0.185780   0.000000
  107       -0.158130   0.000000
  108       -0.044424   0.000000
  109        0.077727   0.000000
  110        0.250028   0.000000
  111        0.449751   0.000000
  112        0.584870   0.000000
  113        0.757557   0.000000
  114        0.862618   0.000000
  115        1.019834   0.000000
  116        1.057965   0.000000
  117        1.184527   0.000000
  118        1.757302   0.000000
  119        1.937208   0.000000
  120        2.239407   0.000000
 
  0.2500000E+00  0.1250000E+00  0.0000000E+00  0.3125000E-01
    1      -17.613378   1.000000
    2      -17.091367   1.000000
    3      -16.859362   1.000000
    4      -16.617531   1.000000
    5      -16.495294   1.000000
    6      -16.353762   1.000000
    7      -16.331151   1.000000
    8      -16.241724   1.000000
    9      -16.143831   1.000000
   10      -16.078521   1.000000
   11      -15.968045   1.000000
   12      -15.895446   1.000000
   13      -15.790932   1.000000
   14      -15.728222   1.000000
   15      -15.612241   1.000000
   16      -15.536162   1.000000
   17      -15.364905   1.000000
   18      -15.289193   1.000000
   19       -9.583560   1.000000
   20       -9.365094   1.000000
   21       -9.180360   1.000000
   22       -9.017888   1.000000
   23       -8.792556   1.000000
   24       -8.732352   1.000000
   25       -8.596389   1.000000
   26       -8.480203   1.000000
   27       -8.426248   1.000000
   28       -8.370608   1.000000
   29       -8.282946   1.000000
   30       -8.179338   1.000000
   31       -8.133496   1.000000
   32       -8.086372   1.000000
   33       -7.962303   1.000000
   34       -7.840620   1.000000
   35       -7.755994   1.000000
   36       -7.624171   1.000000
   37       -7.553779   1.000000
   38       -7.483168   1.000000
   39       -7.346819   1.000000
   40       -7.303965   1.000000
   41       -7.215327   1.000000
   42       -7.177765   1.000000
   43       -7.126969   1.000000
   44       -6.951355   1.000000
   45       -6.913199   1.000000
   46       -6.806512   1.000000
   47       -6.716784   1.000000