<?xml version="1.0" encoding="ISO-8859-1"?>
<modeling>
 <generator>
  <i name="program" type="string">vasp </i>
  <i name="version" type="string">5.4.1  </i>
  <i name="subversion" type="string">05Feb16 (build Jul 05 2020 17:13:04) complex                          parallel </i>
  <i name="platform" type="string">IFC91_ompi </i>
  <i name="date" type="string">2024 07 18 </i>
  <i name="time" type="string">02:10:31 </i>
 </generator>
 <incar>
  <i type="int" name="ISTART">     0</i>
  <i type="string" name="PREC">normal</i>
  <i type="string" name="ALGO"> Normal</i>
  <i type="int" name="ISPIN">     1</i>
  <i type="int" name="ICHARG">     2</i>
  <i type="int" name="IBRION">     1</i>
  <i type="int" name="NSW">   100</i>
  <i type="int" name="ISIF">     3</i>
  <i type="int" name="ISYM">     0</i>
  <i name="SYMPREC">      0.00000001</i>
  <i name="POTIM">      0.50000000</i>
  <i type="logical" name="LREAL"> F  </i>
  <i type="logical" name="LPLANE"> F  </i>
  <i type="int" name="ISMEAR">     0</i>
  <i type="logical" name="LWAVE"> F  </i>
  <i type="logical" name="LCHARG"> F  </i>
  <v type="int" name="KPOINT_BSE">    -1     0     0     0</v>
 </incar>
 <kpoints>
  <generation param="Gamma">
   <v type="int" name="divisions">       8        8        1 </v>
   <v name="usershift">      0.00000000       0.00000000       0.00000000 </v>
   <v name="genvec1">      0.12500000       0.00000000       0.00000000 </v>
   <v name="genvec2">     -0.00000000       0.12500000       0.00000000 </v>
   <v name="genvec3">      0.00000000       0.00000000       1.00000000 </v>
   <v name="shift">      0.00000000       0.00000000       0.00000000 </v>
  </generation>
  <varray name="kpointlist" >
   <v>       0.00000000       0.00000000       0.00000000 </v>
   <v>       0.12500000       0.00000000       0.00000000 </v>
   <v>       0.25000000       0.00000000       0.00000000 </v>
   <v>       0.37500000       0.00000000       0.00000000 </v>
   <v>       0.50000000       0.00000000       0.00000000 </v>
   <v>       0.00000000       0.12500000       0.00000000 </v>
   <v>       0.12500000       0.12500000       0.00000000 </v>
   <v>       0.25000000       0.12500000       0.00000000 </v>
   <v>       0.37500000       0.12500000       0.00000000 </v>
   <v>       0.50000000       0.12500000       0.00000000 </v>
   <v>      -0.37500000       0.12500000       0.00000000 </v>
   <v>      -0.25000000       0.12500000       0.00000000 </v>
   <v>      -0.12500000       0.12500000       0.00000000 </v>
   <v>       0.00000000       0.25000000       0.00000000 </v>
   <v>       0.12500000       0.25000000       0.00000000 </v>
   <v>       0.25000000       0.25000000       0.00000000 </v>
   <v>       0.37500000       0.25000000       0.00000000 </v>
   <v>       0.50000000       0.25000000       0.00000000 </v>
   <v>      -0.37500000       0.25000000       0.00000000 </v>
   <v>      -0.25000000       0.25000000       0.00000000 </v>
   <v>      -0.12500000       0.25000000       0.00000000 </v>
   <v>      -0.00000000       0.37500000       0.00000000 </v>
   <v>       0.12500000       0.37500000       0.00000000 </v>
   <v>       0.25000000       0.37500000       0.00000000 </v>
   <v>       0.37500000       0.37500000       0.00000000 </v>
   <v>       0.50000000       0.37500000       0.00000000 </v>
   <v>      -0.37500000       0.37500000       0.00000000 </v>
   <v>      -0.25000000       0.37500000       0.00000000 </v>
   <v>      -0.12500000       0.37500000       0.00000000 </v>
   <v>       0.00000000       0.50000000       0.00000000 </v>
   <v>       0.12500000       0.50000000       0.00000000 </v>
   <v>       0.25000000       0.50000000       0.00000000 </v>
   <v>       0.37500000       0.50000000       0.00000000 </v>
   <v>       0.50000000       0.50000000       0.00000000 </v>
  </varray>
  <varray name="weights" >
   <v>       0.01562500 </v>
   <v>       0.03125000 </v>
   <v>       0.03125000 </v>
   <v>       0.03125000 </v>
   <v>       0.01562500 </v>
   <v>       0.03125000 </v>
   <v>       0.03125000 </v>
   <v>       0.03125000 </v>
   <v>       0.03125000 </v>
   <v>       0.03125000 </v>
   <v>       0.03125000 </v>
   <v>       0.03125000 </v>
   <v>       0.03125000 </v>
   <v>       0.03125000 </v>
   <v>       0.03125000 </v>
   <v>       0.03125000 </v>
   <v>       0.03125000 </v>
   <v>       0.03125000 </v>
   <v>       0.03125000 </v>
   <v>       0.03125000 </v>
   <v>       0.03125000 </v>
   <v>       0.03125000 </v>
   <v>       0.03125000 </v>
   <v>       0.03125000 </v>
   <v>       0.03125000 </v>
   <v>       0.03125000 </v>
   <v>       0.03125000 </v>
   <v>       0.03125000 </v>
   <v>       0.03125000 </v>
   <v>       0.01562500 </v>
   <v>       0.03125000 </v>
   <v>       0.03125000 </v>
   <v>       0.03125000 </v>
   <v>       0.01562500 </v>
  </varray>
 </kpoints>
 <parameters>
  <separator name="general" >
   <i type="string" name="SYSTEM">unknown system</i>
   <i type="logical" name="LCOMPAT"> F  </i>
  </separator>
  <separator name="electronic" >
   <i type="string" name="PREC">normal</i>
   <i name="ENMAX">    280.00000000</i>
   <i name="ENAUG">    373.43800000</i>
   <i name="EDIFF">      0.00010000</i>
   <i type="int" name="IALGO">    38</i>
   <i type="int" name="IWAVPR">    11</i>
   <i type="int" name="NBANDS">   120</i>
   <i name="NELECT">    159.00000000</i>
   <i type="int" name="TURBO">     0</i>
   <i type="int" name="IRESTART">     0</i>
   <i type="int" name="NREBOOT">     0</i>
   <i type="int" name="NMIN">     0</i>
   <i name="EREF">      0.00000000</i>
   <separator name="electronic smearing" >
    <i type="int" name="ISMEAR">     0</i>
    <i name="SIGMA">      0.20000000</i>
    <i name="KSPACING">      0.50000000</i>
    <i type="logical" name="KGAMMA"> T  </i>
   </separator>
   <separator name="electronic projectors" >
    <i type="logical" name="LREAL"> F  </i>
    <v name="ROPT">      0.00000000      0.00000000      0.00000000      0.00000000</v>
    <i type="int" name="LMAXPAW">  -100</i>
    <i type="int" name="LMAXMIX">     2</i>
    <i type="logical" name="NLSPLINE"> F  </i>
   </separator>
   <separator name="electronic startup" >
    <i type="int" name="ISTART">     0</i>
    <i type="int" name="ICHARG">     2</i>
    <i type="int" name="INIWAV">     1</i>
   </separator>
   <separator name="electronic spin" >
    <i type="int" name="ISPIN">     1</i>
    <i type="logical" name="LNONCOLLINEAR"> F  </i>
    <v name="MAGMOM">      1.00000000      1.00000000      1.00000000      1.00000000      1.00000000      1.00000000      1.00000000      1.00000000      1.00000000      1.00000000      1.00000000      1.00000000      1.00000000      1.00000000      1.00000000      1.00000000      1.00000000      1.00000000      1.00000000      1.00000000
      1.00000000      1.00000000      1.00000000      1.00000000      1.00000000      1.00000000      1.00000000</v>
    <i name="NUPDOWN">     -1.00000000</i>
    <i type="logical" name="LSORBIT"> F  </i>
    <v name="SAXIS">      0.00000000      0.00000000      1.00000000</v>
    <i type="logical" name="LSPIRAL"> F  </i>
    <v name="QSPIRAL">      0.00000000      0.00000000      0.00000000</v>
    <i type="logical" name="LZEROZ"> F  </i>
   </separator>
   <separator name="electronic exchange-correlation" >
    <i type="logical" name="LASPH"> F  </i>
    <i type="logical" name="LMETAGGA"> F  </i>
   </separator>
   <separator name="electronic convergence" >
    <i type="int" name="NELM">    60</i>
    <i type="int" name="NELMDL">    -5</i>
    <i type="int" name="NELMIN">     2</i>
    <i name="ENINI">    280.00000000</i>
    <separator name="electronic convergence detail" >
     <i type="logical" name="LDIAG"> T  </i>
     <i type="logical" name="LSUBROT"> F  </i>
     <i name="WEIMIN">      0.00100000</i>
     <i name="EBREAK">      0.00000021</i>
     <i name="DEPER">      0.30000000</i>
     <i type="int" name="NRMM">     4</i>
     <i name="TIME">      0.40000000</i>
    </separator>
   </separator>
   <separator name="electronic mixer" >
    <i name="AMIX">      0.40000000</i>
    <i name="BMIX">      1.00000000</i>
    <i name="AMIN">      0.10000000</i>
    <i name="AMIX_MAG">      1.60000000</i>
    <i name="BMIX_MAG">      1.00000000</i>
    <separator name="electronic mixer details" >
     <i type="int" name="IMIX">     4</i>
     <i type="logical" name="MIXFIRST"> F  </i>
     <i type="int" name="MAXMIX">   -45</i>
     <i name="WC">    100.00000000</i>
     <i type="int" name="INIMIX">     1</i>
     <i type="int" name="MIXPRE">     1</i>
     <i type="int" name="MREMOVE">     5</i>
    </separator>
   </separator>
   <separator name="electronic dipolcorrection" >
    <i type="logical" name="LDIPOL"> F  </i>
    <i type="logical" name="LMONO"> F  </i>
    <i type="int" name="IDIPOL">     0</i>
    <i name="EPSILON">      1.00000000</i>
    <v name="DIPOL">   -100.00000000   -100.00000000   -100.00000000</v>
    <i name="EFIELD">      0.00000000</i>
   </separator>
  </separator>
  <separator name="grids" >
   <i type="int" name="NGX">    42</i>
   <i type="int" name="NGY">    42</i>
   <i type="int" name="NGZ">   126</i>
   <i type="int" name="NGXF">    84</i>
   <i type="int" name="NGYF">    84</i>
   <i type="int" name="NGZF">   252</i>
   <i type="logical" name="ADDGRID"> F  </i>
  </separator>
  <separator name="ionic" >
   <i type="int" name="NSW">   100</i>
   <i type="int" name="IBRION">     1</i>
   <i type="int" name="ISIF">     3</i>
   <i name="PSTRESS">      0.00000000</i>
   <i name="EDIFFG">      0.00100000</i>
   <i type="int" name="NFREE">     0</i>
   <i name="POTIM">      0.50000000</i>
   <i name="SMASS">     -3.00000000</i>
   <i name="SCALEE">      1.00000000</i>
  </separator>
  <separator name="ionic md" >
   <i name="TEBEG">      0.00010000</i>
   <i name="TEEND">      0.00010000</i>
   <i type="int" name="NBLOCK">     1</i>
   <i type="int" name="KBLOCK">   100</i>
   <i type="int" name="NPACO">   256</i>
   <i name="APACO">     16.00000000</i>
  </separator>
  <separator name="symmetry" >
   <i type="int" name="ISYM">     0</i>
   <i name="SYMPREC">      0.00000001</i>
  </separator>
  <separator name="dos" >
   <i type="logical" name="LORBIT"> F  </i>
   <v name="RWIGS">     -1.00000000     -1.00000000     -1.00000000     -1.00000000</v>
   <i type="int" name="NEDOS">   301</i>
   <i name="EMIN">     10.00000000</i>
   <i name="EMAX">    -10.00000000</i>
   <i name="EFERMI">      0.00000000</i>
  </separator>
  <separator name="writing" >
   <i type="int" name="NWRITE">     2</i>
   <i type="logical" name="LWAVE"> F  </i>
   <i type="logical" name="LCHARG"> F  </i>
   <i type="logical" name="LPARD"> F  </i>
   <i type="logical" name="LVTOT"> F  </i>
   <i type="logical" name="LVHAR"> F  </i>
   <i type="logical" name="LELF"> F  </i>
   <i type="logical" name="LOPTICS"> F  </i>
   <v name="STM">      0.00000000      0.00000000      0.00000000      0.00000000      0.00000000      0.00000000      0.00000000</v>
  </separator>
  <separator name="performance" >
   <i type="int" name="NPAR">    40</i>
   <i type="int" name="NSIM">     4</i>
   <i type="int" name="NBLK">    -1</i>
   <i type="logical" name="LPLANE"> F  </i>
   <i type="logical" name="LSCALAPACK"> T  </i>
   <i type="logical" name="LSCAAWARE"> F  </i>
   <i type="logical" name="LSCALU"> F  </i>
   <i type="logical" name="LASYNC"> F  </i>
   <i type="logical" name="LORBITALREAL"> F  </i>
  </separator>
  <separator name="miscellaneous" >
   <i type="int" name="IDIOT">     3</i>
   <i type="logical" name="LMUSIC"> F  </i>
   <v name="POMASS">     50.94100000     95.94000000    183.85000000     32.06600000</v>
   <v name="DARWINR">      0.00000000      0.00000000      0.00000000      0.00000000</v>
   <v name="DARWINV">      1.00000000      1.00000000      1.00000000      1.00000000</v>
   <i type="logical" name="LCORR"> T  </i>
  </separator>
  <i type="logical" name="GGA_COMPAT"> T  </i>
  <i type="logical" name="LBERRY"> F  </i>
  <i type="int" name="ICORELEVEL">     0</i>
  <i type="logical" name="LDAU"> F  </i>
  <i type="int" name="I_CONSTRAINED_M">     0</i>
  <separator name="electronic exchange-correlation" >
   <i type="string" name="GGA">--</i>
   <i type="int" name="VOSKOWN">     0</i>
   <i type="logical" name="LHFCALC"> F  </i>
   <i type="string" name="PRECFOCK"></i>
   <i type="logical" name="LSYMGRAD"> F  </i>
   <i type="logical" name="LHFONE"> F  </i>
   <i type="logical" name="LRHFCALC"> F  </i>
   <i type="logical" name="LTHOMAS"> F  </i>
   <i type="logical" name="LMODELHF"> F  </i>
   <i name="ENCUT4O">     -1.00000000</i>
   <i type="int" name="EXXOEP">     0</i>
   <i type="int" name="FOURORBIT">     0</i>
   <i name="AEXX">      0.00000000</i>
   <i name="HFALPHA">      0.00000000</i>
   <i name="MCALPHA">      0.00000000</i>
   <i name="ALDAX">      1.00000000</i>
   <i name="AGGAX">      1.00000000</i>
   <i name="ALDAC">      1.00000000</i>
   <i name="AGGAC">      1.00000000</i>
   <i type="int" name="NKREDX">     1</i>
   <i type="int" name="NKREDY">     1</i>
   <i type="int" name="NKREDZ">     1</i>
   <i type="logical" name="SHIFTRED"> F  </i>
   <i type="logical" name="ODDONLY"> F  </i>
   <i type="logical" name="EVENONLY"> F  </i>
   <i type="int" name="LMAXFOCK">     0</i>
   <i type="int" name="NMAXFOCKAE">     0</i>
   <i type="logical" name="LFOCKAEDFT"> F  </i>
   <i name="HFSCREEN">      0.00000000</i>
   <i name="HFSCREENC">      0.00000000</i>
   <i type="int" name="NBANDSGWLOW">     0</i>
  </separator>
  <separator name="vdW DFT" >
   <i type="logical" name="LUSE_VDW"> F  </i>
   <i name="Zab_VDW">     -0.84910000</i>
   <i name="PARAM1">      0.12340000</i>
   <i name="PARAM2">      1.00000000</i>
   <i name="PARAM3">      0.00000000</i>
  </separator>
  <separator name="model GW" >
   <i type="int" name="MODEL_GW">     0</i>
   <i name="MODEL_EPS0">     58.26239943</i>
   <i name="MODEL_ALPHA">      1.00000000</i>
  </separator>
  <separator name="linear response parameters" >
   <i type="logical" name="LEPSILON"> F  </i>
   <i type="logical" name="LRPA"> F  </i>
   <i type="logical" name="LNABLA"> F  </i>
   <i type="logical" name="LVEL"> F  </i>
   <i type="int" name="KINTER">     0</i>
   <i name="CSHIFT">      0.10000000</i>
   <i name="OMEGAMAX">     -1.00000000</i>
   <i name="DEG_THRESHOLD">      0.00200000</i>
  </separator>
  <separator name="orbital magnetization" >
   <i type="logical" name="NUCIND"> F  </i>
   <v name="MAGPOS">      0.00000000      0.00000000      0.00000000</v>
   <i type="logical" name="LNICSALL"> T  </i>
   <i type="logical" name="ORBITALMAG"> F  </i>
   <i type="logical" name="LMAGBLOCH"> F  </i>
   <i type="logical" name="LCHIMAG"> F  </i>
   <i type="logical" name="LGAUGE"> T  </i>
   <i type="int" name="MAGATOM">     0</i>
   <v name="MAGDIPOL">      0.00000000      0.00000000      0.00000000</v>
   <v name="AVECCONST">      0.00000000      0.00000000      0.00000000</v>
  </separator>
  <separator name="response functions" >
   <i type="logical" name="LADDER"> F  </i>
   <i type="logical" name="LFXC"> F  </i>
   <i type="logical" name="LHARTREE"> T  </i>
   <i type="int" name="IBSE">     0</i>
   <v type="int" name="KPOINT">    -1     0     0     0</v>
   <i type="logical" name="LTCTE"> F  </i>
   <i type="logical" name="LTETE"> F  </i>
   <i type="logical" name="LTRIPLET"> F  </i>
   <i type="logical" name="LFXCEPS"> F  </i>
   <i type="logical" name="LFXHEG"> F  </i>
   <i type="int" name="NATURALO">     0</i>
   <i type="logical" name="L2ORDER"> F  </i>
   <i type="logical" name="LUSEW"> F  </i>
   <i name="ENCUTGW">     -2.00000000</i>
   <i name="ENCUTGWSOFT">     -2.00000000</i>
   <i name="ENCUTLF">     -1.00000000</i>
   <i type="int" name="LMAXMP2">    -1</i>
   <i name="SCISSOR">      0.00000000</i>
   <i type="int" name="NOMEGA">     0</i>
   <i type="int" name="NOMEGAR">     0</i>
   <i type="int" name="NBANDSGW">    -1</i>
   <i type="int" name="NBANDSO">    -1</i>
   <i type="int" name="NBANDSV">    -1</i>
   <i type="int" name="NELM">     1</i>
   <i type="int" name="NELMHF">     1</i>
   <i type="int" name="DIM">     3</i>
   <i type="int" name="ANTIRES">     0</i>
   <i name="OMEGAMAX">    -30.00000000</i>
   <i name="OMEGAMIN">    -30.00000000</i>
   <i name="OMEGATL">   -200.00000000</i>
   <i type="int" name="OMEGAGRID">     0</i>
   <i name="CSHIFT">     -0.10000000</i>
   <i type="logical" name="SELFENERGY"> F  </i>
   <i type="logical" name="LSPECTRAL"> F  </i>
   <i type="logical" name="LSPECTRALGW"> F  </i>
   <i type="logical" name="LSINGLES"> F  </i>
   <i type="logical" name="LFERMIGW"> F  </i>
   <i type="logical" name="ODDONLYGW"> F  </i>
   <i type="logical" name="EVENONLYGW"> F  </i>
   <i type="int" name="NKREDLFX">     1</i>
   <i type="int" name="NKREDLFY">     1</i>
   <i type="int" name="NKREDLFZ">     1</i>
   <i type="int" name="MAXMEM">  1800</i>
   <i type="int" name="TELESCOPE">     0</i>
   <i type="int" name="TAUPAR">     1</i>
   <i type="int" name="OMEGAPAR">    -1</i>
   <i name="LAMBDA">      1.00000000</i>
  </separator>
  <separator name="External order field" >
   <i name="OFIELD_KAPPA">      0.00000000</i>
   <v name="OFIELD_K">      0.00000000      0.00000000      0.00000000</v>
   <i name="OFIELD_Q6_NEAR">      0.00000000</i>
   <i name="OFIELD_Q6_FAR">      0.00000000</i>
   <i name="OFIELD_A">      0.00000000</i>
  </separator>
 </parameters>
 <atominfo>
  <atoms>      27 </atoms>
  <types>       4 </types>
  <array name="atoms" >
   <dimension dim="1">ion</dimension>
   <field type="string">element</field>
   <field type="int">atomtype</field>
   <set>
    <rc><c>V </c><c>   1</c></rc>
    <rc><c>V </c><c>   1</c></rc>
    <rc><c>V </c><c>   1</c></rc>
    <rc><c>Mo</c><c>   2</c></rc>
    <rc><c>Mo</c><c>   2</c></rc>
    <rc><c>Mo</c><c>   2</c></rc>
    <rc><c>W </c><c>   3</c></rc>
    <rc><c>W </c><c>   3</c></rc>
    <rc><c>W </c><c>   3</c></rc>
    <rc><c>S </c><c>   4</c></rc>
    <rc><c>S </c><c>   4</c></rc>
    <rc><c>S </c><c>   4</c></rc>
    <rc><c>S </c><c>   4</c></rc>
    <rc><c>S </c><c>   4</c></rc>
    <rc><c>S </c><c>   4</c></rc>
    <rc><c>S </c><c>   4</c></rc>
    <rc><c>S </c><c>   4</c></rc>
    <rc><c>S </c><c>   4</c></rc>
    <rc><c>S </c><c>   4</c></rc>
    <rc><c>S </c><c>   4</c></rc>
    <rc><c>S </c><c>   4</c></rc>
    <rc><c>S </c><c>   4</c></rc>
    <rc><c>S </c><c>   4</c></rc>
    <rc><c>S </c><c>   4</c></rc>
    <rc><c>S </c><c>   4</c></rc>
    <rc><c>S </c><c>   4</c></rc>
    <rc><c>S </c><c>   4</c></rc>
   </set>
  </array>
  <array name="atomtypes" >
   <dimension dim="1">type</dimension>
   <field type="int">atomspertype</field>
   <field type="string">element</field>
   <field>mass</field>
   <field>valence</field>
   <field type="string">pseudopotential</field>
   <set>
    <rc><c>   3</c><c>V </c><c>     50.94100000</c><c>      5.00000000</c><c> PAW_PBE V 08Apr2002                    </c></rc>
    <rc><c>   3</c><c>Mo</c><c>     95.94000000</c><c>      6.00000000</c><c> PAW_PBE Mo 08Apr2002                   </c></rc>
    <rc><c>   3</c><c>W </c><c>    183.85000000</c><c>      6.00000000</c><c> PAW_PBE W 08Apr2002                    </c></rc>
    <rc><c>  18</c><c>S </c><c>     32.06600000</c><c>      6.00000000</c><c>  PAW_PBE S 17Jan2003                   </c></rc>
   </set>
  </array>
 </atominfo>
 <structure name="initialpos" >
  <crystal>
   <varray name="basis" >
    <v>       8.66999996       5.03999989       0.00000000 </v>
    <v>      -8.66999982       5.04000013       0.00000000 </v>
    <v>       0.00000000       0.00000000      30.00000000 </v>
   </varray>
   <i name="volume">   2621.80797419 </i>
   <varray name="rec_basis" >
    <v>       0.05767013       0.09920635       0.00000000 </v>
    <v>      -0.05767013       0.09920635       0.00000000 </v>
    <v>       0.00000000       0.00000000       0.03333333 </v>
   </varray>
  </crystal>
  <varray name="positions" >
   <v>       1.00000000       0.33333334       0.00000000 </v>
   <v>       0.66666669       0.00000000       0.00000000 </v>
   <v>       0.00000000       0.00000000       0.00000000 </v>
   <v>       0.33333334       0.00000000       0.00000000 </v>
   <v>       0.66666669       0.66666669       0.00000000 </v>
   <v>       0.33333334       0.33333334       0.00000000 </v>
   <v>       0.00000000       0.66666669       0.00000000 </v>
   <v>       0.33333334       0.66666669       0.00000000 </v>
   <v>       0.66666669       0.33333334       0.00000000 </v>
   <v>       0.11068511       0.22244981       0.95539999 </v>
   <v>       0.22244981       0.11068511       0.04460000 </v>
   <v>       0.11068511       0.55578315       0.95539999 </v>
   <v>       0.22244981       0.44401845       0.04460000 </v>
   <v>       0.11068511       0.88911647       0.95539999 </v>
   <v>       0.22244981       0.77735180       0.04460000 </v>
   <v>       0.44401845       0.22244981       0.95539999 </v>
   <v>       0.55578315       0.11068511       0.04460000 </v>
   <v>       0.44401845       0.55578315       0.95539999 </v>
   <v>       0.55578315       0.44401845       0.04460000 </v>
   <v>       0.44401845       0.88911647       0.95539999 </v>
   <v>       0.55578315       0.77735180       0.04460000 </v>
   <v>       0.77735180       0.22244981       0.95539999 </v>
   <v>       0.88911647       0.11068511       0.04460000 </v>
   <v>       0.77735180       0.55578315       0.95539999 </v>
   <v>       0.88911647       0.44401845       0.04460000 </v>
   <v>       0.77735180       0.88911647       0.95539999 </v>
   <v>       0.88911647       0.77735180       0.04460000 </v>
  </varray>
 </structure>
 <calculation>
  <scstep>
   <time name="dav">   22.31   22.37</time>
   <time name="total">   22.36   22.42</time>
   <energy>
    <i name="alphaZ">     81.65567618 </i>
    <i name="ewald">  41891.17177387 </i>
    <i name="hartreedc"> -47723.81656504 </i>
    <i name="XCdc">   -242.92509168 </i>
    <i name="pawpsdc">   3467.42045192 </i>
    <i name="pawaedc">  -2871.19716117 </i>
    <i name="eentropy">     -0.52839084 </i>
    <i name="bandstr">   -237.09258719 </i>
    <i name="atom">   6761.44252427 </i>
    <i name="e_fr_energy">   1126.13063031 </i>
    <i name="e_wo_entrp">   1126.65902115 </i>
    <i name="e_0_energy">   1126.39482573 </i>
   </energy>
  </scstep>
  <scstep>
   <time name="dav">   29.05   29.12</time>
   <time name="total">   29.05   29.13</time>
   <energy>
    <i name="e_fr_energy">     -0.56497271 </i>
    <i name="e_wo_entrp">     -0.35106884 </i>
    <i name="e_0_energy">     -0.45802078 </i>
   </energy>
  </scstep>
  <scstep>
   <time name="dav">   28.14   28.21</time>
   <time name="total">   28.15   28.22</time>
   <energy>
    <i name="e_fr_energy">   -199.79613387 </i>
    <i name="e_wo_entrp">   -199.52610277 </i>
    <i name="e_0_energy">   -199.66111832 </i>
   </energy>
  </scstep>
  <scstep>
   <time name="dav">   30.91   30.99</time>
   <time name="total">   30.92   31.00</time>
   <energy>
    <i name="e_fr_energy">   -208.98410888 </i>
    <i name="e_wo_entrp">   -208.69064615 </i>
    <i name="e_0_energy">   -208.83737751 </i>
   </energy>
  </scstep>
  <scstep>
   <time name="dav">   29.20   29.27</time>
   <time name="total">   29.66   29.74</time>
   <energy>
    <i name="e_fr_energy">   -209.29996740 </i>
    <i name="e_wo_entrp">   -209.00965538 </i>
    <i name="e_0_energy">   -209.15481139 </i>
   </energy>
  </scstep>
  <scstep>
   <time name="dav">   31.22   31.29</time>
   <time name="total">   31.71   31.80</time>
   <energy>
    <i name="e_fr_energy">   -237.73316503 </i>
    <i name="e_wo_entrp">   -237.47257849 </i>
    <i name="e_0_energy">   -237.60287176 </i>
   </energy>
  </scstep>
  <scstep>
   <time name="dav">   33.61   33.69</time>
   <time name="total">   34.12   34.20</time>
   <energy>
    <i name="e_fr_energy">   -196.63058284 </i>
    <i name="e_wo_entrp">   -196.30669910 </i>
    <i name="e_0_energy">   -196.46864097 </i>
   </energy>
  </scstep>
  <scstep>
   <time name="dav">   30.30   30.38</time>
   <time name="total">   30.81   30.89</time>
   <energy>
    <i name="e_fr_energy">   -189.65481588 </i>
    <i name="e_wo_entrp">   -189.34785367 </i>
    <i name="e_0_energy">   -189.50133478 </i>
   </energy>
  </scstep>
  <scstep>
   <time name="dav">   32.31   32.39</time>
   <time name="total">   32.83   32.92</time>
   <energy>
    <i name="e_fr_energy">   -188.22108527 </i>
    <i name="e_wo_entrp">   -187.89154890 </i>
    <i name="e_0_energy">   -188.05631708 </i>
   </energy>
  </scstep>
  <scstep>
   <time name="dav">   33.30   33.38</time>
   <time name="total">   33.83   33.92</time>
   <energy>
    <i name="e_fr_energy">   -186.95510038 </i>
    <i name="e_wo_entrp">   -186.60252457 </i>
    <i name="e_0_energy">   -186.77881248 </i>
   </energy>
  </scstep>
  <scstep>
   <time name="dav">   33.21   33.29</time>
   <time name="total">   33.74   33.83</time>
   <energy>
    <i name="e_fr_energy">   -187.02479038 </i>
    <i name="e_wo_entrp">   -186.68306934 </i>
    <i name="e_0_energy">   -186.85392986 </i>
   </energy>
  </scstep>
  <scstep>
   <time name="dav">   32.48   32.56</time>
   <time name="total">   33.01   33.10</time>
   <energy>
    <i name="e_fr_energy">   -186.94222936 </i>
    <i name="e_wo_entrp">   -186.60542376 </i>
    <i name="e_0_energy">   -186.77382656 </i>
   </energy>
  </scstep>
  <scstep>
   <time name="dav">   32.63   32.71</time>
   <time name="total">   33.16   33.25</time>
   <energy>
    <i name="e_fr_energy">   -186.88482420 </i>
    <i name="e_wo_entrp">   -186.54806323 </i>
    <i name="e_0_energy">   -186.71644372 </i>
   </energy>
  </scstep>
  <scstep>
   <time name="dav">   32.19   32.27</time>
   <time name="total">   32.73   32.81</time>
   <energy>
    <i name="e_fr_energy">   -186.84536444 </i>
    <i name="e_wo_entrp">   -186.50016737 </i>
    <i name="e_0_energy">   -186.67276590 </i>
   </energy>
  </scstep>
  <scstep>
   <time name="dav">   31.69   31.76</time>
   <time name="total">   32.22   32.31</time>
   <energy>
    <i name="e_fr_energy">   -186.84163376 </i>
    <i name="e_wo_entrp">   -186.49651335 </i>
    <i name="e_0_energy">   -186.66907356 </i>
   </energy>
  </scstep>
  <scstep>
   <time name="dav">   33.68   33.76</time>
   <time name="total">   34.21   34.30</time>
   <energy>
    <i name="e_fr_energy">   -186.84034031 </i>
    <i name="e_wo_entrp">   -186.49585729 </i>
    <i name="e_0_energy">   -186.66809880 </i>
   </energy>
  </scstep>
  <scstep>
   <time name="dav">   31.75   31.83</time>
   <time name="total">   32.29   32.37</time>
   <energy>
    <i name="e_fr_energy">   -186.83797435 </i>
    <i name="e_wo_entrp">   -186.49487300 </i>
    <i name="e_0_energy">   -186.66642367 </i>
   </energy>
  </scstep>
  <scstep>
   <time name="dav">   31.03   31.10</time>
   <time name="total">   31.56   31.64</time>
   <energy>
    <i name="e_fr_energy">   -186.83767669 </i>
    <i name="e_wo_entrp">   -186.49398395 </i>
    <i name="e_0_energy">   -186.66583032 </i>
   </energy>
  </scstep>
  <scstep>
   <time name="dav">   25.96   26.02</time>
   <time name="total">   25.99   26.06</time>
   <energy>
    <i name="alphaZ">     81.65567618 </i>
    <i name="ewald">  41891.17177387 </i>
    <i name="hartreedc"> -47818.60636022 </i>
    <i name="XCdc">   -231.69430949 </i>
    <i name="pawpsdc">   4194.33511383 </i>
    <i name="pawaedc">  -3612.35418649 </i>
    <i name="eentropy">     -0.34368417 </i>
    <i name="bandstr">  -1452.44418247 </i>
    <i name="atom">   6761.44252427 </i>
    <i name="e_fr_energy">   -186.83763469 </i>
    <i name="e_wo_entrp">   -186.49395052 </i>
    <i name="e_0_energy">   -186.66579260 </i>
   </energy>
  </scstep>
  <structure>
   <crystal>
    <varray name="basis" >
     <v>       8.66999996       5.03999989       0.00000000 </v>
     <v>      -8.66999982       5.04000013       0.00000000 </v>
     <v>       0.00000000       0.00000000      30.00000000 </v>
    </varray>
    <i name="volume">   2621.80797419 </i>
    <varray name="rec_basis" >
     <v>       0.05767013       0.09920635       0.00000000 </v>
     <v>      -0.05767013       0.09920635       0.00000000 </v>
     <v>       0.00000000       0.00000000       0.03333333 </v>
    </varray>
   </crystal>
   <varray name="positions" >
    <v>       1.00000000       0.33333334       0.00000000 </v>
    <v>       0.66666669       0.00000000       0.00000000 </v>
    <v>       0.00000000       0.00000000       0.00000000 </v>
    <v>       0.33333334       0.00000000       0.00000000 </v>
    <v>       0.66666669       0.66666669       0.00000000 </v>
    <v>       0.33333334       0.33333334       0.00000000 </v>
    <v>       0.00000000       0.66666669       0.00000000 </v>
    <v>       0.33333334       0.66666669       0.00000000 </v>
    <v>       0.66666669       0.33333334       0.00000000 </v>
    <v>       0.11068511       0.22244981       0.95539999 </v>
    <v>       0.22244981       0.11068511       0.04460000 </v>
    <v>       0.11068511       0.55578315       0.95539999 </v>
    <v>       0.22244981       0.44401845       0.04460000 </v>
    <v>       0.11068511       0.88911647       0.95539999 </v>
    <v>       0.22244981       0.77735180       0.04460000 </v>
    <v>       0.44401845       0.22244981       0.95539999 </v>
    <v>       0.55578315       0.11068511       0.04460000 </v>
    <v>       0.44401845       0.55578315       0.95539999 </v>
    <v>       0.55578315       0.44401845       0.04460000 </v>
    <v>       0.44401845       0.88911647       0.95539999 </v>
    <v>       0.55578315       0.77735180       0.04460000 </v>
    <v>       0.77735180       0.22244981       0.95539999 </v>
    <v>       0.88911647       0.11068511       0.04460000 </v>
    <v>       0.77735180       0.55578315       0.95539999 </v>
    <v>       0.88911647       0.44401845       0.04460000 </v>
    <v>       0.77735180       0.88911647       0.95539999 </v>
    <v>       0.88911647       0.77735180       0.04460000 </v>
   </varray>
  </structure>
  <varray name="forces" >
   <v>       0.29776984      -0.00867933       0.00941587 </v>
   <v>       0.11088338      -0.10556230      -0.01404564 </v>
   <v>       0.02797779       0.11529313       0.00079497 </v>
   <v>      -0.27939870       0.14440072      -0.05575029 </v>
   <v>      -0.01883467      -0.23480687       0.03557197 </v>
   <v>       0.24775893       0.08101402       0.10384212 </v>
   <v>      -0.32739423       0.14974389      -0.09608237 </v>
   <v>       0.30495014       0.17997580      -0.11031816 </v>
   <v>      -0.44085068      -0.33967215       0.09671222 </v>
   <v>      -0.32501035      -0.68021828      -1.40332960 </v>
   <v>      -0.54128073      -0.68414829       2.14453577 </v>
   <v>       0.45578638      -0.54729166      -2.16296480 </v>
   <v>      -0.59612247      -0.55500865       2.13803830 </v>
   <v>      -0.63941461      -0.15415148      -2.14920059 </v>
   <v>      -0.05425862      -0.12912007       2.84006811 </v>
   <v>       0.23036540       0.12460644      -2.92377761 </v>
   <v>       0.66398578       0.17916445       2.09685438 </v>
   <v>      -0.07979949      -0.00139460      -2.88063562 </v>
   <v>       0.05929269       0.00745072       2.97255704 </v>
   <v>       0.60362982       0.52192250      -2.15396454 </v>
   <v>      -0.59522789       0.55512124       2.17554544 </v>
   <v>       0.76153776      -0.00001765      -1.42663520 </v>
   <v>      -0.06592460       0.00322651       0.77780062 </v>
   <v>       0.30232269       0.03608108      -2.87246594 </v>
   <v>       0.59713332      -0.01230967       2.08037585 </v>
   <v>      -0.32766145       0.67043238      -1.38918631 </v>
   <v>      -0.37221542       0.68394813       2.16624402 </v>
  </varray>
  <varray name="stress" >
   <v>       7.45141775       0.08557415      -1.53913658 </v>
   <v>       0.08557423       4.53959341       0.06456416 </v>
   <v>      -1.53913676       0.06456406      31.15498600 </v>
  </varray>
  <energy>
   <i name="e_fr_energy">   -186.83763469 </i>
   <i name="e_wo_entrp">   -186.66579260 </i>
   <i name="e_0_energy">     -0.34368417 </i>
  </energy>
  <time name="totalsc">  635.41  637.08</time>
 </calculation>
 <calculation>
  <scstep>
   <time name="dav">   22.30   22.36</time>
   <time name="total">   22.85   22.91</time>
   <energy>
    <i name="alphaZ">     78.86775998 </i>
    <i name="ewald">  39350.34192838 </i>
    <i name="hartreedc"> -45297.72147879 </i>
    <i name="XCdc">   -239.17971797 </i>
    <i name="pawpsdc">   4193.11929945 </i>
    <i name="pawaedc">  -3611.12103177 </i>
    <i name="eentropy">     -0.28173298 </i>
    <i name="bandstr">  -1422.95965130 </i>
    <i name="atom">   6761.44252427 </i>
    <i name="e_fr_energy">   -187.49210073 </i>
    <i name="e_wo_entrp">   -187.21036775 </i>
    <i name="e_0_energy">   -187.35123424 </i>
   </energy>
  </scstep>
  <scstep>
   <time name="dav">   30.10   30.18</time>
   <time name="total">   30.64   30.72</time>
   <energy>
    <i name="e_fr_energy">   -189.51276625 </i>
    <i name="e_wo_entrp">   -189.17645093 </i>
    <i name="e_0_energy">   -189.34460859 </i>
   </energy>
  </scstep>
  <scstep>
   <time name="dav">   30.90   30.98</time>
   <time name="total">   31.45   31.53</time>
   <energy>
    <i name="e_fr_energy">   -189.32886392 </i>
    <i name="e_wo_entrp">   -189.06724103 </i>
    <i name="e_0_energy">   -189.19805247 </i>
   </energy>
  </scstep>
  <scstep>
   <time name="dav">   30.80   30.88</time>
   <time name="total">   31.35   31.43</time>
   <energy>
    <i name="e_fr_energy">   -188.78433316 </i>
    <i name="e_wo_entrp">   -188.50091555 </i>
    <i name="e_0_energy">   -188.64262435 </i>
   </energy>
  </scstep>
  <scstep>
   <time name="dav">   27.97   28.04</time>
   <time name="total">   28.52   28.59</time>
   <energy>
    <i name="e_fr_energy">   -188.82978383 </i>
    <i name="e_wo_entrp">   -188.54243435 </i>
    <i name="e_0_energy">   -188.68610909 </i>
   </energy>
  </scstep>
  <scstep>
   <time name="dav">   30.91   30.99</time>
   <time name="total">   31.46   31.54</time>
   <energy>
    <i name="e_fr_energy">   -188.71339588 </i>
    <i name="e_wo_entrp">   -188.42977309 </i>
    <i name="e_0_energy">   -188.57158448 </i>
   </energy>
  </scstep>
  <scstep>
   <time name="dav">   30.23   30.31</time>
   <time name="total">   30.78   30.86</time>
   <energy>
    <i name="e_fr_energy">   -188.70110258 </i>
    <i name="e_wo_entrp">   -188.41569251 </i>
    <i name="e_0_energy">   -188.55839754 </i>
   </energy>
  </scstep>
  <scstep>
   <time name="dav">   29.78   29.85</time>
   <time name="total">   30.33   30.41</time>
   <energy>
    <i name="e_fr_energy">   -188.67008037 </i>
    <i name="e_wo_entrp">   -188.38626777 </i>
    <i name="e_0_energy">   -188.52817407 </i>
   </energy>
  </scstep>
  <scstep>
   <time name="dav">   29.41   29.48</time>
   <time name="total">   29.96   30.04</time>
   <energy>
    <i name="e_fr_energy">   -188.64691081 </i>
    <i name="e_wo_entrp">   -188.36464218 </i>
    <i name="e_0_energy">   -188.50577650 </i>
   </energy>
  </scstep>
  <scstep>
   <time name="dav">   27.17   27.24</time>
   <time name="total">   27.72   27.79</time>
   <energy>
    <i name="e_fr_energy">   -188.64395849 </i>
    <i name="e_wo_entrp">   -188.36254094 </i>
    <i name="e_0_energy">   -188.50324972 </i>
   </energy>
  </scstep>
  <scstep>
   <time name="dav">   32.36   32.43</time>
   <time name="total">   32.90   32.99</time>
   <energy>
    <i name="e_fr_energy">   -188.64345949 </i>
    <i name="e_wo_entrp">   -188.36327535 </i>
    <i name="e_0_energy">   -188.50336742 </i>
   </energy>
  </scstep>
  <scstep>
   <time name="dav">   28.49   28.56</time>
   <time name="total">   29.04   29.12</time>
   <energy>
    <i name="e_fr_energy">   -188.64347297 </i>
    <i name="e_wo_entrp">   -188.36333165 </i>
    <i name="e_0_energy">   -188.50340231 </i>
   </energy>
  </scstep>
  <scstep>
   <time name="dav">   19.47   19.52</time>
   <time name="total">   20.02   20.08</time>
   <energy>
    <i name="e_fr_energy">   -188.64361000 </i>
    <i name="e_wo_entrp">   -188.36319782 </i>
    <i name="e_0_energy">   -188.50340391 </i>
   </energy>
  </scstep>
  <scstep>
   <time name="dav">   19.61   19.65</time>
   <time name="total">   20.16   20.21</time>
   <energy>
    <i name="e_fr_energy">   -188.64384480 </i>
    <i name="e_wo_entrp">   -188.36345386 </i>
    <i name="e_0_energy">   -188.50364933 </i>
   </energy>
  </scstep>
  <scstep>
   <time name="dav">   22.46   22.51</time>
   <time name="total">   22.50   22.56</time>
   <energy>
    <i name="alphaZ">     78.86775998 </i>
    <i name="ewald">  39350.34192838 </i>
    <i name="hartreedc"> -45315.68231593 </i>
    <i name="XCdc">   -238.03161783 </i>
    <i name="pawpsdc">   3948.19339273 </i>
    <i name="pawaedc">  -3362.67154129 </i>
    <i name="eentropy">     -0.28043294 </i>
    <i name="bandstr">  -1410.82360536 </i>
    <i name="atom">   6761.44252427 </i>
    <i name="e_fr_energy">   -188.64390798 </i>
    <i name="e_wo_entrp">   -188.36347504 </i>
    <i name="e_0_energy">   -188.50369151 </i>
   </energy>
  </scstep>
  <structure>
   <crystal>
    <varray name="basis" >
     <v>       8.86015395       5.10906597       0.00000000 </v>
     <v>      -8.85763171       5.10472762       0.00000000 </v>
     <v>       0.00000000       0.00000000      30.00000000 </v>
    </varray>
    <i name="volume">   2714.48692086 </i>
    <varray name="rec_basis" >
     <v>       0.05641649       0.09789288       0.00000000 </v>
     <v>      -0.05646444       0.09792076       0.00000000 </v>
     <v>       0.00000000       0.00000000       0.03333333 </v>
    </varray>
   </crystal>
   <varray name="positions" >
    <v>       1.00078690       0.33246336       0.00001514 </v>
    <v>       0.66646996      -0.00081371      -0.00002259 </v>
    <v>       0.00062963       0.00047395       0.00000128 </v>
    <v>       0.33324711       0.00146843      -0.00008965 </v>
    <v>       0.66549051       0.66559531       0.00005720 </v>
    <v>       0.33441038       0.33303177       0.00016699 </v>
    <v>      -0.00019419       0.66829422      -0.00015451 </v>
    <v>       0.33504312       0.66667963      -0.00017740 </v>
    <v>       0.66381451       0.33293420       0.00015552 </v>
    <v>       0.10652537       0.22009853       0.95314331 </v>
    <v>       0.21766956       0.10891672       0.04804860 </v>
    <v>       0.10933386       0.55189576       0.95192175 </v>
    <v>       0.21813504       0.44302070       0.04803815 </v>
    <v>       0.10816839       0.89015765       0.95194389 </v>
    <v>       0.22168089       0.77688479       0.04916708 </v>
    <v>       0.44525573       0.22240526       0.95069830 </v>
    <v>       0.55848794       0.10969527       0.04797193 </v>
    <v>       0.44378976       0.55599849       0.95076767 </v>
    <v>       0.55598377       0.44388915       0.04938013 </v>
    <v>       0.44819576       0.88993498       0.95193622 </v>
    <v>       0.55678393       0.78166461       0.04809847 </v>
    <v>       0.77947043       0.22033100       0.95310583 </v>
    <v>       0.88894850       0.11088396       0.04585077 </v>
    <v>       0.77836559       0.55511473       0.95078081 </v>
    <v>       0.89071887       0.44229822       0.04794543 </v>
    <v>       0.77964886       0.89323675       0.95316606 </v>
    <v>       0.89135426       0.78166072       0.04808351 </v>
   </varray>
  </structure>
  <varray name="forces" >
   <v>       0.18265329       0.06196267      -0.01423661 </v>
   <v>       0.05940537      -0.15030866      -0.10067598 </v>
   <v>       0.12451902       0.08402582      -0.01136849 </v>
   <v>      -0.24522032       0.12299339       0.06338625 </v>
   <v>       0.12319760      -0.47181735      -0.05076551 </v>
   <v>       0.40757644       0.37235280       0.03863319 </v>
   <v>      -0.22482711       0.18408994       0.07108623 </v>
   <v>       0.23479474       0.13308158      -0.03604490 </v>
   <v>      -0.62334624      -0.31144809       0.05265003 </v>
   <v>       0.00224093      -0.05360598       0.08532854 </v>
   <v>      -0.04431060      -0.06866147       0.07546268 </v>
   <v>      -0.05655884       0.07574722       0.13449297 </v>
   <v>      -0.06225017       0.05578157      -0.04690009 </v>
   <v>      -0.00046105      -0.10050868      -0.10818197 </v>
   <v>       0.07689814      -0.10845653      -0.16036985 </v>
   <v>       0.05080090       0.10070033      -0.22014648 </v>
   <v>      -0.02368565       0.11916090      -0.02474499 </v>
   <v>      -0.13425798      -0.01669869      -0.12933594 </v>
   <v>       0.14065555      -0.01173706       0.30352455 </v>
   <v>       0.07937381      -0.05492948       0.02359128 </v>
   <v>      -0.07037755      -0.04434161       0.04579510 </v>
   <v>      -0.09641263      -0.00597130       0.27460052 </v>
   <v>      -0.00337228      -0.00297241      -0.13721489 </v>
   <v>       0.12570172      -0.00228975       0.00159793 </v>
   <v>      -0.10622978      -0.00856865      -0.24052341 </v>
   <v>      -0.01399554       0.05175981       0.15271528 </v>
   <v>       0.09748823       0.05065968      -0.04235542 </v>
  </varray>
  <varray name="stress" >
   <v>     -19.98501967      -0.00496396       0.04152940 </v>
   <v>      -0.00496412     -19.57512729      -0.01800925 </v>
   <v>       0.04152953      -0.01800908      -1.69394622 </v>
  </varray>
  <energy>
   <i name="e_fr_energy">   -188.64390798 </i>
   <i name="e_wo_entrp">   -188.50369151 </i>
   <i name="e_0_energy">     -0.28043294 </i>
  </energy>
  <time name="totalsc">  462.52  463.74</time>
 </calculation>
 <calculation>
  <scstep>
   <time name="dav">   24.49   24.54</time>
   <time name="total">   25.02   25.08</time>
   <energy>
    <i name="alphaZ">     82.31593363 </i>
    <i name="ewald">  41287.71738872 </i>
    <i name="hartreedc"> -47284.08220782 </i>
    <i name="XCdc">   -233.87272958 </i>
    <i name="pawpsdc">   3948.11704036 </i>
    <i name="pawaedc">  -3362.59531135 </i>
    <i name="eentropy">     -0.23483688 </i>
    <i name="bandstr">  -1389.40315174 </i>
    <i name="atom">   6761.44252427 </i>
    <i name="e_fr_energy">   -190.59535038 </i>
    <i name="e_wo_entrp">   -190.36051350 </i>
    <i name="e_0_energy">   -190.47793194 </i>
   </energy>
  </scstep>
  <scstep>
   <time name="dav">   30.61   30.69</time>
   <time name="total">   31.14   31.22</time>
   <energy>
    <i name="e_fr_energy">   -190.53292466 </i>
    <i name="e_wo_entrp">   -190.30933756 </i>
    <i name="e_0_energy">   -190.42113111 </i>
   </energy>
  </scstep>
  <scstep>
   <time name="dav">   31.28   31.35</time>
   <time name="total">   31.80   31.89</time>
   <energy>
    <i name="e_fr_energy">   -190.07258483 </i>
    <i name="e_wo_entrp">   -189.82102870 </i>
    <i name="e_0_energy">   -189.94680676 </i>
   </energy>
  </scstep>
  <scstep>
   <time name="dav">   32.82   32.90</time>
   <time name="total">   33.35   33.44</time>
   <energy>
    <i name="e_fr_energy">   -189.85679835 </i>
    <i name="e_wo_entrp">   -189.62935521 </i>
    <i name="e_0_energy">   -189.74307678 </i>
   </energy>
  </scstep>
  <scstep>
   <time name="dav">   31.09   31.17</time>
   <time name="total">   31.63   31.71</time>
   <energy>
    <i name="e_fr_energy">   -189.80875006 </i>
    <i name="e_wo_entrp">   -189.56655418 </i>
    <i name="e_0_energy">   -189.68765212 </i>
   </energy>
  </scstep>
  <scstep>
   <time name="dav">   31.54   31.62</time>
   <time name="total">   32.07   32.16</time>
   <energy>
    <i name="e_fr_energy">   -189.75591442 </i>
    <i name="e_wo_entrp">   -189.52184366 </i>
    <i name="e_0_energy">   -189.63887904 </i>
   </energy>
  </scstep>
  <scstep>
   <time name="dav">   30.28   30.35</time>
   <time name="total">   30.81   30.89</time>
   <energy>
    <i name="e_fr_energy">   -189.75037640 </i>
    <i name="e_wo_entrp">   -189.51392580 </i>
    <i name="e_0_energy">   -189.63215110 </i>
   </energy>
  </scstep>
  <scstep>
   <time name="dav">   29.85   29.92</time>
   <time name="total">   30.38   30.46</time>
   <energy>
    <i name="e_fr_energy">   -189.75128678 </i>
    <i name="e_wo_entrp">   -189.51568219 </i>
    <i name="e_0_energy">   -189.63348449 </i>
   </energy>
  </scstep>
  <scstep>
   <time name="dav">   29.58   29.65</time>
   <time name="total">   30.11   30.19</time>
   <energy>
    <i name="e_fr_energy">   -189.74997526 </i>
    <i name="e_wo_entrp">   -189.51396757 </i>
    <i name="e_0_energy">   -189.63197142 </i>
   </energy>
  </scstep>
  <scstep>
   <time name="dav">   26.69   26.75</time>
   <time name="total">   27.22   27.29</time>
   <energy>
    <i name="e_fr_energy">   -189.75036734 </i>
    <i name="e_wo_entrp">   -189.51438956 </i>
    <i name="e_0_energy">   -189.63237845 </i>
   </energy>
  </scstep>
  <scstep>
   <time name="dav">   27.18   27.25</time>
   <time name="total">   27.71   27.79</time>
   <energy>
    <i name="e_fr_energy">   -189.75009159 </i>
    <i name="e_wo_entrp">   -189.51393644 </i>
    <i name="e_0_energy">   -189.63201401 </i>
   </energy>
  </scstep>
  <scstep>
   <time name="dav">   19.57   19.61</time>
   <time name="total">   19.60   19.66</time>
   <energy>
    <i name="alphaZ">     82.31593363 </i>
    <i name="ewald">  41287.71738872 </i>
    <i name="hartreedc"> -47259.01289288 </i>
    <i name="XCdc">   -235.26738371 </i>
    <i name="pawpsdc">   4038.30866241 </i>
    <i name="pawaedc">  -3454.00245927 </i>
    <i name="eentropy">     -0.23615206 </i>
    <i name="bandstr">  -1411.01575992 </i>
    <i name="atom">   6761.44252427 </i>
    <i name="e_fr_energy">   -189.75013881 </i>
    <i name="e_wo_entrp">   -189.51398675 </i>
    <i name="e_0_energy">   -189.63206278 </i>
   </energy>
  </scstep>
  <structure>
   <crystal>
    <varray name="basis" >
     <v>       8.67062476       5.00198677       0.00000000 </v>
     <v>      -8.66821073       4.99783343       0.00000000 </v>
     <v>       0.00000000       0.00000000      30.00000000 </v>
    </varray>
    <i name="volume">   2600.77840930 </i>
    <varray name="rec_basis" >
     <v>       0.05765005       0.09998788       0.00000000 </v>
     <v>      -0.05769796       0.10001573       0.00000000 </v>
     <v>       0.00000000       0.00000000       0.03333333 </v>
    </varray>
   </crystal>
   <varray name="positions" >
    <v>       1.00106610       0.33239095       0.00000705 </v>
    <v>       0.66627617      -0.00112194      -0.00007982 </v>
    <v>       0.00088973       0.00049437      -0.00000518 </v>
    <v>       0.33321651       0.00190998      -0.00005362 </v>
    <v>       0.66482131       0.66468871       0.00002834 </v>
    <v>       0.33542422       0.33326112       0.00018895 </v>
    <v>      -0.00010317       0.66881817      -0.00011410 </v>
    <v>       0.33549123       0.66667577      -0.00019789 </v>
    <v>       0.66269474       0.33301435       0.00018545 </v>
    <v>       0.10643803       0.22000685       0.95319182 </v>
    <v>       0.21751229       0.10884472       0.04809150 </v>
    <v>       0.10940590       0.55207672       0.95199821 </v>
    <v>       0.21816828       0.44317381       0.04801149 </v>
    <v>       0.10800014       0.88999024       0.95188238 </v>
    <v>       0.22157380       0.77662961       0.04907591 </v>
    <v>       0.44547274       0.22252451       0.95057314 </v>
    <v>       0.55866410       0.10991709       0.04795786 </v>
    <v>       0.44363270       0.55609990       0.95069415 </v>
    <v>       0.55609951       0.44373410       0.04955269 </v>
    <v>       0.44818042       0.88976681       0.95194964 </v>
    <v>       0.55664218       0.78165834       0.04812450 </v>
    <v>       0.77936770       0.22041388       0.95326195 </v>
    <v>       0.88894029       0.11088225       0.04577276 </v>
    <v>       0.77848272       0.55498985       0.95078172 </v>
    <v>       0.89060235       0.44238621       0.04780869 </v>
    <v>       0.77972181       0.89333667       0.95325287 </v>
    <v>       0.89153265       0.78165144       0.04805943 </v>
   </varray>
  </structure>
  <varray name="forces" >
   <v>       0.13302787       0.11431504      -0.01999638 </v>
   <v>       0.02770381      -0.19993595      -0.10023623 </v>
   <v>       0.19831388       0.07114559      -0.01690956 </v>
   <v>      -0.23657108       0.10608384       0.06582760 </v>
   <v>       0.16581956      -0.55287416      -0.05075349 </v>
   <v>       0.45083717       0.46731652       0.01326279 </v>
   <v>      -0.18797288       0.18896531       0.09005069 </v>
   <v>       0.20459685       0.10944422      -0.00089394 </v>
   <v>      -0.68606194      -0.28886392       0.01944284 </v>
   <v>      -0.01650091      -0.09783451      -0.35237020 </v>
   <v>      -0.09772433      -0.12922422       0.57080011 </v>
   <v>       0.01502729      -0.04672338      -0.36996938 </v>
   <v>      -0.04669718      -0.06729779       0.44348643 </v>
   <v>      -0.12629037      -0.01553953      -0.62755234 </v>
   <v>       0.05214847      -0.03698704       0.37635194 </v>
   <v>       0.00632036       0.02858855      -0.78843690 </v>
   <v>       0.09487520       0.05134981       0.47558722 </v>
   <v>      -0.03959286      -0.03134236      -0.69477327 </v>
   <v>       0.04637383      -0.01029444       0.90827533 </v>
   <v>       0.06382054       0.08178619      -0.47438188 </v>
   <v>      -0.05807631       0.09351135       0.54856562 </v>
   <v>       0.03094155      -0.00543698      -0.16069447 </v>
   <v>      -0.00019213      -0.01017601       0.28154363 </v>
   <v>       0.06090493      -0.01407316      -0.54901976 </v>
   <v>       0.03064571      -0.02116094       0.23929942 </v>
   <v>      -0.03819439       0.10859419      -0.28059158 </v>
   <v>      -0.04748264       0.10666381       0.45408576 </v>
  </varray>
  <varray name="stress" >
   <v>     -10.22681000      -0.01732111       0.01593253 </v>
   <v>      -0.01732107      -9.92436823      -0.03000716 </v>
   <v>       0.01593243      -0.03000696       6.47674843 </v>
  </varray>
  <energy>
   <i name="e_fr_energy">   -189.75013881 </i>
   <i name="e_wo_entrp">   -189.63206278 </i>
   <i name="e_0_energy">     -0.23615206 </i>
  </energy>
  <time name="totalsc">  393.97  395.01</time>
 </calculation>
 <calculation>
  <scstep>
   <time name="dav">   22.31   22.37</time>
   <time name="total">   22.83   22.89</time>
   <energy>
    <i name="alphaZ">     85.84282478 </i>
    <i name="ewald">  42846.22746255 </i>
    <i name="hartreedc"> -48862.44958354 </i>
    <i name="XCdc">   -232.92663854 </i>
    <i name="pawpsdc">   4038.32325434 </i>
    <i name="pawaedc">  -3454.01434160 </i>
    <i name="eentropy">     -0.19691089 </i>
    <i name="bandstr">  -1373.60668032 </i>
    <i name="atom">   6761.44252427 </i>
    <i name="e_fr_energy">   -191.35808895 </i>
    <i name="e_wo_entrp">   -191.16117806 </i>
    <i name="e_0_energy">   -191.25963350 </i>
   </energy>
  </scstep>
  <scstep>
   <time name="dav">   32.51   32.59</time>
   <time name="total">   33.02   33.11</time>
   <energy>
    <i name="e_fr_energy">   -191.17547662 </i>
    <i name="e_wo_entrp">   -190.98082008 </i>
    <i name="e_0_energy">   -191.07814835 </i>
   </energy>
  </scstep>
  <scstep>
   <time name="dav">   30.85   30.93</time>
   <time name="total">   31.36   31.45</time>
   <energy>
    <i name="e_fr_energy">   -191.32486669 </i>
    <i name="e_wo_entrp">   -191.10727895 </i>
    <i name="e_0_energy">   -191.21607282 </i>
   </energy>
  </scstep>
  <scstep>
   <time name="dav">   30.89   30.96</time>
   <time name="total">   31.40   31.49</time>
   <energy>
    <i name="e_fr_energy">   -190.95233748 </i>
    <i name="e_wo_entrp">   -190.74165191 </i>
    <i name="e_0_energy">   -190.84699470 </i>
   </energy>
  </scstep>
  <scstep>
   <time name="dav">   28.76   28.83</time>
   <time name="total">   29.28   29.36</time>
   <energy>
    <i name="e_fr_energy">   -190.93246869 </i>
    <i name="e_wo_entrp">   -190.74447277 </i>
    <i name="e_0_energy">   -190.83847073 </i>
   </energy>
  </scstep>
  <scstep>
   <time name="dav">   29.08   29.15</time>
   <time name="total">   29.59   29.67</time>
   <energy>
    <i name="e_fr_energy">   -190.75757381 </i>
    <i name="e_wo_entrp">   -190.55584115 </i>
    <i name="e_0_energy">   -190.65670748 </i>
   </energy>
  </scstep>
  <scstep>
   <time name="dav">   31.72   31.79</time>
   <time name="total">   32.23   32.32</time>
   <energy>
    <i name="e_fr_energy">   -190.75563405 </i>
    <i name="e_wo_entrp">   -190.55329737 </i>
    <i name="e_0_energy">   -190.65446571 </i>
   </energy>
  </scstep>
  <scstep>
   <time name="dav">   30.37   30.45</time>
   <time name="total">   30.89   30.97</time>
   <energy>
    <i name="e_fr_energy">   -190.75421810 </i>
    <i name="e_wo_entrp">   -190.55194724 </i>
    <i name="e_0_energy">   -190.65308267 </i>
   </energy>
  </scstep>
  <scstep>
   <time name="dav">   28.27   28.34</time>
   <time name="total">   28.79   28.87</time>
   <energy>
    <i name="e_fr_energy">   -190.74920790 </i>
    <i name="e_wo_entrp">   -190.54715457 </i>
    <i name="e_0_energy">   -190.64818123 </i>
   </energy>
  </scstep>
  <scstep>
   <time name="dav">   27.44   27.50</time>
   <time name="total">   27.95   28.03</time>
   <energy>
    <i name="e_fr_energy">   -190.74956752 </i>
    <i name="e_wo_entrp">   -190.54750588 </i>
    <i name="e_0_energy">   -190.64853670 </i>
   </energy>
  </scstep>
  <scstep>
   <time name="dav">   27.80   27.87</time>
   <time name="total">   28.32   28.39</time>
   <energy>
    <i name="e_fr_energy">   -190.74935601 </i>
    <i name="e_wo_entrp">   -190.54719508 </i>
    <i name="e_0_energy">   -190.64827555 </i>
   </energy>
  </scstep>
  <scstep>
   <time name="dav">   19.07   19.12</time>
   <time name="total">   19.11   19.16</time>
   <energy>
    <i name="alphaZ">     85.84282478 </i>
    <i name="ewald">  42846.22746255 </i>
    <i name="hartreedc"> -48833.97191084 </i>
    <i name="XCdc">   -234.27518863 </i>
    <i name="pawpsdc">   4064.41621601 </i>
    <i name="pawaedc">  -3480.30581931 </i>
    <i name="eentropy">     -0.20228096 </i>
    <i name="bandstr">  -1399.92320713 </i>
    <i name="atom">   6761.44252427 </i>
    <i name="e_fr_energy">   -190.74937925 </i>
    <i name="e_wo_entrp">   -190.54709830 </i>
    <i name="e_0_energy">   -190.64823877 </i>
   </energy>
  </scstep>
  <structure>
   <crystal>
    <varray name="basis" >
     <v>       8.48627855       4.89971035       0.00000000 </v>
     <v>      -8.48474690       4.89708252       0.00000000 </v>
     <v>       0.00000000       0.00000000      30.00000000 </v>
    </varray>
    <i name="volume">   2493.92425607 </i>
    <varray name="rec_basis" >
     <v>       0.05890815       0.10206501       0.00000000 </v>
     <v>      -0.05893977       0.10208344       0.00000000 </v>
     <v>       0.00000000       0.00000000       0.03333333 </v>
    </varray>
   </crystal>
   <varray name="positions" >
    <v>       1.00232438       0.33282947      -0.00003934 </v>
    <v>       0.66495174      -0.00255584      -0.00028736 </v>
    <v>       0.00212812       0.00008387      -0.00004498 </v>
    <v>       0.33299625       0.00337792       0.00008501 </v>
    <v>       0.66181037       0.66035303      -0.00007692 </v>
    <v>       0.34028861       0.33473704       0.00019483 </v>
    <v>       0.00046781       0.67064418       0.00008886 </v>
    <v>       0.33681574       0.66660616      -0.00016978 </v>
    <v>       0.65836517       0.33383306       0.00019748 </v>
    <v>       0.10562658       0.21936878       0.95208780 </v>
    <v>       0.21611900       0.10831297       0.04969773 </v>
    <v>       0.10896375       0.55131895       0.95080078 </v>
    <v>       0.21729127       0.44258983       0.04934942 </v>
    <v>       0.10747675       0.89074458       0.95013795 </v>
    <v>       0.22167362       0.77642326       0.05031408 </v>
    <v>       0.44543032       0.22256473       0.94845329 </v>
    <v>       0.55933100       0.10955478       0.04937085 </v>
    <v>       0.44339264       0.55587319       0.94877101 </v>
    <v>       0.55607032       0.44364127       0.05195219 </v>
    <v>       0.44924446       0.89041387       0.95054116 </v>
    <v>       0.55738170       0.78278313       0.04969095 </v>
    <v>       0.77963063       0.22008512       0.95255756 </v>
    <v>       0.88886229       0.11079644       0.04671372 </v>
    <v>       0.77849183       0.55474497       0.94917355 </v>
    <v>       0.89074642       0.44191320       0.04871408 </v>
    <v>       0.78037245       0.89433395       0.95230149 </v>
    <v>       0.89196123       0.78284256       0.04942451 </v>
   </varray>
  </structure>
  <varray name="forces" >
   <v>       0.11467337       0.13568277      -0.03106788 </v>
   <v>       0.01903230      -0.19054732      -0.06553411 </v>
   <v>       0.23056275       0.07193684      -0.02317817 </v>
   <v>      -0.22629584       0.06215425       0.04380942 </v>
   <v>       0.17383277      -0.62875225      -0.01489601 </v>
   <v>       0.42525012       0.52780901      -0.02363881 </v>
   <v>      -0.13231556       0.23020099       0.06741969 </v>
   <v>       0.19417830       0.06878199       0.04468220 </v>
   <v>      -0.67944567      -0.25734371      -0.02850871 </v>
   <v>       0.06930555       0.03339192      -0.24500378 </v>
   <v>      -0.08294406       0.00522723       0.40671131 </v>
   <v>       0.00612455       0.00782192      -0.26017435 </v>
   <v>       0.06480499      -0.00372356       0.29054496 </v>
   <v>      -0.07218428       0.03042302      -0.45455194 </v>
   <v>       0.02434571       0.04523766       0.23312543 </v>
   <v>      -0.01393030      -0.02711991      -0.58478485 </v>
   <v>      -0.00649645       0.03288507       0.30473473 </v>
   <v>       0.02958099      -0.04831614      -0.52045222 </v>
   <v>      -0.02871405      -0.00946704       0.80031541 </v>
   <v>      -0.00517861       0.02442352      -0.32837565 </v>
   <v>       0.03212011       0.04324830       0.35243554 </v>
   <v>      -0.07205327      -0.01738484      -0.07598334 </v>
   <v>       0.01596295      -0.01444773       0.26280498 </v>
   <v>       0.01936733      -0.03270740      -0.34327329 </v>
   <v>      -0.04359629      -0.06106606       0.09813197 </v>
   <v>       0.04944783      -0.03126764      -0.18402621 </v>
   <v>      -0.10543523       0.00291910       0.27873368 </v>
  </varray>
  <varray name="stress" >
   <v>      -5.66985826       0.09675400      -0.13915241 </v>
   <v>       0.09675420      -5.73259996       0.10272714 </v>
   <v>      -0.13915231       0.10272719       4.62583376 </v>
  </varray>
  <energy>
   <i name="e_fr_energy">   -190.74937925 </i>
   <i name="e_wo_entrp">   -190.64823877 </i>
   <i name="e_0_energy">     -0.20228096 </i>
  </energy>
  <time name="totalsc">  387.47  388.51</time>
 </calculation>
 <calculation>
  <scstep>
   <time name="dav">   22.29   22.35</time>
   <time name="total">   22.80   22.86</time>
   <energy>
    <i name="alphaZ">     90.09109040 </i>
    <i name="ewald">  44630.76709494 </i>
    <i name="hartreedc"> -50672.57564735 </i>
    <i name="XCdc">   -231.89399922 </i>
    <i name="pawpsdc">   4064.41289121 </i>
    <i name="pawaedc">  -3480.29854984 </i>
    <i name="eentropy">     -0.18679686 </i>
    <i name="bandstr">  -1353.83322361 </i>
    <i name="atom">   6761.44252427 </i>
    <i name="e_fr_energy">   -192.07461607 </i>
    <i name="e_wo_entrp">   -191.88781920 </i>
    <i name="e_0_energy">   -191.98121763 </i>
   </energy>
  </scstep>
  <scstep>
   <time name="dav">   29.55   29.62</time>
   <time name="total">   30.06   30.14</time>
   <energy>
    <i name="e_fr_energy">   -191.85907039 </i>
    <i name="e_wo_entrp">   -191.65882624 </i>
    <i name="e_0_energy">   -191.75894831 </i>
   </energy>
  </scstep>
  <scstep>
   <time name="dav">   30.38   30.45</time>
   <time name="total">   30.88   30.96</time>
   <energy>
    <i name="e_fr_energy">   -192.34354568 </i>
    <i name="e_wo_entrp">   -192.15805804 </i>
    <i name="e_0_energy">   -192.25080186 </i>
   </energy>
  </scstep>
  <scstep>
   <time name="dav">   29.92   29.99</time>
   <time name="total">   30.43   30.51</time>
   <energy>
    <i name="e_fr_energy">   -191.63896993 </i>
    <i name="e_wo_entrp">   -191.44497548 </i>
    <i name="e_0_energy">   -191.54197271 </i>
   </energy>
  </scstep>
  <scstep>
   <time name="dav">   30.66   30.74</time>
   <time name="total">   31.17   31.25</time>
   <energy>
    <i name="e_fr_energy">   -191.59083318 </i>
    <i name="e_wo_entrp">   -191.38852407 </i>
    <i name="e_0_energy">   -191.48967863 </i>
   </energy>
  </scstep>
  <scstep>
   <time name="dav">   31.53   31.61</time>
   <time name="total">   32.04   32.12</time>
   <energy>
    <i name="e_fr_energy">   -191.42367619 </i>
    <i name="e_wo_entrp">   -191.23375095 </i>
    <i name="e_0_energy">   -191.32871357 </i>
   </energy>
  </scstep>
  <scstep>
   <time name="dav">   31.39   31.46</time>
   <time name="total">   31.90   31.98</time>
   <energy>
    <i name="e_fr_energy">   -191.40997211 </i>
    <i name="e_wo_entrp">   -191.20703654 </i>
    <i name="e_0_energy">   -191.30850432 </i>
   </energy>
  </scstep>
  <scstep>
   <time name="dav">   29.16   29.23</time>
   <time name="total">   29.67   29.75</time>
   <energy>
    <i name="e_fr_energy">   -191.39780010 </i>
    <i name="e_wo_entrp">   -191.20366845 </i>
    <i name="e_0_energy">   -191.30073428 </i>
   </energy>
  </scstep>
  <scstep>
   <time name="dav">   29.91   29.99</time>
   <time name="total">   30.42   30.50</time>
   <energy>
    <i name="e_fr_energy">   -191.39213836 </i>
    <i name="e_wo_entrp">   -191.19663465 </i>
    <i name="e_0_energy">   -191.29438650 </i>
   </energy>
  </scstep>
  <scstep>
   <time name="dav">   30.66   30.73</time>
   <time name="total">   31.16   31.25</time>
   <energy>
    <i name="e_fr_energy">   -191.39212567 </i>
    <i name="e_wo_entrp">   -191.19586540 </i>
    <i name="e_0_energy">   -191.29399554 </i>
   </energy>
  </scstep>
  <scstep>
   <time name="dav">   28.20   28.26</time>
   <time name="total">   28.23   28.31</time>
   <energy>
    <i name="alphaZ">     90.09109040 </i>
    <i name="ewald">  44630.76709494 </i>
    <i name="hartreedc"> -50639.48159214 </i>
    <i name="XCdc">   -233.38347248 </i>
    <i name="pawpsdc">   4085.28728880 </i>
    <i name="pawaedc">  -3501.26894055 </i>
    <i name="eentropy">     -0.19634551 </i>
    <i name="bandstr">  -1384.64983723 </i>
    <i name="atom">   6761.44252427 </i>
    <i name="e_fr_energy">   -191.39218950 </i>
    <i name="e_wo_entrp">   -191.19584399 </i>
    <i name="e_0_energy">   -191.29401675 </i>
   </energy>
  </scstep>
  <structure>
   <crystal>
    <varray name="basis" >
     <v>       8.28782377       4.78646890       0.00000000 </v>
     <v>      -8.28112266       4.77488683       0.00000000 </v>
     <v>       0.00000000       0.00000000      30.00000000 </v>
    </varray>
    <i name="volume">   2376.32269733 </i>
    <varray name="rec_basis" >
     <v>       0.06028079       0.10454543       0.00000000 </v>
     <v>      -0.06042701       0.10463003       0.00000000 </v>
     <v>       0.00000000       0.00000000       0.03333333 </v>
    </varray>
   </crystal>
   <varray name="positions" >
    <v>       1.00479571       0.33383697      -0.00016056 </v>
    <v>       0.66260097      -0.00508538      -0.00056118 </v>
    <v>       0.00463961      -0.00077589      -0.00013762 </v>
    <v>       0.33220284       0.00571187       0.00027004 </v>
    <v>       0.65542633       0.65143701      -0.00015372 </v>
    <v>       0.34982812       0.33819883       0.00009748 </v>
    <v>       0.00226842       0.67426429       0.00038217 </v>
    <v>       0.33894739       0.66612460       0.00001463 </v>
    <v>       0.65047580       0.33557154       0.00007938 </v>
    <v>       0.10606316       0.21906469       0.95065994 </v>
    <v>       0.21512292       0.10866483       0.05184188 </v>
    <v>       0.10879472       0.55081898       0.94924915 </v>
    <v>       0.21717217       0.44173022       0.05102882 </v>
    <v>       0.10725209       0.89202420       0.94777936 </v>
    <v>       0.22243748       0.77687746       0.05180776 </v>
    <v>       0.44484533       0.22227754       0.94552325 </v>
    <v>       0.55980614       0.10955143       0.05112443 </v>
    <v>       0.44309162       0.55498750       0.94611043 </v>
    <v>       0.55567932       0.44381054       0.05571008 </v>
    <v>       0.45001335       0.89117616       0.94871022 </v>
    <v>       0.55852315       0.78360812       0.05164645 </v>
    <v>       0.77924339       0.22009655       0.95180467 </v>
    <v>       0.88877640       0.11050918       0.04814742 </v>
    <v>       0.77816558       0.55428062       0.94720362 </v>
    <v>       0.89002914       0.44122315       0.04962493 </v>
    <v>       0.78060279       0.89411974       0.95112183 </v>
    <v>       0.89141052       0.78410969       0.05107505 </v>
   </varray>
  </structure>
  <varray name="forces" >
   <v>       0.15222571       0.07329604      -0.00896106 </v>
   <v>       0.02913428      -0.08169930      -0.01765120 </v>
   <v>       0.15258872       0.11078861       0.02385312 </v>
   <v>      -0.13658401      -0.08146516      -0.01218450 </v>
   <v>      -0.00409757      -0.27074654       0.07144374 </v>
   <v>       0.01412013       0.12334479      -0.01575572 </v>
   <v>      -0.01797700       0.28164010       0.02131983 </v>
   <v>       0.14814508      -0.02048887      -0.02278986 </v>
   <v>      -0.20682417      -0.09975974       0.04506183 </v>
   <v>       0.14851199       0.18236626      -0.00700135 </v>
   <v>      -0.06071898       0.17356389       0.05937650 </v>
   <v>      -0.03827639       0.09857860      -0.00120081 </v>
   <v>       0.17592064       0.07502514       0.02165771 </v>
   <v>       0.01178159       0.04094244      -0.14654001 </v>
   <v>       0.01844390       0.11335890       0.03287690 </v>
   <v>      -0.02150255      -0.07204173      -0.23932354 </v>
   <v>      -0.13179530       0.04327811      -0.01309685 </v>
   <v>       0.05012943      -0.07058289      -0.17099309 </v>
   <v>      -0.02504703      -0.00043514       0.35928946 </v>
   <v>      -0.05497871      -0.07818715      -0.00813876 </v>
   <v>       0.11061066      -0.03546504       0.05660615 </v>
   <v>      -0.24838252      -0.01918707       0.14166357 </v>
   <v>       0.03436251      -0.00992351       0.01190911 </v>
   <v>      -0.00976268      -0.04351071      -0.01540464 </v>
   <v>      -0.15726688      -0.09955846      -0.18785910 </v>
   <v>       0.15675189      -0.21365806       0.07558135 </v>
   <v>      -0.08951275      -0.11947352      -0.05373876 </v>
  </varray>
  <varray name="stress" >
   <v>      -0.11129905       0.19054131      -0.13164116 </v>
   <v>       0.19054131       0.02728088       0.34442681 </v>
   <v>      -0.13164123       0.34442689      -0.36946873 </v>
  </varray>
  <energy>
   <i name="e_fr_energy">   -191.39218950 </i>
   <i name="e_wo_entrp">   -191.29401675 </i>
   <i name="e_0_energy">     -0.19634551 </i>
  </energy>
  <time name="totalsc">  372.06  373.04</time>
 </calculation>
 <calculation>
  <scstep>
   <time name="dav">   22.24   22.29</time>
   <time name="total">   22.75   22.81</time>
   <energy>
    <i name="alphaZ">     90.14216595 </i>
    <i name="ewald">  44630.59564439 </i>
    <i name="hartreedc"> -50640.90380049 </i>
    <i name="XCdc">   -233.44277731 </i>
    <i name="pawpsdc">   4085.62962835 </i>
    <i name="pawaedc">  -3501.60859081 </i>
    <i name="eentropy">     -0.19932581 </i>
    <i name="bandstr">  -1383.08683653 </i>
    <i name="atom">   6761.44252427 </i>
    <i name="e_fr_energy">   -191.43136799 </i>
    <i name="e_wo_entrp">   -191.23204219 </i>
    <i name="e_0_energy">   -191.33170509 </i>
   </energy>
  </scstep>
  <scstep>
   <time name="dav">   32.31   32.39</time>
   <time name="total">   32.82   32.90</time>
   <energy>
    <i name="e_fr_energy">   -191.47185706 </i>
    <i name="e_wo_entrp">   -191.26320680 </i>
    <i name="e_0_energy">   -191.36753193 </i>
   </energy>
  </scstep>
  <scstep>
   <time name="dav">   31.36   31.44</time>
   <time name="total">   31.86   31.95</time>
   <energy>
    <i name="e_fr_energy">   -191.44307168 </i>
    <i name="e_wo_entrp">   -191.24387118 </i>
    <i name="e_0_energy">   -191.34347143 </i>
   </energy>
  </scstep>
  <scstep>
   <time name="dav">   28.43   28.50</time>
   <time name="total">   28.94   29.02</time>
   <energy>
    <i name="e_fr_energy">   -191.44299569 </i>
    <i name="e_wo_entrp">   -191.24260905 </i>
    <i name="e_0_energy">   -191.34280237 </i>
   </energy>
  </scstep>
  <scstep>
   <time name="dav">   28.27   28.34</time>
   <time name="total">   28.78   28.86</time>
   <energy>
    <i name="e_fr_energy">   -191.44106513 </i>
    <i name="e_wo_entrp">   -191.24009231 </i>
    <i name="e_0_energy">   -191.34057872 </i>
   </energy>
  </scstep>
  <scstep>
   <time name="dav">   29.36   29.43</time>
   <time name="total">   29.87   29.95</time>
   <energy>
    <i name="e_fr_energy">   -191.44102027 </i>
    <i name="e_wo_entrp">   -191.23990457 </i>
    <i name="e_0_energy">   -191.34046242 </i>
   </energy>
  </scstep>
  <scstep>
   <time name="dav">   27.01   27.07</time>
   <time name="total">   27.51   27.58</time>
   <energy>
    <i name="e_fr_energy">   -191.44139249 </i>
    <i name="e_wo_entrp">   -191.24153639 </i>
    <i name="e_0_energy">   -191.34146444 </i>
   </energy>
  </scstep>
  <scstep>
   <time name="dav">   24.02   24.08</time>
   <time name="total">   24.53   24.59</time>
   <energy>
    <i name="e_fr_energy">   -191.44069208 </i>
    <i name="e_wo_entrp">   -191.23988564 </i>
    <i name="e_0_energy">   -191.34028886 </i>
   </energy>
  </scstep>
  <scstep>
   <time name="dav">   17.22   17.26</time>
   <time name="total">   17.25   17.30</time>
   <energy>
    <i name="alphaZ">     90.14216595 </i>
    <i name="ewald">  44630.59564439 </i>
    <i name="hartreedc"> -50641.56804427 </i>
    <i name="XCdc">   -233.44301926 </i>
    <i name="pawpsdc">   4082.39481646 </i>
    <i name="pawaedc">  -3498.32423871 </i>
    <i name="eentropy">     -0.20076127 </i>
    <i name="bandstr">  -1382.47982172 </i>
    <i name="atom">   6761.44252427 </i>
    <i name="e_fr_energy">   -191.44073417 </i>
    <i name="e_wo_entrp">   -191.23997290 </i>
    <i name="e_0_energy">   -191.34035353 </i>
   </energy>
  </scstep>
  <structure>
   <crystal>
    <varray name="basis" >
     <v>       8.28643211       4.79032025       0.00000000 </v>
     <v>      -8.27475229       4.77010623       0.00000000 </v>
     <v>       0.00000000       0.00000000      30.00000000 </v>
    </varray>
    <i name="volume">   2374.97624655 </i>
    <varray name="rec_basis" >
     <v>       0.06025458       0.10452423       0.00000000 </v>
     <v>      -0.06050991       0.10467177       0.00000000 </v>
     <v>       0.00000000       0.00000000       0.03333333 </v>
    </varray>
   </crystal>
   <varray name="positions" >
    <v>       1.00565541       0.33377541      -0.00017674 </v>
    <v>       0.66223655      -0.00562476      -0.00059364 </v>
    <v>       0.00569390      -0.00067067      -0.00009962 </v>
    <v>       0.33136863       0.00572719       0.00025241 </v>
    <v>       0.65394222       0.64994423      -0.00003755 </v>
    <v>       0.35062350       0.33883511       0.00007039 </v>
    <v>       0.00368646       0.67581241       0.00042099 </v>
    <v>       0.33930731       0.66557270      -0.00002045 </v>
    <v>       0.64925136       0.33569517       0.00015185 </v>
    <v>       0.10744432       0.21955674       0.95062707 </v>
    <v>       0.21581992       0.10974156       0.05197014 </v>
    <v>       0.10918392       0.55142997       0.94922375 </v>
    <v>       0.21807467       0.44157972       0.05108943 </v>
    <v>       0.10749433       0.89221920       0.94750519 </v>
    <v>       0.22308554       0.77741282       0.05188485 </v>
    <v>       0.44440213       0.22196636       0.94508931 </v>
    <v>       0.55964458       0.11016274       0.05112905 </v>
    <v>       0.44287402       0.55446305       0.94579207 </v>
    <v>       0.55559730       0.44388560       0.05635088 </v>
    <v>       0.44946138       0.89094989       0.94866992 </v>
    <v>       0.55868621       0.78311084       0.05176808 </v>
    <v>       0.77840536       0.22073452       0.95202415 </v>
    <v>       0.88882606       0.11035228       0.04818787 </v>
    <v>       0.77790806       0.55408037       0.94714902 </v>
    <v>       0.88904377       0.44116755       0.04933216 </v>
    <v>       0.77997324       0.89255424       0.95122761 </v>
    <v>       0.89052430       0.78378021       0.05101170 </v>
   </varray>
  </structure>
  <varray name="forces" >
   <v>       0.18687099       0.04602477      -0.00373814 </v>
   <v>       0.04061076      -0.06791266      -0.04107057 </v>
   <v>       0.13991509       0.13111607       0.02503899 </v>
   <v>      -0.15573793      -0.08291480      -0.03601667 </v>
   <v>      -0.04385939      -0.27795542       0.01842245 </v>
   <v>       0.05086813       0.14570193      -0.00921506 </v>
   <v>      -0.01918398       0.31738614       0.01801233 </v>
   <v>       0.17589828      -0.01091668      -0.03267927 </v>
   <v>      -0.24990451      -0.17235467      -0.00695603 </v>
   <v>       0.08744971       0.10050607      -0.01851449 </v>
   <v>      -0.04221308       0.09624012       0.04136575 </v>
   <v>      -0.02566437       0.07065826       0.02083107 </v>
   <v>       0.08916139       0.04650388       0.02817189 </v>
   <v>      -0.00356763       0.03234193      -0.12440147 </v>
   <v>       0.02920780       0.07906327       0.01527070 </v>
   <v>      -0.01175570      -0.03737289      -0.09056866 </v>
   <v>      -0.08354640      -0.00383868      -0.02258702 </v>
   <v>       0.02337387      -0.03527874      -0.10671764 </v>
   <v>      -0.02077479      -0.02738190       0.20293101 </v>
   <v>      -0.03273480      -0.05747586       0.03713869 </v>
   <v>       0.05137852      -0.03485240       0.04058835 </v>
   <v>      -0.14888458      -0.00559618       0.15297999 </v>
   <v>       0.02366967      -0.00220437      -0.03312417 </v>
   <v>      -0.00851103      -0.00896003       0.08113722 </v>
   <v>      -0.10473310      -0.03946099      -0.19575066 </v>
   <v>       0.10841889      -0.13447446       0.11515088 </v>
   <v>      -0.05575183      -0.06659169      -0.07569948 </v>
  </varray>
  <varray name="stress" >
   <v>      -0.11250325      -0.02334348      -0.10810492 </v>
   <v>      -0.02334324      -0.05777781       0.12820180 </v>
   <v>      -0.10810508       0.12820171      -1.24308606 </v>
  </varray>
  <energy>
   <i name="e_fr_energy">   -191.44073417 </i>
   <i name="e_wo_entrp">   -191.34035353 </i>
   <i name="e_0_energy">     -0.20076127 </i>
  </energy>
  <time name="totalsc">  287.40  288.16</time>
 </calculation>
 <calculation>
  <scstep>
   <time name="dav">   22.26   22.31</time>
   <time name="total">   22.77   22.82</time>
   <energy>
    <i name="alphaZ">     90.24121525 </i>
    <i name="ewald">  44674.58353900 </i>
    <i name="hartreedc"> -50686.65612120 </i>
    <i name="XCdc">   -233.38099533 </i>
    <i name="pawpsdc">   4082.37938712 </i>
    <i name="pawaedc">  -3498.30853570 </i>
    <i name="eentropy">     -0.20352952 </i>
    <i name="bandstr">  -1381.58153332 </i>
    <i name="atom">   6761.44252427 </i>
    <i name="e_fr_energy">   -191.48404943 </i>
    <i name="e_wo_entrp">   -191.28051990 </i>
    <i name="e_0_energy">   -191.38228467 </i>
   </energy>
  </scstep>
  <scstep>
   <time name="dav">   33.42   33.50</time>
   <time name="total">   33.92   34.01</time>
   <energy>
    <i name="e_fr_energy">   -191.53631974 </i>
    <i name="e_wo_entrp">   -191.31891288 </i>
    <i name="e_0_energy">   -191.42761631 </i>
   </energy>
  </scstep>
  <scstep>
   <time name="dav">   31.51   31.58</time>
   <time name="total">   32.01   32.10</time>
   <energy>
    <i name="e_fr_energy">   -191.49415922 </i>
    <i name="e_wo_entrp">   -191.29059532 </i>
    <i name="e_0_energy">   -191.39237727 </i>
   </energy>
  </scstep>
  <scstep>
   <time name="dav">   28.33   28.40</time>
   <time name="total">   28.83   28.93</time>
   <energy>
    <i name="e_fr_energy">   -191.49329699 </i>
    <i name="e_wo_entrp">   -191.28834718 </i>
    <i name="e_0_energy">   -191.39082209 </i>
   </energy>
  </scstep>
  <scstep>
   <time name="dav">   28.83   28.90</time>
   <time name="total">   29.33   29.41</time>
   <energy>
    <i name="e_fr_energy">   -191.49130132 </i>
    <i name="e_wo_entrp">   -191.28546835 </i>
    <i name="e_0_energy">   -191.38838483 </i>
   </energy>
  </scstep>
  <scstep>
   <time name="dav">   29.15   29.22</time>
   <time name="total">   29.66   29.74</time>
   <energy>
    <i name="e_fr_energy">   -191.49089025 </i>
    <i name="e_wo_entrp">   -191.28464444 </i>
    <i name="e_0_energy">   -191.38776735 </i>
   </energy>
  </scstep>
  <scstep>
   <time name="dav">   29.00   29.07</time>
   <time name="total">   29.51   29.59</time>
   <energy>
    <i name="e_fr_energy">   -191.49137303 </i>
    <i name="e_wo_entrp">   -191.28698200 </i>
    <i name="e_0_energy">   -191.38917751 </i>
   </energy>
  </scstep>
  <scstep>
   <time name="dav">   25.24   25.30</time>
   <time name="total">   25.74   25.81</time>
   <energy>
    <i name="e_fr_energy">   -191.49036763 </i>
    <i name="e_wo_entrp">   -191.28455795 </i>
    <i name="e_0_energy">   -191.38746279 </i>
   </energy>
  </scstep>
  <scstep>
   <time name="dav">   17.02   17.06</time>
   <time name="total">   17.05   17.10</time>
   <energy>
    <i name="alphaZ">     90.24121525 </i>
    <i name="ewald">  44674.58353900 </i>
    <i name="hartreedc"> -50686.60924347 </i>
    <i name="XCdc">   -233.38952217 </i>
    <i name="pawpsdc">   4084.79455072 </i>
    <i name="pawaedc">  -3500.75794201 </i>
    <i name="eentropy">     -0.20569367 </i>
    <i name="bandstr">  -1381.58982721 </i>
    <i name="atom">   6761.44252427 </i>
    <i name="e_fr_energy">   -191.49039929 </i>
    <i name="e_wo_entrp">   -191.28470562 </i>
    <i name="e_0_energy">   -191.38755246 </i>
   </energy>
  </scstep>
  <structure>
   <crystal>
    <varray name="basis" >
     <v>       8.28075959       4.78767258       0.00000000 </v>
     <v>      -8.26966473       4.76846773       0.00000000 </v>
     <v>       0.00000000       0.00000000      30.00000000 </v>
    </varray>
    <i name="volume">   2372.36945830 </i>
    <varray name="rec_basis" >
     <v>       0.06030006       0.10457475       0.00000000 </v>
     <v>      -0.06054292       0.10471505       0.00000000 </v>
     <v>       0.00000000       0.00000000       0.03333333 </v>
    </varray>
   </crystal>
   <varray name="positions" >
    <v>       1.00676883       0.33337038      -0.00018737 </v>
    <v>       0.66188099      -0.00630727      -0.00068854 </v>
    <v>       0.00720841      -0.00034149      -0.00004579 </v>
    <v>       0.33015649       0.00581602       0.00017706 </v>
    <v>       0.65172729       0.64802665       0.00000425 </v>
    <v>       0.35200248       0.33970552       0.00004791 </v>
    <v>       0.00584153       0.67815585       0.00046652 </v>
[...]
      <set comment="kpoint 31">
       <r>  -17.5344    1.0000 </r>
       <r>  -17.2399    1.0000 </r>
       <r>  -16.9178    1.0000 </r>
       <r>  -16.5089    1.0000 </r>
       <r>  -16.4546    1.0000 </r>
       <r>  -16.4044    1.0000 </r>
       <r>  -16.2861    1.0000 </r>
       <r>  -16.1837    1.0000 </r>
       <r>  -16.1395    1.0000 </r>
       <r>  -16.0441    1.0000 </r>
       <r>  -15.9430    1.0000 </r>
       <r>  -15.8650    1.0000 </r>
       <r>  -15.7829    1.0000 </r>
       <r>  -15.6553    1.0000 </r>
       <r>  -15.6197    1.0000 </r>
       <r>  -15.5309    1.0000 </r>
       <r>  -15.4583    1.0000 </r>
       <r>  -15.3994    1.0000 </r>
       <r>   -9.7736    1.0000 </r>
       <r>   -9.4520    1.0000 </r>
       <r>   -9.3261    1.0000 </r>
       <r>   -8.9976    1.0000 </r>
       <r>   -8.8058    1.0000 </r>
       <r>   -8.7399    1.0000 </r>
       <r>   -8.5577    1.0000 </r>
       <r>   -8.4501    1.0000 </r>
       <r>   -8.3621    1.0000 </r>
       <r>   -8.3273    1.0000 </r>
       <r>   -8.2792    1.0000 </r>
       <r>   -8.1893    1.0000 </r>
       <r>   -8.0890    1.0000 </r>
       <r>   -8.0579    1.0000 </r>
       <r>   -7.9494    1.0000 </r>
       <r>   -7.9066    1.0000 </r>
       <r>   -7.7623    1.0000 </r>
       <r>   -7.6141    1.0000 </r>
       <r>   -7.5566    1.0000 </r>
       <r>   -7.4140    1.0000 </r>
       <r>   -7.3570    1.0000 </r>
       <r>   -7.1876    1.0000 </r>
       <r>   -7.1245    1.0000 </r>
       <r>   -7.0057    1.0000 </r>
       <r>   -6.9450    1.0000 </r>
       <r>   -6.8788    1.0000 </r>
       <r>   -6.8310    1.0000 </r>
       <r>   -6.8000    1.0000 </r>
       <r>   -6.7468    1.0000 </r>
       <r>   -6.6456    1.0000 </r>
       <r>   -6.5845    1.0000 </r>
       <r>   -6.4962    1.0000 </r>
       <r>   -6.3843    1.0000 </r>
       <r>   -6.2763    1.0000 </r>
       <r>   -6.2663    1.0000 </r>
       <r>   -6.1426    1.0000 </r>
       <r>   -6.0333    1.0000 </r>
       <r>   -5.9967    1.0000 </r>
       <r>   -5.9145    1.0000 </r>
       <r>   -5.8945    1.0000 </r>
       <r>   -5.8715    1.0000 </r>
       <r>   -5.8125    1.0000 </r>
       <r>   -5.7024    1.0000 </r>
       <r>   -5.6705    1.0000 </r>
       <r>   -5.6143    1.0000 </r>
       <r>   -5.5186    1.0000 </r>
       <r>   -5.3097    1.0000 </r>
       <r>   -5.1196    1.0000 </r>
       <r>   -5.0495    1.0000 </r>
       <r>   -4.9842    1.0000 </r>
       <r>   -4.8097    1.0000 </r>
       <r>   -4.7251    1.0000 </r>
       <r>   -4.5387    1.0000 </r>
       <r>   -4.3760    1.0000 </r>
       <r>   -4.3508    1.0000 </r>
       <r>   -3.9856    1.0000 </r>
       <r>   -3.8140    1.0000 </r>
       <r>   -3.6886    1.0000 </r>
       <r>   -3.5830    1.0000 </r>
       <r>   -3.4588    0.9989 </r>
       <r>   -3.2674    0.9563 </r>
       <r>   -2.9951    0.4144 </r>
       <r>   -2.9411    0.2749 </r>
       <r>   -2.7365    0.0204 </r>
       <r>   -2.6957    0.0098 </r>
       <r>   -2.6246    0.0023 </r>
       <r>   -2.4553    0.0000 </r>
       <r>   -2.4056    0.0000 </r>
       <r>   -2.3652    0.0000 </r>
       <r>   -2.3012    0.0000 </r>
       <r>   -2.2164    0.0000 </r>
       <r>   -2.0498    0.0000 </r>
       <r>   -1.8079    0.0000 </r>
       <r>   -1.6424    0.0000 </r>
       <r>   -1.5425    0.0000 </r>
       <r>   -1.3980    0.0000 </r>
       <r>   -1.3059    0.0000 </r>
       <r>   -1.1163    0.0000 </r>
       <r>   -0.9945    0.0000 </r>
       <r>   -0.8829    0.0000 </r>
       <r>   -0.8143    0.0000 </r>
       <r>   -0.7768    0.0000 </r>
       <r>   -0.6985    0.0000 </r>
       <r>   -0.6412    0.0000 </r>
       <r>   -0.5396    0.0000 </r>
       <r>   -0.5078    0.0000 </r>
       <r>   -0.4048    0.0000 </r>
       <r>   -0.3719    0.0000 </r>
       <r>   -0.2580    0.0000 </r>
       <r>   -0.1181    0.0000 </r>
       <r>    0.1239    0.0000 </r>
       <r>    0.2907    0.0000 </r>
       <r>    0.4649    0.0000 </r>
       <r>    0.6471    0.0000 </r>
       <r>    0.9300    0.0000 </r>
       <r>    1.0734    0.0000 </r>
       <r>    1.2586    0.0000 </r>
       <r>    1.3846    0.0000 </r>
       <r>    1.6217    0.0000 </r>
       <r>    2.1728    0.0000 </r>
       <r>    2.3092    0.0000 </r>
       <r>    2.4377    0.0000 </r>
      </set>
      <set comment="kpoint 32">
       <r>  -17.5472    1.0000 </r>
       <r>  -17.1308    1.0000 </r>
       <r>  -17.0698    1.0000 </r>
       <r>  -16.5090    1.0000 </r>
       <r>  -16.3865    1.0000 </r>
       <r>  -16.3540    1.0000 </r>
       <r>  -16.2331    1.0000 </r>
       <r>  -16.1973    1.0000 </r>
       <r>  -16.1615    1.0000 </r>
       <r>  -16.0805    1.0000 </r>
       <r>  -15.9989    1.0000 </r>
       <r>  -15.8908    1.0000 </r>
       <r>  -15.7745    1.0000 </r>
       <r>  -15.6558    1.0000 </r>
       <r>  -15.5889    1.0000 </r>
       <r>  -15.5412    1.0000 </r>
       <r>  -15.4710    1.0000 </r>
       <r>  -15.3781    1.0000 </r>
       <r>   -9.6741    1.0000 </r>
       <r>   -9.6176    1.0000 </r>
       <r>   -9.3838    1.0000 </r>
       <r>   -8.9678    1.0000 </r>
       <r>   -8.7034    1.0000 </r>
       <r>   -8.5647    1.0000 </r>
       <r>   -8.5152    1.0000 </r>
       <r>   -8.4018    1.0000 </r>
       <r>   -8.3624    1.0000 </r>
       <r>   -8.3142    1.0000 </r>
       <r>   -8.2650    1.0000 </r>
       <r>   -8.2330    1.0000 </r>
       <r>   -8.1803    1.0000 </r>
       <r>   -8.1366    1.0000 </r>
       <r>   -8.0992    1.0000 </r>
       <r>   -7.9585    1.0000 </r>
       <r>   -7.8077    1.0000 </r>
       <r>   -7.5467    1.0000 </r>
       <r>   -7.4307    1.0000 </r>
       <r>   -7.3946    1.0000 </r>
       <r>   -7.3086    1.0000 </r>
       <r>   -7.2243    1.0000 </r>
       <r>   -7.1677    1.0000 </r>
       <r>   -7.0274    1.0000 </r>
       <r>   -6.9860    1.0000 </r>
       <r>   -6.9051    1.0000 </r>
       <r>   -6.8619    1.0000 </r>
       <r>   -6.8153    1.0000 </r>
       <r>   -6.7294    1.0000 </r>
       <r>   -6.5973    1.0000 </r>
       <r>   -6.5416    1.0000 </r>
       <r>   -6.4611    1.0000 </r>
       <r>   -6.4241    1.0000 </r>
       <r>   -6.3273    1.0000 </r>
       <r>   -6.2708    1.0000 </r>
       <r>   -6.2248    1.0000 </r>
       <r>   -6.0659    1.0000 </r>
       <r>   -5.9949    1.0000 </r>
       <r>   -5.9450    1.0000 </r>
       <r>   -5.8710    1.0000 </r>
       <r>   -5.8540    1.0000 </r>
       <r>   -5.7140    1.0000 </r>
       <r>   -5.6801    1.0000 </r>
       <r>   -5.5561    1.0000 </r>
       <r>   -5.4476    1.0000 </r>
       <r>   -5.4178    1.0000 </r>
       <r>   -5.3278    1.0000 </r>
       <r>   -5.2441    1.0000 </r>
       <r>   -5.2006    1.0000 </r>
       <r>   -5.0091    1.0000 </r>
       <r>   -4.9331    1.0000 </r>
       <r>   -4.7037    1.0000 </r>
       <r>   -4.5313    1.0000 </r>
       <r>   -4.4167    1.0000 </r>
       <r>   -4.1898    1.0000 </r>
       <r>   -4.0278    1.0000 </r>
       <r>   -3.8748    1.0000 </r>
       <r>   -3.6883    1.0000 </r>
       <r>   -3.5800    1.0000 </r>
       <r>   -3.4714    0.9992 </r>
       <r>   -3.2408    0.9359 </r>
       <r>   -2.9751    0.3603 </r>
       <r>   -2.8548    0.1136 </r>
       <r>   -2.7190    0.0151 </r>
       <r>   -2.6556    0.0044 </r>
       <r>   -2.6024    0.0014 </r>
       <r>   -2.5238    0.0002 </r>
       <r>   -2.4639    0.0000 </r>
       <r>   -2.3931    0.0000 </r>
       <r>   -2.2978    0.0000 </r>
       <r>   -2.1917    0.0000 </r>
       <r>   -2.1245    0.0000 </r>
       <r>   -1.8060    0.0000 </r>
       <r>   -1.6237    0.0000 </r>
       <r>   -1.4925    0.0000 </r>
       <r>   -1.3644    0.0000 </r>
       <r>   -1.2766    0.0000 </r>
       <r>   -1.1267    0.0000 </r>
       <r>   -1.0649    0.0000 </r>
       <r>   -0.8833    0.0000 </r>
       <r>   -0.8485    0.0000 </r>
       <r>   -0.7877    0.0000 </r>
       <r>   -0.7089    0.0000 </r>
       <r>   -0.6582    0.0000 </r>
       <r>   -0.5354    0.0000 </r>
       <r>   -0.4682    0.0000 </r>
       <r>   -0.3747    0.0000 </r>
       <r>   -0.2495    0.0000 </r>
       <r>   -0.2109    0.0000 </r>
       <r>   -0.1213    0.0000 </r>
       <r>    0.0271    0.0000 </r>
       <r>    0.2952    0.0000 </r>
       <r>    0.3837    0.0000 </r>
       <r>    0.6919    0.0000 </r>
       <r>    0.8489    0.0000 </r>
       <r>    1.0885    0.0000 </r>
       <r>    1.3308    0.0000 </r>
       <r>    1.3804    0.0000 </r>
       <r>    1.5361    0.0000 </r>
       <r>    2.1386    0.0000 </r>
       <r>    2.2762    0.0000 </r>
       <r>    2.6105    0.0000 </r>
      </set>
      <set comment="kpoint 33">
       <r>  -17.5326    1.0000 </r>
       <r>  -17.2531    1.0000 </r>
       <r>  -16.9042    1.0000 </r>
       <r>  -16.5150    1.0000 </r>
       <r>  -16.4467    1.0000 </r>
       <r>  -16.3919    1.0000 </r>
       <r>  -16.2757    1.0000 </r>
       <r>  -16.1892    1.0000 </r>
       <r>  -16.1458    1.0000 </r>
       <r>  -16.0570    1.0000 </r>
       <r>  -15.9753    1.0000 </r>
       <r>  -15.8401    1.0000 </r>
       <r>  -15.7607    1.0000 </r>
       <r>  -15.6781    1.0000 </r>
       <r>  -15.6064    1.0000 </r>
       <r>  -15.5273    1.0000 </r>
       <r>  -15.4678    1.0000 </r>
       <r>  -15.4035    1.0000 </r>
       <r>   -9.7748    1.0000 </r>
       <r>   -9.4789    1.0000 </r>
       <r>   -9.2978    1.0000 </r>
       <r>   -8.9665    1.0000 </r>
       <r>   -8.8190    1.0000 </r>
       <r>   -8.7291    1.0000 </r>
       <r>   -8.5496    1.0000 </r>
       <r>   -8.4549    1.0000 </r>
       <r>   -8.3781    1.0000 </r>
       <r>   -8.3124    1.0000 </r>
       <r>   -8.2690    1.0000 </r>
       <r>   -8.1761    1.0000 </r>
       <r>   -8.1044    1.0000 </r>
       <r>   -8.0532    1.0000 </r>
       <r>   -7.9737    1.0000 </r>
       <r>   -7.9339    1.0000 </r>
       <r>   -7.8006    1.0000 </r>
       <r>   -7.5504    1.0000 </r>
       <r>   -7.5077    1.0000 </r>
       <r>   -7.4297    1.0000 </r>
       <r>   -7.3501    1.0000 </r>
       <r>   -7.2110    1.0000 </r>
       <r>   -7.1267    1.0000 </r>
       <r>   -7.0128    1.0000 </r>
       <r>   -6.9650    1.0000 </r>
       <r>   -6.8776    1.0000 </r>
       <r>   -6.8536    1.0000 </r>
       <r>   -6.7904    1.0000 </r>
       <r>   -6.7206    1.0000 </r>
       <r>   -6.6300    1.0000 </r>
       <r>   -6.5778    1.0000 </r>
       <r>   -6.4879    1.0000 </r>
       <r>   -6.4060    1.0000 </r>
       <r>   -6.3029    1.0000 </r>
       <r>   -6.2373    1.0000 </r>
       <r>   -6.1415    1.0000 </r>
       <r>   -6.0357    1.0000 </r>
       <r>   -6.0183    1.0000 </r>
       <r>   -5.9588    1.0000 </r>
       <r>   -5.9223    1.0000 </r>
       <r>   -5.8804    1.0000 </r>
       <r>   -5.8385    1.0000 </r>
       <r>   -5.7253    1.0000 </r>
       <r>   -5.6827    1.0000 </r>
       <r>   -5.5884    1.0000 </r>
       <r>   -5.5213    1.0000 </r>
       <r>   -5.2680    1.0000 </r>
       <r>   -5.1208    1.0000 </r>
       <r>   -5.0344    1.0000 </r>
       <r>   -4.9557    1.0000 </r>
       <r>   -4.8051    1.0000 </r>
       <r>   -4.7083    1.0000 </r>
       <r>   -4.5146    1.0000 </r>
       <r>   -4.3950    1.0000 </r>
       <r>   -4.2355    1.0000 </r>
       <r>   -4.0784    1.0000 </r>
       <r>   -3.8718    1.0000 </r>
       <r>   -3.7108    1.0000 </r>
       <r>   -3.5797    1.0000 </r>
       <r>   -3.4405    0.9983 </r>
       <r>   -3.2544    0.9471 </r>
       <r>   -3.0420    0.5461 </r>
       <r>   -2.8972    0.1819 </r>
       <r>   -2.7308    0.0185 </r>
       <r>   -2.6435    0.0034 </r>
       <r>   -2.5727    0.0007 </r>
       <r>   -2.4787    0.0001 </r>
       <r>   -2.4549    0.0000 </r>
       <r>   -2.3859    0.0000 </r>
       <r>   -2.2692    0.0000 </r>
       <r>   -2.2376    0.0000 </r>
       <r>   -2.0687    0.0000 </r>
       <r>   -1.7877    0.0000 </r>
       <r>   -1.6302    0.0000 </r>
       <r>   -1.4962    0.0000 </r>
       <r>   -1.3728    0.0000 </r>
       <r>   -1.2610    0.0000 </r>
       <r>   -1.1451    0.0000 </r>
       <r>   -1.0688    0.0000 </r>
       <r>   -0.8648    0.0000 </r>
       <r>   -0.8419    0.0000 </r>
       <r>   -0.7624    0.0000 </r>
       <r>   -0.6841    0.0000 </r>
       <r>   -0.6631    0.0000 </r>
       <r>   -0.6048    0.0000 </r>
       <r>   -0.5186    0.0000 </r>
       <r>   -0.4489    0.0000 </r>
       <r>   -0.3215    0.0000 </r>
       <r>   -0.1504    0.0000 </r>
       <r>   -0.0262    0.0000 </r>
       <r>    0.0330    0.0000 </r>
       <r>    0.2273    0.0000 </r>
       <r>    0.4658    0.0000 </r>
       <r>    0.6740    0.0000 </r>
       <r>    0.8799    0.0000 </r>
       <r>    1.1036    0.0000 </r>
       <r>    1.2885    0.0000 </r>
       <r>    1.3999    0.0000 </r>
       <r>    1.5560    0.0000 </r>
       <r>    2.1689    0.0000 </r>
       <r>    2.3060    0.0000 </r>
       <r>    2.4290    0.0000 </r>
      </set>
      <set comment="kpoint 34">
       <r>  -17.5141    1.0000 </r>
       <r>  -17.3150    1.0000 </r>
       <r>  -16.7337    1.0000 </r>
       <r>  -16.6340    1.0000 </r>
       <r>  -16.4920    1.0000 </r>
       <r>  -16.4143    1.0000 </r>
       <r>  -16.2322    1.0000 </r>
       <r>  -16.2193    1.0000 </r>
       <r>  -16.1581    1.0000 </r>
       <r>  -16.0459    1.0000 </r>
       <r>  -15.9434    1.0000 </r>
       <r>  -15.7848    1.0000 </r>
       <r>  -15.7302    1.0000 </r>
       <r>  -15.6859    1.0000 </r>
       <r>  -15.6690    1.0000 </r>
       <r>  -15.4978    1.0000 </r>
       <r>  -15.4568    1.0000 </r>
       <r>  -15.4449    1.0000 </r>
       <r>   -9.8188    1.0000 </r>
       <r>   -9.3676    1.0000 </r>
       <r>   -9.1607    1.0000 </r>
       <r>   -9.0313    1.0000 </r>
       <r>   -8.9177    1.0000 </r>
       <r>   -8.8850    1.0000 </r>
       <r>   -8.5902    1.0000 </r>
       <r>   -8.4404    1.0000 </r>
       <r>   -8.4011    1.0000 </r>
       <r>   -8.3085    1.0000 </r>
       <r>   -8.2765    1.0000 </r>
       <r>   -8.1711    1.0000 </r>
       <r>   -8.0812    1.0000 </r>
       <r>   -7.9762    1.0000 </r>
       <r>   -7.9403    1.0000 </r>
       <r>   -7.7981    1.0000 </r>
       <r>   -7.7335    1.0000 </r>
       <r>   -7.6446    1.0000 </r>
       <r>   -7.5269    1.0000 </r>
       <r>   -7.4310    1.0000 </r>
       <r>   -7.3704    1.0000 </r>
       <r>   -7.2573    1.0000 </r>
       <r>   -7.1654    1.0000 </r>
       <r>   -7.0276    1.0000 </r>
       <r>   -6.9268    1.0000 </r>
       <r>   -6.8663    1.0000 </r>
       <r>   -6.8283    1.0000 </r>
       <r>   -6.7283    1.0000 </r>
       <r>   -6.6699    1.0000 </r>
       <r>   -6.6259    1.0000 </r>
       <r>   -6.5499    1.0000 </r>
       <r>   -6.5230    1.0000 </r>
       <r>   -6.4048    1.0000 </r>
       <r>   -6.3014    1.0000 </r>
       <r>   -6.2369    1.0000 </r>
       <r>   -6.1149    1.0000 </r>
       <r>   -6.1064    1.0000 </r>
       <r>   -6.0562    1.0000 </r>
       <r>   -5.9872    1.0000 </r>
       <r>   -5.9606    1.0000 </r>
       <r>   -5.8394    1.0000 </r>
       <r>   -5.8256    1.0000 </r>
       <r>   -5.7831    1.0000 </r>
       <r>   -5.7312    1.0000 </r>
       <r>   -5.6372    1.0000 </r>
       <r>   -5.5974    1.0000 </r>
       <r>   -5.3431    1.0000 </r>
       <r>   -5.0696    1.0000 </r>
       <r>   -4.9277    1.0000 </r>
       <r>   -4.8449    1.0000 </r>
       <r>   -4.7323    1.0000 </r>
       <r>   -4.5756    1.0000 </r>
       <r>   -4.5480    1.0000 </r>
       <r>   -4.4948    1.0000 </r>
       <r>   -4.2814    1.0000 </r>
       <r>   -4.0594    1.0000 </r>
       <r>   -3.8563    1.0000 </r>
       <r>   -3.7288    1.0000 </r>
       <r>   -3.6326    1.0000 </r>
       <r>   -3.3539    0.9899 </r>
       <r>   -3.2676    0.9565 </r>
       <r>   -3.1372    0.7850 </r>
       <r>   -2.9303    0.2501 </r>
       <r>   -2.7355    0.0201 </r>
       <r>   -2.6570    0.0046 </r>
       <r>   -2.5564    0.0005 </r>
       <r>   -2.4536    0.0000 </r>
       <r>   -2.4151    0.0000 </r>
       <r>   -2.3636    0.0000 </r>
       <r>   -2.2851    0.0000 </r>
       <r>   -2.2336    0.0000 </r>
       <r>   -2.0258    0.0000 </r>
       <r>   -1.7575    0.0000 </r>
       <r>   -1.6737    0.0000 </r>
       <r>   -1.4960    0.0000 </r>
       <r>   -1.3609    0.0000 </r>
       <r>   -1.2965    0.0000 </r>
       <r>   -1.1624    0.0000 </r>
       <r>   -1.0374    0.0000 </r>
       <r>   -0.8283    0.0000 </r>
       <r>   -0.8064    0.0000 </r>
       <r>   -0.7664    0.0000 </r>
       <r>   -0.6920    0.0000 </r>
       <r>   -0.6694    0.0000 </r>
       <r>   -0.6077    0.0000 </r>
       <r>   -0.5771    0.0000 </r>
       <r>   -0.4910    0.0000 </r>
       <r>   -0.4075    0.0000 </r>
       <r>   -0.1278    0.0000 </r>
       <r>   -0.0103    0.0000 </r>
       <r>    0.0955    0.0000 </r>
       <r>    0.1945    0.0000 </r>
       <r>    0.5353    0.0000 </r>
       <r>    0.6395    0.0000 </r>
       <r>    0.9319    0.0000 </r>
       <r>    1.0944    0.0000 </r>
       <r>    1.2574    0.0000 </r>
       <r>    1.4001    0.0000 </r>
       <r>    1.5980    0.0000 </r>
       <r>    2.2585    0.0000 </r>
       <r>    2.2722    0.0000 </r>
       <r>    2.3692    0.0000 </r>
      </set>
     </set>
    </set>
   </array>
  </eigenvalues>
  <separator name="orbital magnetization" >
   <v name="MAGDIPOLOUT">      0.00000000      0.00000000      0.00000000</v>
  </separator>
 </calculation>
 <structure name="finalpos" >
  <crystal>
   <varray name="basis" >
    <v>       8.30283134       4.78514886       0.00000000 </v>
    <v>      -8.29515234       4.77192323       0.00000000 </v>
    <v>       0.00000000       0.00000000      30.00000000 </v>
   </varray>
   <i name="volume">   2379.42037281 </i>
   <varray name="rec_basis" >
    <v>       0.06016495       0.10458621       0.00000000 </v>
    <v>      -0.06033170       0.10468303       0.00000000 </v>
    <v>       0.00000000       0.00000000       0.03333333 </v>
   </varray>
  </crystal>
  <varray name="positions" >
   <v>       1.00272190       0.33940572      -0.00065749 </v>
   <v>       0.65987097      -0.00671285      -0.00046697 </v>
   <v>       0.00340223      -0.00609621      -0.00020055 </v>
   <v>       0.33451947       0.00859707      -0.00009702 </v>
   <v>       0.65964322       0.64622576       0.00052266 </v>
   <v>       0.35680897       0.33656763       0.00032598 </v>
   <v>      -0.00481260       0.67015608       0.00014232 </v>
   <v>       0.33747282       0.66985385       0.00030581 </v>
   <v>       0.65066768       0.34056970       0.00005209 </v>
   <v>       0.11120343       0.22142568       0.95257836 </v>
   <v>       0.21681410       0.11044080       0.05177414 </v>
   <v>       0.10962674       0.55413453       0.94880666 </v>
   <v>       0.21930127       0.44089950       0.04972552 </v>
   <v>       0.10722608       0.89134857       0.94754009 </v>
   <v>       0.22149125       0.77849435       0.05140190 </v>
   <v>       0.44583305       0.22194522       0.94430456 </v>
   <v>       0.55992381       0.11191045       0.05078068 </v>
   <v>       0.44396180       0.55438917       0.94695375 </v>
   <v>       0.55645119       0.44329686       0.05786598 </v>
   <v>       0.44879719       0.89098801       0.94805355 </v>
   <v>       0.55894967       0.78179920       0.05128038 </v>
   <v>       0.77647842       0.22145045       0.95213700 </v>
   <v>       0.88853066       0.11073137       0.04724398 </v>
   <v>       0.77749580       0.55352290       0.94569070 </v>
   <v>       0.88760471       0.44141476       0.05006514 </v>
   <v>       0.77801635       0.88860367       0.95182774 </v>
   <v>       0.89021426       0.78285219       0.05204294 </v>
  </varray>
 </structure>
</modeling>
