       N       E                     dE             d eps       ncg     rms          rms(c)
DAV:   1     0.112448560884E+04    0.11245E+04   -0.35860E+04  8160   0.577E+02
DAV:   2    -0.136990391770E+01   -0.11259E+04   -0.10830E+04 11120   0.173E+02
DAV:   3    -0.199663178884E+03   -0.19829E+03   -0.19034E+03 10920   0.821E+01
DAV:   4    -0.208880889128E+03   -0.92177E+01   -0.89243E+01 12000   0.261E+01
DAV:   5    -0.209222466176E+03   -0.34158E+00   -0.34054E+00 11400   0.374E+00    0.274E+01
DAV:   6    -0.236366697777E+03   -0.27144E+02   -0.11208E+02 12720   0.602E+01    0.592E+01
DAV:   7    -0.196822789454E+03    0.39544E+02   -0.17552E+02 13360   0.151E+02    0.206E+01
DAV:   8    -0.190300636908E+03    0.65222E+01   -0.21221E+01 11560   0.135E+01    0.140E+01
DAV:   9    -0.188296593866E+03    0.20040E+01   -0.37507E+00 12160   0.644E+00    0.935E+00
DAV:  10    -0.187100679326E+03    0.11959E+01   -0.17522E+00 13280   0.770E+00    0.325E+00
DAV:  11    -0.187014237013E+03    0.86442E-01   -0.66160E-01 12360   0.235E+00    0.243E+00
DAV:  12    -0.186975644517E+03    0.38592E-01   -0.38050E-01 12800   0.256E+00    0.276E+00
DAV:  13    -0.186929755513E+03    0.45889E-01   -0.19477E-01 13160   0.281E+00    0.204E+00
DAV:  14    -0.186891988070E+03    0.37767E-01   -0.94574E-02 13080   0.182E+00    0.611E-01
DAV:  15    -0.186887482394E+03    0.45057E-02   -0.15341E-02 11880   0.423E-01    0.485E-01
DAV:  16    -0.186887221806E+03    0.26059E-03   -0.10629E-02 13360   0.501E-01    0.574E-01
DAV:  17    -0.186885161480E+03    0.20603E-02   -0.10265E-02 12760   0.542E-01    0.308E-01
DAV:  18    -0.186884010432E+03    0.11510E-02   -0.26839E-03 12960   0.239E-01    0.187E-01
DAV:  19    -0.186883812957E+03    0.19747E-03   -0.87595E-04 11280   0.149E-01    0.477E-02
DAV:  20    -0.186884679520E+03   -0.86656E-03   -0.84564E-04  9000   0.585E-02    0.460E-02
DAV:  21    -0.186885430763E+03   -0.75124E-03   -0.22828E-04  8240   0.514E-02    0.334E-02
DAV:  22    -0.186886287864E+03   -0.85710E-03   -0.12000E-04  7200   0.316E-02    0.385E-02
DAV:  23    -0.186887531720E+03   -0.12439E-02   -0.15383E-04  7440   0.486E-02    0.224E-02
DAV:  24    -0.186888064375E+03   -0.53265E-03   -0.29877E-05  6800   0.236E-02    0.510E-03
DAV:  25    -0.186888472401E+03   -0.40803E-03   -0.20810E-05  5440   0.101E-02    0.522E-03
DAV:  26    -0.186888710249E+03   -0.23785E-03   -0.91744E-06  6840   0.801E-03    0.164E-03
DAV:  27    -0.186888797830E+03   -0.87581E-04   -0.31776E-06  7240   0.389E-03
   1 F= -.18688880E+03 E0= -.18671741E+03  d E =-.186889E+03
       N       E                     dE             d eps       ncg     rms          rms(c)
DAV:   1    -0.187544158679E+03   -0.65545E+00   -0.27353E+02  8160   0.352E+01    0.470E+00
DAV:   2    -0.189651969991E+03   -0.21078E+01   -0.20594E+01 12320   0.160E+01    0.103E+01
DAV:   3    -0.189341341525E+03    0.31063E+00   -0.45754E+00 12400   0.127E+01    0.618E+00
DAV:   4    -0.188806500916E+03    0.53484E+00   -0.57725E-01 12520   0.429E+00    0.188E+00
DAV:   5    -0.188959675127E+03   -0.15317E+00   -0.52449E-01 12360   0.372E+00    0.590E+00
DAV:   6    -0.188779368239E+03    0.18031E+00   -0.85750E-01 12840   0.448E+00    0.215E+00
DAV:   7    -0.188766303831E+03    0.13064E-01   -0.20676E-01 11600   0.228E+00    0.227E+00
DAV:   8    -0.188735958962E+03    0.30345E-01   -0.12816E-01 13000   0.214E+00    0.147E+00
DAV:   9    -0.188715950777E+03    0.20008E-01   -0.35997E-02 12280   0.950E-01    0.342E-01
DAV:  10    -0.188715239042E+03    0.71173E-03   -0.45870E-03 10800   0.224E-01    0.198E-01
DAV:  11    -0.188714728370E+03    0.51067E-03   -0.25224E-03 12560   0.164E-01    0.102E-01
DAV:  12    -0.188714872922E+03   -0.14455E-03   -0.79055E-04 11680   0.839E-02    0.895E-02
DAV:  13    -0.188714805890E+03    0.67032E-04   -0.25225E-04  7920   0.579E-02
   2 F= -.18871481E+03 E0= -.18857528E+03  d E =-.182601E+01
       N       E                     dE             d eps       ncg     rms          rms(c)
DAV:   1    -0.190645791995E+03   -0.19309E+01   -0.31670E+01  9080   0.143E+01    0.442E+00
DAV:   2    -0.190564622721E+03    0.81169E-01   -0.27498E+00 11120   0.928E+00    0.703E+00
DAV:   3    -0.190135628632E+03    0.42899E+00   -0.13635E+00 12320   0.856E+00    0.427E+00
DAV:   4    -0.189923232174E+03    0.21240E+00   -0.76136E-01 12760   0.437E+00    0.253E+00
DAV:   5    -0.189900342511E+03    0.22890E-01   -0.37957E-01 12240   0.307E+00    0.282E+00
DAV:   6    -0.189825945354E+03    0.74397E-01   -0.15629E-01 12360   0.251E+00    0.856E-01
DAV:   7    -0.189817289242E+03    0.86561E-02   -0.17688E-02 11760   0.630E-01    0.248E-01
DAV:   8    -0.189818319663E+03   -0.10304E-02   -0.51019E-03 12520   0.397E-01    0.404E-01
DAV:   9    -0.189817176871E+03    0.11428E-02   -0.27380E-03 11200   0.331E-01    0.137E-01
DAV:  10    -0.189817442945E+03   -0.26607E-03   -0.91988E-04 10080   0.121E-01    0.128E-01
DAV:  11    -0.189817227308E+03    0.21564E-03   -0.45071E-04  8600   0.763E-02    0.206E-02
DAV:  12    -0.189817250288E+03   -0.22980E-04   -0.76851E-05  6880   0.289E-02
   3 F= -.18981725E+03 E0= -.18969784E+03  d E =-.110244E+01
       N       E                     dE             d eps       ncg     rms          rms(c)
DAV:   1    -0.191415463977E+03   -0.15982E+01   -0.82488E+01  8160   0.206E+01    0.459E+00
DAV:   2    -0.191225817413E+03    0.18965E+00   -0.54482E+00 13160   0.749E+00    0.439E+00
DAV:   3    -0.191375770829E+03   -0.14995E+00   -0.16035E+00 12240   0.895E+00    0.657E+00
DAV:   4    -0.190998462619E+03    0.37731E+00   -0.13947E+00 12320   0.777E+00    0.299E+00
DAV:   5    -0.190920775667E+03    0.77687E-01   -0.39169E-01 12400   0.344E+00    0.252E+00
DAV:   6    -0.190869234253E+03    0.51541E-01   -0.21075E-01 12400   0.305E+00    0.160E+00
DAV:   7    -0.190846299020E+03    0.22935E-01   -0.61053E-02 12640   0.138E+00    0.418E-01
DAV:   8    -0.190844639415E+03    0.16596E-02   -0.86848E-03 11520   0.462E-01    0.360E-01
DAV:   9    -0.190843734926E+03    0.90449E-03   -0.28678E-03 10560   0.357E-01    0.172E-01
DAV:  10    -0.190843969162E+03   -0.23424E-03   -0.13473E-03 11240   0.157E-01    0.113E-01
DAV:  11    -0.190843779911E+03    0.18925E-03   -0.59892E-04 10320   0.887E-02    0.433E-02
DAV:  12    -0.190843787078E+03   -0.71669E-05   -0.10266E-04  7040   0.394E-02
   4 F= -.19084379E+03 E0= -.19073582E+03  d E =-.102654E+01
       N       E                     dE             d eps       ncg     rms          rms(c)
DAV:   1    -0.192145557894E+03   -0.13018E+01   -0.17167E+02  8160   0.290E+01    0.547E+00
DAV:   2    -0.191923976654E+03    0.22158E+00   -0.90984E+00 10880   0.769E+00    0.341E+00
DAV:   3    -0.191798442280E+03    0.12553E+00   -0.14600E+00 11800   0.608E+00    0.368E+00
DAV:   4    -0.191821164480E+03   -0.22722E-01   -0.10758E+00 12360   0.755E+00    0.435E+00
DAV:   5    -0.191552097261E+03    0.26907E+00   -0.43866E-01 12360   0.453E+00    0.814E-01
DAV:   6    -0.191542464374E+03    0.96329E-02   -0.80401E-02 11440   0.116E+00    0.546E-01
DAV:   7    -0.191547117418E+03   -0.46530E-02   -0.38102E-02 11960   0.117E+00    0.102E+00
DAV:   8    -0.191537696534E+03    0.94209E-02   -0.20495E-02 11560   0.870E-01    0.171E-01
DAV:   9    -0.191538488909E+03   -0.79238E-03   -0.29014E-03 11520   0.290E-01    0.293E-01
DAV:  10    -0.191538005854E+03    0.48306E-03   -0.29906E-03 11800   0.351E-01    0.183E-01
DAV:  11    -0.191537738079E+03    0.26778E-03   -0.89903E-04 10080   0.160E-01    0.511E-02
DAV:  12    -0.191537709757E+03    0.28322E-04   -0.11564E-04  6480   0.431E-02
   5 F= -.19153771E+03 E0= -.19142713E+03  d E =-.693923E+00
       N       E                     dE             d eps       ncg     rms          rms(c)
DAV:   1    -0.191611278262E+03   -0.73540E-01   -0.52819E+00  8160   0.486E+00    0.640E-01
DAV:   2    -0.191663714126E+03   -0.52436E-01   -0.28050E-01 13440   0.274E+00    0.206E+00
DAV:   3    -0.191622566405E+03    0.41148E-01   -0.98301E-02 12520   0.207E+00    0.458E-01
DAV:   4    -0.191625489394E+03   -0.29230E-02   -0.21570E-02 10240   0.919E-01    0.766E-01
DAV:   5    -0.191619561242E+03    0.59282E-02   -0.13270E-02 11160   0.743E-01    0.232E-01
DAV:   6    -0.191620293523E+03   -0.73228E-03   -0.52903E-03 11120   0.386E-01    0.381E-01
DAV:   7    -0.191619350548E+03    0.94298E-03   -0.46432E-03 11200   0.440E-01    0.218E-01
DAV:   8    -0.191618845156E+03    0.50539E-03   -0.10078E-03  9840   0.174E-01    0.337E-02
DAV:   9    -0.191618855245E+03   -0.10089E-04   -0.98044E-05  6320   0.345E-02
   6 F= -.19161886E+03 E0= -.19150734E+03  d E =-.811455E-01
       N       E                     dE             d eps       ncg     rms          rms(c)
DAV:   1    -0.191692463509E+03   -0.73618E-01   -0.54196E+00  8160   0.490E+00    0.544E-01
DAV:   2    -0.191727388280E+03   -0.34925E-01   -0.18113E-01 13040   0.190E+00    0.171E+00
DAV:   3    -0.191699813962E+03    0.27574E-01   -0.79351E-02 12480   0.179E+00    0.495E-01
DAV:   4    -0.191700377730E+03   -0.56377E-03   -0.15739E-02 11000   0.752E-01    0.565E-01
DAV:   5    -0.191697113853E+03    0.32639E-02   -0.80316E-03 11120   0.609E-01    0.203E-01
DAV:   6    -0.191697176546E+03   -0.62693E-04   -0.30802E-03 11400   0.292E-01    0.259E-01
DAV:   7    -0.191697177851E+03   -0.13045E-05   -0.34823E-03 10600   0.379E-01    0.264E-01
DAV:   8    -0.191696490646E+03    0.68721E-03   -0.12456E-03  9200   0.212E-01    0.283E-02
DAV:   9    -0.191696514747E+03   -0.24101E-04   -0.85611E-05  5960   0.331E-02
   7 F= -.19169651E+03 E0= -.19158515E+03  d E =-.776595E-01
       N       E                     dE             d eps       ncg     rms          rms(c)
DAV:   1    -0.191764154002E+03   -0.67663E-01   -0.43629E+00  8160   0.443E+00    0.547E-01
DAV:   2    -0.191807650304E+03   -0.43496E-01   -0.19207E-01 11720   0.233E+00    0.204E+00
DAV:   3    -0.191769905832E+03    0.37744E-01   -0.93540E-02 12440   0.192E+00    0.395E-01
DAV:   4    -0.191771328879E+03   -0.14230E-02   -0.13363E-02 11400   0.742E-01    0.564E-01
DAV:   5    -0.191768071267E+03    0.32576E-02   -0.82314E-03 11080   0.609E-01    0.230E-01
DAV:   6    -0.191768763429E+03   -0.69216E-03   -0.45089E-03 11720   0.404E-01    0.385E-01
DAV:   7    -0.191767710290E+03    0.10531E-02   -0.36516E-03 11200   0.394E-01    0.148E-01
DAV:   8    -0.191767397629E+03    0.31266E-03   -0.61407E-04  9680   0.121E-01    0.211E-02
DAV:   9    -0.191767410167E+03   -0.12538E-04   -0.65592E-05  6840   0.259E-02
   8 F= -.19176741E+03 E0= -.19165737E+03  d E =-.708954E-01
       N       E                     dE             d eps       ncg     rms          rms(c)
DAV:   1    -0.191905514814E+03   -0.13812E+00   -0.34263E+01  8160   0.125E+01    0.143E+00
DAV:   2    -0.192193056125E+03   -0.28754E+00   -0.13495E+00 11440   0.574E+00    0.538E+00
DAV:   3    -0.191960053171E+03    0.23300E+00   -0.72102E-01 12320   0.513E+00    0.111E+00
DAV:   4    -0.191972814962E+03   -0.12762E-01   -0.94727E-02 12200   0.201E+00    0.177E+00
DAV:   5    -0.191943020555E+03    0.29794E-01   -0.66849E-02 11360   0.172E+00    0.650E-01
DAV:   6    -0.191944330558E+03   -0.13100E-02   -0.22684E-02 11760   0.101E+00    0.781E-01
DAV:   7    -0.191939763123E+03    0.45674E-02   -0.19310E-02 11720   0.104E+00    0.385E-01
DAV:   8    -0.191937298115E+03    0.24650E-02   -0.39676E-03 11160   0.361E-01    0.613E-02
DAV:   9    -0.191937327308E+03   -0.29193E-04   -0.56211E-04 10120   0.722E-02
   9 F= -.19193733E+03 E0= -.19183356E+03  d E =-.169917E+00
       N       E                     dE             d eps       ncg     rms          rms(c)
DAV:   1    -0.191975005654E+03   -0.37708E-01   -0.23167E+00  8160   0.327E+00    0.478E-01
DAV:   2    -0.191993755871E+03   -0.18750E-01   -0.11531E-01 12160   0.163E+00    0.135E+00
DAV:   3    -0.191978006934E+03    0.15749E-01   -0.43786E-02 12320   0.139E+00    0.386E-01
DAV:   4    -0.191978764607E+03   -0.75767E-03   -0.95801E-03 12240   0.674E-01    0.534E-01
DAV:   5    -0.191976399807E+03    0.23648E-02   -0.81336E-03 11200   0.626E-01    0.304E-01
DAV:   6    -0.191976709384E+03   -0.30958E-03   -0.40386E-03 11520   0.440E-01    0.353E-01
DAV:   7    -0.191975518738E+03    0.11906E-02   -0.23986E-03 10920   0.356E-01    0.676E-02
DAV:   8    -0.191975458591E+03    0.60147E-04   -0.16425E-04  6160   0.652E-02
  10 F= -.19197546E+03 E0= -.19187268E+03  d E =-.381313E-01
       N       E                     dE             d eps       ncg     rms          rms(c)
DAV:   1    -0.192031026155E+03   -0.55507E-01   -0.90890E+00  8160   0.635E+00    0.697E-01
DAV:   2    -0.192088851255E+03   -0.57825E-01   -0.30362E-01 11760   0.257E+00    0.225E+00
DAV:   3    -0.192045296128E+03    0.43555E-01   -0.11518E-01 12280   0.226E+00    0.562E-01
DAV:   4    -0.192048730172E+03   -0.34340E-02   -0.19474E-02 11240   0.922E-01    0.893E-01
DAV:   5    -0.192041552872E+03    0.71773E-02   -0.14458E-02 10840   0.851E-01    0.286E-01
DAV:   6    -0.192041535929E+03    0.16943E-04   -0.37707E-03 12200   0.336E-01    0.239E-01
DAV:   7    -0.192041084902E+03    0.45103E-03   -0.26204E-03 11960   0.393E-01    0.180E-01
DAV:   8    -0.192040659232E+03    0.42567E-03   -0.71701E-04  9680   0.195E-01    0.303E-02
DAV:   9    -0.192040660150E+03   -0.91792E-06   -0.10302E-04  6800   0.378E-02
  11 F= -.19204066E+03 E0= -.19194066E+03  d E =-.652016E-01
       N       E                     dE             d eps       ncg     rms          rms(c)
DAV:   1    -0.192054955791E+03   -0.14297E-01   -0.61356E-01  8160   0.166E+00    0.174E-01
DAV:   2    -0.192055926251E+03   -0.97046E-03   -0.15372E-02 13320   0.429E-01    0.217E-01
DAV:   3    -0.192055823021E+03    0.10323E-03   -0.26011E-03 12280   0.372E-01    0.210E-01
DAV:   4    -0.192055508802E+03    0.31422E-03   -0.14049E-03  9960   0.249E-01    0.164E-01
DAV:   5    -0.192055438604E+03    0.70198E-04   -0.10623E-03  9120   0.228E-01    0.147E-01
DAV:   6    -0.192055279384E+03    0.15922E-03   -0.56452E-04  8720   0.152E-01    0.719E-02
DAV:   7    -0.192055288555E+03   -0.91714E-05   -0.25481E-04  8440   0.122E-01
  12 F= -.19205529E+03 E0= -.19195568E+03  d E =-.146284E-01
       N       E                     dE             d eps       ncg     rms          rms(c)
DAV:   1    -0.192057674121E+03   -0.23947E-02   -0.12538E-02  8160   0.249E-01    0.288E-02
DAV:   2    -0.192057736671E+03   -0.62550E-04   -0.37770E-04 10080   0.805E-02
  13 F= -.19205774E+03 E0= -.19195810E+03  d E =-.244812E-02
       N       E                     dE             d eps       ncg     rms          rms(c)
DAV:   1    -0.192085851517E+03   -0.28177E-01   -0.19183E+00  8160   0.291E+00    0.286E-01
DAV:   2    -0.192091839913E+03   -0.59884E-02   -0.49588E-02 11560   0.805E-01    0.620E-01
DAV:   3    -0.192088967740E+03    0.28722E-02   -0.11954E-02 12440   0.753E-01    0.315E-01
DAV:   4    -0.192088744487E+03    0.22325E-03   -0.30705E-03 11480   0.371E-01    0.297E-01
DAV:   5    -0.192088059514E+03    0.68497E-03   -0.22115E-03  9840   0.342E-01    0.165E-01
DAV:   6    -0.192088283692E+03   -0.22418E-03   -0.12238E-03 10400   0.254E-01    0.203E-01
DAV:   7    -0.192087860078E+03    0.42361E-03   -0.82262E-04 10000   0.231E-01    0.502E-02
DAV:   8    -0.192087823382E+03    0.36696E-04   -0.77492E-05  5880   0.530E-02
  14 F= -.19208782E+03 E0= -.19198989E+03  d E =-.300867E-01
       N       E                     dE             d eps       ncg     rms          rms(c)
DAV:   1    -0.192079594417E+03    0.82657E-02   -0.17753E-01  8160   0.900E-01    0.118E-01
DAV:   2    -0.192080087210E+03   -0.49279E-03   -0.69148E-03 11480   0.282E-01    0.194E-01
DAV:   3    -0.192080080971E+03    0.62387E-05   -0.19774E-03 10520   0.296E-01    0.208E-01
DAV:   4    -0.192079659409E+03    0.42156E-03   -0.67344E-04  8160   0.170E-01    0.472E-02
DAV:   5    -0.192079722979E+03   -0.63571E-04   -0.26497E-04  7240   0.118E-01
  15 F= -.19207972E+03 E0= -.19198134E+03  d E =0.810040E-02
       N       E                     dE             d eps       ncg     rms          rms(c)
DAV:   1    -0.192110790760E+03   -0.31131E-01   -0.21103E+00  8160   0.307E+00    0.313E-01
DAV:   2    -0.192116323278E+03   -0.55325E-02   -0.52594E-02 11600   0.881E-01    0.606E-01
DAV:   3    -0.192113617793E+03    0.27055E-02   -0.11641E-02 12560   0.793E-01    0.325E-01
DAV:   4    -0.192112451335E+03    0.11665E-02   -0.24435E-03 11320   0.317E-01    0.123E-01
DAV:   5    -0.192112538482E+03   -0.87147E-04   -0.14427E-03 12280   0.221E-01    0.191E-01
DAV:   6    -0.192112468179E+03    0.70303E-04   -0.14995E-03 10160   0.280E-01    0.175E-01
DAV:   7    -0.192112267156E+03    0.20102E-03   -0.68833E-04  8320   0.180E-01    0.102E-01
DAV:   8    -0.192112160734E+03    0.10642E-03   -0.17271E-04  6480   0.108E-01    0.184E-02
DAV:   9    -0.192112161624E+03   -0.88980E-06   -0.29093E-05  6800   0.251E-02
  16 F= -.19211216E+03 E0= -.19201540E+03  d E =-.324386E-01
       N       E                     dE             d eps       ncg     rms          rms(c)
DAV:   1    -0.192136442326E+03   -0.24282E-01   -0.11894E+00  8160   0.231E+00    0.220E-01
DAV:   2    -0.192138451787E+03   -0.20095E-02   -0.29732E-02 11800   0.510E-01    0.221E-01
DAV:   3    -0.192139195165E+03   -0.74338E-03   -0.42840E-03 12200   0.469E-01    0.365E-01
DAV:   4    -0.192138120039E+03    0.10751E-02   -0.26249E-03 10040   0.371E-01    0.191E-01
DAV:   5    -0.192137932272E+03    0.18777E-03   -0.10779E-03  9560   0.245E-01    0.138E-01
DAV:   6    -0.192137849467E+03    0.82805E-04   -0.67190E-04  9960   0.169E-01
  17 F= -.19213785E+03 E0= -.19204291E+03  d E =-.256878E-01
       N       E                     dE             d eps       ncg     rms          rms(c)
DAV:   1    -0.192125392332E+03    0.12540E-01   -0.25471E-01  8160   0.109E+00    0.154E-01
DAV:   2    -0.192128953344E+03   -0.35610E-02   -0.12344E-02 12760   0.642E-01    0.563E-01
DAV:   3    -0.192125653897E+03    0.32994E-02   -0.49756E-03 11400   0.568E-01    0.843E-02
DAV:   4    -0.192125658862E+03   -0.49651E-05   -0.37712E-04  8640   0.117E-01
  18 F= -.19212566E+03 E0= -.19202978E+03  d E =0.121906E-01
       N       E                     dE             d eps       ncg     rms          rms(c)
DAV:   1    -0.192120340337E+03    0.53136E-02   -0.79210E-01  8160   0.195E+00    0.319E-01
DAV:   2    -0.192119449590E+03    0.89075E-03   -0.22344E-02 11920   0.478E-01    0.257E-01
DAV:   3    -0.192120073281E+03   -0.62369E-03   -0.57792E-03 11360   0.565E-01    0.390E-01
DAV:   4    -0.192118768147E+03    0.13051E-02   -0.46651E-03 11240   0.525E-01    0.243E-01
DAV:   5    -0.192118776108E+03   -0.79608E-05   -0.26600E-03 11440   0.362E-01    0.279E-01
DAV:   6    -0.192118084435E+03    0.69167E-03   -0.14979E-03  9520   0.291E-01    0.961E-02
DAV:   7    -0.192118092099E+03   -0.76635E-05   -0.39908E-04  8200   0.135E-01
  19 F= -.19211809E+03 E0= -.19202151E+03  d E =0.756676E-02
       N       E                     dE             d eps       ncg     rms          rms(c)
DAV:   1    -0.192162829623E+03   -0.44745E-01   -0.37807E+00  8160   0.423E+00    0.502E-01
DAV:   2    -0.192167207608E+03   -0.43780E-02   -0.10478E-01 11640   0.966E-01    0.490E-01
DAV:   3    -0.192171513693E+03   -0.43061E-02   -0.20230E-02 12080   0.109E+00    0.829E-01
DAV:   4    -0.192164452099E+03    0.70616E-02   -0.11579E-02 11120   0.832E-01    0.309E-01
DAV:   5    -0.192165559424E+03   -0.11073E-02   -0.63648E-03 10320   0.558E-01    0.492E-01
DAV:   6    -0.192163711940E+03    0.18475E-02   -0.50352E-03 10840   0.490E-01    0.188E-01
DAV:   7    -0.192163524725E+03    0.18721E-03   -0.13072E-03  9760   0.274E-01    0.140E-01
DAV:   8    -0.192163277389E+03    0.24734E-03   -0.38138E-04  9320   0.157E-01    0.317E-02
DAV:   9    -0.192163264580E+03    0.12809E-04   -0.50477E-05  6200   0.357E-02
  20 F= -.19216326E+03 E0= -.19206955E+03  d E =-.451725E-01
       N       E                     dE             d eps       ncg     rms          rms(c)
DAV:   1    -0.192201730125E+03   -0.38453E-01   -0.25978E+00  8160   0.345E+00    0.370E-01
DAV:   2    -0.192207533449E+03   -0.58033E-02   -0.71235E-02 11400   0.883E-01    0.583E-01
DAV:   3    -0.192207038825E+03    0.49462E-03   -0.14000E-02 12480   0.852E-01    0.549E-01
DAV:   4    -0.192204312485E+03    0.27263E-02   -0.52734E-03 11600   0.491E-01    0.195E-01
DAV:   5    -0.192204377919E+03   -0.65434E-04   -0.22245E-03 11600   0.350E-01    0.235E-01
DAV:   6    -0.192203943423E+03    0.43450E-03   -0.17171E-03 12080   0.328E-01    0.115E-01
DAV:   7    -0.192203746052E+03    0.19737E-03   -0.42441E-04  8920   0.133E-01    0.572E-02
DAV:   8    -0.192203722117E+03    0.23935E-04   -0.10525E-04  6880   0.846E-02
  21 F= -.19220372E+03 E0= -.19211294E+03  d E =-.404575E-01
       N       E                     dE             d eps       ncg     rms          rms(c)
DAV:   1    -0.192214572489E+03   -0.10826E-01   -0.17406E-01  8160   0.894E-01    0.102E-01
DAV:   2    -0.192215208092E+03   -0.63560E-03   -0.52662E-03 11400   0.277E-01    0.218E-01
DAV:   3    -0.192214874092E+03    0.33400E-03   -0.12546E-03 10920   0.256E-01    0.116E-01
DAV:   4    -0.192214809276E+03    0.64816E-04   -0.31093E-04  8360   0.125E-01
  22 F= -.19221481E+03 E0= -.19212476E+03  d E =-.110872E-01
       N       E                     dE             d eps       ncg     rms          rms(c)
DAV:   1    -0.192229768599E+03   -0.14895E-01   -0.43746E-01  8160   0.144E+00    0.208E-01
DAV:   2    -0.192232392573E+03   -0.26240E-02   -0.17435E-02 11440   0.623E-01    0.523E-01
DAV:   3    -0.192230197340E+03    0.21952E-02   -0.56381E-03 11480   0.570E-01    0.212E-01
DAV:   4    -0.192229963461E+03    0.23388E-03   -0.13531E-03  9680   0.252E-01    0.164E-01
DAV:   5    -0.192229876721E+03    0.86740E-04   -0.10726E-03 10080   0.269E-01    0.149E-01
DAV:   6    -0.192229684445E+03    0.19228E-03   -0.55962E-04  8760   0.170E-01    0.734E-02
DAV:   7    -0.192229681036E+03    0.34091E-05   -0.25703E-04  8480   0.131E-01
  23 F= -.19222968E+03 E0= -.19214098E+03  d E =-.148718E-01
       N       E                     dE             d eps       ncg     rms          rms(c)
DAV:   1    -0.192256948181E+03   -0.27264E-01   -0.94392E-01  8160   0.212E+00    0.297E-01
DAV:   2    -0.192258895511E+03   -0.19473E-02   -0.28996E-02 11240   0.647E-01    0.459E-01
DAV:   3    -0.192258161832E+03    0.73368E-03   -0.88360E-03 11840   0.723E-01    0.410E-01
DAV:   4    -0.192256822829E+03    0.13390E-02   -0.36497E-03 11240   0.424E-01    0.232E-01
DAV:   5    -0.192256736264E+03    0.86566E-04   -0.20707E-03 10080   0.370E-01    0.238E-01
DAV:   6    -0.192256200101E+03    0.53616E-03   -0.11247E-03  9520   0.245E-01    0.715E-02
DAV:   7    -0.192256183706E+03    0.16395E-04   -0.26285E-04  7560   0.109E-01
  24 F= -.19225618E+03 E0= -.19216977E+03  d E =-.265027E-01
       N       E                     dE             d eps       ncg     rms          rms(c)
DAV:   1    -0.192302160733E+03   -0.45961E-01   -0.29812E+00  8160   0.372E+00    0.445E-01
DAV:   2    -0.192317071019E+03   -0.14910E-01   -0.96560E-02 11400   0.135E+00    0.105E+00
DAV:   3    -0.192306738385E+03    0.10333E-01   -0.22910E-02 12120   0.120E+00    0.405E-01
DAV:   4    -0.192306426476E+03    0.31191E-03   -0.57377E-03 11400   0.544E-01    0.402E-01
DAV:   5    -0.192305025416E+03    0.14011E-02   -0.35670E-03 10640   0.493E-01    0.211E-01
DAV:   6    -0.192304923086E+03    0.10233E-03   -0.17734E-03 11440   0.306E-01    0.176E-01
DAV:   7    -0.192304798610E+03    0.12448E-03   -0.11710E-03 10760   0.293E-01    0.150E-01
DAV:   8    -0.192304498200E+03    0.30041E-03   -0.35790E-04  8840   0.150E-01    0.204E-02
DAV:   9    -0.192304501342E+03   -0.31418E-05   -0.45044E-05  6240   0.247E-02
  25 F= -.19230450E+03 E0= -.19222149E+03  d E =-.483176E-01
       N       E                     dE             d eps       ncg     rms          rms(c)
DAV:   1    -0.192312124687E+03   -0.76265E-02   -0.74448E-02  8160   0.590E-01    0.775E-02
DAV:   2    -0.192312512186E+03   -0.38750E-03   -0.26500E-03 11240   0.226E-01    0.182E-01
DAV:   3    -0.192312223994E+03    0.28819E-03   -0.74637E-04  9960   0.213E-01    0.764E-02
DAV:   4    -0.192312198583E+03    0.25411E-04   -0.16076E-04  6640   0.882E-02
  26 F= -.19231220E+03 E0= -.19222956E+03  d E =-.769724E-02
       N       E                     dE             d eps       ncg     rms          rms(c)
DAV:   1    -0.192283782920E+03    0.28441E-01   -0.14047E+00  8160   0.261E+00    0.423E-01
DAV:   2    -0.192290183403E+03   -0.64005E-02   -0.54681E-02 11840   0.110E+00    0.844E-01
DAV:   3    -0.192284030313E+03    0.61531E-02   -0.20029E-02 12320   0.116E+00    0.426E-01
DAV:   4    -0.192281869905E+03    0.21604E-02   -0.44338E-03 10920   0.436E-01    0.155E-01
DAV:   5    -0.192282079125E+03   -0.20922E-03   -0.22570E-03 11600   0.316E-01    0.271E-01
DAV:   6    -0.192281507824E+03    0.57130E-03   -0.16504E-03 10320   0.319E-01    0.131E-01
DAV:   7    -0.192281418639E+03    0.89185E-04   -0.44223E-04  8480   0.154E-01
  27 F= -.19228142E+03 E0= -.19219727E+03  d E =0.307799E-01
       N       E                     dE             d eps       ncg     rms          rms(c)
DAV:   1    -0.192278485964E+03    0.30219E-02   -0.11979E-02  8160   0.264E-01    0.533E-02
DAV:   2    -0.192278751710E+03   -0.26575E-03   -0.84804E-04 11800   0.194E-01    0.144E-01
DAV:   3    -0.192278490326E+03    0.26138E-03   -0.38591E-04  8880   0.175E-01    0.385E-02
DAV:   4    -0.192278489384E+03    0.94116E-06   -0.52774E-05  5920   0.517E-02
  28 F= -.19227849E+03 E0= -.19219426E+03  d E =0.292925E-02
       N       E                     dE             d eps       ncg     rms          rms(c)
DAV:   1    -0.192300695088E+03   -0.22205E-01   -0.11138E+00  8160   0.225E+00    0.296E-01
DAV:   2    -0.192312758939E+03   -0.12064E-01   -0.52759E-02 11120   0.125E+00    0.978E-01
DAV:   3    -0.192302827856E+03    0.99311E-02   -0.15480E-02 12200   0.102E+00    0.183E-01
DAV:   4    -0.192303087954E+03   -0.26010E-03   -0.17827E-03 11320   0.308E-01    0.267E-01
DAV:   5    -0.192302442399E+03    0.64555E-03   -0.12897E-03  9840   0.304E-01    0.108E-01
DAV:   6    -0.192302421353E+03    0.21046E-04   -0.51425E-04  9960   0.131E-01
  29 F= -.19230242E+03 E0= -.19221960E+03  d E =-.239320E-01
       N       E                     dE             d eps       ncg     rms          rms(c)
DAV:   1    -0.192304129916E+03   -0.16875E-02   -0.68176E-01  8160   0.186E+00    0.421E-01
DAV:   2    -0.192311151798E+03   -0.70219E-02   -0.45304E-02 10400   0.121E+00    0.107E+00
DAV:   3    -0.192301812049E+03    0.93397E-02   -0.23507E-02 11560   0.118E+00    0.394E-01
DAV:   4    -0.192301231367E+03    0.58068E-03   -0.59556E-03 11880   0.585E-01    0.404E-01
DAV:   5    -0.192300141613E+03    0.10898E-02   -0.47170E-03 10040   0.554E-01    0.281E-01
DAV:   6    -0.192299416720E+03    0.72489E-03   -0.22909E-03 11240   0.336E-01    0.170E-01
DAV:   7    -0.192299120713E+03    0.29601E-03   -0.70154E-04  9560   0.212E-01    0.499E-02
DAV:   8    -0.192299094967E+03    0.25746E-04   -0.64624E-05  6360   0.603E-02
  30 F= -.19229909E+03 E0= -.19221556E+03  d E =0.332639E-02
       N       E                     dE             d eps       ncg     rms          rms(c)
DAV:   1    -0.192332451274E+03   -0.33331E-01   -0.16244E+00  8160   0.273E+00    0.345E-01
DAV:   2    -0.192343226892E+03   -0.10776E-01   -0.57643E-02 11240   0.121E+00    0.898E-01
DAV:   3    -0.192334714969E+03    0.85119E-02   -0.14542E-02 11440   0.995E-01    0.266E-01
DAV:   4    -0.192335111009E+03   -0.39604E-03   -0.36771E-03 11240   0.468E-01    0.351E-01
DAV:   5    -0.192333950226E+03    0.11608E-02   -0.24151E-03 10320   0.407E-01    0.153E-01
DAV:   6    -0.192333985210E+03   -0.34985E-04   -0.10356E-03 10440   0.240E-01    0.162E-01
DAV:   7    -0.192333837623E+03    0.14759E-03   -0.80212E-04 10400   0.242E-01    0.108E-01
DAV:   8    -0.192333679463E+03    0.15816E-03   -0.19921E-04  7280   0.996E-02    0.153E-02
DAV:   9    -0.192333682702E+03   -0.32386E-05   -0.31958E-05  6320   0.201E-02
  31 F= -.19233368E+03 E0= -.19225267E+03  d E =-.345877E-01
       N       E                     dE             d eps       ncg     rms          rms(c)
DAV:   1    -0.192363675975E+03   -0.29997E-01   -0.12959E+00  8160   0.245E+00    0.317E-01
DAV:   2    -0.192371345205E+03   -0.76692E-02   -0.44758E-02 11240   0.101E+00    0.775E-01
DAV:   3    -0.192365327672E+03    0.60175E-02   -0.12473E-02 11920   0.907E-01    0.264E-01
DAV:   4    -0.192365188967E+03    0.13870E-03   -0.27257E-03 11520   0.362E-01    0.266E-01
DAV:   5    -0.192364571609E+03    0.61736E-03   -0.17234E-03 10400   0.339E-01    0.150E-01
DAV:   6    -0.192364474566E+03    0.97043E-04   -0.79216E-04 10120   0.209E-01
  32 F= -.19236447E+03 E0= -.19228504E+03  d E =-.307919E-01
       N       E                     dE             d eps       ncg     rms          rms(c)
DAV:   1    -0.192443775889E+03   -0.79204E-01   -0.18247E+01  8160   0.932E+00    0.113E+00
DAV:   2    -0.192532989610E+03   -0.89214E-01   -0.61419E-01 11720   0.351E+00    0.235E+00
DAV:   3    -0.192470692780E+03    0.62297E-01   -0.12889E-01 11960   0.301E+00    0.875E-01
DAV:   4    -0.192466956642E+03    0.37361E-02   -0.29443E-02 12320   0.129E+00    0.806E-01
DAV:   5    -0.192460686064E+03    0.62706E-02   -0.17912E-02 12320   0.118E+00    0.453E-01
DAV:   6    -0.192459601773E+03    0.10843E-02   -0.85242E-03 12160   0.599E-01    0.332E-01
DAV:   7    -0.192459339121E+03    0.26265E-03   -0.52549E-03 12080   0.578E-01    0.375E-01
DAV:   8    -0.192457801837E+03    0.15373E-02   -0.20366E-03 11800   0.368E-01    0.542E-02
DAV:   9    -0.192457777996E+03    0.23841E-04   -0.20863E-04  7480   0.568E-02
  33 F= -.19245778E+03 E0= -.19238179E+03  d E =-.933034E-01
       N       E                     dE             d eps       ncg     rms          rms(c)
DAV:   1    -0.192476772943E+03   -0.18971E-01   -0.25208E+00  8160   0.338E+00    0.405E-01
DAV:   2    -0.192488524459E+03   -0.11752E-01   -0.10095E-01 11360   0.119E+00    0.715E-01
DAV:   3    -0.192483414506E+03    0.51100E-02   -0.17815E-02 12040   0.110E+00    0.404E-01
DAV:   4    -0.192482134030E+03    0.12805E-02   -0.47359E-03 12440   0.505E-01    0.266E-01
DAV:   5    -0.192481619890E+03    0.51414E-03   -0.23391E-03 12040   0.404E-01    0.196E-01
DAV:   6    -0.192481312022E+03    0.30787E-03   -0.12090E-03 10600   0.239E-01    0.105E-01
DAV:   7    -0.192481364598E+03   -0.52575E-04   -0.70620E-04 10240   0.186E-01
  34 F= -.19248136E+03 E0= -.19240587E+03  d E =-.235866E-01
       N       E                     dE             d eps       ncg     rms          rms(c)
DAV:   1    -0.192493450929E+03   -0.12139E-01   -0.95479E+00  8160   0.668E+00    0.816E-01
DAV:   2    -0.192539576746E+03   -0.46126E-01   -0.34842E-01 11360   0.252E+00    0.163E+00
DAV:   3    -0.192510996843E+03    0.28580E-01   -0.76848E-02 12160   0.228E+00    0.704E-01
DAV:   4    -0.192507209274E+03    0.37876E-02   -0.16453E-02 12280   0.942E-01    0.492E-01
DAV:   5    -0.192504916236E+03    0.22930E-02   -0.81907E-03 12040   0.800E-01    0.350E-01
DAV:   6    -0.192503947065E+03    0.96917E-03   -0.45345E-03 11640   0.475E-01    0.198E-01
DAV:   7    -0.192503278246E+03    0.66882E-03   -0.15554E-03 11240   0.194E-01    0.643E-02
DAV:   8    -0.192503282310E+03   -0.40642E-05   -0.31215E-04  9640   0.128E-01
  35 F= -.19250328E+03 E0= -.19242815E+03  d E =-.219177E-01
       N       E                     dE             d eps       ncg     rms          rms(c)
DAV:   1    -0.192505457064E+03   -0.21788E-02   -0.29342E-01  8160   0.116E+00    0.141E-01
DAV:   2    -0.192507807359E+03   -0.23503E-02   -0.12268E-02 12640   0.532E-01    0.405E-01
DAV:   3    -0.192506034606E+03    0.17728E-02   -0.30912E-03 11440   0.465E-01    0.951E-02
DAV:   4    -0.192505983716E+03    0.50889E-04   -0.32064E-04  8560   0.128E-01
  36 F= -.19250598E+03 E0= -.19243109E+03  d E =-.270141E-02
       N       E                     dE             d eps       ncg     rms          rms(c)
DAV:   1    -0.192507573971E+03   -0.15394E-02   -0.29300E-01  8160   0.116E+00    0.146E-01
DAV:   2    -0.192509951625E+03   -0.23777E-02   -0.14302E-02 12840   0.532E-01    0.379E-01
DAV:   3    -0.192508360629E+03    0.15910E-02   -0.30890E-03 12000   0.441E-01    0.108E-01
DAV:   4    -0.192508305972E+03    0.54657E-04   -0.42457E-04  8400   0.155E-01
  37 F= -.19250831E+03 E0= -.19243333E+03  d E =-.232226E-02
       N       E                     dE             d eps       ncg     rms          rms(c)
DAV:   1    -0.192508200423E+03    0.16021E-03   -0.13283E-02  8200   0.270E-01    0.791E-02
DAV:   2    -0.192509020707E+03   -0.82028E-03   -0.19800E-03 10440   0.347E-01    0.266E-01
DAV:   3    -0.192508150324E+03    0.87038E-03   -0.10315E-03 10040   0.291E-01    0.376E-02
DAV:   4    -0.192508187657E+03   -0.37333E-04   -0.11371E-04  6920   0.918E-02
  38 F= -.19250819E+03 E0= -.19243332E+03  d E =0.118316E-03
       N       E                     dE             d eps       ncg     rms          rms(c)
DAV:   1    -0.192508920640E+03   -0.77032E-03   -0.70602E-02  8160   0.568E-01    0.650E-02
DAV:   2    -0.192509298221E+03   -0.37758E-03   -0.30711E-03 13240   0.216E-01    0.129E-01
DAV:   3    -0.192509130564E+03    0.16766E-03   -0.48534E-04  9680   0.179E-01    0.580E-02
DAV:   4    -0.192509107757E+03    0.22807E-04   -0.88697E-05  5840   0.792E-02
  39 F= -.19250911E+03 E0= -.19243433E+03  d E =-.920100E-03
       N       E                     dE             d eps       ncg     rms          rms(c)
DAV:   1    -0.192509400859E+03   -0.27030E-03   -0.86446E-03  8160   0.211E-01    0.498E-02
DAV:   2    -0.192509471771E+03   -0.70912E-04   -0.52420E-04 10280   0.138E-01
  40 F= -.19250947E+03 E0= -.19243457E+03  d E =-.364014E-03
