       N       E                     dE             d eps       ncg     rms          rms(c)
DAV:   1     0.112609325750E+04    0.11261E+04   -0.35974E+04  8160   0.577E+02
DAV:   2    -0.387512509814E+01   -0.11300E+04   -0.10887E+04 11400   0.173E+02
DAV:   3    -0.199843182643E+03   -0.19597E+03   -0.18861E+03 10880   0.820E+01
DAV:   4    -0.208955869486E+03   -0.91127E+01   -0.88360E+01 12200   0.261E+01
DAV:   5    -0.209272232149E+03   -0.31636E+00   -0.31547E+00 11360   0.351E+00    0.274E+01
DAV:   6    -0.237427545220E+03   -0.28155E+02   -0.10873E+02 12760   0.604E+01    0.593E+01
DAV:   7    -0.196710681637E+03    0.40717E+02   -0.17834E+02 13320   0.151E+02    0.206E+01
DAV:   8    -0.190358411011E+03    0.63523E+01   -0.21138E+01 11480   0.134E+01    0.140E+01
DAV:   9    -0.188344439418E+03    0.20140E+01   -0.40709E+00 11960   0.633E+00    0.934E+00
DAV:  10    -0.187127543672E+03    0.12169E+01   -0.16137E+00 13160   0.758E+00    0.286E+00
DAV:  11    -0.187114028132E+03    0.13516E-01   -0.63027E-01 12240   0.228E+00    0.299E+00
DAV:  12    -0.187143099751E+03   -0.29072E-01   -0.75969E-01 12000   0.390E+00    0.411E+00
DAV:  13    -0.186990559280E+03    0.15254E+00   -0.36419E-01 13080   0.349E+00    0.175E+00
DAV:  14    -0.186957850637E+03    0.32709E-01   -0.75942E-02 13040   0.162E+00    0.591E-01
DAV:  15    -0.186956464250E+03    0.13864E-02   -0.15697E-02 12920   0.631E-01    0.704E-01
DAV:  16    -0.186953626434E+03    0.28378E-02   -0.10778E-02 13400   0.587E-01    0.410E-01
DAV:  17    -0.186951501796E+03    0.21246E-02   -0.58990E-03 12800   0.375E-01    0.195E-01
DAV:  18    -0.186951235796E+03    0.26600E-03   -0.12308E-03 12000   0.144E-01    0.865E-02
DAV:  19    -0.186951295290E+03   -0.59494E-04   -0.50806E-04  9000   0.670E-02
   1 F= -.18695130E+03 E0= -.18678040E+03  d E =-.186951E+03
       N       E                     dE             d eps       ncg     rms          rms(c)
DAV:   1    -0.187578299785E+03   -0.62706E+00   -0.26882E+02  8160   0.348E+01    0.474E+00
DAV:   2    -0.189801223396E+03   -0.22229E+01   -0.20544E+01 12040   0.164E+01    0.113E+01
DAV:   3    -0.189320155667E+03    0.48107E+00   -0.47593E+00 12240   0.131E+01    0.598E+00
DAV:   4    -0.188829959584E+03    0.49020E+00   -0.58360E-01 12480   0.399E+00    0.201E+00
DAV:   5    -0.188913614765E+03   -0.83655E-01   -0.42311E-01 11880   0.334E+00    0.469E+00
DAV:   6    -0.188840382782E+03    0.73232E-01   -0.71754E-01 12160   0.432E+00    0.308E+00
DAV:   7    -0.188742191950E+03    0.98191E-01   -0.22813E-01 12360   0.197E+00    0.102E+00
DAV:   8    -0.188741137757E+03    0.10542E-02   -0.74232E-02 11600   0.136E+00    0.143E+00
DAV:   9    -0.188727118294E+03    0.14019E-01   -0.38314E-02 11440   0.109E+00    0.592E-01
DAV:  10    -0.188724173942E+03    0.29444E-02   -0.72113E-03 11080   0.359E-01    0.243E-01
DAV:  11    -0.188723937743E+03    0.23620E-03   -0.25989E-03 12000   0.189E-01    0.122E-01
DAV:  12    -0.188723903047E+03    0.34696E-04   -0.11713E-03 10840   0.105E-01    0.768E-02
DAV:  13    -0.188724061762E+03   -0.15871E-03   -0.24205E-04  6040   0.587E-02    0.220E-02
DAV:  14    -0.188724230073E+03   -0.16831E-03   -0.82575E-05  6920   0.292E-02    0.342E-02
DAV:  15    -0.188724326230E+03   -0.96157E-04   -0.38096E-05  6200   0.210E-02
   2 F= -.18872433E+03 E0= -.18858598E+03  d E =-.177303E+01
       N       E                     dE             d eps       ncg     rms          rms(c)
DAV:   1    -0.190668174612E+03   -0.19439E+01   -0.31525E+01  9040   0.143E+01    0.445E+00
DAV:   2    -0.190596178032E+03    0.71997E-01   -0.27570E+00 11840   0.933E+00    0.714E+00
DAV:   3    -0.190154439756E+03    0.44174E+00   -0.13484E+00 12160   0.860E+00    0.435E+00
DAV:   4    -0.189933642460E+03    0.22080E+00   -0.73629E-01 12960   0.432E+00    0.251E+00
DAV:   5    -0.189893265919E+03    0.40377E-01   -0.36912E-01 12240   0.277E+00    0.250E+00
DAV:   6    -0.189835616808E+03    0.57649E-01   -0.12822E-01 12360   0.218E+00    0.776E-01
DAV:   7    -0.189828841190E+03    0.67756E-02   -0.14039E-02 11640   0.553E-01    0.209E-01
DAV:   8    -0.189828797669E+03    0.43521E-04   -0.26476E-03 11200   0.159E-01    0.149E-01
DAV:   9    -0.189829058472E+03   -0.26080E-03   -0.12050E-03 10640   0.182E-01    0.191E-01
DAV:  10    -0.189829406353E+03   -0.34788E-03   -0.17317E-03 10240   0.278E-01    0.245E-01
DAV:  11    -0.189828826079E+03    0.58027E-03   -0.85884E-04  8880   0.177E-01    0.206E-02
DAV:  12    -0.189828873590E+03   -0.47511E-04   -0.80778E-05  5960   0.303E-02
   3 F= -.18982887E+03 E0= -.18971181E+03  d E =-.110455E+01
       N       E                     dE             d eps       ncg     rms          rms(c)
DAV:   1    -0.191435947906E+03   -0.16071E+01   -0.78461E+01  8160   0.202E+01    0.465E+00
DAV:   2    -0.191219458629E+03    0.21649E+00   -0.54059E+00 13320   0.747E+00    0.441E+00
DAV:   3    -0.191439913314E+03   -0.22045E+00   -0.16251E+00 12040   0.911E+00    0.755E+00
DAV:   4    -0.191041868946E+03    0.39804E+00   -0.18838E+00 11680   0.860E+00    0.410E+00
DAV:   5    -0.191029184495E+03    0.12684E-01   -0.85854E-01 11600   0.578E+00    0.367E+00
DAV:   6    -0.190840119544E+03    0.18906E+00   -0.22126E-01 11240   0.310E+00    0.679E-01
DAV:   7    -0.190836827455E+03    0.32921E-02   -0.37328E-02 11600   0.696E-01    0.465E-01
DAV:   8    -0.190834112798E+03    0.27147E-02   -0.73798E-03 10600   0.432E-01    0.286E-01
DAV:   9    -0.190833838690E+03    0.27411E-03   -0.24601E-03 11600   0.331E-01    0.201E-01
DAV:  10    -0.190833945820E+03   -0.10713E-03   -0.13805E-03 11800   0.178E-01    0.103E-01
DAV:  11    -0.190833809971E+03    0.13585E-03   -0.51686E-04  9720   0.905E-02    0.425E-02
DAV:  12    -0.190833814932E+03   -0.49614E-05   -0.10444E-04  6600   0.403E-02
   4 F= -.19083381E+03 E0= -.19073195E+03  d E =-.100494E+01
       N       E                     dE             d eps       ncg     rms          rms(c)
DAV:   1    -0.192160907081E+03   -0.13271E+01   -0.15799E+02  8160   0.280E+01    0.555E+00
DAV:   2    -0.191900164457E+03    0.26074E+00   -0.89597E+00 10840   0.758E+00    0.365E+00
DAV:   3    -0.192183334930E+03   -0.28317E+00   -0.23479E+00 12320   0.920E+00    0.711E+00
DAV:   4    -0.191719826537E+03    0.46351E+00   -0.15498E+00 12360   0.916E+00    0.371E+00
DAV:   5    -0.191536974715E+03    0.18285E+00   -0.43076E-01 11560   0.387E+00    0.155E+00
DAV:   6    -0.191532214631E+03    0.47601E-02   -0.18568E-01 12680   0.297E+00    0.166E+00
DAV:   7    -0.191503949567E+03    0.28265E-01   -0.62069E-02 12480   0.173E+00    0.416E-01
DAV:   8    -0.191500816704E+03    0.31329E-02   -0.75708E-03 11200   0.438E-01    0.249E-01
DAV:   9    -0.191501170875E+03   -0.35417E-03   -0.39999E-03 11880   0.408E-01    0.293E-01
DAV:  10    -0.191500658015E+03    0.51286E-03   -0.27120E-03 11640   0.263E-01    0.712E-02
DAV:  11    -0.191500628882E+03    0.29134E-04   -0.38100E-04  9480   0.751E-02
   5 F= -.19150063E+03 E0= -.19139889E+03  d E =-.666814E+00
       N       E                     dE             d eps       ncg     rms          rms(c)
DAV:   1    -0.191565531616E+03   -0.64874E-01   -0.61828E+00  8160   0.523E+00    0.676E-01
DAV:   2    -0.191630646007E+03   -0.65114E-01   -0.28323E-01 12880   0.292E+00    0.219E+00
DAV:   3    -0.191577663958E+03    0.52982E-01   -0.98842E-02 12600   0.235E+00    0.382E-01
DAV:   4    -0.191578872070E+03   -0.12081E-02   -0.12285E-02 11640   0.616E-01    0.593E-01
DAV:   5    -0.191576072171E+03    0.27999E-02   -0.92074E-03 11640   0.597E-01    0.244E-01
DAV:   6    -0.191575752147E+03    0.32002E-03   -0.22870E-03 10480   0.231E-01    0.128E-01
DAV:   7    -0.191575727443E+03    0.24704E-04   -0.13567E-03 10960   0.193E-01    0.159E-01
DAV:   8    -0.191575504373E+03    0.22307E-03   -0.67275E-04  8920   0.166E-01    0.450E-02
DAV:   9    -0.191575517103E+03   -0.12730E-04   -0.75259E-05  6240   0.460E-02
   6 F= -.19157552E+03 E0= -.19147091E+03  d E =-.748882E-01
       N       E                     dE             d eps       ncg     rms          rms(c)
DAV:   1    -0.191652155239E+03   -0.76651E-01   -0.95717E+00  8160   0.649E+00    0.850E-01
DAV:   2    -0.191761021999E+03   -0.10887E+00   -0.39216E-01 13360   0.383E+00    0.303E+00
DAV:   3    -0.191664367513E+03    0.96654E-01   -0.18984E-01 12360   0.312E+00    0.551E-01
DAV:   4    -0.191669183566E+03   -0.48161E-02   -0.31872E-02 11440   0.103E+00    0.983E-01
DAV:   5    -0.191660884530E+03    0.82990E-02   -0.20011E-02 11560   0.842E-01    0.229E-01
DAV:   6    -0.191660555626E+03    0.32890E-03   -0.28453E-03 10120   0.215E-01    0.131E-01
DAV:   7    -0.191660251044E+03    0.30458E-03   -0.10873E-03 10320   0.112E-01    0.415E-02
DAV:   8    -0.191660270675E+03   -0.19630E-04   -0.19659E-04  7080   0.750E-02
   7 F= -.19166027E+03 E0= -.19155333E+03  d E =-.847536E-01
       N       E                     dE             d eps       ncg     rms          rms(c)
DAV:   1    -0.191694443789E+03   -0.34193E-01   -0.17132E+00  8160   0.276E+00    0.358E-01
DAV:   2    -0.191711992550E+03   -0.17549E-01   -0.68359E-02 13480   0.153E+00    0.120E+00
DAV:   3    -0.191696576184E+03    0.15416E-01   -0.29562E-02 11960   0.124E+00    0.251E-01
DAV:   4    -0.191697658802E+03   -0.10826E-02   -0.65717E-03 11160   0.468E-01    0.436E-01
DAV:   5    -0.191695978596E+03    0.16802E-02   -0.38908E-03 10280   0.379E-01    0.102E-01
DAV:   6    -0.191696104435E+03   -0.12584E-03   -0.93117E-04 10080   0.168E-01    0.147E-01
DAV:   7    -0.191696062611E+03    0.41824E-04   -0.11188E-03  8560   0.218E-01    0.127E-01
DAV:   8    -0.191695886240E+03    0.17637E-03   -0.31253E-04  6760   0.110E-01    0.126E-02
DAV:   9    -0.191695900863E+03   -0.14623E-04   -0.43592E-05  6600   0.227E-02
   8 F= -.19169590E+03 E0= -.19158855E+03  d E =-.356302E-01
       N       E                     dE             d eps       ncg     rms          rms(c)
DAV:   1    -0.191803149985E+03   -0.10726E+00   -0.25903E+01  8160   0.107E+01    0.129E+00
DAV:   2    -0.192020290676E+03   -0.21714E+00   -0.92350E-01 13200   0.541E+00    0.435E+00
DAV:   3    -0.191846864426E+03    0.17343E+00   -0.48730E-01 12280   0.453E+00    0.120E+00
DAV:   4    -0.191851712768E+03   -0.48483E-02   -0.10061E-01 12080   0.190E+00    0.155E+00
DAV:   5    -0.191829526385E+03    0.22186E-01   -0.50203E-02 12240   0.134E+00    0.365E-01
DAV:   6    -0.191828753012E+03    0.77337E-03   -0.93171E-03 11040   0.412E-01    0.290E-01
DAV:   7    -0.191831051978E+03   -0.22990E-02   -0.11473E-02 11640   0.700E-01    0.600E-01
DAV:   8    -0.191827458572E+03    0.35934E-02   -0.63796E-03 10840   0.533E-01    0.625E-02
DAV:   9    -0.191827477784E+03   -0.19212E-04   -0.34980E-04  8360   0.663E-02
   9 F= -.19182748E+03 E0= -.19172094E+03  d E =-.131577E+00
       N       E                     dE             d eps       ncg     rms          rms(c)
DAV:   1    -0.191896939589E+03   -0.69481E-01   -0.12058E+01  8160   0.741E+00    0.945E-01
DAV:   2    -0.191995607922E+03   -0.98668E-01   -0.49935E-01 13280   0.371E+00    0.298E+00
DAV:   3    -0.191921447350E+03    0.74161E-01   -0.23473E-01 12200   0.302E+00    0.978E-01
DAV:   4    -0.191924189238E+03   -0.27419E-02   -0.61680E-02 11200   0.155E+00    0.119E+00
DAV:   5    -0.191909776794E+03    0.14412E-01   -0.28160E-02 12240   0.107E+00    0.266E-01
DAV:   6    -0.191909698572E+03    0.78222E-04   -0.69497E-03 10360   0.366E-01    0.274E-01
DAV:   7    -0.191910544555E+03   -0.84598E-03   -0.71094E-03 11160   0.570E-01    0.428E-01
DAV:   8    -0.191908646124E+03    0.18984E-02   -0.31941E-03  9920   0.379E-01    0.460E-02
DAV:   9    -0.191908656559E+03   -0.10435E-04   -0.19923E-04  6440   0.496E-02
  10 F= -.19190866E+03 E0= -.19180313E+03  d E =-.811788E-01
       N       E                     dE             d eps       ncg     rms          rms(c)
DAV:   1    -0.191961345998E+03   -0.52700E-01   -0.18753E+01  8160   0.923E+00    0.103E+00
DAV:   2    -0.192061800675E+03   -0.10045E+00   -0.68375E-01 13120   0.364E+00    0.275E+00
DAV:   3    -0.192006387382E+03    0.55413E-01   -0.24864E-01 12080   0.301E+00    0.117E+00
DAV:   4    -0.192007728959E+03   -0.13416E-02   -0.68590E-02 11360   0.175E+00    0.128E+00
DAV:   5    -0.191989717959E+03    0.18011E-01   -0.30072E-02 11880   0.125E+00    0.306E-01
DAV:   6    -0.191989475240E+03    0.24272E-03   -0.82658E-03 11640   0.341E-01    0.203E-01
DAV:   7    -0.191988524217E+03    0.95102E-03   -0.25742E-03 10800   0.202E-01    0.907E-02
DAV:   8    -0.191988646069E+03   -0.12185E-03   -0.85901E-04 10520   0.186E-01    0.139E-01
DAV:   9    -0.191988448074E+03    0.19800E-03   -0.41616E-04  7840   0.137E-01    0.396E-02
DAV:  10    -0.191988424252E+03    0.23821E-04   -0.10396E-04  5680   0.402E-02
  11 F= -.19198842E+03 E0= -.19188532E+03  d E =-.797677E-01
       N       E                     dE             d eps       ncg     rms          rms(c)
DAV:   1    -0.191975089438E+03    0.13359E-01   -0.15280E+00  8160   0.261E+00    0.264E-01
DAV:   2    -0.191979688523E+03   -0.45991E-02   -0.40440E-02 11320   0.677E-01    0.550E-01
DAV:   3    -0.191977627007E+03    0.20615E-02   -0.11825E-02 11320   0.690E-01    0.388E-01
DAV:   4    -0.191976760714E+03    0.86629E-03   -0.40773E-03 11440   0.367E-01    0.226E-01
DAV:   5    -0.191976352118E+03    0.40860E-03   -0.14871E-03  9800   0.300E-01    0.130E-01
DAV:   6    -0.191976188070E+03    0.16405E-03   -0.71474E-04 10160   0.160E-01    0.645E-02
DAV:   7    -0.191976137334E+03    0.50736E-04   -0.24399E-04  8520   0.786E-02
  12 F= -.19197614E+03 E0= -.19187208E+03  d E =0.122869E-01
       N       E                     dE             d eps       ncg     rms          rms(c)
DAV:   1    -0.191998719020E+03   -0.22531E-01   -0.17830E+00  8160   0.286E+00    0.310E-01
DAV:   2    -0.192004706891E+03   -0.59879E-02   -0.61351E-02 12480   0.885E-01    0.531E-01
DAV:   3    -0.192003128597E+03    0.15783E-02   -0.11673E-02 12080   0.777E-01    0.386E-01
DAV:   4    -0.192002679175E+03    0.44942E-03   -0.53856E-03 10080   0.481E-01    0.356E-01
DAV:   5    -0.192001454517E+03    0.12247E-02   -0.26939E-03  9880   0.371E-01    0.123E-01
DAV:   6    -0.192001981568E+03   -0.52705E-03   -0.18352E-03 10120   0.271E-01    0.258E-01
DAV:   7    -0.192001363869E+03    0.61770E-03   -0.14223E-03  9640   0.263E-01    0.650E-02
DAV:   8    -0.192001314576E+03    0.49293E-04   -0.10972E-04  5640   0.593E-02
  13 F= -.19200131E+03 E0= -.19189847E+03  d E =-.251772E-01
       N       E                     dE             d eps       ncg     rms          rms(c)
DAV:   1    -0.192015784147E+03   -0.14420E-01   -0.61302E-01  8160   0.169E+00    0.204E-01
DAV:   2    -0.192017204675E+03   -0.14205E-02   -0.23218E-02 11200   0.459E-01    0.198E-01
DAV:   3    -0.192017561121E+03   -0.35645E-03   -0.29739E-03 12120   0.440E-01    0.271E-01
DAV:   4    -0.192016688744E+03    0.87238E-03   -0.15167E-03 10200   0.299E-01    0.110E-01
DAV:   5    -0.192016863163E+03   -0.17442E-03   -0.10003E-03  8680   0.218E-01    0.175E-01
DAV:   6    -0.192016599358E+03    0.26381E-03   -0.71962E-04  8240   0.173E-01    0.608E-02
DAV:   7    -0.192016622893E+03   -0.23535E-04   -0.25269E-04  5800   0.106E-01
  14 F= -.19201662E+03 E0= -.19191442E+03  d E =-.153083E-01
       N       E                     dE             d eps       ncg     rms          rms(c)
DAV:   1    -0.192044048717E+03   -0.27449E-01   -0.26780E+00  8160   0.353E+00    0.404E-01
DAV:   2    -0.192051276481E+03   -0.72278E-02   -0.97177E-02 11720   0.933E-01    0.524E-01
DAV:   3    -0.192053326306E+03   -0.20498E-02   -0.20896E-02 12240   0.974E-01    0.731E-01
DAV:   4    -0.192048692122E+03    0.46342E-02   -0.96594E-03 11040   0.628E-01    0.247E-01
DAV:   5    -0.192048520831E+03    0.17129E-03   -0.22603E-03 10080   0.409E-01    0.217E-01
DAV:   6    -0.192048282443E+03    0.23839E-03   -0.20413E-03 12000   0.285E-01    0.168E-01
DAV:   7    -0.192048044293E+03    0.23815E-03   -0.95104E-04  9000   0.216E-01    0.843E-02
DAV:   8    -0.192047960745E+03    0.83548E-04   -0.15801E-04  5880   0.814E-02
  15 F= -.19204796E+03 E0= -.19194809E+03  d E =-.313379E-01
       N       E                     dE             d eps       ncg     rms          rms(c)
DAV:   1    -0.192068274057E+03   -0.20230E-01   -0.12741E+00  8160   0.244E+00    0.294E-01
DAV:   2    -0.192072286034E+03   -0.40120E-02   -0.46763E-02 11280   0.677E-01    0.467E-01
DAV:   3    -0.192071932963E+03    0.35307E-03   -0.11270E-02 12000   0.716E-01    0.451E-01
DAV:   4    -0.192069982212E+03    0.19508E-02   -0.36046E-03 11040   0.376E-01    0.123E-01
DAV:   5    -0.192070294622E+03   -0.31241E-03   -0.14873E-03 10040   0.295E-01    0.208E-01
DAV:   6    -0.192069906918E+03    0.38770E-03   -0.10938E-03 10520   0.243E-01    0.948E-02
DAV:   7    -0.192069873401E+03    0.33517E-04   -0.47335E-04  8640   0.154E-01
  16 F= -.19206987E+03 E0= -.19197148E+03  d E =-.219127E-01
       N       E                     dE             d eps       ncg     rms          rms(c)
DAV:   1    -0.192076924237E+03   -0.70173E-02   -0.14225E-01  8160   0.815E-01    0.111E-01
DAV:   2    -0.192077974811E+03   -0.10506E-02   -0.64261E-03 11440   0.348E-01    0.299E-01
DAV:   3    -0.192077193649E+03    0.78116E-03   -0.21719E-03 11320   0.321E-01    0.103E-01
DAV:   4    -0.192077156219E+03    0.37430E-04   -0.31306E-04  7640   0.120E-01
  17 F= -.19207716E+03 E0= -.19197932E+03  d E =-.728282E-02
       N       E                     dE             d eps       ncg     rms          rms(c)
DAV:   1    -0.192073793466E+03    0.34002E-02   -0.97149E-02  8160   0.699E-01    0.103E-01
DAV:   2    -0.192074910576E+03   -0.11171E-02   -0.43162E-03 13000   0.376E-01    0.305E-01
DAV:   3    -0.192073842134E+03    0.10684E-02   -0.19895E-03 10040   0.351E-01    0.878E-02
DAV:   4    -0.192073886124E+03   -0.43990E-04   -0.45077E-04  8200   0.142E-01
  18 F= -.19207389E+03 E0= -.19197626E+03  d E =0.327010E-02
       N       E                     dE             d eps       ncg     rms          rms(c)
DAV:   1    -0.192085299173E+03   -0.11457E-01   -0.69630E-01  8160   0.179E+00    0.245E-01
DAV:   2    -0.192091308153E+03   -0.60090E-02   -0.38789E-02 12120   0.904E-01    0.680E-01
DAV:   3    -0.192087158659E+03    0.41495E-02   -0.10948E-02 11960   0.742E-01    0.215E-01
DAV:   4    -0.192086841620E+03    0.31704E-03   -0.15673E-03  9720   0.272E-01    0.163E-01
DAV:   5    -0.192086675981E+03    0.16564E-03   -0.90360E-04 10080   0.248E-01    0.115E-01
DAV:   6    -0.192086678106E+03   -0.21252E-05   -0.67903E-04 10440   0.174E-01
  19 F= -.19208668E+03 E0= -.19199028E+03  d E =-.127920E-01
       N       E                     dE             d eps       ncg     rms          rms(c)
DAV:   1    -0.192094109679E+03   -0.74337E-02   -0.25994E-01  8160   0.116E+00    0.200E-01
DAV:   2    -0.192095645255E+03   -0.15356E-02   -0.12263E-02 11520   0.515E-01    0.407E-01
DAV:   3    -0.192094061202E+03    0.15841E-02   -0.56923E-03 12320   0.562E-01    0.232E-01
DAV:   4    -0.192093788122E+03    0.27308E-03   -0.18776E-03 10040   0.285E-01    0.177E-01
DAV:   5    -0.192093542320E+03    0.24580E-03   -0.10197E-03 10480   0.259E-01    0.116E-01
DAV:   6    -0.192093435836E+03    0.10648E-03   -0.49549E-04  8200   0.142E-01    0.863E-02
DAV:   7    -0.192093387168E+03    0.48668E-04   -0.28743E-04  6760   0.122E-01
  20 F= -.19209339E+03 E0= -.19199706E+03  d E =-.670906E-02
       N       E                     dE             d eps       ncg     rms          rms(c)
DAV:   1    -0.192100262186E+03   -0.68264E-02   -0.13929E-01  8160   0.808E-01    0.111E-01
DAV:   2    -0.192101174861E+03   -0.91268E-03   -0.56253E-03 11120   0.330E-01    0.281E-01
DAV:   3    -0.192100459062E+03    0.71580E-03   -0.19133E-03 11000   0.313E-01    0.106E-01
DAV:   4    -0.192100432770E+03    0.26292E-04   -0.36627E-04  8160   0.132E-01
  21 F= -.19210043E+03 E0= -.19200437E+03  d E =-.704560E-02
       N       E                     dE             d eps       ncg     rms          rms(c)
DAV:   1    -0.192083491489E+03    0.16968E-01   -0.98913E-01  8160   0.218E+00    0.302E-01
DAV:   2    -0.192090336470E+03   -0.68450E-02   -0.37112E-02 12000   0.945E-01    0.760E-01
DAV:   3    -0.192084441307E+03    0.58952E-02   -0.15055E-02 12000   0.922E-01    0.283E-01
DAV:   4    -0.192084853633E+03   -0.41233E-03   -0.44328E-03 11000   0.460E-01    0.352E-01
DAV:   5    -0.192083544020E+03    0.13096E-02   -0.24632E-03 10200   0.385E-01    0.106E-01
DAV:   6    -0.192083667643E+03   -0.12362E-03   -0.96587E-04  9720   0.197E-01    0.163E-01
DAV:   7    -0.192083443757E+03    0.22389E-03   -0.79403E-04  8680   0.203E-01    0.690E-02
DAV:   8    -0.192083399240E+03    0.44518E-04   -0.11540E-04  5960   0.707E-02
  22 F= -.19208340E+03 E0= -.19198638E+03  d E =0.170335E-01
       N       E                     dE             d eps       ncg     rms          rms(c)
DAV:   1    -0.192124749751E+03   -0.41306E-01   -0.56208E+00  8160   0.519E+00    0.685E-01
DAV:   2    -0.192148747491E+03   -0.23998E-01   -0.19945E-01 11240   0.175E+00    0.131E+00
DAV:   3    -0.192133315938E+03    0.15432E-01   -0.52490E-02 11920   0.175E+00    0.762E-01
DAV:   4    -0.192131118355E+03    0.21976E-02   -0.18663E-02 12240   0.957E-01    0.625E-01
DAV:   5    -0.192127110882E+03    0.40075E-02   -0.98937E-03 10720   0.842E-01    0.290E-01
DAV:   6    -0.192126319766E+03    0.79112E-03   -0.36240E-03 11840   0.359E-01    0.164E-01
DAV:   7    -0.192126588032E+03   -0.26827E-03   -0.26668E-03 12480   0.358E-01    0.255E-01
DAV:   8    -0.192125893505E+03    0.69453E-03   -0.12060E-03  9240   0.260E-01    0.424E-02
DAV:   9    -0.192125877678E+03    0.15827E-04   -0.78984E-05  5800   0.413E-02
  23 F= -.19212588E+03 E0= -.19203203E+03  d E =-.424784E-01
       N       E                     dE             d eps       ncg     rms          rms(c)
DAV:   1    -0.192130981221E+03   -0.50877E-02   -0.12647E-01  8160   0.792E-01    0.150E-01
DAV:   2    -0.192131927663E+03   -0.94644E-03   -0.82084E-03 10920   0.448E-01    0.325E-01
DAV:   3    -0.192130993407E+03    0.93426E-03   -0.26921E-03 11840   0.399E-01    0.144E-01
DAV:   4    -0.192130921398E+03    0.72009E-04   -0.83445E-04  8680   0.218E-01
  24 F= -.19213092E+03 E0= -.19203736E+03  d E =-.504372E-02
       N       E                     dE             d eps       ncg     rms          rms(c)
DAV:   1    -0.192146288077E+03   -0.15295E-01   -0.95958E-01  8160   0.211E+00    0.279E-01
DAV:   2    -0.192152598300E+03   -0.63102E-02   -0.39405E-02 11360   0.854E-01    0.689E-01
DAV:   3    -0.192148112473E+03    0.44858E-02   -0.10075E-02 12120   0.785E-01    0.240E-01
DAV:   4    -0.192147805439E+03    0.30703E-03   -0.15745E-03 10960   0.296E-01    0.183E-01
DAV:   5    -0.192147513742E+03    0.29170E-03   -0.10055E-03 11240   0.285E-01    0.112E-01
DAV:   6    -0.192147454943E+03    0.58799E-04   -0.47961E-04  9840   0.145E-01
  25 F= -.19214745E+03 E0= -.19205543E+03  d E =-.165335E-01
       N       E                     dE             d eps       ncg     rms          rms(c)
DAV:   1    -0.192158802391E+03   -0.11289E-01   -0.54584E-01  8160   0.161E+00    0.240E-01
DAV:   2    -0.192163841301E+03   -0.50389E-02   -0.27597E-02 11600   0.775E-01    0.644E-01
DAV:   3    -0.192159787854E+03    0.40534E-02   -0.86845E-03 12240   0.728E-01    0.197E-01
DAV:   4    -0.192159532089E+03    0.25576E-03   -0.10818E-03 10080   0.223E-01    0.142E-01
DAV:   5    -0.192159357246E+03    0.17484E-03   -0.66288E-04 10800   0.227E-01    0.940E-02
DAV:   6    -0.192159315541E+03    0.41705E-04   -0.41655E-04  8960   0.131E-01
  26 F= -.19215932E+03 E0= -.19206809E+03  d E =-.118606E-01
       N       E                     dE             d eps       ncg     rms          rms(c)
DAV:   1    -0.192170606228E+03   -0.11249E-01   -0.63346E-01  8160   0.171E+00    0.255E-01
DAV:   2    -0.192177526064E+03   -0.69198E-02   -0.31466E-02 10760   0.956E-01    0.730E-01
DAV:   3    -0.192171681415E+03    0.58446E-02   -0.95282E-03 11880   0.805E-01    0.188E-01
DAV:   4    -0.192171964399E+03   -0.28298E-03   -0.17891E-03  9840   0.357E-01    0.245E-01
DAV:   5    -0.192171275681E+03    0.68872E-03   -0.99685E-04 10080   0.282E-01    0.656E-02
DAV:   6    -0.192171317642E+03   -0.41960E-04   -0.34743E-04  9040   0.106E-01
  27 F= -.19217132E+03 E0= -.19208101E+03  d E =-.120021E-01
       N       E                     dE             d eps       ncg     rms          rms(c)
DAV:   1    -0.192182340211E+03   -0.11065E-01   -0.74622E-01  8160   0.187E+00    0.259E-01
DAV:   2    -0.192188130119E+03   -0.57899E-02   -0.34332E-02 11160   0.808E-01    0.636E-01
DAV:   3    -0.192184006191E+03    0.41239E-02   -0.90049E-03 12200   0.760E-01    0.232E-01
DAV:   4    -0.192183943705E+03    0.62486E-04   -0.16942E-03 10840   0.325E-01    0.217E-01
DAV:   5    -0.192183396354E+03    0.54735E-03   -0.90922E-04 10600   0.275E-01    0.752E-02
DAV:   6    -0.192183391552E+03    0.48022E-05   -0.37845E-04  9200   0.992E-02
  28 F= -.19218339E+03 E0= -.19209397E+03  d E =-.120739E-01
       N       E                     dE             d eps       ncg     rms          rms(c)
DAV:   1    -0.192193903197E+03   -0.10507E-01   -0.84465E-01  8160   0.197E+00    0.268E-01
DAV:   2    -0.192200171317E+03   -0.62681E-02   -0.37799E-02 10520   0.921E-01    0.649E-01
DAV:   3    -0.192195739428E+03    0.44319E-02   -0.90545E-03 11920   0.784E-01    0.221E-01
DAV:   4    -0.192195911632E+03   -0.17220E-03   -0.19516E-03 10240   0.376E-01    0.257E-01
DAV:   5    -0.192195172050E+03    0.73958E-03   -0.11095E-03 10080   0.306E-01    0.757E-02
DAV:   6    -0.192195226467E+03   -0.54417E-04   -0.45158E-04  9560   0.122E-01
  29 F= -.19219523E+03 E0= -.19210691E+03  d E =-.118349E-01
       N       E                     dE             d eps       ncg     rms          rms(c)
DAV:   1    -0.192202872792E+03   -0.77007E-02   -0.54244E-01  8160   0.160E+00    0.216E-01
DAV:   2    -0.192205937117E+03   -0.30643E-02   -0.24355E-02 11120   0.581E-01    0.425E-01
DAV:   3    -0.192204349904E+03    0.15872E-02   -0.54324E-03 12080   0.590E-01    0.240E-01
DAV:   4    -0.192204033392E+03    0.31651E-03   -0.13134E-03  9680   0.287E-01    0.169E-01
DAV:   5    -0.192203729999E+03    0.30339E-03   -0.61511E-04  9640   0.230E-01    0.755E-02
DAV:   6    -0.192203703252E+03    0.26747E-04   -0.30541E-04  8360   0.981E-02
  30 F= -.19220370E+03 E0= -.19211600E+03  d E =-.847678E-02
       N       E                     dE             d eps       ncg     rms          rms(c)
DAV:   1    -0.192209124227E+03   -0.53942E-02   -0.29218E-01  8160   0.116E+00    0.161E-01
DAV:   2    -0.192211237806E+03   -0.21136E-02   -0.13675E-02 10360   0.571E-01    0.375E-01
DAV:   3    -0.192209776415E+03    0.14614E-02   -0.32498E-03 11960   0.472E-01    0.135E-01
DAV:   4    -0.192209815432E+03   -0.39017E-04   -0.69400E-04  8840   0.226E-01
  31 F= -.19220982E+03 E0= -.19212256E+03  d E =-.611218E-02
       N       E                     dE             d eps       ncg     rms          rms(c)
DAV:   1    -0.192214629981E+03   -0.48536E-02   -0.28440E-01  8160   0.115E+00    0.154E-01
DAV:   2    -0.192215436722E+03   -0.80674E-03   -0.10151E-02 11520   0.319E-01    0.202E-01
DAV:   3    -0.192215418110E+03    0.18612E-04   -0.20129E-03 11960   0.363E-01    0.210E-01
DAV:   4    -0.192215002981E+03    0.41513E-03   -0.66348E-04  8800   0.212E-01    0.910E-02
DAV:   5    -0.192214996646E+03    0.63351E-05   -0.34330E-04  8840   0.173E-01
  32 F= -.19221500E+03 E0= -.19212867E+03  d E =-.518121E-02
       N       E                     dE             d eps       ncg     rms          rms(c)
DAV:   1    -0.192218880872E+03   -0.38779E-02   -0.20476E-01  8160   0.974E-01    0.132E-01
DAV:   2    -0.192219998094E+03   -0.11172E-02   -0.97131E-03 11560   0.411E-01    0.256E-01
DAV:   3    -0.192219454610E+03    0.54348E-03   -0.19979E-03 11840   0.362E-01    0.136E-01
DAV:   4    -0.192219318159E+03    0.13645E-03   -0.45712E-04  8160   0.171E-01    0.890E-02
DAV:   5    -0.192219267032E+03    0.51127E-04   -0.22446E-04  7640   0.141E-01
  33 F= -.19221927E+03 E0= -.19213343E+03  d E =-.427039E-02
       N       E                     dE             d eps       ncg     rms          rms(c)
DAV:   1    -0.192225694756E+03   -0.63766E-02   -0.88359E-01  8160   0.202E+00    0.247E-01
DAV:   2    -0.192229175048E+03   -0.34803E-02   -0.35930E-02 11640   0.667E-01    0.364E-01
DAV:   3    -0.192228238228E+03    0.93682E-03   -0.55374E-03 12120   0.617E-01    0.263E-01
DAV:   4    -0.192227798029E+03    0.44020E-03   -0.16905E-03 10040   0.337E-01    0.203E-01
DAV:   5    -0.192227435072E+03    0.36296E-03   -0.85164E-04 10000   0.265E-01    0.963E-02
DAV:   6    -0.192227450523E+03   -0.15451E-04   -0.43124E-04  9360   0.130E-01
  34 F= -.19222745E+03 E0= -.19214245E+03  d E =-.818349E-02
       N       E                     dE             d eps       ncg     rms          rms(c)
DAV:   1    -0.192230581795E+03   -0.31467E-02   -0.19904E-01  8160   0.973E-01    0.137E-01
DAV:   2    -0.192231475273E+03   -0.89348E-03   -0.93764E-03 10920   0.335E-01    0.222E-01
DAV:   3    -0.192231190219E+03    0.28505E-03   -0.21116E-03 12160   0.366E-01    0.168E-01
DAV:   4    -0.192230907423E+03    0.28280E-03   -0.47307E-04  8320   0.167E-01    0.645E-02
DAV:   5    -0.192230921923E+03   -0.14501E-04   -0.22328E-04  8320   0.133E-01
  35 F= -.19223092E+03 E0= -.19214623E+03  d E =-.347140E-02
       N       E                     dE             d eps       ncg     rms          rms(c)
DAV:   1    -0.192233592774E+03   -0.26854E-02   -0.18375E-01  8160   0.922E-01    0.121E-01
DAV:   2    -0.192234446194E+03   -0.85342E-03   -0.78356E-03 11200   0.342E-01    0.206E-01
DAV:   3    -0.192234079893E+03    0.36630E-03   -0.15656E-03 11480   0.316E-01    0.125E-01
DAV:   4    -0.192233971259E+03    0.10863E-03   -0.47878E-04  8360   0.162E-01    0.788E-02
DAV:   5    -0.192233926421E+03    0.44838E-04   -0.21447E-04  7960   0.124E-01
  36 F= -.19223393E+03 E0= -.19214965E+03  d E =-.300450E-02
       N       E                     dE             d eps       ncg     rms          rms(c)
DAV:   1    -0.192237963750E+03   -0.39925E-02   -0.70017E-01  8160   0.179E+00    0.234E-01
DAV:   2    -0.192241358986E+03   -0.33952E-02   -0.29227E-02 10960   0.736E-01    0.409E-01
DAV:   3    -0.192239555861E+03    0.18031E-02   -0.48030E-03 12200   0.609E-01    0.178E-01
DAV:   4    -0.192239353421E+03    0.20244E-03   -0.11034E-03  9520   0.252E-01    0.156E-01
DAV:   5    -0.192239207930E+03    0.14549E-03   -0.86057E-04 10120   0.242E-01    0.109E-01
DAV:   6    -0.192239150735E+03    0.57195E-04   -0.41292E-04  8840   0.131E-01
  37 F= -.19223915E+03 E0= -.19215547E+03  d E =-.522431E-02
       N       E                     dE             d eps       ncg     rms          rms(c)
DAV:   1    -0.192241299269E+03   -0.20913E-02   -0.20983E-01  8160   0.989E-01    0.134E-01
DAV:   2    -0.192242555990E+03   -0.12567E-02   -0.95740E-03 10480   0.378E-01    0.279E-01
DAV:   3    -0.192241854564E+03    0.70143E-03   -0.20992E-03 11400   0.374E-01    0.139E-01
DAV:   4    -0.192241728941E+03    0.12562E-03   -0.34928E-04  8200   0.154E-01    0.859E-02
DAV:   5    -0.192241660479E+03    0.68462E-04   -0.18301E-04  8400   0.131E-01
  38 F= -.19224166E+03 E0= -.19215831E+03  d E =-.250974E-02
       N       E                     dE             d eps       ncg     rms          rms(c)
DAV:   1    -0.192243894647E+03   -0.21657E-02   -0.41117E-01  8160   0.138E+00    0.169E-01
DAV:   2    -0.192245174282E+03   -0.12796E-02   -0.16348E-02 10120   0.389E-01    0.202E-01
DAV:   3    -0.192245320109E+03   -0.14583E-03   -0.26719E-03 13000   0.415E-01    0.240E-01
DAV:   4    -0.192244684651E+03    0.63546E-03   -0.96285E-04  9360   0.248E-01    0.666E-02
DAV:   5    -0.192244775635E+03   -0.90984E-04   -0.35808E-04  8840   0.154E-01
  39 F= -.19224478E+03 E0= -.19216172E+03  d E =-.311516E-02
       N       E                     dE             d eps       ncg     rms          rms(c)
DAV:   1    -0.192246016007E+03   -0.13314E-02   -0.24844E-01  8160   0.107E+00    0.136E-01
DAV:   2    -0.192247121471E+03   -0.11055E-02   -0.10865E-02 11560   0.357E-01    0.209E-01
DAV:   3    -0.192246793312E+03    0.32816E-03   -0.18397E-03 11440   0.346E-01    0.154E-01
DAV:   4    -0.192246628505E+03    0.16481E-03   -0.61131E-04  8560   0.189E-01    0.910E-02
DAV:   5    -0.192246563920E+03    0.64585E-04   -0.29419E-04  8240   0.141E-01
  40 F= -.19224656E+03 E0= -.19216385E+03  d E =-.178829E-02
       N       E                     dE             d eps       ncg     rms          rms(c)
DAV:   1    -0.192247671829E+03   -0.10433E-02   -0.25217E-01  8160   0.108E+00    0.141E-01
DAV:   2    -0.192248689795E+03   -0.10180E-02   -0.10349E-02 10480   0.364E-01    0.209E-01
DAV:   3    -0.192248361671E+03    0.32812E-03   -0.17085E-03 12200   0.353E-01    0.144E-01
DAV:   4    -0.192248210588E+03    0.15108E-03   -0.62537E-04  8280   0.191E-01    0.971E-02
DAV:   5    -0.192248152943E+03    0.57645E-04   -0.34241E-04  9080   0.156E-01
  41 F= -.19224815E+03 E0= -.19216563E+03  d E =-.158902E-02
       N       E                     dE             d eps       ncg     rms          rms(c)
DAV:   1    -0.192248909092E+03   -0.69850E-03   -0.16389E-01  8160   0.878E-01    0.122E-01
DAV:   2    -0.192249756146E+03   -0.84705E-03   -0.70810E-03 10320   0.338E-01    0.232E-01
DAV:   3    -0.192249298414E+03    0.45773E-03   -0.15194E-03 10720   0.323E-01    0.126E-01
DAV:   4    -0.192249196339E+03    0.10207E-03   -0.44339E-04  8560   0.147E-01    0.762E-02
DAV:   5    -0.192249155403E+03    0.40936E-04   -0.22534E-04  8000   0.122E-01
  42 F= -.19224916E+03 E0= -.19216676E+03  d E =-.100246E-02
       N       E                     dE             d eps       ncg     rms          rms(c)
DAV:   1    -0.192248821955E+03    0.37438E-03   -0.76733E-01  8160   0.187E+00    0.223E-01
DAV:   2    -0.192251054467E+03   -0.22325E-02   -0.30435E-02 10760   0.488E-01    0.205E-01
DAV:   3    -0.192251481157E+03   -0.42669E-03   -0.32049E-03 12400   0.487E-01    0.293E-01
DAV:   4    -0.192250521683E+03    0.95947E-03   -0.16014E-03 10760   0.340E-01    0.113E-01
DAV:   5    -0.192250582732E+03   -0.61049E-04   -0.70516E-04  9360   0.226E-01
  43 F= -.19225058E+03 E0= -.19216862E+03  d E =-.142733E-02
       N       E                     dE             d eps       ncg     rms          rms(c)
DAV:   1    -0.192250033236E+03    0.48845E-03   -0.78375E-02  8160   0.612E-01    0.845E-02
DAV:   2    -0.192250839616E+03   -0.80638E-03   -0.44709E-03 12360   0.305E-01    0.233E-01
DAV:   3    -0.192250239660E+03    0.59996E-03   -0.13599E-03  9760   0.287E-01    0.863E-02
DAV:   4    -0.192250168268E+03    0.71392E-04   -0.17068E-04  6840   0.915E-02
  44 F= -.19225017E+03 E0= -.19216778E+03  d E =0.414465E-03
