<?xml version="1.0" encoding="ISO-8859-1"?>
<modeling>
 <generator>
  <i name="program" type="string">vasp </i>
  <i name="version" type="string">5.4.1  </i>
  <i name="subversion" type="string">05Feb16 (build Jul 05 2020 17:13:04) complex                          parallel </i>
  <i name="platform" type="string">IFC91_ompi </i>
  <i name="date" type="string">2024 07 10 </i>
  <i name="time" type="string">22:07:56 </i>
 </generator>
 <incar>
  <i type="int" name="ISTART">     0</i>
  <i type="string" name="PREC">normal</i>
  <i type="string" name="ALGO"> Normal</i>
  <i type="int" name="ISPIN">     1</i>
  <i type="int" name="ICHARG">     2</i>
  <i type="int" name="IBRION">     1</i>
  <i type="int" name="NSW">   100</i>
  <i type="int" name="ISIF">     3</i>
  <i type="int" name="ISYM">     0</i>
  <i name="SYMPREC">      0.00000001</i>
  <i name="POTIM">      0.50000000</i>
  <i type="logical" name="LREAL"> F  </i>
  <i type="logical" name="LPLANE"> F  </i>
  <i type="int" name="ISMEAR">     0</i>
  <i type="logical" name="LWAVE"> F  </i>
  <i type="logical" name="LCHARG"> F  </i>
  <v type="int" name="KPOINT_BSE">    -1     0     0     0</v>
 </incar>
 <kpoints>
  <generation param="Gamma">
   <v type="int" name="divisions">       8        8        1 </v>
   <v name="usershift">      0.00000000       0.00000000       0.00000000 </v>
   <v name="genvec1">      0.12500000       0.00000000       0.00000000 </v>
   <v name="genvec2">     -0.00000000       0.12500000       0.00000000 </v>
   <v name="genvec3">      0.00000000       0.00000000       1.00000000 </v>
   <v name="shift">      0.00000000       0.00000000       0.00000000 </v>
  </generation>
  <varray name="kpointlist" >
   <v>       0.00000000       0.00000000       0.00000000 </v>
   <v>       0.12500000       0.00000000       0.00000000 </v>
   <v>       0.25000000       0.00000000       0.00000000 </v>
   <v>       0.37500000       0.00000000       0.00000000 </v>
   <v>       0.50000000       0.00000000       0.00000000 </v>
   <v>       0.00000000       0.12500000       0.00000000 </v>
   <v>       0.12500000       0.12500000       0.00000000 </v>
   <v>       0.25000000       0.12500000       0.00000000 </v>
   <v>       0.37500000       0.12500000       0.00000000 </v>
   <v>       0.50000000       0.12500000       0.00000000 </v>
   <v>      -0.37500000       0.12500000       0.00000000 </v>
   <v>      -0.25000000       0.12500000       0.00000000 </v>
   <v>      -0.12500000       0.12500000       0.00000000 </v>
   <v>       0.00000000       0.25000000       0.00000000 </v>
   <v>       0.12500000       0.25000000       0.00000000 </v>
   <v>       0.25000000       0.25000000       0.00000000 </v>
   <v>       0.37500000       0.25000000       0.00000000 </v>
   <v>       0.50000000       0.25000000       0.00000000 </v>
   <v>      -0.37500000       0.25000000       0.00000000 </v>
   <v>      -0.25000000       0.25000000       0.00000000 </v>
   <v>      -0.12500000       0.25000000       0.00000000 </v>
   <v>      -0.00000000       0.37500000       0.00000000 </v>
   <v>       0.12500000       0.37500000       0.00000000 </v>
   <v>       0.25000000       0.37500000       0.00000000 </v>
   <v>       0.37500000       0.37500000       0.00000000 </v>
   <v>       0.50000000       0.37500000       0.00000000 </v>
   <v>      -0.37500000       0.37500000       0.00000000 </v>
   <v>      -0.25000000       0.37500000       0.00000000 </v>
   <v>      -0.12500000       0.37500000       0.00000000 </v>
   <v>       0.00000000       0.50000000       0.00000000 </v>
   <v>       0.12500000       0.50000000       0.00000000 </v>
   <v>       0.25000000       0.50000000       0.00000000 </v>
   <v>       0.37500000       0.50000000       0.00000000 </v>
   <v>       0.50000000       0.50000000       0.00000000 </v>
  </varray>
  <varray name="weights" >
   <v>       0.01562500 </v>
   <v>       0.03125000 </v>
   <v>       0.03125000 </v>
   <v>       0.03125000 </v>
   <v>       0.01562500 </v>
   <v>       0.03125000 </v>
   <v>       0.03125000 </v>
   <v>       0.03125000 </v>
   <v>       0.03125000 </v>
   <v>       0.03125000 </v>
   <v>       0.03125000 </v>
   <v>       0.03125000 </v>
   <v>       0.03125000 </v>
   <v>       0.03125000 </v>
   <v>       0.03125000 </v>
   <v>       0.03125000 </v>
   <v>       0.03125000 </v>
   <v>       0.03125000 </v>
   <v>       0.03125000 </v>
   <v>       0.03125000 </v>
   <v>       0.03125000 </v>
   <v>       0.03125000 </v>
   <v>       0.03125000 </v>
   <v>       0.03125000 </v>
   <v>       0.03125000 </v>
   <v>       0.03125000 </v>
   <v>       0.03125000 </v>
   <v>       0.03125000 </v>
   <v>       0.03125000 </v>
   <v>       0.01562500 </v>
   <v>       0.03125000 </v>
   <v>       0.03125000 </v>
   <v>       0.03125000 </v>
   <v>       0.01562500 </v>
  </varray>
 </kpoints>
 <parameters>
  <separator name="general" >
   <i type="string" name="SYSTEM">unknown system</i>
   <i type="logical" name="LCOMPAT"> F  </i>
  </separator>
  <separator name="electronic" >
   <i type="string" name="PREC">normal</i>
   <i name="ENMAX">    280.00000000</i>
   <i name="ENAUG">    373.43800000</i>
   <i name="EDIFF">      0.00010000</i>
   <i type="int" name="IALGO">    38</i>
   <i type="int" name="IWAVPR">    11</i>
   <i type="int" name="NBANDS">   120</i>
   <i name="NELECT">    159.00000000</i>
   <i type="int" name="TURBO">     0</i>
   <i type="int" name="IRESTART">     0</i>
   <i type="int" name="NREBOOT">     0</i>
   <i type="int" name="NMIN">     0</i>
   <i name="EREF">      0.00000000</i>
   <separator name="electronic smearing" >
    <i type="int" name="ISMEAR">     0</i>
    <i name="SIGMA">      0.20000000</i>
    <i name="KSPACING">      0.50000000</i>
    <i type="logical" name="KGAMMA"> T  </i>
   </separator>
   <separator name="electronic projectors" >
    <i type="logical" name="LREAL"> F  </i>
    <v name="ROPT">      0.00000000      0.00000000      0.00000000      0.00000000</v>
    <i type="int" name="LMAXPAW">  -100</i>
    <i type="int" name="LMAXMIX">     2</i>
    <i type="logical" name="NLSPLINE"> F  </i>
   </separator>
   <separator name="electronic startup" >
    <i type="int" name="ISTART">     0</i>
    <i type="int" name="ICHARG">     2</i>
    <i type="int" name="INIWAV">     1</i>
   </separator>
   <separator name="electronic spin" >
    <i type="int" name="ISPIN">     1</i>
    <i type="logical" name="LNONCOLLINEAR"> F  </i>
    <v name="MAGMOM">      1.00000000      1.00000000      1.00000000      1.00000000      1.00000000      1.00000000      1.00000000      1.00000000      1.00000000      1.00000000      1.00000000      1.00000000      1.00000000      1.00000000      1.00000000      1.00000000      1.00000000      1.00000000      1.00000000      1.00000000
      1.00000000      1.00000000      1.00000000      1.00000000      1.00000000      1.00000000      1.00000000</v>
    <i name="NUPDOWN">     -1.00000000</i>
    <i type="logical" name="LSORBIT"> F  </i>
    <v name="SAXIS">      0.00000000      0.00000000      1.00000000</v>
    <i type="logical" name="LSPIRAL"> F  </i>
    <v name="QSPIRAL">      0.00000000      0.00000000      0.00000000</v>
    <i type="logical" name="LZEROZ"> F  </i>
   </separator>
   <separator name="electronic exchange-correlation" >
    <i type="logical" name="LASPH"> F  </i>
    <i type="logical" name="LMETAGGA"> F  </i>
   </separator>
   <separator name="electronic convergence" >
    <i type="int" name="NELM">    60</i>
    <i type="int" name="NELMDL">    -5</i>
    <i type="int" name="NELMIN">     2</i>
    <i name="ENINI">    280.00000000</i>
    <separator name="electronic convergence detail" >
     <i type="logical" name="LDIAG"> T  </i>
     <i type="logical" name="LSUBROT"> F  </i>
     <i name="WEIMIN">      0.00100000</i>
     <i name="EBREAK">      0.00000021</i>
     <i name="DEPER">      0.30000000</i>
     <i type="int" name="NRMM">     4</i>
     <i name="TIME">      0.40000000</i>
    </separator>
   </separator>
   <separator name="electronic mixer" >
    <i name="AMIX">      0.40000000</i>
    <i name="BMIX">      1.00000000</i>
    <i name="AMIN">      0.10000000</i>
    <i name="AMIX_MAG">      1.60000000</i>
    <i name="BMIX_MAG">      1.00000000</i>
    <separator name="electronic mixer details" >
     <i type="int" name="IMIX">     4</i>
     <i type="logical" name="MIXFIRST"> F  </i>
     <i type="int" name="MAXMIX">   -45</i>
     <i name="WC">    100.00000000</i>
     <i type="int" name="INIMIX">     1</i>
     <i type="int" name="MIXPRE">     1</i>
     <i type="int" name="MREMOVE">     5</i>
    </separator>
   </separator>
   <separator name="electronic dipolcorrection" >
    <i type="logical" name="LDIPOL"> F  </i>
    <i type="logical" name="LMONO"> F  </i>
    <i type="int" name="IDIPOL">     0</i>
    <i name="EPSILON">      1.00000000</i>
    <v name="DIPOL">   -100.00000000   -100.00000000   -100.00000000</v>
    <i name="EFIELD">      0.00000000</i>
   </separator>
  </separator>
  <separator name="grids" >
   <i type="int" name="NGX">    42</i>
   <i type="int" name="NGY">    42</i>
   <i type="int" name="NGZ">   126</i>
   <i type="int" name="NGXF">    84</i>
   <i type="int" name="NGYF">    84</i>
   <i type="int" name="NGZF">   252</i>
   <i type="logical" name="ADDGRID"> F  </i>
  </separator>
  <separator name="ionic" >
   <i type="int" name="NSW">   100</i>
   <i type="int" name="IBRION">     1</i>
   <i type="int" name="ISIF">     3</i>
   <i name="PSTRESS">      0.00000000</i>
   <i name="EDIFFG">      0.00100000</i>
   <i type="int" name="NFREE">     0</i>
   <i name="POTIM">      0.50000000</i>
   <i name="SMASS">     -3.00000000</i>
   <i name="SCALEE">      1.00000000</i>
  </separator>
  <separator name="ionic md" >
   <i name="TEBEG">      0.00010000</i>
   <i name="TEEND">      0.00010000</i>
   <i type="int" name="NBLOCK">     1</i>
   <i type="int" name="KBLOCK">   100</i>
   <i type="int" name="NPACO">   256</i>
   <i name="APACO">     16.00000000</i>
  </separator>
  <separator name="symmetry" >
   <i type="int" name="ISYM">     0</i>
   <i name="SYMPREC">      0.00000001</i>
  </separator>
  <separator name="dos" >
   <i type="logical" name="LORBIT"> F  </i>
   <v name="RWIGS">     -1.00000000     -1.00000000     -1.00000000     -1.00000000</v>
   <i type="int" name="NEDOS">   301</i>
   <i name="EMIN">     10.00000000</i>
   <i name="EMAX">    -10.00000000</i>
   <i name="EFERMI">      0.00000000</i>
  </separator>
  <separator name="writing" >
   <i type="int" name="NWRITE">     2</i>
   <i type="logical" name="LWAVE"> F  </i>
   <i type="logical" name="LCHARG"> F  </i>
   <i type="logical" name="LPARD"> F  </i>
   <i type="logical" name="LVTOT"> F  </i>
   <i type="logical" name="LVHAR"> F  </i>
   <i type="logical" name="LELF"> F  </i>
   <i type="logical" name="LOPTICS"> F  </i>
   <v name="STM">      0.00000000      0.00000000      0.00000000      0.00000000      0.00000000      0.00000000      0.00000000</v>
  </separator>
  <separator name="performance" >
   <i type="int" name="NPAR">    40</i>
   <i type="int" name="NSIM">     4</i>
   <i type="int" name="NBLK">    -1</i>
   <i type="logical" name="LPLANE"> F  </i>
   <i type="logical" name="LSCALAPACK"> T  </i>
   <i type="logical" name="LSCAAWARE"> F  </i>
   <i type="logical" name="LSCALU"> F  </i>
   <i type="logical" name="LASYNC"> F  </i>
   <i type="logical" name="LORBITALREAL"> F  </i>
  </separator>
  <separator name="miscellaneous" >
   <i type="int" name="IDIOT">     3</i>
   <i type="logical" name="LMUSIC"> F  </i>
   <v name="POMASS">     50.94100000     95.94000000    183.85000000     32.06600000</v>
   <v name="DARWINR">      0.00000000      0.00000000      0.00000000      0.00000000</v>
   <v name="DARWINV">      1.00000000      1.00000000      1.00000000      1.00000000</v>
   <i type="logical" name="LCORR"> T  </i>
  </separator>
  <i type="logical" name="GGA_COMPAT"> T  </i>
  <i type="logical" name="LBERRY"> F  </i>
  <i type="int" name="ICORELEVEL">     0</i>
  <i type="logical" name="LDAU"> F  </i>
  <i type="int" name="I_CONSTRAINED_M">     0</i>
  <separator name="electronic exchange-correlation" >
   <i type="string" name="GGA">--</i>
   <i type="int" name="VOSKOWN">     0</i>
   <i type="logical" name="LHFCALC"> F  </i>
   <i type="string" name="PRECFOCK"></i>
   <i type="logical" name="LSYMGRAD"> F  </i>
   <i type="logical" name="LHFONE"> F  </i>
   <i type="logical" name="LRHFCALC"> F  </i>
   <i type="logical" name="LTHOMAS"> F  </i>
   <i type="logical" name="LMODELHF"> F  </i>
   <i name="ENCUT4O">     -1.00000000</i>
   <i type="int" name="EXXOEP">     0</i>
   <i type="int" name="FOURORBIT">     0</i>
   <i name="AEXX">      0.00000000</i>
   <i name="HFALPHA">      0.00000000</i>
   <i name="MCALPHA">      0.00000000</i>
   <i name="ALDAX">      1.00000000</i>
   <i name="AGGAX">      1.00000000</i>
   <i name="ALDAC">      1.00000000</i>
   <i name="AGGAC">      1.00000000</i>
   <i type="int" name="NKREDX">     1</i>
   <i type="int" name="NKREDY">     1</i>
   <i type="int" name="NKREDZ">     1</i>
   <i type="logical" name="SHIFTRED"> F  </i>
   <i type="logical" name="ODDONLY"> F  </i>
   <i type="logical" name="EVENONLY"> F  </i>
   <i type="int" name="LMAXFOCK">     0</i>
   <i type="int" name="NMAXFOCKAE">     0</i>
   <i type="logical" name="LFOCKAEDFT"> F  </i>
   <i name="HFSCREEN">      0.00000000</i>
   <i name="HFSCREENC">      0.00000000</i>
   <i type="int" name="NBANDSGWLOW">     0</i>
  </separator>
  <separator name="vdW DFT" >
   <i type="logical" name="LUSE_VDW"> F  </i>
   <i name="Zab_VDW">     -0.84910000</i>
   <i name="PARAM1">      0.12340000</i>
   <i name="PARAM2">      1.00000000</i>
   <i name="PARAM3">      0.00000000</i>
  </separator>
  <separator name="model GW" >
   <i type="int" name="MODEL_GW">     0</i>
   <i name="MODEL_EPS0">     58.26239943</i>
   <i name="MODEL_ALPHA">      1.00000000</i>
  </separator>
  <separator name="linear response parameters" >
   <i type="logical" name="LEPSILON"> F  </i>
   <i type="logical" name="LRPA"> F  </i>
   <i type="logical" name="LNABLA"> F  </i>
   <i type="logical" name="LVEL"> F  </i>
   <i type="int" name="KINTER">     0</i>
   <i name="CSHIFT">      0.10000000</i>
   <i name="OMEGAMAX">     -1.00000000</i>
   <i name="DEG_THRESHOLD">      0.00200000</i>
  </separator>
  <separator name="orbital magnetization" >
   <i type="logical" name="NUCIND"> F  </i>
   <v name="MAGPOS">      0.00000000      0.00000000      0.00000000</v>
   <i type="logical" name="LNICSALL"> T  </i>
   <i type="logical" name="ORBITALMAG"> F  </i>
   <i type="logical" name="LMAGBLOCH"> F  </i>
   <i type="logical" name="LCHIMAG"> F  </i>
   <i type="logical" name="LGAUGE"> T  </i>
   <i type="int" name="MAGATOM">     0</i>
   <v name="MAGDIPOL">      0.00000000      0.00000000      0.00000000</v>
   <v name="AVECCONST">      0.00000000      0.00000000      0.00000000</v>
  </separator>
  <separator name="response functions" >
   <i type="logical" name="LADDER"> F  </i>
   <i type="logical" name="LFXC"> F  </i>
   <i type="logical" name="LHARTREE"> T  </i>
   <i type="int" name="IBSE">     0</i>
   <v type="int" name="KPOINT">    -1     0     0     0</v>
   <i type="logical" name="LTCTE"> F  </i>
   <i type="logical" name="LTETE"> F  </i>
   <i type="logical" name="LTRIPLET"> F  </i>
   <i type="logical" name="LFXCEPS"> F  </i>
   <i type="logical" name="LFXHEG"> F  </i>
   <i type="int" name="NATURALO">     0</i>
   <i type="logical" name="L2ORDER"> F  </i>
   <i type="logical" name="LUSEW"> F  </i>
   <i name="ENCUTGW">     -2.00000000</i>
   <i name="ENCUTGWSOFT">     -2.00000000</i>
   <i name="ENCUTLF">     -1.00000000</i>
   <i type="int" name="LMAXMP2">    -1</i>
   <i name="SCISSOR">      0.00000000</i>
   <i type="int" name="NOMEGA">     0</i>
   <i type="int" name="NOMEGAR">     0</i>
   <i type="int" name="NBANDSGW">    -1</i>
   <i type="int" name="NBANDSO">    -1</i>
   <i type="int" name="NBANDSV">    -1</i>
   <i type="int" name="NELM">     1</i>
   <i type="int" name="NELMHF">     1</i>
   <i type="int" name="DIM">     3</i>
   <i type="int" name="ANTIRES">     0</i>
   <i name="OMEGAMAX">    -30.00000000</i>
   <i name="OMEGAMIN">    -30.00000000</i>
   <i name="OMEGATL">   -200.00000000</i>
   <i type="int" name="OMEGAGRID">     0</i>
   <i name="CSHIFT">     -0.10000000</i>
   <i type="logical" name="SELFENERGY"> F  </i>
   <i type="logical" name="LSPECTRAL"> F  </i>
   <i type="logical" name="LSPECTRALGW"> F  </i>
   <i type="logical" name="LSINGLES"> F  </i>
   <i type="logical" name="LFERMIGW"> F  </i>
   <i type="logical" name="ODDONLYGW"> F  </i>
   <i type="logical" name="EVENONLYGW"> F  </i>
   <i type="int" name="NKREDLFX">     1</i>
   <i type="int" name="NKREDLFY">     1</i>
   <i type="int" name="NKREDLFZ">     1</i>
   <i type="int" name="MAXMEM">  1800</i>
   <i type="int" name="TELESCOPE">     0</i>
   <i type="int" name="TAUPAR">     1</i>
   <i type="int" name="OMEGAPAR">    -1</i>
   <i name="LAMBDA">      1.00000000</i>
  </separator>
  <separator name="External order field" >
   <i name="OFIELD_KAPPA">      0.00000000</i>
   <v name="OFIELD_K">      0.00000000      0.00000000      0.00000000</v>
   <i name="OFIELD_Q6_NEAR">      0.00000000</i>
   <i name="OFIELD_Q6_FAR">      0.00000000</i>
   <i name="OFIELD_A">      0.00000000</i>
  </separator>
 </parameters>
 <atominfo>
  <atoms>      27 </atoms>
  <types>       4 </types>
  <array name="atoms" >
   <dimension dim="1">ion</dimension>
   <field type="string">element</field>
   <field type="int">atomtype</field>
   <set>
    <rc><c>V </c><c>   1</c></rc>
    <rc><c>V </c><c>   1</c></rc>
    <rc><c>V </c><c>   1</c></rc>
    <rc><c>Mo</c><c>   2</c></rc>
    <rc><c>Mo</c><c>   2</c></rc>
    <rc><c>Mo</c><c>   2</c></rc>
    <rc><c>W </c><c>   3</c></rc>
    <rc><c>W </c><c>   3</c></rc>
    <rc><c>W </c><c>   3</c></rc>
    <rc><c>S </c><c>   4</c></rc>
    <rc><c>S </c><c>   4</c></rc>
    <rc><c>S </c><c>   4</c></rc>
    <rc><c>S </c><c>   4</c></rc>
    <rc><c>S </c><c>   4</c></rc>
    <rc><c>S </c><c>   4</c></rc>
    <rc><c>S </c><c>   4</c></rc>
    <rc><c>S </c><c>   4</c></rc>
    <rc><c>S </c><c>   4</c></rc>
    <rc><c>S </c><c>   4</c></rc>
    <rc><c>S </c><c>   4</c></rc>
    <rc><c>S </c><c>   4</c></rc>
    <rc><c>S </c><c>   4</c></rc>
    <rc><c>S </c><c>   4</c></rc>
    <rc><c>S </c><c>   4</c></rc>
    <rc><c>S </c><c>   4</c></rc>
    <rc><c>S </c><c>   4</c></rc>
    <rc><c>S </c><c>   4</c></rc>
   </set>
  </array>
  <array name="atomtypes" >
   <dimension dim="1">type</dimension>
   <field type="int">atomspertype</field>
   <field type="string">element</field>
   <field>mass</field>
   <field>valence</field>
   <field type="string">pseudopotential</field>
   <set>
    <rc><c>   3</c><c>V </c><c>     50.94100000</c><c>      5.00000000</c><c> PAW_PBE V 08Apr2002                    </c></rc>
    <rc><c>   3</c><c>Mo</c><c>     95.94000000</c><c>      6.00000000</c><c> PAW_PBE Mo 08Apr2002                   </c></rc>
    <rc><c>   3</c><c>W </c><c>    183.85000000</c><c>      6.00000000</c><c> PAW_PBE W 08Apr2002                    </c></rc>
    <rc><c>  18</c><c>S </c><c>     32.06600000</c><c>      6.00000000</c><c>  PAW_PBE S 17Jan2003                   </c></rc>
   </set>
  </array>
 </atominfo>
 <structure name="initialpos" >
  <crystal>
   <varray name="basis" >
    <v>       8.66999996       5.03999989       0.00000000 </v>
    <v>      -8.66999982       5.04000013       0.00000000 </v>
    <v>       0.00000000       0.00000000      30.00000000 </v>
   </varray>
   <i name="volume">   2621.80797419 </i>
   <varray name="rec_basis" >
    <v>       0.05767013       0.09920635       0.00000000 </v>
    <v>      -0.05767013       0.09920635       0.00000000 </v>
    <v>       0.00000000       0.00000000       0.03333333 </v>
   </varray>
  </crystal>
  <varray name="positions" >
   <v>       0.00000000       0.00000000       0.00000000 </v>
   <v>       0.66666669       0.00000000       0.00000000 </v>
   <v>       0.33333334       0.00000000       0.00000000 </v>
   <v>       0.66666669       0.66666669       0.00000000 </v>
   <v>       0.33333334       0.66666669       0.00000000 </v>
   <v>       1.00000000       0.33333334       0.00000000 </v>
   <v>       0.00000000       0.66666669       0.00000000 </v>
   <v>       0.33333334       0.33333334       0.00000000 </v>
   <v>       0.66666669       0.33333334       0.00000000 </v>
   <v>       0.11068511       0.22244981       0.95539999 </v>
   <v>       0.22244981       0.11068511       0.04460000 </v>
   <v>       0.11068511       0.55578315       0.95539999 </v>
   <v>       0.22244981       0.44401845       0.04460000 </v>
   <v>       0.11068511       0.88911647       0.95539999 </v>
   <v>       0.22244981       0.77735180       0.04460000 </v>
   <v>       0.44401845       0.22244981       0.95539999 </v>
   <v>       0.55578315       0.11068511       0.04460000 </v>
   <v>       0.44401845       0.55578315       0.95539999 </v>
   <v>       0.55578315       0.44401845       0.04460000 </v>
   <v>       0.44401845       0.88911647       0.95539999 </v>
   <v>       0.55578315       0.77735180       0.04460000 </v>
   <v>       0.77735180       0.22244981       0.95539999 </v>
   <v>       0.88911647       0.11068511       0.04460000 </v>
   <v>       0.77735180       0.55578315       0.95539999 </v>
   <v>       0.88911647       0.44401845       0.04460000 </v>
   <v>       0.77735180       0.88911647       0.95539999 </v>
   <v>       0.88911647       0.77735180       0.04460000 </v>
  </varray>
 </structure>
 <calculation>
  <scstep>
   <time name="dav">   21.68   21.74</time>
   <time name="total">   21.73   21.79</time>
   <energy>
    <i name="alphaZ">     81.65567618 </i>
    <i name="ewald">  41891.19377235 </i>
    <i name="hartreedc"> -47723.83803740 </i>
    <i name="XCdc">   -242.92497634 </i>
    <i name="pawpsdc">   3467.42045192 </i>
    <i name="pawaedc">  -2871.19716117 </i>
    <i name="eentropy">     -0.53085942 </i>
    <i name="bandstr">   -236.95070401 </i>
    <i name="atom">   6761.44252427 </i>
    <i name="e_fr_energy">   1126.27068638 </i>
    <i name="e_wo_entrp">   1126.80154579 </i>
    <i name="e_0_energy">   1126.53611609 </i>
   </energy>
  </scstep>
  <scstep>
   <time name="dav">   28.13   28.19</time>
   <time name="total">   28.13   28.20</time>
   <energy>
    <i name="e_fr_energy">     -1.11632756 </i>
    <i name="e_wo_entrp">     -0.90189412 </i>
    <i name="e_0_energy">     -1.00911084 </i>
   </energy>
  </scstep>
  <scstep>
   <time name="dav">   27.47   27.54</time>
   <time name="total">   27.47   27.54</time>
   <energy>
    <i name="e_fr_energy">   -199.84287849 </i>
    <i name="e_wo_entrp">   -199.58710233 </i>
    <i name="e_0_energy">   -199.71499041 </i>
   </energy>
  </scstep>
  <scstep>
   <time name="dav">   29.85   29.92</time>
   <time name="total">   29.85   29.93</time>
   <energy>
    <i name="e_fr_energy">   -209.08574722 </i>
    <i name="e_wo_entrp">   -208.82434067 </i>
    <i name="e_0_energy">   -208.95504395 </i>
   </energy>
  </scstep>
  <scstep>
   <time name="dav">   28.44   28.51</time>
   <time name="total">   28.90   28.98</time>
   <energy>
    <i name="e_fr_energy">   -209.40254299 </i>
    <i name="e_wo_entrp">   -209.14342043 </i>
    <i name="e_0_energy">   -209.27298171 </i>
   </energy>
  </scstep>
  <scstep>
   <time name="dav">   30.56   30.63</time>
   <time name="total">   31.06   31.15</time>
   <energy>
    <i name="e_fr_energy">   -241.51724315 </i>
    <i name="e_wo_entrp">   -241.23627612 </i>
    <i name="e_0_energy">   -241.37675963 </i>
   </energy>
  </scstep>
  <scstep>
   <time name="dav">   32.05   32.13</time>
   <time name="total">   32.55   32.64</time>
   <energy>
    <i name="e_fr_energy">   -196.13101227 </i>
    <i name="e_wo_entrp">   -195.80718194 </i>
    <i name="e_0_energy">   -195.96909710 </i>
   </energy>
  </scstep>
  <scstep>
   <time name="dav">   29.97   30.04</time>
   <time name="total">   30.49   30.57</time>
   <energy>
    <i name="e_fr_energy">   -189.35425026 </i>
    <i name="e_wo_entrp">   -189.02223035 </i>
    <i name="e_0_energy">   -189.18824030 </i>
   </energy>
  </scstep>
  <scstep>
   <time name="dav">   31.85   31.92</time>
   <time name="total">   32.36   32.45</time>
   <energy>
    <i name="e_fr_energy">   -188.08180319 </i>
    <i name="e_wo_entrp">   -187.74993232 </i>
    <i name="e_0_energy">   -187.91586776 </i>
   </energy>
  </scstep>
  <scstep>
   <time name="dav">   32.45   32.53</time>
   <time name="total">   32.99   33.07</time>
   <energy>
    <i name="e_fr_energy">   -186.95371726 </i>
    <i name="e_wo_entrp">   -186.59880896 </i>
    <i name="e_0_energy">   -186.77626311 </i>
   </energy>
  </scstep>
  <scstep>
   <time name="dav">   32.31   32.39</time>
   <time name="total">   32.84   32.93</time>
   <energy>
    <i name="e_fr_energy">   -187.02718153 </i>
    <i name="e_wo_entrp">   -186.68622674 </i>
    <i name="e_0_energy">   -186.85670414 </i>
   </energy>
  </scstep>
  <scstep>
   <time name="dav">   31.53   31.61</time>
   <time name="total">   32.07   32.15</time>
   <energy>
    <i name="e_fr_energy">   -186.95025978 </i>
    <i name="e_wo_entrp">   -186.60816494 </i>
    <i name="e_0_energy">   -186.77921236 </i>
   </energy>
  </scstep>
  <scstep>
   <time name="dav">   32.17   32.24</time>
   <time name="total">   32.70   32.78</time>
   <energy>
    <i name="e_fr_energy">   -186.88108252 </i>
    <i name="e_wo_entrp">   -186.53769480 </i>
    <i name="e_0_energy">   -186.70938866 </i>
   </energy>
  </scstep>
  <scstep>
   <time name="dav">   29.84   29.91</time>
   <time name="total">   30.37   30.45</time>
   <energy>
    <i name="e_fr_energy">   -186.85610160 </i>
    <i name="e_wo_entrp">   -186.50896311 </i>
    <i name="e_0_energy">   -186.68253236 </i>
   </energy>
  </scstep>
  <scstep>
   <time name="dav">   30.97   31.04</time>
   <time name="total">   31.50   31.58</time>
   <energy>
    <i name="e_fr_energy">   -186.85419994 </i>
    <i name="e_wo_entrp">   -186.50623876 </i>
    <i name="e_0_energy">   -186.68021935 </i>
   </energy>
  </scstep>
  <scstep>
   <time name="dav">   32.06   32.14</time>
   <time name="total">   32.59   32.68</time>
   <energy>
    <i name="e_fr_energy">   -186.84926664 </i>
    <i name="e_wo_entrp">   -186.50223463 </i>
    <i name="e_0_energy">   -186.67575064 </i>
   </energy>
  </scstep>
  <scstep>
   <time name="dav">   30.71   30.78</time>
   <time name="total">   31.24   31.32</time>
   <energy>
    <i name="e_fr_energy">   -186.84810468 </i>
    <i name="e_wo_entrp">   -186.50219970 </i>
    <i name="e_0_energy">   -186.67515219 </i>
   </energy>
  </scstep>
  <scstep>
   <time name="dav">   30.63   30.71</time>
   <time name="total">   31.16   31.25</time>
   <energy>
    <i name="e_fr_energy">   -186.84751168 </i>
    <i name="e_wo_entrp">   -186.50112094 </i>
    <i name="e_0_energy">   -186.67431631 </i>
   </energy>
  </scstep>
  <scstep>
   <time name="dav">   23.69   23.75</time>
   <time name="total">   23.72   23.79</time>
   <energy>
    <i name="alphaZ">     81.65567618 </i>
    <i name="ewald">  41891.19377235 </i>
    <i name="hartreedc"> -47818.72672073 </i>
    <i name="XCdc">   -231.69024821 </i>
    <i name="pawpsdc">   4194.35699320 </i>
    <i name="pawaedc">  -3612.37964480 </i>
    <i name="eentropy">     -0.34641329 </i>
    <i name="bandstr">  -1452.35349128 </i>
    <i name="atom">   6761.44252427 </i>
    <i name="e_fr_energy">   -186.84755230 </i>
    <i name="e_wo_entrp">   -186.50113902 </i>
    <i name="e_0_energy">   -186.67434566 </i>
   </energy>
  </scstep>
  <structure>
   <crystal>
    <varray name="basis" >
     <v>       8.66999996       5.03999989       0.00000000 </v>
     <v>      -8.66999982       5.04000013       0.00000000 </v>
     <v>       0.00000000       0.00000000      30.00000000 </v>
    </varray>
    <i name="volume">   2621.80797419 </i>
    <varray name="rec_basis" >
     <v>       0.05767013       0.09920635       0.00000000 </v>
     <v>      -0.05767013       0.09920635       0.00000000 </v>
     <v>       0.00000000       0.00000000       0.03333333 </v>
    </varray>
   </crystal>
   <varray name="positions" >
    <v>       0.00000000       0.00000000       0.00000000 </v>
    <v>       0.66666669       0.00000000       0.00000000 </v>
    <v>       0.33333334       0.00000000       0.00000000 </v>
    <v>       0.66666669       0.66666669       0.00000000 </v>
    <v>       0.33333334       0.66666669       0.00000000 </v>
    <v>       1.00000000       0.33333334       0.00000000 </v>
    <v>       0.00000000       0.66666669       0.00000000 </v>
    <v>       0.33333334       0.33333334       0.00000000 </v>
    <v>       0.66666669       0.33333334       0.00000000 </v>
    <v>       0.11068511       0.22244981       0.95539999 </v>
    <v>       0.22244981       0.11068511       0.04460000 </v>
    <v>       0.11068511       0.55578315       0.95539999 </v>
    <v>       0.22244981       0.44401845       0.04460000 </v>
    <v>       0.11068511       0.88911647       0.95539999 </v>
    <v>       0.22244981       0.77735180       0.04460000 </v>
    <v>       0.44401845       0.22244981       0.95539999 </v>
    <v>       0.55578315       0.11068511       0.04460000 </v>
    <v>       0.44401845       0.55578315       0.95539999 </v>
    <v>       0.55578315       0.44401845       0.04460000 </v>
    <v>       0.44401845       0.88911647       0.95539999 </v>
    <v>       0.55578315       0.77735180       0.04460000 </v>
    <v>       0.77735180       0.22244981       0.95539999 </v>
    <v>       0.88911647       0.11068511       0.04460000 </v>
    <v>       0.77735180       0.55578315       0.95539999 </v>
    <v>       0.88911647       0.44401845       0.04460000 </v>
    <v>       0.77735180       0.88911647       0.95539999 </v>
    <v>       0.88911647       0.77735180       0.04460000 </v>
   </varray>
  </structure>
  <varray name="forces" >
   <v>      -0.23776727      -0.10796293       0.03026126 </v>
   <v>       0.23056592      -0.13043485      -0.01604681 </v>
   <v>       0.22346281      -0.11531519      -0.01123294 </v>
   <v>      -0.27616967      -0.14842773      -0.09182516 </v>
   <v>       0.25641570      -0.07946198      -0.14121617 </v>
   <v>      -0.00166300       0.24380372       0.12148640 </v>
   <v>       0.21250812      -0.06865151      -0.12594278 </v>
   <v>      -0.53083714       0.19860032       0.15781497 </v>
   <v>       0.08828581       0.24733138       0.11975258 </v>
   <v>       0.63107881      -0.56194035      -2.14173332 </v>
   <v>       0.24069285      -0.52055847       1.37524280 </v>
   <v>      -0.06902642       0.03796771      -2.89899500 </v>
   <v>       0.07380377      -0.03169414       2.93492695 </v>
   <v>      -0.23458477       0.51449390      -1.40953195 </v>
   <v>      -0.61334652       0.54910363       2.12834269 </v>
   <v>       0.47770676      -0.57144853      -2.11506377 </v>
   <v>       0.23039464      -0.52191500       1.40406269 </v>
   <v>       0.18983199      -0.11592819      -2.94670257 </v>
   <v>      -0.02789304      -0.16997959       2.89394238 </v>
   <v>      -0.32578849       0.66229707      -1.40529952 </v>
   <v>      -0.53237087       0.70414540       2.15034135 </v>
   <v>       0.37076543      -0.70694294      -2.12673398 </v>
   <v>       0.33072931      -0.66908316       1.40809355 </v>
   <v>       0.24909349       0.03459297      -2.91350841 </v>
   <v>      -0.25693572      -0.03646910       2.94227076 </v>
   <v>      -0.32651554       0.66733883      -1.43241423 </v>
   <v>      -0.37243696       0.69653871       2.10970821 </v>
  </varray>
  <varray name="stress" >
   <v>       7.38926973      -0.11013747      -1.54271572 </v>
   <v>      -0.11013755       4.61670494       0.03354027 </v>
   <v>      -1.54271568       0.03354042      31.17377639 </v>
  </varray>
  <energy>
   <i name="e_fr_energy">   -186.84755230 </i>
   <i name="e_wo_entrp">   -186.67434566 </i>
   <i name="e_0_energy">     -0.34641329 </i>
  </energy>
  <time name="totalsc">  615.86  617.49</time>
 </calculation>
 <calculation>
  <scstep>
   <time name="dav">   21.60   21.65</time>
   <time name="total">   22.14   22.19</time>
   <energy>
    <i name="alphaZ">     78.86424314 </i>
    <i name="ewald">  39348.63912631 </i>
    <i name="hartreedc"> -45296.56088763 </i>
    <i name="XCdc">   -239.17728584 </i>
    <i name="pawpsdc">   4192.93816729 </i>
    <i name="pawaedc">  -3610.94180802 </i>
    <i name="eentropy">     -0.28603604 </i>
    <i name="bandstr">  -1422.43661317 </i>
    <i name="atom">   6761.44252427 </i>
    <i name="e_fr_energy">   -187.51856969 </i>
    <i name="e_wo_entrp">   -187.23253365 </i>
    <i name="e_0_energy">   -187.37555167 </i>
   </energy>
  </scstep>
  <scstep>
   <time name="dav">   29.34   29.41</time>
   <time name="total">   29.87   29.95</time>
   <energy>
    <i name="e_fr_energy">   -189.63264831 </i>
    <i name="e_wo_entrp">   -189.29148374 </i>
    <i name="e_0_energy">   -189.46206602 </i>
   </energy>
  </scstep>
  <scstep>
   <time name="dav">   30.10   30.18</time>
   <time name="total">   30.66   30.74</time>
   <energy>
    <i name="e_fr_energy">   -189.31106156 </i>
    <i name="e_wo_entrp">   -189.04290483 </i>
    <i name="e_0_energy">   -189.17698320 </i>
   </energy>
  </scstep>
  <scstep>
   <time name="dav">   30.19   30.27</time>
   <time name="total">   30.73   30.82</time>
   <energy>
    <i name="e_fr_energy">   -188.77905921 </i>
    <i name="e_wo_entrp">   -188.48945703 </i>
    <i name="e_0_energy">   -188.63425812 </i>
   </energy>
  </scstep>
  <scstep>
   <time name="dav">   27.46   27.52</time>
   <time name="total">   27.99   28.06</time>
   <energy>
    <i name="e_fr_energy">   -188.89541797 </i>
    <i name="e_wo_entrp">   -188.60619857 </i>
    <i name="e_0_energy">   -188.75080827 </i>
   </energy>
  </scstep>
  <scstep>
   <time name="dav">   30.28   30.36</time>
   <time name="total">   30.83   30.91</time>
   <energy>
    <i name="e_fr_energy">   -188.75194795 </i>
    <i name="e_wo_entrp">   -188.46223740 </i>
    <i name="e_0_energy">   -188.60709267 </i>
   </energy>
  </scstep>
  <scstep>
   <time name="dav">   29.30   29.37</time>
   <time name="total">   29.84   29.92</time>
   <energy>
    <i name="e_fr_energy">   -188.71041527 </i>
    <i name="e_wo_entrp">   -188.42147215 </i>
    <i name="e_0_energy">   -188.56594371 </i>
   </energy>
  </scstep>
  <scstep>
   <time name="dav">   28.94   29.01</time>
   <time name="total">   29.48   29.56</time>
   <energy>
    <i name="e_fr_energy">   -188.69678104 </i>
    <i name="e_wo_entrp">   -188.40947018 </i>
    <i name="e_0_energy">   -188.55312561 </i>
   </energy>
  </scstep>
  <scstep>
   <time name="dav">   29.33   29.40</time>
   <time name="total">   29.87   29.95</time>
   <energy>
    <i name="e_fr_energy">   -188.66683278 </i>
    <i name="e_wo_entrp">   -188.38026899 </i>
    <i name="e_0_energy">   -188.52355088 </i>
   </energy>
  </scstep>
  <scstep>
   <time name="dav">   26.96   27.03</time>
   <time name="total">   27.50   27.58</time>
   <energy>
    <i name="e_fr_energy">   -188.66455960 </i>
    <i name="e_wo_entrp">   -188.37872679 </i>
    <i name="e_0_energy">   -188.52164319 </i>
   </energy>
  </scstep>
  <scstep>
   <time name="dav">   31.43   31.50</time>
   <time name="total">   31.97   32.06</time>
   <energy>
    <i name="e_fr_energy">   -188.66407328 </i>
    <i name="e_wo_entrp">   -188.37904947 </i>
    <i name="e_0_energy">   -188.52156137 </i>
   </energy>
  </scstep>
  <scstep>
   <time name="dav">   27.28   27.34</time>
   <time name="total">   27.82   27.89</time>
   <energy>
    <i name="e_fr_energy">   -188.66414725 </i>
    <i name="e_wo_entrp">   -188.37935174 </i>
    <i name="e_0_energy">   -188.52174949 </i>
   </energy>
  </scstep>
  <scstep>
   <time name="dav">   21.57   21.62</time>
   <time name="total">   22.11   22.17</time>
   <energy>
    <i name="e_fr_energy">   -188.66429263 </i>
    <i name="e_wo_entrp">   -188.37933890 </i>
    <i name="e_0_energy">   -188.52181577 </i>
   </energy>
  </scstep>
  <scstep>
   <time name="dav">   21.20   21.25</time>
   <time name="total">   21.24   21.29</time>
   <energy>
    <i name="alphaZ">     78.86424314 </i>
    <i name="ewald">  39348.63912631 </i>
    <i name="hartreedc"> -45313.72070761 </i>
    <i name="XCdc">   -238.03463296 </i>
    <i name="pawpsdc">   3949.01382103 </i>
    <i name="pawaedc">  -3363.50268142 </i>
    <i name="eentropy">     -0.28496568 </i>
    <i name="bandstr">  -1411.08109999 </i>
    <i name="atom">   6761.44252427 </i>
    <i name="e_fr_energy">   -188.66437291 </i>
    <i name="e_wo_entrp">   -188.37940723 </i>
    <i name="e_0_energy">   -188.52189007 </i>
   </energy>
  </scstep>
  <structure>
   <crystal>
    <varray name="basis" >
     <v>       8.85569444       5.10524104       0.00000000 </v>
     <v>      -8.85894033       5.11082523       0.00000000 </v>
     <v>       0.00000000       0.00000000      30.00000000 </v>
    </varray>
    <i name="volume">   2714.60796942 </i>
    <varray name="rec_basis" >
     <v>       0.05648136       0.09790298       0.00000000 </v>
     <v>      -0.05641965       0.09786711       0.00000000 </v>
     <v>       0.00000000       0.00000000       0.03333333 </v>
    </varray>
   </crystal>
   <varray name="positions" >
    <v>      -0.00117821       0.00014480       0.00004866 </v>
    <v>       0.66668390      -0.00126573      -0.00002580 </v>
    <v>       0.33340316      -0.00117361      -0.00001806 </v>
    <v>       0.66518797       0.66672466      -0.00014766 </v>
    <v>       0.33366643       0.66557299      -0.00022709 </v>
    <v>       1.00116221       0.33450481       0.00019536 </v>
    <v>       0.00026267       0.66574689      -0.00020253 </v>
    <v>       0.33280697       0.33576071       0.00025378 </v>
    <v>       0.66809603       0.33427144       0.00019257 </v>
    <v>       0.10975144       0.21800461       0.95195589 </v>
    <v>       0.22062807       0.10752408       0.04681151 </v>
    <v>       0.11067478       0.55615691       0.95073815 </v>
    <v>       0.22250346       0.44366143       0.04931962 </v>
    <v>       0.11249481       0.89223147       0.95313334 </v>
    <v>       0.22337138       0.78168622       0.04802256 </v>
    <v>       0.44261257       0.21838581       0.95199878 </v>
    <v>       0.55392627       0.10754624       0.04685786 </v>
    <v>       0.44399177       0.55470018       0.95066143 </v>
    <v>       0.55489203       0.44328254       0.04925371 </v>
    <v>       0.44628180       0.89319260       0.95314014 </v>
    <v>       0.55767204       0.78220296       0.04805794 </v>
    <v>       0.77499991       0.21803487       0.95198001 </v>
    <v>       0.88683439       0.10656275       0.04686434 </v>
    <v>       0.77821038       0.55525570       0.95071481 </v>
    <v>       0.88822709       0.44455875       0.04933143 </v>
    <v>       0.77963725       0.89321875       0.95309654 </v>
    <v>       0.89141391       0.78172159       0.04799260 </v>
   </varray>
  </structure>
  <varray name="forces" >
   <v>      -0.15382515      -0.08868054       0.08958787 </v>
   <v>       0.17635154      -0.12201132      -0.00766049 </v>
   <v>       0.16318013      -0.11133373      -0.01589561 </v>
   <v>      -0.13898109      -0.36587487       0.05169054 </v>
   <v>       0.40890123      -0.29374896      -0.02852043 </v>
   <v>      -0.15160447       0.42188667      -0.04379034 </v>
   <v>       0.27623796      -0.28120026      -0.02234239 </v>
   <v>      -0.55794412       0.35052559       0.02195416 </v>
   <v>       0.01645552       0.42307966      -0.08029952 </v>
   <v>       0.08326553       0.05631535       0.07582840 </v>
   <v>      -0.06508409       0.07469064      -0.22080579 </v>
   <v>      -0.13280612       0.00618828      -0.16491808 </v>
   <v>       0.13082372       0.01359714       0.26581742 </v>
   <v>       0.05542479      -0.07469167       0.13562707 </v>
   <v>      -0.06675429      -0.05243824      -0.08796716 </v>
   <v>      -0.06711599       0.07150695       0.30291904 </v>
   <v>      -0.04507438       0.07248671      -0.13446620 </v>
   <v>       0.05095136      -0.11707239      -0.26478852 </v>
   <v>       0.06807134      -0.11521647       0.02767055 </v>
   <v>       0.00163652       0.04424455       0.05330619 </v>
   <v>      -0.04414002       0.07397054       0.03717679 </v>
   <v>      -0.10730659      -0.04744318       0.15574808 </v>
   <v>       0.01116796      -0.04635091      -0.06637999 </v>
   <v>       0.10820244       0.00377134      -0.02510213 </v>
   <v>      -0.10560769       0.00901706       0.14148328 </v>
   <v>      -0.02418649       0.04463002      -0.01424504 </v>
   <v>       0.10976043       0.05015204      -0.18162770 </v>
  </varray>
  <varray name="stress" >
   <v>     -20.01968437       0.03795891       0.01257650 </v>
   <v>       0.03795897     -19.63974768       0.09589114 </v>
   <v>       0.01257629       0.09589116      -1.72381800 </v>
  </varray>
  <energy>
   <i name="e_fr_energy">   -188.66437291 </i>
   <i name="e_wo_entrp">   -188.52189007 </i>
   <i name="e_0_energy">     -0.28496568 </i>
  </energy>
  <time name="totalsc">  434.45  435.60</time>
 </calculation>
 <calculation>
  <scstep>
   <time name="dav">   23.27   23.32</time>
   <time name="total">   23.80   23.86</time>
   <energy>
    <i name="alphaZ">     82.31107003 </i>
    <i name="ewald">  41285.51729439 </i>
    <i name="hartreedc"> -47281.66768843 </i>
    <i name="XCdc">   -233.87724115 </i>
    <i name="pawpsdc">   3948.11864098 </i>
    <i name="pawaedc">  -3362.59883451 </i>
    <i name="eentropy">     -0.23884799 </i>
    <i name="bandstr">  -1389.62816685 </i>
    <i name="atom">   6761.44252427 </i>
    <i name="e_fr_energy">   -190.62124927 </i>
    <i name="e_wo_entrp">   -190.38240128 </i>
    <i name="e_0_energy">   -190.50182527 </i>
   </energy>
  </scstep>
  <scstep>
   <time name="dav">   29.74   29.82</time>
   <time name="total">   30.27   30.35</time>
   <energy>
    <i name="e_fr_energy">   -190.55297918 </i>
    <i name="e_wo_entrp">   -190.31960765 </i>
    <i name="e_0_energy">   -190.43629342 </i>
   </energy>
  </scstep>
  <scstep>
   <time name="dav">   30.02   30.09</time>
   <time name="total">   30.54   30.62</time>
   <energy>
    <i name="e_fr_energy">   -190.11168237 </i>
    <i name="e_wo_entrp">   -189.85789218 </i>
    <i name="e_0_energy">   -189.98478728 </i>
   </energy>
  </scstep>
  <scstep>
   <time name="dav">   31.53   31.60</time>
   <time name="total">   32.06   32.15</time>
   <energy>
    <i name="e_fr_energy">   -189.88209542 </i>
    <i name="e_wo_entrp">   -189.64742520 </i>
    <i name="e_0_energy">   -189.76476031 </i>
   </energy>
  </scstep>
  <scstep>
   <time name="dav">   30.07   30.15</time>
   <time name="total">   30.60   30.69</time>
   <energy>
    <i name="e_fr_energy">   -189.86668906 </i>
    <i name="e_wo_entrp">   -189.61638064 </i>
    <i name="e_0_energy">   -189.74153485 </i>
   </energy>
  </scstep>
  <scstep>
   <time name="dav">   30.18   30.25</time>
   <time name="total">   30.71   30.79</time>
   <energy>
    <i name="e_fr_energy">   -189.78337681 </i>
    <i name="e_wo_entrp">   -189.54414670 </i>
    <i name="e_0_energy">   -189.66376175 </i>
   </energy>
  </scstep>
  <scstep>
   <time name="dav">   29.05   29.12</time>
   <time name="total">   29.58   29.66</time>
   <energy>
    <i name="e_fr_energy">   -189.77845613 </i>
    <i name="e_wo_entrp">   -189.53715757 </i>
    <i name="e_0_energy">   -189.65780685 </i>
   </energy>
  </scstep>
  <scstep>
   <time name="dav">   29.04   29.11</time>
   <time name="total">   29.57   29.65</time>
   <energy>
    <i name="e_fr_energy">   -189.77776889 </i>
    <i name="e_wo_entrp">   -189.53678578 </i>
    <i name="e_0_energy">   -189.65727734 </i>
   </energy>
  </scstep>
  <scstep>
   <time name="dav">   28.60   28.67</time>
   <time name="total">   29.13   29.21</time>
   <energy>
    <i name="e_fr_energy">   -189.77687441 </i>
    <i name="e_wo_entrp">   -189.53576869 </i>
    <i name="e_0_energy">   -189.65632155 </i>
   </energy>
  </scstep>
  <scstep>
   <time name="dav">   26.28   26.35</time>
   <time name="total">   26.81   26.89</time>
   <energy>
    <i name="e_fr_energy">   -189.77717595 </i>
    <i name="e_wo_entrp">   -189.53583830 </i>
    <i name="e_0_energy">   -189.65650713 </i>
   </energy>
  </scstep>
  <scstep>
   <time name="dav">   23.35   23.41</time>
   <time name="total">   23.89   23.96</time>
   <energy>
    <i name="e_fr_energy">   -189.77704675 </i>
    <i name="e_wo_entrp">   -189.53571221 </i>
    <i name="e_0_energy">   -189.65637948 </i>
   </energy>
  </scstep>
  <scstep>
   <time name="dav">   18.50   18.55</time>
   <time name="total">   18.54   18.59</time>
   <energy>
    <i name="alphaZ">     82.31107003 </i>
    <i name="ewald">  41285.51729439 </i>
    <i name="hartreedc"> -47256.62913852 </i>
    <i name="XCdc">   -235.27217969 </i>
    <i name="pawpsdc">   4038.08598599 </i>
    <i name="pawaedc">  -3453.78009916 </i>
    <i name="eentropy">     -0.24132113 </i>
    <i name="bandstr">  -1411.21121921 </i>
    <i name="atom">   6761.44252427 </i>
    <i name="e_fr_energy">   -189.77708303 </i>
    <i name="e_wo_entrp">   -189.53576189 </i>
    <i name="e_0_energy">   -189.65642246 </i>
   </energy>
  </scstep>
  <structure>
   <crystal>
    <varray name="basis" >
     <v>       8.66670442       4.99859919       0.00000000 </v>
     <v>      -8.66946714       5.00334875       0.00000000 </v>
     <v>       0.00000000       0.00000000      30.00000000 </v>
    </varray>
    <i name="volume">   2600.93208425 </i>
    <varray name="rec_basis" >
     <v>       0.05771026       0.09999646       0.00000000 </v>
     <v>      -0.05765548       0.09996460       0.00000000 </v>
     <v>       0.00000000       0.00000000       0.03333333 </v>
    </varray>
   </crystal>
   <varray name="positions" >
    <v>      -0.00147361       0.00014480       0.00009945 </v>
    <v>       0.66665015      -0.00163800      -0.00003015 </v>
    <v>       0.33337453      -0.00151547      -0.00002707 </v>
    <v>       0.66444531       0.66624908      -0.00011836 </v>
    <v>       0.33357011       0.66469177      -0.00024326 </v>
    <v>       1.00171901       0.33535243       0.00017054 </v>
    <v>       0.00005982       0.66501384      -0.00021519 </v>
    <v>       0.33285465       0.33687943       0.00026623 </v>
    <v>       0.66881624       0.33495979       0.00014705 </v>
    <v>       0.10992518       0.21801845       0.95199888 </v>
    <v>       0.22068991       0.10771084       0.04668634 </v>
    <v>       0.11055752       0.55629463       0.95064466 </v>
    <v>       0.22265175       0.44355854       0.04947030 </v>
    <v>       0.11242369       0.89205399       0.95321022 </v>
    <v>       0.22321995       0.78166300       0.04797270 </v>
    <v>       0.44266716       0.21856922       0.95217049 </v>
    <v>       0.55400366       0.10771013       0.04678163 </v>
    <v>       0.44384579       0.55445645       0.95051133 </v>
    <v>       0.55476559       0.44302547       0.04926940 </v>
    <v>       0.44635703       0.89326467       0.95317036 </v>
    <v>       0.55775279       0.78236842       0.04807901 </v>
    <v>       0.77481785       0.21805886       0.95206830 </v>
    <v>       0.88676795       0.10647489       0.04682671 </v>
    <v>       0.77832059       0.55515816       0.95070058 </v>
    <v>       0.88814066       0.44467508       0.04941163 </v>
    <v>       0.77968832       0.89331624       0.95308847 </v>
    <v>       0.89160283       0.78169975       0.04788964 </v>
   </varray>
  </structure>
  <varray name="forces" >
   <v>      -0.12530853      -0.07388599       0.08461328 </v>
   <v>       0.15486524      -0.12060473      -0.00252833 </v>
   <v>       0.14561783      -0.11602950      -0.01065189 </v>
   <v>      -0.09206729      -0.44170418       0.06564338 </v>
   <v>       0.45699432      -0.36855989       0.00567175 </v>
   <v>      -0.21121680       0.48385030      -0.06067584 </v>
   <v>       0.30377197      -0.36636027       0.01743901 </v>
   <v>      -0.56578461       0.40444281      -0.01934673 </v>
   <v>      -0.00955795       0.49405525      -0.10126949 </v>
   <v>       0.07929895      -0.06690548      -0.41404527 </v>
   <v>       0.00428365      -0.04148080       0.22383632 </v>
   <v>      -0.04488673       0.01706285      -0.73616214 </v>
   <v>       0.02898340       0.02055225       0.85287697 </v>
   <v>      -0.02667014       0.05076305      -0.32348881 </v>
   <v>      -0.04738037       0.06962388       0.39569827 </v>
   <v>      -0.01519849      -0.04609338      -0.17075833 </v>
   <v>       0.03417452      -0.04865223       0.31994627 </v>
   <v>       0.01480076      -0.05122826      -0.84856392 </v>
   <v>       0.03245040      -0.05731690       0.59067519 </v>
   <v>      -0.01955792       0.09790826      -0.39433906 </v>
   <v>      -0.09060782       0.12691679       0.52594419 </v>
   <v>       0.02021530      -0.10320842      -0.33466840 </v>
   <v>       0.02914146      -0.09655690       0.37485522 </v>
   <v>       0.02045091       0.01156872      -0.59312514 </v>
   <v>      -0.02696302       0.02118809       0.72709506 </v>
   <v>      -0.05334614       0.09889379      -0.46807334 </v>
   <v>       0.00349711       0.10176092       0.29340178 </v>
  </varray>
  <varray name="stress" >
   <v>     -10.28290836       0.00346437      -0.01924722 </v>
   <v>       0.00346428      -9.96900533       0.10239506 </v>
   <v>      -0.01924715       0.10239517       6.48672214 </v>
  </varray>
  <energy>
   <i name="e_fr_energy">   -189.77708303 </i>
   <i name="e_wo_entrp">   -189.65642246 </i>
   <i name="e_0_energy">     -0.24132113 </i>
  </energy>
  <time name="totalsc">  377.49  378.50</time>
 </calculation>
 <calculation>
  <scstep>
   <time name="dav">   21.65   21.70</time>
   <time name="total">   22.17   22.22</time>
   <energy>
    <i name="alphaZ">     85.85397293 </i>
    <i name="ewald">  42851.85195991 </i>
    <i name="hartreedc"> -48868.07554586 </i>
    <i name="XCdc">   -232.91856414 </i>
    <i name="pawpsdc">   4038.08522446 </i>
    <i name="pawaedc">  -3453.77623416 </i>
    <i name="eentropy">     -0.19881645 </i>
    <i name="bandstr">  -1373.68073426 </i>
    <i name="atom">   6761.44252427 </i>
    <i name="e_fr_energy">   -191.41621329 </i>
    <i name="e_wo_entrp">   -191.21739683 </i>
    <i name="e_0_energy">   -191.31680506 </i>
   </energy>
  </scstep>
  <scstep>
   <time name="dav">   32.26   32.34</time>
   <time name="total">   32.77   32.85</time>
   <energy>
    <i name="e_fr_energy">   -191.14546465 </i>
    <i name="e_wo_entrp">   -190.94187865 </i>
    <i name="e_0_energy">   -191.04367165 </i>
   </energy>
  </scstep>
  <scstep>
   <time name="dav">   29.72   29.80</time>
   <time name="total">   30.23   30.31</time>
   <energy>
    <i name="e_fr_energy">   -191.46560638 </i>
    <i name="e_wo_entrp">   -191.24890141 </i>
    <i name="e_0_energy">   -191.35725389 </i>
   </energy>
  </scstep>
  <scstep>
   <time name="dav">   28.39   28.46</time>
   <time name="total">   28.91   28.98</time>
   <energy>
    <i name="e_fr_energy">   -191.00898310 </i>
    <i name="e_wo_entrp">   -190.79668975 </i>
    <i name="e_0_energy">   -190.90283642 </i>
   </energy>
  </scstep>
  <scstep>
   <time name="dav">   29.57   29.64</time>
   <time name="total">   30.09   30.17</time>
   <energy>
    <i name="e_fr_energy">   -190.99935014 </i>
    <i name="e_wo_entrp">   -190.80435018 </i>
    <i name="e_0_energy">   -190.90185016 </i>
   </energy>
  </scstep>
  <scstep>
   <time name="dav">   30.06   30.13</time>
   <time name="total">   30.57   30.65</time>
   <energy>
    <i name="e_fr_energy">   -190.81403559 </i>
    <i name="e_wo_entrp">   -190.60663439 </i>
    <i name="e_0_energy">   -190.71033499 </i>
   </energy>
  </scstep>
  <scstep>
   <time name="dav">   30.29   30.36</time>
   <time name="total">   30.80   30.88</time>
   <energy>
    <i name="e_fr_energy">   -190.81416344 </i>
    <i name="e_wo_entrp">   -190.60797244 </i>
    <i name="e_0_energy">   -190.71106794 </i>
   </energy>
  </scstep>
  <scstep>
   <time name="dav">   29.64   29.71</time>
   <time name="total">   30.15   30.23</time>
   <energy>
    <i name="e_fr_energy">   -190.81217985 </i>
    <i name="e_wo_entrp">   -190.60545493 </i>
    <i name="e_0_energy">   -190.70881739 </i>
   </energy>
  </scstep>
  <scstep>
   <time name="dav">   28.13   28.20</time>
   <time name="total">   28.65   28.72</time>
   <energy>
    <i name="e_fr_energy">   -190.80828390 </i>
    <i name="e_wo_entrp">   -190.60197966 </i>
    <i name="e_0_energy">   -190.70513178 </i>
   </energy>
  </scstep>
  <scstep>
   <time name="dav">   27.76   27.83</time>
   <time name="total">   28.27   28.35</time>
   <energy>
    <i name="e_fr_energy">   -190.80859942 </i>
    <i name="e_wo_entrp">   -190.60216455 </i>
    <i name="e_0_energy">   -190.70538198 </i>
   </energy>
  </scstep>
  <scstep>
   <time name="dav">   27.11   27.17</time>
   <time name="total">   27.62   27.69</time>
   <energy>
    <i name="e_fr_energy">   -190.80838169 </i>
    <i name="e_wo_entrp">   -190.60184559 </i>
    <i name="e_0_energy">   -190.70511364 </i>
   </energy>
  </scstep>
  <scstep>
   <time name="dav">   18.50   18.54</time>
   <time name="total">   18.54   18.59</time>
   <energy>
    <i name="alphaZ">     85.85397293 </i>
    <i name="ewald">  42851.85195991 </i>
    <i name="hartreedc"> -48839.33522616 </i>
    <i name="XCdc">   -234.27579362 </i>
    <i name="pawpsdc">   4064.68726318 </i>
    <i name="pawaedc">  -3480.58097825 </i>
    <i name="eentropy">     -0.20657410 </i>
    <i name="bandstr">  -1400.24554521 </i>
    <i name="atom">   6761.44252427 </i>
    <i name="e_fr_energy">   -190.80839704 </i>
    <i name="e_wo_entrp">   -190.60182294 </i>
    <i name="e_0_energy">   -190.70510999 </i>
   </energy>
  </scstep>
  <structure>
   <crystal>
    <varray name="basis" >
     <v>       8.48134935       4.89652983       0.00000000 </v>
     <v>      -8.48450984       4.90197452       0.00000000 </v>
     <v>       0.00000000       0.00000000      30.00000000 </v>
    </varray>
    <i name="volume">   2493.60041970 </i>
    <varray name="rec_basis" >
     <v>       0.05897466       0.10207541       0.00000000 </v>
     <v>      -0.05890916       0.10203739       0.00000000 </v>
     <v>       0.00000000       0.00000000       0.03333333 </v>
    </varray>
   </crystal>
   <varray name="positions" >
    <v>      -0.00231301       0.00013061       0.00027077 </v>
    <v>       0.66642644      -0.00292116      -0.00003099 </v>
    <v>       0.33313636      -0.00275750      -0.00004468 </v>
    <v>       0.66121507       0.66355049       0.00002984 </v>
    <v>       0.33279354       0.66046488      -0.00020215 </v>
    <v>       1.00406124       0.33939738       0.00003013 </v>
    <v>      -0.00131427       0.66135941      -0.00014487 </v>
    <v>       0.33346810       0.34161444       0.00019064 </v>
    <v>       0.67202503       0.33831245      -0.00008110 </v>
    <v>       0.10947615       0.21700661       0.95071928 </v>
    <v>       0.22025304       0.10704150       0.04753240 </v>
    <v>       0.11065721       0.55646400       0.94862677 </v>
    <v>       0.22275532       0.44374803       0.05174398 </v>
    <v>       0.11284261       0.89290453       0.95214494 </v>
    <v>       0.22382122       0.78255102       0.04920890 </v>
    <v>       0.44210173       0.21796322       0.95140967 </v>
    <v>       0.55363195       0.10686067       0.04783553 </v>
    <v>       0.44369113       0.55429965       0.94824942 </v>
    <v>       0.55461742       0.44274575       0.05097831 </v>
    <v>       0.44700538       0.89411610       0.95196789 </v>
    <v>       0.55828722       0.78369415       0.04958988 </v>
    <v>       0.77428790       0.21701206       0.95095296 </v>
    <v>       0.88616685       0.10561063       0.04798325 </v>
    <v>       0.77835942       0.55530381       0.94898229 </v>
    <v>       0.88832101       0.44482217       0.05142304 </v>
    <v>       0.78021032       0.89430929       0.95172767 </v>
    <v>       0.89223007       0.78261025       0.04890614 </v>
   </varray>
  </structure>
  <varray name="forces" >
   <v>      -0.04844746      -0.02581765       0.05157483 </v>
   <v>       0.11104279      -0.15357432       0.00092896 </v>
   <v>       0.12665666      -0.16536134      -0.00832829 </v>
   <v>      -0.07671560      -0.49940414       0.03414412 </v>
   <v>       0.46971209      -0.37376722       0.03569632 </v>
   <v>      -0.28295421       0.51343690      -0.03190939 </v>
   <v>       0.32733128      -0.39841077       0.04189365 </v>
   <v>      -0.55193442       0.39176070      -0.04708350 </v>
   <v>       0.01391278       0.55530979      -0.06090743 </v>
   <v>      -0.01819897       0.01876486      -0.24437633 </v>
   <v>      -0.05533710       0.04790585       0.15144150 </v>
   <v>       0.01051343       0.07302344      -0.58100607 </v>
   <v>      -0.03213775       0.00275823       0.67007899 </v>
   <v>       0.00756488      -0.03169130      -0.23232388 </v>
   <v>       0.05271407      -0.01350388       0.23533473 </v>
   <v>      -0.06135762       0.03088909      -0.01924219 </v>
   <v>       0.01513342       0.03572427       0.20105427 </v>
   <v>      -0.02277847       0.01186804      -0.68274158 </v>
   <v>       0.00212146      -0.05439449       0.42355618 </v>
   <v>       0.07185722      -0.02383146      -0.30435184 </v>
   <v>      -0.03493104      -0.00665064       0.36898026 </v>
   <v>       0.04935573       0.01570463      -0.20400461 </v>
   <v>      -0.05559919       0.02586945       0.25956561 </v>
   <v>      -0.05715942       0.06251036      -0.45500711 </v>
   <v>       0.03360745       0.01297115       0.58217731 </v>
   <v>       0.00207292      -0.02502502      -0.33554313 </v>
   <v>       0.00395507      -0.02706453       0.15039861 </v>
  </varray>
  <varray name="stress" >
   <v>      -5.82308255      -0.17145345      -0.04949630 </v>
   <v>      -0.17145341      -5.69741128      -0.11568161 </v>
   <v>      -0.04949626      -0.11568148       4.71162203 </v>
  </varray>
  <energy>
   <i name="e_fr_energy">   -190.80839704 </i>
   <i name="e_wo_entrp">   -190.70510999 </i>
   <i name="e_0_energy">     -0.20657410 </i>
  </energy>
  <time name="totalsc">  380.63  381.63</time>
 </calculation>
 <calculation>
  <scstep>
   <time name="dav">   21.62   21.67</time>
   <time name="total">   22.13   22.18</time>
   <energy>
    <i name="alphaZ">     90.18654898 </i>
    <i name="ewald">  44667.44748282 </i>
    <i name="hartreedc"> -50709.99744291 </i>
    <i name="XCdc">   -231.86890468 </i>
    <i name="pawpsdc">   4064.61089727 </i>
    <i name="pawaedc">  -3480.50086862 </i>
    <i name="eentropy">     -0.18117046 </i>
    <i name="bandstr">  -1353.36150823 </i>
    <i name="atom">   6761.44252427 </i>
    <i name="e_fr_energy">   -192.22244156 </i>
    <i name="e_wo_entrp">   -192.04127111 </i>
    <i name="e_0_energy">   -192.13185634 </i>
   </energy>
  </scstep>
  <scstep>
   <time name="dav">   27.72   27.78</time>
   <time name="total">   28.22   28.29</time>
   <energy>
    <i name="e_fr_energy">   -191.99077219 </i>
    <i name="e_wo_entrp">   -191.77626273 </i>
    <i name="e_0_energy">   -191.88351746 </i>
   </energy>
  </scstep>
  <scstep>
   <time name="dav">   29.96   30.03</time>
   <time name="total">   30.46   30.54</time>
   <energy>
    <i name="e_fr_energy">   -192.43345987 </i>
    <i name="e_wo_entrp">   -192.26000879 </i>
    <i name="e_0_energy">   -192.34673433 </i>
   </energy>
  </scstep>
  <scstep>
   <time name="dav">   30.28   30.35</time>
   <time name="total">   30.78   30.86</time>
   <energy>
    <i name="e_fr_energy">   -191.68883668 </i>
    <i name="e_wo_entrp">   -191.49882776 </i>
    <i name="e_0_energy">   -191.59383222 </i>
   </energy>
  </scstep>
  <scstep>
   <time name="dav">   29.29   29.36</time>
   <time name="total">   29.79   29.87</time>
   <energy>
    <i name="e_fr_energy">   -191.74222343 </i>
    <i name="e_wo_entrp">   -191.54168327 </i>
    <i name="e_0_energy">   -191.64195335 </i>
   </energy>
  </scstep>
  <scstep>
   <time name="dav">   29.97   30.04</time>
   <time name="total">   30.47   30.55</time>
   <energy>
    <i name="e_fr_energy">   -191.54533517 </i>
    <i name="e_wo_entrp">   -191.35435384 </i>
    <i name="e_0_energy">   -191.44984450 </i>
   </energy>
  </scstep>
  <scstep>
   <time name="dav">   29.51   29.58</time>
   <time name="total">   30.01   30.09</time>
   <energy>
    <i name="e_fr_energy">   -191.53808342 </i>
    <i name="e_wo_entrp">   -191.34075970 </i>
    <i name="e_0_energy">   -191.43942156 </i>
   </energy>
  </scstep>
  <scstep>
   <time name="dav">   30.19   30.27</time>
   <time name="total">   30.70   30.78</time>
   <energy>
    <i name="e_fr_energy">   -191.53616448 </i>
    <i name="e_wo_entrp">   -191.34032260 </i>
    <i name="e_0_energy">   -191.43824354 </i>
   </energy>
  </scstep>
  <scstep>
   <time name="dav">   28.53   28.60</time>
   <time name="total">   29.04   29.11</time>
   <energy>
    <i name="e_fr_energy">   -191.53167444 </i>
    <i name="e_wo_entrp">   -191.33591441 </i>
    <i name="e_0_energy">   -191.43379443 </i>
   </energy>
  </scstep>
  <scstep>
   <time name="dav">   28.56   28.63</time>
   <time name="total">   29.07   29.14</time>
   <energy>
    <i name="e_fr_energy">   -191.53168829 </i>
    <i name="e_wo_entrp">   -191.33615234 </i>
    <i name="e_0_energy">   -191.43392032 </i>
   </energy>
  </scstep>
  <scstep>
   <time name="dav">   24.11   24.17</time>
   <time name="total">   24.15   24.21</time>
   <energy>
    <i name="alphaZ">     90.18654898 </i>
    <i name="ewald">  44667.44748282 </i>
    <i name="hartreedc"> -50676.04854666 </i>
    <i name="XCdc">   -233.37018285 </i>
    <i name="pawpsdc">   4086.73900343 </i>
    <i name="pawaedc">  -3502.73130333 </i>
    <i name="eentropy">     -0.19575902 </i>
    <i name="bandstr">  -1385.00146924 </i>
    <i name="atom">   6761.44252427 </i>
    <i name="e_fr_energy">   -191.53170159 </i>
    <i name="e_wo_entrp">   -191.33594257 </i>
    <i name="e_0_energy">   -191.43382208 </i>
   </energy>
  </scstep>
  <structure>
   <crystal>
    <varray name="basis" >
     <v>       8.26617173       4.77040966       0.00000000 </v>
     <v>      -8.27985085       4.79407352       0.00000000 </v>
     <v>       0.00000000       0.00000000      30.00000000 </v>
    </varray>
    <i name="volume">   2373.80746199 </i>
    <varray name="rec_basis" >
     <v>       0.06058714       0.10464013       0.00000000 </v>
     <v>      -0.06028808       0.10446726       0.00000000 </v>
     <v>       0.00000000       0.00000000       0.03333333 </v>
    </varray>
   </crystal>
   <varray name="positions" >
    <v>      -0.00303050       0.00014595       0.00048773 </v>
    <v>       0.66540396      -0.00551484      -0.00002415 </v>
    <v>       0.33207258      -0.00557722      -0.00007380 </v>
    <v>       0.65454542       0.65783485       0.00019535 </v>
    <v>       0.33141042       0.65235394      -0.00004338 </v>
    <v>       1.00841467       0.34778130      -0.00012794 </v>
    <v>      -0.00402665       0.65400691       0.00004684 </v>
    <v>       0.33450331       0.35044985      -0.00002137 </v>
    <v>       0.67891100       0.34513107      -0.00036416 </v>
    <v>       0.10916933       0.21678270       0.94918471 </v>
    <v>       0.22013849       0.10736168       0.04860329 </v>
    <v>       0.11164980       0.55712447       0.94568723 </v>
    <v>       0.22250269       0.44416580       0.05506639 </v>
    <v>       0.11283704       0.89312850       0.95072963 </v>
    <v>       0.22444987       0.78256627       0.05069668 </v>
    <v>       0.44171278       0.21817676       0.95079230 </v>
    <v>       0.55383597       0.10655476       0.04913708 </v>
    <v>       0.44373569       0.55471148       0.94488904 </v>
    <v>       0.55410178       0.44226011       0.05329246 </v>
    <v>       0.44745257       0.89379835       0.95027904 </v>
    <v>       0.55820306       0.78435959       0.05161023 </v>
    <v>       0.77465241       0.21631886       0.94959845 </v>
    <v>       0.88585572       0.10585947       0.04950185 </v>
    <v>       0.77858546       0.55647349       0.94655403 </v>
    <v>       0.88883506       0.44472050       0.05437577 </v>
    <v>       0.78017930       0.89445085       0.94988671 </v>
    <v>       0.89211324       0.78278897       0.05003986 </v>
   </varray>
  </structure>
  <varray name="forces" >
   <v>       0.01957897       0.06413409       0.05937157 </v>
   <v>       0.09112428      -0.22366371      -0.00349476 </v>
   <v>       0.11840027      -0.28878923      -0.04650651 </v>
   <v>      -0.03937919      -0.27122741      -0.08865587 </v>
   <v>       0.12498839      -0.00500584      -0.07851100 </v>
   <v>      -0.24798749       0.18010758       0.09502048 </v>
   <v>       0.21125304      -0.19792766      -0.10865639 </v>
   <v>      -0.24131273       0.11969297       0.05761159 </v>
   <v>       0.05154347       0.44749970       0.05460864 </v>
   <v>      -0.15315088       0.14736068       0.02331864 </v>
   <v>      -0.11073974       0.17888779      -0.09877770 </v>
   <v>       0.01156683       0.17108408      -0.20116986 </v>
   <v>      -0.04340685      -0.05894667       0.26424360 </v>
   <v>       0.05889648      -0.14691086       0.02130576 </v>
   <v>       0.16141518      -0.14418976       0.02568255 </v>
   <v>      -0.12872227       0.17387145       0.26431499 </v>
   <v>      -0.03122292       0.13769983      -0.11429356 </v>
   <v>      -0.04499289       0.04916797      -0.30620853 </v>
   <v>       0.02027363      -0.10238370       0.08787929 </v>
   <v>       0.13551778      -0.14135407      -0.01801752 </v>
   <v>       0.06879191      -0.18482956       0.06561625 </v>
   <v>       0.01374754       0.19052339       0.07335561 </v>
   <v>      -0.11566265       0.13773608      -0.09261834 </v>
   <v>      -0.11456702       0.11395146      -0.16449700 </v>
   <v>       0.07567668       0.00161900       0.33551479 </v>
   <v>       0.05105733      -0.13484315       0.02497568 </v>
   <v>       0.05731285      -0.21326444      -0.13141241 </v>
  </varray>
  <varray name="stress" >
   <v>      -0.32279434      -0.56793655       0.28489962 </v>
   <v>      -0.56793669       0.33469487      -0.75468433 </v>
   <v>       0.28489978      -0.75468421      -0.33316749 </v>
  </varray>
  <energy>
   <i name="e_fr_energy">   -191.53170159 </i>
   <i name="e_wo_entrp">   -191.43382208 </i>
   <i name="e_0_energy">     -0.19575902 </i>
  </energy>
  <time name="totalsc">  356.77  357.70</time>
 </calculation>
 <calculation>
  <scstep>
   <time name="dav">   21.64   21.69</time>
   <time name="total">   22.15   22.20</time>
   <energy>
    <i name="alphaZ">     90.21370826 </i>
    <i name="ewald">  44655.15701294 </i>
    <i name="hartreedc"> -50665.00858811 </i>
    <i name="XCdc">   -233.45406040 </i>
    <i name="pawpsdc">   4087.03355340 </i>
    <i name="pawaedc">  -3503.02329667 </i>
    <i name="eentropy">     -0.19533218 </i>
    <i name="bandstr">  -1383.77123531 </i>
    <i name="atom">   6761.44252427 </i>
    <i name="e_fr_energy">   -191.60571380 </i>
    <i name="e_wo_entrp">   -191.41038162 </i>
    <i name="e_0_energy">   -191.50804771 </i>
   </energy>
  </scstep>
  <scstep>
   <time name="dav">   31.55   31.63</time>
   <time name="total">   32.06   32.14</time>
   <energy>
    <i name="e_fr_energy">   -191.70694361 </i>
    <i name="e_wo_entrp">   -191.49445834 </i>
    <i name="e_0_energy">   -191.60070098 </i>
   </energy>
  </scstep>
  <scstep>
   <time name="dav">   30.55   30.62</time>
   <time name="total">   31.06   31.14</time>
   <energy>
    <i name="e_fr_energy">   -191.62002732 </i>
    <i name="e_wo_entrp">   -191.42183216 </i>
    <i name="e_0_energy">   -191.52092974 </i>
   </energy>
  </scstep>
  <scstep>
   <time name="dav">   28.67   28.73</time>
   <time name="total">   29.17   29.25</time>
   <energy>
    <i name="e_fr_energy">   -191.62426599 </i>
    <i name="e_wo_entrp">   -191.42553136 </i>
    <i name="e_0_energy">   -191.52489867 </i>
   </energy>
  </scstep>
  <scstep>
   <time name="dav">   28.67   28.74</time>
   <time name="total">   29.17   29.25</time>
   <energy>
    <i name="e_fr_energy">   -191.61718678 </i>
    <i name="e_wo_entrp">   -191.41714145 </i>
    <i name="e_0_energy">   -191.51716411 </i>
   </energy>
  </scstep>
  <scstep>
   <time name="dav">   28.47   28.53</time>
   <time name="total">   28.97   29.05</time>
   <energy>
    <i name="e_fr_energy">   -191.61841152 </i>
    <i name="e_wo_entrp">   -191.41949943 </i>
    <i name="e_0_energy">   -191.51895548 </i>
   </energy>
  </scstep>
  <scstep>
   <time name="dav">   28.00   28.07</time>
   <time name="total">   28.51   28.59</time>
   <energy>
    <i name="e_fr_energy">   -191.61706149 </i>
    <i name="e_wo_entrp">   -191.41656982 </i>
    <i name="e_0_energy">   -191.51681566 </i>
   </energy>
  </scstep>
  <scstep>
   <time name="dav">   25.46   25.52</time>
   <time name="total">   25.96   26.03</time>
   <energy>
    <i name="e_fr_energy">   -191.61667769 </i>
    <i name="e_wo_entrp">   -191.41684992 </i>
    <i name="e_0_energy">   -191.51676381 </i>
   </energy>
  </scstep>
  <scstep>
   <time name="dav">   18.10   18.15</time>
   <time name="total">   18.14   18.19</time>
   <energy>
    <i name="alphaZ">     90.21370826 </i>
    <i name="ewald">  44655.15701294 </i>
    <i name="hartreedc"> -50665.93399814 </i>
    <i name="XCdc">   -233.43678871 </i>
    <i name="pawpsdc">   4084.22004093 </i>
    <i name="pawaedc">  -3500.16575425 </i>
    <i name="eentropy">     -0.19975241 </i>
    <i name="bandstr">  -1382.91367413 </i>
    <i name="atom">   6761.44252427 </i>
    <i name="e_fr_energy">   -191.61668122 </i>
    <i name="e_wo_entrp">   -191.41692881 </i>
    <i name="e_0_energy">   -191.51680502 </i>
   </energy>
  </scstep>
  <structure>
   <crystal>
    <varray name="basis" >
     <v>       8.25019453       4.76118575       0.00000000 </v>
     <v>      -8.27863536       4.81042878       0.00000000 </v>
     <v>       0.00000000       0.00000000      30.00000000 </v>
    </varray>
    <i name="volume">   2373.09281547 </i>
    <varray name="rec_basis" >
     <v>       0.06081214       0.10465628       0.00000000 </v>
     <v>      -0.06018963       0.10429674       0.00000000 </v>
     <v>       0.00000000       0.00000000       0.03333333 </v>
    </varray>
   </crystal>
   <varray name="positions" >
    <v>      -0.00265090       0.00041749       0.00058766 </v>
    <v>       0.66451319      -0.00696363      -0.00002977 </v>
    <v>       0.33092740      -0.00744387      -0.00015034 </v>
    <v>       0.65295487       0.65649072       0.00005217 </v>
    <v>       0.33174002       0.65186187      -0.00017011 </v>
    <v>       1.00865365       0.34953990       0.00002576 </v>
    <v>      -0.00444838       0.65227714      -0.00012887 </v>
    <v>       0.33441337       0.35188383       0.00007043 </v>
    <v>       0.68144722       0.34735734      -0.00027823 </v>
    <v>       0.10946459       0.21798672       0.94920078 </v>
    <v>       0.22072535       0.10860765       0.04845742 </v>
    <v>       0.11257638       0.55797555       0.94531855 </v>
    <v>       0.22206662       0.44399773       0.05554312 </v>
    <v>       0.11225902       0.89220691       0.95074434 </v>
    <v>       0.22419939       0.78135140       0.05076030 </v>
    <v>       0.44221688       0.21944950       0.95121421 </v>
    <v>       0.55445126       0.10734626       0.04896870 </v>
    <v>       0.44385564       0.55510308       0.94434318 </v>
    <v>       0.55363039       0.44166988       0.05346821 </v>
    <v>       0.44713592       0.89267042       0.95022623 </v>
    <v>       0.55745781       0.78321767       0.05174549 </v>
    <v>       0.77567666       0.21724469       0.94969878 </v>
    <v>       0.88621445       0.10690932       0.04937139 </v>
    <v>       0.77883206       0.55741218       0.94625145 </v>
    <v>       0.88907576       0.44450309       0.05496491 </v>
    <v>       0.77963919       0.89361196       0.94990241 </v>
    <v>       0.89118663       0.78152965       0.04984175 </v>
   </varray>
  </structure>
  <varray name="forces" >
   <v>      -0.00988224       0.11712655       0.08074387 </v>
   <v>       0.11142048      -0.25500683       0.02840406 </v>
   <v>       0.15073691      -0.36018661      -0.02500774 </v>
   <v>      -0.05852258      -0.29193648      -0.03064597 </v>
   <v>       0.12098646      -0.02166894       0.01811677 </v>
   <v>      -0.24358480       0.20655834       0.02239337 </v>
   <v>       0.25046158      -0.19423140      -0.00653794 </v>
   <v>      -0.30346145       0.13076860      -0.03458781 </v>
   <v>       0.05916195       0.48017136       0.01751312 </v>
   <v>      -0.12097699       0.08662045       0.05871574 </v>
   <v>      -0.05463279       0.12337381      -0.10884323 </v>
   <v>       0.02608267       0.09604481      -0.14311036 </v>
   <v>      -0.06222713       0.00783207       0.14883905 </v>
   <v>       0.03750656      -0.10545954       0.01362755 </v>
   <v>       0.08821768      -0.08834866       0.00772057 </v>
   <v>      -0.05297818       0.11986099       0.31779391 </v>
   <v>      -0.03847206       0.09567912      -0.17051155 </v>
   <v>      -0.00770691      -0.02118232      -0.19213968 </v>
   <v>       0.02259781      -0.04599735       0.03177178 </v>
   <v>       0.08074468      -0.07875327      -0.04425703 </v>
   <v>       0.05592144      -0.11076887       0.02801823 </v>
   <v>       0.00257335       0.12265640       0.10607771 </v>
   <v>      -0.08289476       0.08558919      -0.11633777 </v>
   <v>      -0.06418603       0.06044942      -0.11939928 </v>
   <v>       0.01091607       0.05835028       0.25495721 </v>
   <v>       0.04220566      -0.08440845       0.04477312 </v>
   <v>       0.03999263      -0.13313268      -0.18808771 </v>
  </varray>
  <varray name="stress" >
   <v>      -0.01339584       0.01568031       0.03746817 </v>
   <v>       0.01568044       0.03782264      -0.22213285 </v>
   <v>       0.03746822      -0.22213272      -1.28419149 </v>
  </varray>
  <energy>
   <i name="e_fr_energy">   -191.61668122 </i>
   <i name="e_wo_entrp">   -191.51680502 </i>
   <i name="e_0_energy">     -0.19975241 </i>
  </energy>
  <time name="totalsc">  287.28  288.03</time>
 </calculation>
 <calculation>
  <scstep>
   <time name="dav">   21.61   21.66</time>
   <time name="total">   22.11   22.17</time>
   <energy>
    <i name="alphaZ">     90.21404364 </i>
    <i name="ewald">  44657.55481131 </i>
    <i name="hartreedc"> -50668.20095670 </i>
    <i name="XCdc">   -233.43210755 </i>
    <i name="pawpsdc">   4084.18623745 </i>
    <i name="pawaedc">  -3500.13149897 </i>
    <i name="eentropy">     -0.19715399 </i>
    <i name="bandstr">  -1383.12234750 </i>
    <i name="atom">   6761.44252427 </i>
    <i name="e_fr_energy">   -191.68644804 </i>
    <i name="e_wo_entrp">   -191.48929405 </i>
    <i name="e_0_energy">   -191.58787105 </i>
   </energy>
  </scstep>
  <scstep>
   <time name="dav">   32.73   32.81</time>
   <time name="total">   33.23   33.32</time>
   <energy>
    <i name="e_fr_energy">   -191.76267838 </i>
    <i name="e_wo_entrp">   -191.54763199 </i>
    <i name="e_0_energy">   -191.65515519 </i>
   </energy>
  </scstep>
  <scstep>
   <time name="dav">   30.28   30.35</time>
   <time name="total">   30.78   30.86</time>
   <energy>
    <i name="e_fr_energy">   -191.69493924 </i>
    <i name="e_wo_entrp">   -191.49461883 </i>
    <i name="e_0_energy">   -191.59477904 </i>
   </energy>
  </scstep>
  <scstep>
   <time name="dav">   28.66   28.73</time>
   <time name="total">   29.17   29.24</time>
   <energy>
    <i name="e_fr_energy">   -191.69838044 </i>
    <i name="e_wo_entrp">   -191.49942364 </i>
    <i name="e_0_energy">   -191.59890204 </i>
   </energy>
  </scstep>
  <scstep>
   <time name="dav">   28.78   28.84</time>
   <time name="total">   29.28   29.36</time>
   <energy>
    <i name="e_fr_energy">   -191.69207724 </i>
    <i name="e_wo_entrp">   -191.49083283 </i>
    <i name="e_0_energy">   -191.59145503 </i>
   </energy>
  </scstep>
  <scstep>
   <time name="dav">   28.64   28.71</time>
   <time name="total">   29.14   29.22</time>
   <energy>
    <i name="e_fr_energy">   -191.69253117 </i>
    <i name="e_wo_entrp">   -191.49201884 </i>
    <i name="e_0_energy">   -191.59227500 </i>
   </energy>
  </scstep>
  <scstep>
   <time name="dav">   28.76   28.83</time>
   <time name="total">   29.27   29.35</time>
   <energy>
    <i name="e_fr_energy">   -191.69231982 </i>
    <i name="e_wo_entrp">   -191.49042144 </i>
    <i name="e_0_energy">   -191.59137063 </i>
   </energy>
  </scstep>
  <scstep>
   <time name="dav">   25.02   25.08</time>
   <time name="total">   25.52   25.59</time>
   <energy>
    <i name="e_fr_energy">   -191.69176328 </i>
    <i name="e_wo_entrp">   -191.49062273 </i>
    <i name="e_0_energy">   -191.59119301 </i>
   </energy>
  </scstep>
  <scstep>
   <time name="dav">   17.35   17.39</time>
   <time name="total">   17.39   17.44</time>
   <energy>
    <i name="alphaZ">     90.21404364 </i>
    <i name="ewald">  44657.55481131 </i>
    <i name="hartreedc"> -50668.98139354 </i>
    <i name="XCdc">   -233.40486026 </i>
    <i name="pawpsdc">   4086.96130037 </i>
    <i name="pawaedc">  -3502.94074103 </i>
    <i name="eentropy">     -0.20105162 </i>
    <i name="bandstr">  -1382.33639029 </i>
    <i name="atom">   6761.44252427 </i>
    <i name="e_fr_energy">   -191.69175715 </i>
    <i name="e_wo_entrp">   -191.49070553 </i>
    <i name="e_0_energy">   -191.59123134 </i>
   </energy>
  </scstep>
  <structure>
   <crystal>
    <varray name="basis" >
     <v>       8.24971035       4.76183258       0.00000000 </v>
     <v>      -8.27781379       4.81050058       0.00000000 </v>
     <v>       0.00000000       0.00000000      30.00000000 </v>
    </varray>
    <i name="volume">   2373.08399328 </i>
    <varray name="rec_basis" >
     <v>       0.06081328       0.10464628       0.00000000 </v>
     <v>      -0.06019803       0.10429100       0.00000000 </v>
     <v>       0.00000000       0.00000000       0.03333333 </v>
    </varray>
   </crystal>
   <varray name="positions" >
    <v>      -0.00205253       0.00107658       0.00072687 </v>
    <v>       0.66348436      -0.00868643       0.00001885 </v>
    <v>       0.32945486      -0.00985386      -0.00019354 </v>
    <v>       0.65117958       0.65508770      -0.00000043 </v>
    <v>       0.33199911       0.65134907      -0.00013921 </v>
    <v>       1.00901514       0.35142782       0.00006429 </v>
    <v>      -0.00471893       0.65043660      -0.00014028 </v>
    <v>       0.33417093       0.35355071       0.00001103 </v>
    <v>       0.68424072       0.34977307      -0.00024866 </v>
    <v>       0.10955212       0.21882816       0.94929659 </v>
    <v>       0.22121949       0.10944229       0.04827394 </v>
[...]
      <set comment="kpoint 31">
       <r>  -17.5281    1.0000 </r>
       <r>  -17.2317    1.0000 </r>
       <r>  -16.9314    1.0000 </r>
       <r>  -16.6768    1.0000 </r>
       <r>  -16.5036    1.0000 </r>
       <r>  -16.3593    1.0000 </r>
       <r>  -16.3293    1.0000 </r>
       <r>  -16.2399    1.0000 </r>
       <r>  -16.1000    1.0000 </r>
       <r>  -16.0583    1.0000 </r>
       <r>  -15.9639    1.0000 </r>
       <r>  -15.8519    1.0000 </r>
       <r>  -15.7685    1.0000 </r>
       <r>  -15.6919    1.0000 </r>
       <r>  -15.5908    1.0000 </r>
       <r>  -15.4752    1.0000 </r>
       <r>  -15.3839    1.0000 </r>
       <r>  -15.2704    1.0000 </r>
       <r>   -9.6957    1.0000 </r>
       <r>   -9.4454    1.0000 </r>
       <r>   -9.3230    1.0000 </r>
       <r>   -9.0589    1.0000 </r>
       <r>   -8.9062    1.0000 </r>
       <r>   -8.7372    1.0000 </r>
       <r>   -8.4622    1.0000 </r>
       <r>   -8.4281    1.0000 </r>
       <r>   -8.3922    1.0000 </r>
       <r>   -8.3060    1.0000 </r>
       <r>   -8.2436    1.0000 </r>
       <r>   -8.2036    1.0000 </r>
       <r>   -8.1502    1.0000 </r>
       <r>   -8.0749    1.0000 </r>
       <r>   -8.0456    1.0000 </r>
       <r>   -7.8607    1.0000 </r>
       <r>   -7.7810    1.0000 </r>
       <r>   -7.6817    1.0000 </r>
       <r>   -7.4962    1.0000 </r>
       <r>   -7.4560    1.0000 </r>
       <r>   -7.3755    1.0000 </r>
       <r>   -7.2365    1.0000 </r>
       <r>   -7.1581    1.0000 </r>
       <r>   -7.0924    1.0000 </r>
       <r>   -7.0215    1.0000 </r>
       <r>   -6.9672    1.0000 </r>
       <r>   -6.8655    1.0000 </r>
       <r>   -6.7752    1.0000 </r>
       <r>   -6.6544    1.0000 </r>
       <r>   -6.6003    1.0000 </r>
       <r>   -6.5341    1.0000 </r>
       <r>   -6.4560    1.0000 </r>
       <r>   -6.4210    1.0000 </r>
       <r>   -6.3607    1.0000 </r>
       <r>   -6.2968    1.0000 </r>
       <r>   -6.2033    1.0000 </r>
       <r>   -6.1244    1.0000 </r>
       <r>   -6.0969    1.0000 </r>
       <r>   -6.0359    1.0000 </r>
       <r>   -5.9314    1.0000 </r>
       <r>   -5.8877    1.0000 </r>
       <r>   -5.8177    1.0000 </r>
       <r>   -5.7324    1.0000 </r>
       <r>   -5.6329    1.0000 </r>
       <r>   -5.5925    1.0000 </r>
       <r>   -5.4147    1.0000 </r>
       <r>   -5.2944    1.0000 </r>
       <r>   -5.0898    1.0000 </r>
       <r>   -5.0178    1.0000 </r>
       <r>   -4.8140    1.0000 </r>
       <r>   -4.7643    1.0000 </r>
       <r>   -4.6316    1.0000 </r>
       <r>   -4.5494    1.0000 </r>
       <r>   -4.4487    1.0000 </r>
       <r>   -4.3410    1.0000 </r>
       <r>   -4.2362    1.0000 </r>
       <r>   -4.1547    1.0000 </r>
       <r>   -4.1232    1.0000 </r>
       <r>   -4.0420    1.0000 </r>
       <r>   -3.8560    0.9998 </r>
       <r>   -3.4773    0.8156 </r>
       <r>   -3.3418    0.4763 </r>
       <r>   -3.1226    0.0537 </r>
       <r>   -2.6974    0.0000 </r>
       <r>   -2.5819    0.0000 </r>
       <r>   -2.5220    0.0000 </r>
       <r>   -2.4083    0.0000 </r>
       <r>   -2.3736    0.0000 </r>
       <r>   -2.2460    0.0000 </r>
       <r>   -2.1886    0.0000 </r>
       <r>   -2.0832    0.0000 </r>
       <r>   -1.9673    0.0000 </r>
       <r>   -1.8661    0.0000 </r>
       <r>   -1.5363    0.0000 </r>
       <r>   -1.4575    0.0000 </r>
       <r>   -1.3268    0.0000 </r>
       <r>   -1.2814    0.0000 </r>
       <r>   -1.1694    0.0000 </r>
       <r>   -1.0791    0.0000 </r>
       <r>   -1.0154    0.0000 </r>
       <r>   -0.9533    0.0000 </r>
       <r>   -0.9170    0.0000 </r>
       <r>   -0.8902    0.0000 </r>
       <r>   -0.7710    0.0000 </r>
       <r>   -0.6803    0.0000 </r>
       <r>   -0.5533    0.0000 </r>
       <r>   -0.4874    0.0000 </r>
       <r>   -0.2975    0.0000 </r>
       <r>   -0.1948    0.0000 </r>
       <r>   -0.1149    0.0000 </r>
       <r>    0.0033    0.0000 </r>
       <r>    0.1432    0.0000 </r>
       <r>    0.3713    0.0000 </r>
       <r>    0.5322    0.0000 </r>
       <r>    0.8219    0.0000 </r>
       <r>    0.9407    0.0000 </r>
       <r>    1.0365    0.0000 </r>
       <r>    1.2734    0.0000 </r>
       <r>    1.3554    0.0000 </r>
       <r>    2.1174    0.0000 </r>
       <r>    2.2853    0.0000 </r>
       <r>    2.3647    0.0000 </r>
      </set>
      <set comment="kpoint 32">
       <r>  -17.5259    1.0000 </r>
       <r>  -17.1660    1.0000 </r>
       <r>  -17.0523    1.0000 </r>
       <r>  -16.6716    1.0000 </r>
       <r>  -16.4172    1.0000 </r>
       <r>  -16.3316    1.0000 </r>
       <r>  -16.3087    1.0000 </r>
       <r>  -16.2556    1.0000 </r>
       <r>  -16.1908    1.0000 </r>
       <r>  -16.0867    1.0000 </r>
       <r>  -15.9437    1.0000 </r>
       <r>  -15.8386    1.0000 </r>
       <r>  -15.7587    1.0000 </r>
       <r>  -15.6796    1.0000 </r>
       <r>  -15.6090    1.0000 </r>
       <r>  -15.4836    1.0000 </r>
       <r>  -15.3564    1.0000 </r>
       <r>  -15.2745    1.0000 </r>
       <r>   -9.6448    1.0000 </r>
       <r>   -9.5835    1.0000 </r>
       <r>   -9.4011    1.0000 </r>
       <r>   -9.0091    1.0000 </r>
       <r>   -8.7490    1.0000 </r>
       <r>   -8.5677    1.0000 </r>
       <r>   -8.4980    1.0000 </r>
       <r>   -8.4576    1.0000 </r>
       <r>   -8.3874    1.0000 </r>
       <r>   -8.3506    1.0000 </r>
       <r>   -8.2946    1.0000 </r>
       <r>   -8.2064    1.0000 </r>
       <r>   -8.1390    1.0000 </r>
       <r>   -8.0978    1.0000 </r>
       <r>   -8.0463    1.0000 </r>
       <r>   -7.9720    1.0000 </r>
       <r>   -7.7960    1.0000 </r>
       <r>   -7.6518    1.0000 </r>
       <r>   -7.5049    1.0000 </r>
       <r>   -7.4200    1.0000 </r>
       <r>   -7.3851    1.0000 </r>
       <r>   -7.3238    1.0000 </r>
       <r>   -7.1234    1.0000 </r>
       <r>   -7.0504    1.0000 </r>
       <r>   -6.9832    1.0000 </r>
       <r>   -6.9452    1.0000 </r>
       <r>   -6.8506    1.0000 </r>
       <r>   -6.7871    1.0000 </r>
       <r>   -6.7200    1.0000 </r>
       <r>   -6.6211    1.0000 </r>
       <r>   -6.5178    1.0000 </r>
       <r>   -6.4715    1.0000 </r>
       <r>   -6.4277    1.0000 </r>
       <r>   -6.3429    1.0000 </r>
       <r>   -6.3242    1.0000 </r>
       <r>   -6.1741    1.0000 </r>
       <r>   -6.1406    1.0000 </r>
       <r>   -6.1023    1.0000 </r>
       <r>   -5.9701    1.0000 </r>
       <r>   -5.9046    1.0000 </r>
       <r>   -5.8676    1.0000 </r>
       <r>   -5.7732    1.0000 </r>
       <r>   -5.6720    1.0000 </r>
       <r>   -5.6404    1.0000 </r>
       <r>   -5.5199    1.0000 </r>
       <r>   -5.4280    1.0000 </r>
       <r>   -5.3043    1.0000 </r>
       <r>   -5.1733    1.0000 </r>
       <r>   -5.0630    1.0000 </r>
       <r>   -4.9600    1.0000 </r>
       <r>   -4.7845    1.0000 </r>
       <r>   -4.6527    1.0000 </r>
       <r>   -4.5270    1.0000 </r>
       <r>   -4.4155    1.0000 </r>
       <r>   -4.3208    1.0000 </r>
       <r>   -4.2525    1.0000 </r>
       <r>   -4.1645    1.0000 </r>
       <r>   -4.1016    1.0000 </r>
       <r>   -3.9833    1.0000 </r>
       <r>   -3.7868    0.9990 </r>
       <r>   -3.5133    0.8756 </r>
       <r>   -3.3779    0.5778 </r>
       <r>   -3.0282    0.0114 </r>
       <r>   -2.7324    0.0000 </r>
       <r>   -2.6125    0.0000 </r>
       <r>   -2.5529    0.0000 </r>
       <r>   -2.4715    0.0000 </r>
       <r>   -2.3819    0.0000 </r>
       <r>   -2.2787    0.0000 </r>
       <r>   -2.2165    0.0000 </r>
       <r>   -2.0840    0.0000 </r>
       <r>   -2.0127    0.0000 </r>
       <r>   -1.8142    0.0000 </r>
       <r>   -1.5098    0.0000 </r>
       <r>   -1.4231    0.0000 </r>
       <r>   -1.3169    0.0000 </r>
       <r>   -1.2581    0.0000 </r>
       <r>   -1.1481    0.0000 </r>
       <r>   -1.0768    0.0000 </r>
       <r>   -1.0435    0.0000 </r>
       <r>   -0.9744    0.0000 </r>
       <r>   -0.9011    0.0000 </r>
       <r>   -0.8123    0.0000 </r>
       <r>   -0.7523    0.0000 </r>
       <r>   -0.6634    0.0000 </r>
       <r>   -0.5566    0.0000 </r>
       <r>   -0.4511    0.0000 </r>
       <r>   -0.2719    0.0000 </r>
       <r>   -0.2326    0.0000 </r>
       <r>   -0.1401    0.0000 </r>
       <r>    0.0080    0.0000 </r>
       <r>    0.2286    0.0000 </r>
       <r>    0.3070    0.0000 </r>
       <r>    0.5349    0.0000 </r>
       <r>    0.8241    0.0000 </r>
       <r>    0.8969    0.0000 </r>
       <r>    1.0442    0.0000 </r>
       <r>    1.2412    0.0000 </r>
       <r>    1.3380    0.0000 </r>
       <r>    2.0928    0.0000 </r>
       <r>    2.2604    0.0000 </r>
       <r>    2.5560    0.0000 </r>
      </set>
      <set comment="kpoint 33">
       <r>  -17.4916    1.0000 </r>
       <r>  -17.2872    1.0000 </r>
       <r>  -16.9115    1.0000 </r>
       <r>  -16.6656    1.0000 </r>
       <r>  -16.5015    1.0000 </r>
       <r>  -16.4259    1.0000 </r>
       <r>  -16.2828    1.0000 </r>
       <r>  -16.2226    1.0000 </r>
       <r>  -16.1515    1.0000 </r>
       <r>  -16.1034    1.0000 </r>
       <r>  -15.9206    1.0000 </r>
       <r>  -15.8170    1.0000 </r>
       <r>  -15.7545    1.0000 </r>
       <r>  -15.6719    1.0000 </r>
       <r>  -15.6039    1.0000 </r>
       <r>  -15.4958    1.0000 </r>
       <r>  -15.3643    1.0000 </r>
       <r>  -15.2754    1.0000 </r>
       <r>   -9.7617    1.0000 </r>
       <r>   -9.5044    1.0000 </r>
       <r>   -9.3159    1.0000 </r>
       <r>   -8.9715    1.0000 </r>
       <r>   -8.8015    1.0000 </r>
       <r>   -8.6460    1.0000 </r>
       <r>   -8.6034    1.0000 </r>
       <r>   -8.4998    1.0000 </r>
       <r>   -8.4037    1.0000 </r>
       <r>   -8.3494    1.0000 </r>
       <r>   -8.2735    1.0000 </r>
       <r>   -8.1788    1.0000 </r>
       <r>   -8.1025    1.0000 </r>
       <r>   -8.0591    1.0000 </r>
       <r>   -7.9970    1.0000 </r>
       <r>   -7.8990    1.0000 </r>
       <r>   -7.7811    1.0000 </r>
       <r>   -7.6983    1.0000 </r>
       <r>   -7.5503    1.0000 </r>
       <r>   -7.4313    1.0000 </r>
       <r>   -7.3621    1.0000 </r>
       <r>   -7.2485    1.0000 </r>
       <r>   -7.0997    1.0000 </r>
       <r>   -7.0379    1.0000 </r>
       <r>   -7.0192    1.0000 </r>
       <r>   -6.9639    1.0000 </r>
       <r>   -6.8387    1.0000 </r>
       <r>   -6.8067    1.0000 </r>
       <r>   -6.6800    1.0000 </r>
       <r>   -6.6168    1.0000 </r>
       <r>   -6.5293    1.0000 </r>
       <r>   -6.4594    1.0000 </r>
       <r>   -6.4332    1.0000 </r>
       <r>   -6.3086    1.0000 </r>
       <r>   -6.2882    1.0000 </r>
       <r>   -6.2021    1.0000 </r>
       <r>   -6.1306    1.0000 </r>
       <r>   -6.1149    1.0000 </r>
       <r>   -6.0498    1.0000 </r>
       <r>   -5.9271    1.0000 </r>
       <r>   -5.8675    1.0000 </r>
       <r>   -5.8111    1.0000 </r>
       <r>   -5.7560    1.0000 </r>
       <r>   -5.6765    1.0000 </r>
       <r>   -5.5316    1.0000 </r>
       <r>   -5.3372    1.0000 </r>
       <r>   -5.2259    1.0000 </r>
       <r>   -5.1777    1.0000 </r>
       <r>   -5.0979    1.0000 </r>
       <r>   -4.9367    1.0000 </r>
       <r>   -4.7816    1.0000 </r>
       <r>   -4.6457    1.0000 </r>
       <r>   -4.5019    1.0000 </r>
       <r>   -4.4364    1.0000 </r>
       <r>   -4.2968    1.0000 </r>
       <r>   -4.2629    1.0000 </r>
       <r>   -4.1702    1.0000 </r>
       <r>   -4.1151    1.0000 </r>
       <r>   -3.9127    1.0000 </r>
       <r>   -3.7440    0.9973 </r>
       <r>   -3.6046    0.9640 </r>
       <r>   -3.3932    0.6195 </r>
       <r>   -2.9240    0.0013 </r>
       <r>   -2.7649    0.0000 </r>
       <r>   -2.6672    0.0000 </r>
       <r>   -2.5838    0.0000 </r>
       <r>   -2.5199    0.0000 </r>
       <r>   -2.4101    0.0000 </r>
       <r>   -2.3160    0.0000 </r>
       <r>   -2.2447    0.0000 </r>
       <r>   -2.1010    0.0000 </r>
       <r>   -2.0217    0.0000 </r>
       <r>   -1.7265    0.0000 </r>
       <r>   -1.4844    0.0000 </r>
       <r>   -1.3857    0.0000 </r>
       <r>   -1.3066    0.0000 </r>
       <r>   -1.2567    0.0000 </r>
       <r>   -1.1443    0.0000 </r>
       <r>   -1.1135    0.0000 </r>
       <r>   -1.0037    0.0000 </r>
       <r>   -0.9511    0.0000 </r>
       <r>   -0.8650    0.0000 </r>
       <r>   -0.7957    0.0000 </r>
       <r>   -0.7352    0.0000 </r>
       <r>   -0.6860    0.0000 </r>
       <r>   -0.5503    0.0000 </r>
       <r>   -0.4665    0.0000 </r>
       <r>   -0.2897    0.0000 </r>
       <r>   -0.2354    0.0000 </r>
       <r>   -0.1087    0.0000 </r>
       <r>    0.0211    0.0000 </r>
       <r>    0.2077    0.0000 </r>
       <r>    0.3328    0.0000 </r>
       <r>    0.5166    0.0000 </r>
       <r>    0.7785    0.0000 </r>
       <r>    0.8700    0.0000 </r>
       <r>    1.0684    0.0000 </r>
       <r>    1.2482    0.0000 </r>
       <r>    1.3877    0.0000 </r>
       <r>    2.1289    0.0000 </r>
       <r>    2.2911    0.0000 </r>
       <r>    2.3964    0.0000 </r>
      </set>
      <set comment="kpoint 34">
       <r>  -17.4414    1.0000 </r>
       <r>  -17.3759    1.0000 </r>
       <r>  -16.7351    1.0000 </r>
       <r>  -16.6890    1.0000 </r>
       <r>  -16.6604    1.0000 </r>
       <r>  -16.4411    1.0000 </r>
       <r>  -16.2647    1.0000 </r>
       <r>  -16.2180    1.0000 </r>
       <r>  -16.1369    1.0000 </r>
       <r>  -16.0976    1.0000 </r>
       <r>  -15.9147    1.0000 </r>
       <r>  -15.7947    1.0000 </r>
       <r>  -15.7541    1.0000 </r>
       <r>  -15.6793    1.0000 </r>
       <r>  -15.5663    1.0000 </r>
       <r>  -15.5249    1.0000 </r>
       <r>  -15.3780    1.0000 </r>
       <r>  -15.2734    1.0000 </r>
       <r>   -9.8066    1.0000 </r>
       <r>   -9.4634    1.0000 </r>
       <r>   -9.1926    1.0000 </r>
       <r>   -9.0144    1.0000 </r>
       <r>   -8.8458    1.0000 </r>
       <r>   -8.7589    1.0000 </r>
       <r>   -8.6100    1.0000 </r>
       <r>   -8.5710    1.0000 </r>
       <r>   -8.4260    1.0000 </r>
       <r>   -8.3582    1.0000 </r>
       <r>   -8.2169    1.0000 </r>
       <r>   -8.1294    1.0000 </r>
       <r>   -8.0779    1.0000 </r>
       <r>   -8.0395    1.0000 </r>
       <r>   -7.9158    1.0000 </r>
       <r>   -7.8754    1.0000 </r>
       <r>   -7.8219    1.0000 </r>
       <r>   -7.7184    1.0000 </r>
       <r>   -7.5183    1.0000 </r>
       <r>   -7.4500    1.0000 </r>
       <r>   -7.3467    1.0000 </r>
       <r>   -7.2993    1.0000 </r>
       <r>   -7.0868    1.0000 </r>
       <r>   -7.0150    1.0000 </r>
       <r>   -6.9818    1.0000 </r>
       <r>   -6.9551    1.0000 </r>
       <r>   -6.8816    1.0000 </r>
       <r>   -6.7332    1.0000 </r>
       <r>   -6.6269    1.0000 </r>
       <r>   -6.6069    1.0000 </r>
       <r>   -6.5673    1.0000 </r>
       <r>   -6.4720    1.0000 </r>
       <r>   -6.4310    1.0000 </r>
       <r>   -6.3827    1.0000 </r>
       <r>   -6.2996    1.0000 </r>
       <r>   -6.2210    1.0000 </r>
       <r>   -6.1474    1.0000 </r>
       <r>   -6.0618    1.0000 </r>
       <r>   -6.0015    1.0000 </r>
       <r>   -5.9856    1.0000 </r>
       <r>   -5.9354    1.0000 </r>
       <r>   -5.8466    1.0000 </r>
       <r>   -5.7817    1.0000 </r>
       <r>   -5.7061    1.0000 </r>
       <r>   -5.4848    1.0000 </r>
       <r>   -5.3578    1.0000 </r>
       <r>   -5.2534    1.0000 </r>
       <r>   -5.1151    1.0000 </r>
       <r>   -5.0508    1.0000 </r>
       <r>   -4.9309    1.0000 </r>
       <r>   -4.7555    1.0000 </r>
       <r>   -4.6342    1.0000 </r>
       <r>   -4.4802    1.0000 </r>
       <r>   -4.4172    1.0000 </r>
       <r>   -4.3366    1.0000 </r>
       <r>   -4.2452    1.0000 </r>
       <r>   -4.1915    1.0000 </r>
       <r>   -4.1162    1.0000 </r>
       <r>   -3.8890    0.9999 </r>
       <r>   -3.7570    0.9980 </r>
       <r>   -3.6304    0.9762 </r>
       <r>   -3.3944    0.6226 </r>
       <r>   -2.8642    0.0003 </r>
       <r>   -2.7911    0.0000 </r>
       <r>   -2.7037    0.0000 </r>
       <r>   -2.5917    0.0000 </r>
       <r>   -2.5340    0.0000 </r>
       <r>   -2.4287    0.0000 </r>
       <r>   -2.3327    0.0000 </r>
       <r>   -2.2580    0.0000 </r>
       <r>   -2.1109    0.0000 </r>
       <r>   -2.0138    0.0000 </r>
       <r>   -1.6781    0.0000 </r>
       <r>   -1.4735    0.0000 </r>
       <r>   -1.3738    0.0000 </r>
       <r>   -1.3123    0.0000 </r>
       <r>   -1.2637    0.0000 </r>
       <r>   -1.1487    0.0000 </r>
       <r>   -1.1155    0.0000 </r>
       <r>   -0.9588    0.0000 </r>
       <r>   -0.9222    0.0000 </r>
       <r>   -0.8542    0.0000 </r>
       <r>   -0.8447    0.0000 </r>
       <r>   -0.7450    0.0000 </r>
       <r>   -0.6551    0.0000 </r>
       <r>   -0.5595    0.0000 </r>
       <r>   -0.4965    0.0000 </r>
       <r>   -0.2715    0.0000 </r>
       <r>   -0.2363    0.0000 </r>
       <r>   -0.1093    0.0000 </r>
       <r>    0.0219    0.0000 </r>
       <r>    0.2084    0.0000 </r>
       <r>    0.3289    0.0000 </r>
       <r>    0.5339    0.0000 </r>
       <r>    0.7257    0.0000 </r>
       <r>    0.8827    0.0000 </r>
       <r>    1.0662    0.0000 </r>
       <r>    1.2727    0.0000 </r>
       <r>    1.4216    0.0000 </r>
       <r>    2.2051    0.0000 </r>
       <r>    2.2585    0.0000 </r>
       <r>    2.3788    0.0000 </r>
      </set>
     </set>
    </set>
   </array>
  </eigenvalues>
  <separator name="orbital magnetization" >
   <v name="MAGDIPOLOUT">      0.00000000      0.00000000      0.00000000</v>
  </separator>
 </calculation>
 <structure name="finalpos" >
  <crystal>
   <varray name="basis" >
    <v>       8.33551504       4.82595960       0.00000000 </v>
    <v>      -8.35308265       4.85666682       0.00000000 </v>
    <v>       0.00000000       0.00000000      30.00000000 </v>
   </varray>
   <i name="volume">   2423.83376068 </i>
   <varray name="rec_basis" >
    <v>       0.06011139       0.10338683       0.00000000 </v>
    <v>      -0.05973132       0.10316939       0.00000000 </v>
    <v>       0.00000000       0.00000000       0.03333333 </v>
   </varray>
  </crystal>
  <varray name="positions" >
   <v>       0.01481541       0.03929107       0.00291426 </v>
   <v>       0.64407425      -0.03946610      -0.00178734 </v>
   <v>       0.31683959      -0.03636193      -0.00165149 </v>
   <v>       0.63372772       0.64531904      -0.00084228 </v>
   <v>       0.32964416       0.65514071      -0.00060223 </v>
   <v>       1.01816713       0.35983549       0.00086007 </v>
   <v>       0.01035394       0.64910379      -0.00028840 </v>
   <v>       0.32585520       0.35606614       0.00015187 </v>
   <v>       0.69955231       0.36756679       0.00179974 </v>
   <v>       0.10995994       0.22651714       0.94741580 </v>
   <v>       0.22683054       0.11120491       0.04732151 </v>
   <v>       0.11534178       0.55847176       0.94312672 </v>
   <v>       0.22263416       0.44700427       0.05719017 </v>
   <v>       0.11086029       0.89204450       0.95191281 </v>
   <v>       0.22309877       0.77642769       0.05318541 </v>
   <v>       0.44502507       0.21942381       0.95913413 </v>
   <v>       0.55693638       0.10652099       0.04333112 </v>
   <v>       0.43806525       0.55247285       0.94254202 </v>
   <v>       0.55029217       0.43799732       0.05329679 </v>
   <v>       0.44445732       0.88576510       0.94736726 </v>
   <v>       0.55232227       0.77309086       0.05295278 </v>
   <v>       0.77391366       0.21432606       0.95537946 </v>
   <v>       0.88092114       0.11209051       0.04821433 </v>
   <v>       0.78404413       0.56257675       0.94681415 </v>
   <v>       0.89660997       0.45080310       0.05761325 </v>
   <v>       0.78261125       0.88983244       0.95216746 </v>
   <v>       0.89126065       0.78514941       0.04048052 </v>
  </varray>
 </structure>
</modeling>
