unknown system                          
           1
     8.857231    5.108715    0.000000
    -8.853139    5.101675    0.000000
     0.000000    0.000000   30.000000
   V    Mo   W    S 
   3   3   3  18
Direct configuration=     1
   0.00000000  0.66666669  0.00000000
   0.66666669  0.66666669  0.00000000
   0.66666669  0.00000000  0.00000000
   0.00000000  0.00000000  0.00000000
   0.33333334  0.66666669  0.00000000
   0.33333334  0.00000000  0.00000000
   1.00000000  0.33333334  0.00000000
   0.33333334  0.33333334  0.00000000
   0.66666669  0.33333334  0.00000000
   0.11068511  0.22244981  0.95539999
   0.22244981  0.11068511  0.04460000
   0.11068511  0.55578315  0.95539999
   0.22244981  0.44401845  0.04460000
   0.11068511  0.88911647  0.95539999
   0.22244981  0.77735180  0.04460000
   0.44401845  0.22244981  0.95539999
   0.55578315  0.11068511  0.04460000
   0.44401845  0.55578315  0.95539999
   0.55578315  0.44401845  0.04460000
   0.44401845  0.88911647  0.95539999
   0.55578315  0.77735180  0.04460000
   0.77735180  0.22244981  0.95539999
   0.88911647  0.11068511  0.04460000
   0.77735180  0.55578315  0.95539999
   0.88911647  0.44401845  0.04460000
   0.77735180  0.88911647  0.95539999
   0.88911647  0.77735180  0.04460000
unknown system                          
           1
     8.669072    5.002279    0.000000
    -8.665211    4.995638    0.000000
     0.000000    0.000000   30.000000
   V    Mo   W    S 
   3   3   3  18
Direct configuration=     2
   0.00190953  0.66899860 -0.00013976
   0.66710262  0.66820805 -0.00001716
   0.66549523 -0.00153643  0.00015992
   0.00109410 -0.00027561  0.00002575
   0.33337521  0.66810731 -0.00000356
   0.33198758 -0.00144612  0.00015270
   1.00129627  0.33322926 -0.00015753
   0.33193239  0.33197996 -0.00004388
   0.66547768  0.33224535 -0.00004798
   0.11151826  0.22308458  0.95065207
   0.22275265  0.11202047  0.04928159
   0.10798242  0.55692283  0.95196847
   0.22182804  0.44362301  0.04927939
   0.10865424  0.88414867  0.95188899
   0.21775848  0.77558078  0.04809811
   0.44482454  0.22304306  0.95075952
   0.55840601  0.10950681  0.04804302
   0.44830526  0.55665762  0.95200220
   0.55717358  0.44800822  0.04808769
   0.44881704  0.89095380  0.95194611
   0.55998617  0.77982256  0.04693422
   0.77601012  0.21851362  0.95194567
   0.88461858  0.10967206  0.04803700
   0.77928574  0.55896303  0.95312714
   0.89052438  0.44808318  0.04801666
   0.77328304  0.88679353  0.95312793
   0.88681528  0.77330627  0.04687562
unknown system                          
           1
     8.484062    4.900326    0.000000
    -8.482170    4.897088    0.000000
     0.000000    0.000000   30.000000
   V    Mo   W    S 
   3   3   3  18
Direct configuration=     3
   0.00256495  0.66969716 -0.00014824
   0.66716981  0.66854466 -0.00005858
   0.66507321 -0.00192313  0.00017269
   0.00197415  0.00028201  0.00006344
   0.33315545  0.66833292 -0.00004443
   0.33165345 -0.00160732  0.00016634
   1.00200855  0.33322150 -0.00011975
   0.33120380  0.33131791 -0.00004587
   0.66491925  0.33177825 -0.00003875
   0.11162297  0.22332781  0.95056259
   0.22289967  0.11224156  0.04938859
   0.10779451  0.55674107  0.95195005
   0.22172977  0.44338761  0.04927698
   0.10854545  0.88395678  0.95179368
   0.21759538  0.77549581  0.04819030
   0.44490956  0.22325362  0.95075253
   0.55855808  0.10967963  0.04806460
   0.44831401  0.55651677  0.95207616
   0.55713275  0.44786096  0.04800561
   0.44896907  0.89104491  0.95192179
   0.56008989  0.77992681  0.04695450
   0.77605842  0.21863824  0.95202315
   0.88462693  0.10983999  0.04798217
   0.77922307  0.55878276  0.95323258
   0.89046069  0.44793962  0.04786359
   0.77321381  0.88671507  0.95317526
   0.88674779  0.77322149  0.04683894
unknown system                          
           1
     8.275734    4.784774    0.000000
    -8.270059    4.774984    0.000000
     0.000000    0.000000   30.000000
   V    Mo   W    S 
   3   3   3  18
Direct configuration=     4
   0.00515233  0.67209714 -0.00012020
   0.66711911  0.66931663 -0.00021398
   0.66342623 -0.00293846  0.00014664
   0.00611799  0.00351950  0.00016954
   0.33189210  0.66864024 -0.00018834
   0.33063953 -0.00156731  0.00014889
   1.00515454  0.33309406  0.00006853
   0.32793199  0.32837058 -0.00004928
   0.66250084  0.32979354  0.00000960
   0.11160533  0.22333275  0.94850864
   0.22311829  0.11225797  0.05143953
   0.10709470  0.55722372  0.95041328
   0.22193088  0.44343720  0.05090194
   0.10785801  0.88262402  0.94999213
   0.21622200  0.77480403  0.04997990
   0.44468321  0.22313501  0.94909453
   0.55891857  0.10895594  0.04963026
   0.44938501  0.55705218  0.95096378
   0.55756845  0.44881227  0.04916470
   0.45024563  0.89182233  0.95042270
   0.56108626  0.78057324  0.04835872
   0.77560195  0.21759129  0.95086789
   0.88356514  0.10925007  0.04920770
   0.77980445  0.55967913  0.95230805
   0.89095114  0.44886585  0.04869865
   0.77246420  0.88623643  0.95209001
   0.88617655  0.77223509  0.04798606
unknown system                          
           1
     8.269447    4.789477    0.000000
    -8.258945    4.771321    0.000000
     0.000000    0.000000   30.000000
   V    Mo   W    S 
   3   3   3  18
Direct configuration=     5
   0.00989788  0.67645623  0.00008268
   0.66720084  0.67045750 -0.00042465
   0.65971518 -0.00448947 -0.00004667
   0.01444425  0.01053511  0.00022432
   0.32933758  0.66925396 -0.00033493
   0.32926837 -0.00071857  0.00004261
   1.01210276  0.33250011  0.00030912
   0.32108719  0.32201625 -0.00002781
   0.65706913  0.32582441  0.00012384
   0.11145941  0.22282372  0.94537961
   0.22350500  0.11186977  0.05452953
   0.10636764  0.55766070  0.94830900
   0.22301433  0.44428134  0.05313974
   0.10748624  0.88185198  0.94748550
   0.21505278  0.77450040  0.05242111
   0.44372397  0.22230198  0.94682687
   0.55838274  0.10730945  0.05185842
   0.44987293  0.55725319  0.94965614
   0.55735623  0.44963182  0.05056946
   0.45095932  0.89235604  0.94840358
   0.56145663  0.78096909  0.05036727
   0.77545651  0.21639606  0.94965875
   0.88287513  0.10830462  0.05077418
   0.78052238  0.56049111  0.95112371
   0.89144928  0.44968481  0.04934322
   0.77284331  0.88640400  0.95072862
   0.88630746  0.77228884  0.04947669
unknown system                          
           1
     8.270384    4.790302    0.000000
    -8.259531    4.771539    0.000000
     0.000000    0.000000   30.000000
   V    Mo   W    S 
   3   3   3  18
Direct configuration=     6
   0.01165242  0.67837277  0.00009520
   0.66779370  0.67099996 -0.00051481
   0.65733758 -0.00535389 -0.00007176
   0.01621362  0.01208503  0.00018823
   0.32869445  0.66978254 -0.00029657
   0.32965639 -0.00022465  0.00010484
   1.01476527  0.33224627  0.00022523
   0.31975517  0.32026011  0.00008214
   0.65390569  0.32415706  0.00020198
   0.11154218  0.22272324  0.94473500
   0.22385561  0.11166334  0.05504837
   0.10623672  0.55731286  0.94819006
   0.22402740  0.44472375  0.05343159
   0.10779770  0.88256776  0.94723425
   0.21536411  0.77496479  0.05267991
   0.44298583  0.22200867  0.94646028
   0.55768154  0.10669033  0.05211898
   0.44884987  0.55647551  0.94983050
   0.55633000  0.44906853  0.05055995
   0.45018941  0.89206430  0.94817345
   0.56092876  0.78083034  0.05044913
   0.77596160  0.21669403  0.94994048
   0.88362765  0.10825473  0.05068883
   0.78057683  0.56015655  0.95126585
   0.89140946  0.44895731  0.04883873
   0.77393245  0.88722872  0.95085404
   0.88714303  0.77350448  0.04948604
unknown system                          
           1
     8.260818    4.780296    0.000000
    -8.253259    4.767237    0.000000
     0.000000    0.000000   30.000000
   V    Mo   W    S 
   3   3   3  18
Direct configuration=     7
   0.01207556  0.67890833  0.00009373
   0.66802552  0.67117869 -0.00055633
   0.65673378 -0.00560229 -0.00008008
   0.01661772  0.01237074  0.00018713
   0.32853114  0.66993532 -0.00029458
   0.32978591 -0.00014305  0.00010965
   1.01545627  0.33223663  0.00022344
   0.31949406  0.31984757  0.00008520
   0.65302413  0.32375161  0.00021149
   0.11162093  0.22272348  0.94464511
   0.22390051  0.11160067  0.05511630
   0.10621614  0.55725922  0.94819389
   0.22420026  0.44478704  0.05345543
   0.10787870  0.88268380  0.94720617
   0.21540026  0.77504365  0.05271704
   0.44285080  0.22195005  0.94639921
   0.55756801  0.10659160  0.05217156
   0.44867904  0.55633845  0.94991142
   0.55615321  0.44897837  0.05055780
   0.45004332  0.89199901  0.94814072
   0.56084062  0.78081095  0.05044195
   0.77604955  0.21677931  0.95004362
   0.88374894  0.10826836  0.05063092
   0.78058713  0.56006324  0.95133523
   0.89135503  0.44877784  0.04867469
   0.77409487  0.88738116  0.95091068
   0.88728306  0.77369470  0.04946850
unknown system                          
           1
     8.260430    4.782803    0.000000
    -8.251766    4.767828    0.000000
     0.000000    0.000000   30.000000
   V    Mo   W    S 
   3   3   3  18
Direct configuration=     8
   0.01094295  0.67689534  0.00009914
   0.66684137  0.67004659 -0.00036534
   0.65958032 -0.00437191 -0.00007813
   0.01556589  0.01148886  0.00019163
   0.32854834  0.66884880 -0.00031502
   0.32838503 -0.00067482  0.00005262
   1.01295974  0.33238321  0.00026746
   0.32002952  0.32129095  0.00002259
   0.65691067  0.32562002  0.00007294
   0.11130810  0.22278448  0.94492261
   0.22372818  0.11183331  0.05494496
   0.10626346  0.55748803  0.94816002
   0.22340986  0.44456164  0.05341653
   0.10756568  0.88227030  0.94737316
   0.21517812  0.77479543  0.05254828
   0.44347695  0.22227337  0.94673622
   0.55782957  0.10694233  0.05198109
   0.44911785  0.55673958  0.94953504
   0.55667535  0.44919014  0.05056768
   0.45031826  0.89221157  0.94826102
   0.56099109  0.78073224  0.05053678
   0.77586671  0.21647161  0.94953307
   0.88353997  0.10828124  0.05093489
   0.78066081  0.56051451  0.95105722
   0.89176910  0.44958308  0.04940786
   0.77382982  0.88682800  0.95066290
   0.88692175  0.77318657  0.04947268
unknown system                          
           1
     8.252499    4.778847    0.000000
    -8.243683    4.763605    0.000000
     0.000000    0.000000   30.000000
   V    Mo   W    S 
   3   3   3  18
Direct configuration=     9
   0.01041080  0.67518602  0.00013331
   0.66516729  0.66884891 -0.00022523
   0.66150036 -0.00352620 -0.00010194
   0.01559103  0.01202099  0.00019869
   0.32853950  0.66768806 -0.00034267
   0.32723135 -0.00068417  0.00011046
   1.01134021  0.33221599  0.00027166
   0.31979599  0.32217029  0.00005659
   0.66012304  0.32672117  0.00007436
   0.11104498  0.22283500  0.94480901
   0.22382533  0.11214611  0.05510350
   0.10613425  0.55738798  0.94794945
   0.22317516  0.44452051  0.05359281
   0.10732532  0.88231828  0.94725041
   0.21529308  0.77496617  0.05261931
   0.44357920  0.22250517  0.94688435
   0.55770039  0.10696416  0.05173952
   0.44881491  0.55662515  0.94924192
   0.55646998  0.44885951  0.05051961
   0.45011462  0.89226242  0.94843529
   0.56077837  0.78068924  0.05055663
   0.77607420  0.21625324  0.94914195
   0.88385875  0.10830026  0.05119329
   0.78083206  0.56086029  0.95084408
   0.89221363  0.44988117  0.04991999
   0.77414797  0.88661806  0.95060970
   0.88713267  0.77358068  0.04941383
unknown system                          
           1
     8.257333    4.782585    0.000000
    -8.247938    4.766342    0.000000
     0.000000    0.000000   30.000000
   V    Mo   W    S 
   3   3   3  18
Direct configuration=    10
   0.01179191  0.67688326  0.00010624
   0.66546632  0.66937540 -0.00036967
   0.65940969 -0.00446647 -0.00016321
   0.01743502  0.01350438  0.00017689
   0.32817649  0.66810917 -0.00031556
   0.32752636 -0.00025684  0.00008213
   1.01360964  0.33210696  0.00021172
   0.31854059  0.32062083  0.00007331
   0.65762608  0.32531891  0.00006649
   0.11139634  0.22294971  0.94453476
   0.22400681  0.11210519  0.05532084
   0.10610803  0.55711314  0.94798002
   0.22366204  0.44467299  0.05365921
   0.10760812  0.88277665  0.94720076
   0.21549846  0.77520233  0.05272300
   0.44318182  0.22240531  0.94677872
   0.55738994  0.10657275  0.05188012
   0.44819654  0.55611385  0.94951190
   0.55586077  0.44843744  0.05045857
   0.44967229  0.89208105  0.94843122
   0.56046038  0.78070910  0.05048312
   0.77636689  0.21647935  0.94953746
   0.88423907  0.10836799  0.05097487
   0.78079603  0.56046985  0.95114569
   0.89198907  0.44917164  0.04936231
   0.77463084  0.88711412  0.95089002
   0.88756890  0.77427638  0.04925896
unknown system                          
           1
     8.266513    4.791534    0.000000
    -8.254706    4.771114    0.000000
     0.000000    0.000000   30.000000
   V    Mo   W    S 
   3   3   3  18
Direct configuration=    11
   0.01216325  0.67734368  0.00010914
   0.66552395  0.66949770 -0.00040150
   0.65879178 -0.00474420 -0.00016718
   0.01785341  0.01382523  0.00017617
   0.32810297  0.66823763 -0.00030316
   0.32767871 -0.00013648  0.00010452
   1.01422247  0.33210193  0.00021009
   0.31832188  0.32029184  0.00009917
   0.65685658  0.32490545  0.00008681
   0.11146607  0.22295838  0.94441903
   0.22407202  0.11207799  0.05540378
   0.10608766  0.55706139  0.94796293
   0.22380432  0.44471862  0.05369792
   0.10766483  0.88287729  0.94715054
   0.21553184  0.77526585  0.05276739
   0.44306219  0.22236612  0.94670333
   0.55730848  0.10645981  0.05193397
   0.44805728  0.55599427  0.94955772
   0.55573011  0.44836416  0.05045993
   0.44956180  0.89204301  0.94839409
   0.56040686  0.78071855  0.05048749
   0.77643527  0.21651125  0.94961453
   0.88431566  0.10836695  0.05092635
   0.78080792  0.56040270  0.95120420
   0.89196160  0.44902400  0.04922509
   0.77475319  0.88724305  0.95094578
   0.88767234  0.77443827  0.04923179
unknown system                          
           1
     8.251623    4.773531    0.000000
    -8.248002    4.767274    0.000000
     0.000000    0.000000   30.000000
   V    Mo   W    S 
   3   3   3  18
Direct configuration=    12
   0.01384995  0.67951616  0.00011358
   0.66603492  0.67009306 -0.00056268
   0.65604140 -0.00597158 -0.00018458
   0.01954038  0.01499816  0.00016194
   0.32764136  0.66883072 -0.00026874
   0.32841685  0.00029275  0.00017554
   1.01705258  0.33218930  0.00019036
   0.31753115  0.31889174  0.00017154
   0.65312555  0.32310906  0.00016182
   0.11180842  0.22299763  0.94404642
   0.22431231  0.11192738  0.05568313
   0.10603353  0.55688970  0.94796005
   0.22443607  0.44491057  0.05380074
   0.10793614  0.88325649  0.94699761
   0.21562248  0.77548052  0.05291358
   0.44257167  0.22218276  0.94640991
   0.55699136  0.10607556  0.05217439
   0.44752083  0.55552918  0.94982452
   0.55523498  0.44810176  0.05046134
   0.44908366  0.89182052  0.94823495
   0.56018605  0.78070896  0.05048871
   0.77669008  0.21673933  0.95002020
   0.88465375  0.10840452  0.05066236
   0.78082808  0.56005765  0.95149947
   0.89176447  0.44838472  0.04855241
   0.77522329  0.88777385  0.95119958
   0.88808313  0.77502398  0.04911177
unknown system                          
           1
     8.247189    4.773266    0.000000
    -8.241532    4.763487    0.000000
     0.000000    0.000000   30.000000
   V    Mo   W    S 
   3   3   3  18
Direct configuration=    13
   0.00945980  0.67308712  0.00014765
   0.66391455  0.66780946 -0.00003670
   0.66404242 -0.00233303 -0.00013748
   0.01566193  0.01302157  0.00019274
   0.32815788  0.66625005 -0.00030696
   0.32583906 -0.00053445  0.00006170
   1.00985140  0.33180795  0.00032716
   0.31867974  0.32259595  0.00005210
   0.66431719  0.32827972 -0.00005464
   0.11090390  0.22300773  0.94480218
   0.22377000  0.11257634  0.05513786
   0.10623151  0.55729962  0.94786919
   0.22256415  0.44429438  0.05356540
   0.10711305  0.88241173  0.94736775
   0.21539883  0.77502528  0.05249044
   0.44400102  0.22299914  0.94726487
   0.55756135  0.10686335  0.05150948
   0.44845562  0.55636981  0.94902476
   0.55614639  0.44834361  0.05031209
   0.45002789  0.89238717  0.94866684
   0.56051436  0.78071724  0.05050958
   0.77620988  0.21598622  0.94868312
   0.88415367  0.10830469  0.05151534
   0.78083281  0.56113990  0.95067746
   0.89265988  0.45007437  0.05052187
   0.77445789  0.88639294  0.95055633
   0.88728829  0.77403658  0.04927977
unknown system                          
           1
     8.252750    4.780078    0.000000
    -8.244999    4.766673    0.000000
     0.000000    0.000000   30.000000
   V    Mo   W    S 
   3   3   3  18
Direct configuration=    14
   0.00845794  0.67118350  0.00013572
   0.66268503  0.66715820  0.00011417
   0.66628461 -0.00135470 -0.00018996
   0.01556052  0.01340404  0.00018863
   0.32838691  0.66538001 -0.00040203
   0.32440760 -0.00081782 -0.00001177
   1.00744348  0.33150500  0.00020821
   0.31807073  0.32318275 -0.00000107
   0.66879163  0.32973906 -0.00008717
   0.11063746  0.22315036  0.94481801
   0.22374445  0.11293651  0.05512869
   0.10616618  0.55712087  0.94784068
   0.22214887  0.44418991  0.05370985
   0.10675977  0.88229133  0.94748699
   0.21542477  0.77500171  0.05240072
   0.44438343  0.22343232  0.94763292
   0.55779107  0.10705813  0.05120810
   0.44843724  0.55637589  0.94884029
   0.55615638  0.44801273  0.05015724
   0.45008292  0.89251274  0.94898281
   0.56046015  0.78076688  0.05046729
   0.77629253  0.21575152  0.94835368
   0.88416518  0.10837220  0.05178430
   0.78087559  0.56135998  0.95051783
   0.89300024  0.45033112  0.05106345
   0.77437732  0.88607125  0.95049379
   0.88722244  0.77409896  0.04915852
unknown system                          
           1
     8.258968    4.790718    0.000000
    -8.247326    4.770575    0.000000
     0.000000    0.000000   30.000000
   V    Mo   W    S 
   3   3   3  18
Direct configuration=    15
   0.00943689  0.67204860  0.00013022
   0.66220274  0.66749221  0.00006320
   0.66526977 -0.00187875 -0.00019297
   0.01727898  0.01470479  0.00019609
   0.32827024  0.66537359 -0.00036846
   0.32358687 -0.00093641  0.00002483
   1.00823240  0.33147238  0.00018918
   0.31661655  0.32220577  0.00006627
   0.66911646  0.32927589 -0.00000412
   0.11077176  0.22328558  0.94448379
   0.22397054  0.11303117  0.05535125
   0.10607445  0.55690564  0.94779449
   0.22230138  0.44421864  0.05382506
   0.10665766  0.88244633  0.94740348
   0.21549617  0.77510513  0.05246004
   0.44433289  0.22365199  0.94769258
   0.55774934  0.10686308  0.05118556
   0.44803044  0.55597296  0.94894826
   0.55575205  0.44746778  0.05000159
   0.44973948  0.89245590  0.94905372
   0.56023484  0.78081132  0.05043494
   0.77653774  0.21573056  0.94845707
   0.88439304  0.10845018  0.05165703
   0.78096523  0.56112663  0.95071485
   0.89304240  0.44999517  0.05081683
   0.77468618  0.88638548  0.95068030
   0.88746796  0.77455285  0.04893480
unknown system                          
           1
     8.264985    4.795629    0.000000
    -8.251581    4.772444    0.000000
     0.000000    0.000000   30.000000
   V    Mo   W    S 
   3   3   3  18
Direct configuration=    16
   0.01141347  0.67391316  0.00004346
   0.66053462  0.66816180 -0.00000959
   0.66278112 -0.00325170 -0.00022822
   0.02085933  0.01746721  0.00010379
   0.32848197  0.66542123 -0.00034931
   0.32180095 -0.00098808  0.00007210
   1.00988334  0.33114135  0.00006701
   0.31317361  0.32024016  0.00016986
   0.67077740  0.32829558  0.00004035
   0.11097867  0.22354985  0.94391282
   0.22454190  0.11326816  0.05587401
   0.10609540  0.55658873  0.94775533
   0.22239341  0.44421868  0.05402033
   0.10655104  0.88290842  0.94721667
   0.21566717  0.77535920  0.05260367
   0.44427361  0.22407836  0.94806437
   0.55738244  0.10622230  0.05112621
   0.44711121  0.55505341  0.94917571
   0.55492012  0.44636786  0.04952149
   0.44887987  0.89242921  0.94922728
   0.55974555  0.78083514  0.05044094
   0.77693780  0.21536887  0.94860235
   0.88497165  0.10853063  0.05132058
   0.78109224  0.56071557  0.95119049
   0.89356491  0.44965743  0.05050469
   0.77545416  0.88704022  0.95114267
   0.88794750  0.77562171  0.04839084
unknown system                          
           1
     8.268651    4.800770    0.000000
    -8.252774    4.773307    0.000000
     0.000000    0.000000   30.000000
   V    Mo   W    S 
   3   3   3  18
Direct configuration=    17
   0.01191416  0.67456571  0.00004977
   0.66031697  0.66827455 -0.00001114
   0.66163274 -0.00388075 -0.00021900
   0.02110756  0.01731005  0.00010040
   0.32851872  0.66560373 -0.00033279
   0.32186518 -0.00107256  0.00014183
   1.01053581  0.33140043  0.00007348
   0.31306389  0.32024833  0.00024772
   0.67067167  0.32807905  0.00006425
   0.11099553  0.22349521  0.94382011
   0.22463335  0.11328870  0.05591812
   0.10617818  0.55668857  0.94777473
   0.22248705  0.44428788  0.05403221
   0.10665909  0.88296346  0.94713112
   0.21561973  0.77536365  0.05261324
   0.44420471  0.22407048  0.94807643
   0.55723363  0.10613883  0.05120569
   0.44700500  0.55492965  0.94918398
   0.55486029  0.44636170  0.04945826
   0.44868522  0.89238733  0.94912292
   0.55966559  0.78074976  0.05054068
   0.77693006  0.21520709  0.94860883
   0.88503139  0.10845010  0.05120989
   0.78110973  0.56072675  0.95126600
   0.89372591  0.44976707  0.05041556
   0.77557347  0.88711733  0.95118003
   0.88798981  0.77569236  0.04832757
unknown system                          
           1
     8.264450    4.796304    0.000000
    -8.250236    4.771717    0.000000
     0.000000    0.000000   30.000000
   V    Mo   W    S 
   3   3   3  18
Direct configuration=    18
   0.01292617  0.67575212  0.00000637
   0.65947839  0.66860699 -0.00004710
   0.65959055 -0.00501288 -0.00022200
   0.02250950  0.01801009  0.00004893
   0.32881831  0.66583851 -0.00031801
   0.32140109 -0.00118570  0.00019115
   1.01154668  0.33151389  0.00002274
   0.31179887  0.31969270  0.00030200
   0.67135036  0.32756129  0.00006082
   0.11110652  0.22352107  0.94363145
   0.22487259  0.11339070  0.05609955
   0.10628097  0.55669472  0.94778931
   0.22258048  0.44438713  0.05410716
   0.10679263  0.88317695  0.94701244
   0.21563906  0.77543992  0.05267410
   0.44416774  0.22423124  0.94826699
   0.55701948  0.10589730  0.05125385
   0.44662552  0.55455617  0.94926597
   0.55459309  0.44600979  0.04924181
   0.44824215  0.89233414  0.94908434
   0.55941014  0.78067507  0.05063872
   0.77702154  0.21489921  0.94868280
   0.88523308  0.10839220  0.05095747
   0.78115128  0.56061910  0.95150510
   0.89405965  0.44979951  0.05026027
   0.77585531  0.88736117  0.95138414
   0.88814330  0.77605206  0.04809950
unknown system                          
           1
     8.263294    4.793876    0.000000
    -8.250735    4.772150    0.000000
     0.000000    0.000000   30.000000
   V    Mo   W    S 
   3   3   3  18
Direct configuration=    19
   0.01236056  0.67517420  0.00002292
   0.66002061  0.66847429 -0.00004230
   0.66058462 -0.00445299 -0.00022652
   0.02173942  0.01762964  0.00007161
   0.32871020  0.66579032 -0.00033377
   0.32180927 -0.00106676  0.00015069
   1.01109933  0.33142457  0.00003707
   0.31251527  0.31995482  0.00024082
   0.67068068  0.32772817  0.00004640
   0.11108706  0.22350929  0.94377180
   0.22471900  0.11330625  0.05599476
   0.10624065  0.55670153  0.94779402
   0.22255977  0.44434662  0.05406103
   0.10676338  0.88307824  0.94708385
   0.21563202  0.77540033  0.05264811
   0.44415054  0.22410177  0.94815428
   0.55712404  0.10602178  0.05124382
   0.44683948  0.55476526  0.94924487
   0.55475261  0.44624569  0.04937457
   0.44849494  0.89236033  0.94909900
   0.55956225  0.78071285  0.05058371
   0.77695267  0.21509162  0.94868230
   0.88512619  0.10842559  0.05107566
   0.78110722  0.56066326  0.95138858
   0.89385366  0.44976382  0.05031576
   0.77568124  0.88721912  0.95128283
   0.88804777  0.77584485  0.04823403
unknown system                          
           1
     8.264038    4.795746    0.000000
    -8.250439    4.772219    0.000000
     0.000000    0.000000   30.000000
   V    Mo   W    S 
   3   3   3  18
Direct configuration=    20
   0.01182297  0.67461518  0.00004913
   0.66053352  0.66834351 -0.00003191
   0.66163262 -0.00390060 -0.00022954
   0.02110449  0.01739659  0.00010340
   0.32857545  0.66569877 -0.00033755
   0.32212779 -0.00091359  0.00012996
   1.01072873  0.33132262  0.00006087
   0.31312648  0.32012296  0.00021182
   0.66997944  0.32788993  0.00005611
   0.11105877  0.22351021  0.94385062
   0.22459323  0.11323478  0.05591739
   0.10618837  0.55668708  0.94778677
   0.22254673  0.44428183  0.05401849
   0.10669628  0.88298666  0.94713952
   0.21562897  0.77536880  0.05262225
   0.44410983  0.22397616  0.94801727
   0.55719931  0.10610807  0.05123448
   0.44704251  0.55493416  0.94922617
   0.55486317  0.44646435  0.04949601
   0.44872008  0.89239502  0.94911380
   0.55972677  0.78074629  0.05052424
   0.77691825  0.21529698  0.94866860
   0.88505316  0.10847141  0.05121145
   0.78106561  0.56070757  0.95127084
   0.89365640  0.44969296  0.05035614
   0.77555507  0.88708719  0.95118280
   0.88796046  0.77568957  0.04835078
unknown system                          
           1
     8.265004    4.796412    0.000000
    -8.251034    4.772247    0.000000
     0.000000    0.000000   30.000000
   V    Mo   W    S 
   3   3   3  18
Direct configuration=    21
   0.01228117  0.67529206  0.00003579
   0.66040375  0.66858981 -0.00006443
   0.66055288 -0.00444776 -0.00023534
   0.02166780  0.01771855  0.00008014
   0.32874859  0.66597351 -0.00032412
   0.32226104 -0.00075434  0.00016045
   1.01142454  0.33131088  0.00004909
   0.31272763  0.31972691  0.00026371
   0.66944172  0.32731061  0.00007595
   0.11112517  0.22350162  0.94373987
   0.22469562  0.11324842  0.05599828
   0.10622970  0.55667539  0.94780953
   0.22266408  0.44433125  0.05403161
   0.10680029  0.88313501  0.94709813
   0.21566577  0.77540533  0.05264360
   0.44399534  0.22395563  0.94800808
   0.55709247  0.10594834  0.05128120
   0.44687295  0.55475454  0.94928098
   0.55471883  0.44636550  0.04943862
   0.44856407  0.89237377  0.94908543
   0.55966627  0.78075312  0.05056078
   0.77694006  0.21521959  0.94876288
   0.88513732  0.10846001  0.05109561
   0.78105051  0.56061232  0.95137357
   0.89371318  0.44960073  0.05019591
   0.77571457  0.88725862  0.95127185
   0.88805913  0.77589506  0.04828271
unknown system                          
           1
     8.263694    4.795199    0.000000
    -8.250260    4.771960    0.000000
     0.000000    0.000000   30.000000
   V    Mo   W    S 
   3   3   3  18
Direct configuration=    22
   0.01204139  0.67482864  0.00003326
   0.65999368  0.66839442 -0.00000602
   0.66109233 -0.00429199 -0.00022349
   0.02154235  0.01759495  0.00008362
   0.32880003  0.66570117 -0.00032680
   0.32169772 -0.00110608  0.00015791
   1.01080078  0.33135900  0.00005259
   0.31262669  0.32009424  0.00027010
   0.67100077  0.32804589  0.00006626
   0.11100882  0.22349076  0.94378798
   0.22469416  0.11333211  0.05594268
   0.10622602  0.55668714  0.94777677
   0.22250288  0.44429367  0.05404331
   0.10668998  0.88302115  0.94709722
   0.21565762  0.77538580  0.05263404
   0.44417573  0.22408730  0.94815139
   0.55716600  0.10609868  0.05118724
   0.44696255  0.55485664  0.94921474
   0.55480856  0.44633390  0.04937974
   0.44857089  0.89237408  0.94912995
   0.55963412  0.78068297  0.05054571
   0.77696507  0.21514909  0.94863895
   0.88509394  0.10843684  0.05114153
   0.78109020  0.56074153  0.95131864
   0.89384215  0.44978230  0.05039625
   0.77559344  0.88708289  0.95124663
   0.88793659  0.77575736  0.04825969
unknown system                          
           1
     8.270580    4.801343    0.000000
    -8.254970    4.774342    0.000000
     0.000000    0.000000   30.000000
   V    Mo   W    S 
   3   3   3  18
Direct configuration=    23
   0.01203097  0.67490666  0.00004227
   0.66032180  0.66844505 -0.00002817
   0.66110929 -0.00421129 -0.00022384
   0.02142384  0.01758685  0.00009319
   0.32870984  0.66576874 -0.00031845
   0.32208381 -0.00088044  0.00016142
   1.01100532  0.33133244  0.00006167
   0.31285617  0.31998750  0.00027310
   0.67003968  0.32770814  0.00007839
   0.11104812  0.22349091  0.94378572
   0.22466575  0.11327836  0.05594130
   0.10620462  0.55667443  0.94778078
   0.22257893  0.44429330  0.05402084
   0.10672676  0.88305161  0.94710511
   0.21566361  0.77539298  0.05263607
   0.44408952  0.22399547  0.94803734
   0.55714852  0.10605425  0.05123644
   0.44697476  0.55486535  0.94924211
   0.55480393  0.44640827  0.04943761
   0.44862217  0.89237419  0.94910647
   0.55968476  0.78072001  0.05052790
   0.77694424  0.21522962  0.94868869
   0.88509928  0.10846181  0.05115127
   0.78106231  0.56069145  0.95131672
   0.89372129  0.44967659  0.05030976
   0.77561979  0.88713598  0.95123490
   0.88797540  0.77577620  0.04830128
unknown system                          
           1
     8.270845    4.801894    0.000000
    -8.254803    4.774145    0.000000
     0.000000    0.000000   30.000000
   V    Mo   W    S 
   3   3   3  18
Direct configuration=    24
   0.01304129  0.67617669  0.00000442
   0.65973423  0.66877693 -0.00009171
   0.65890450 -0.00536475 -0.00022761
   0.02252220  0.01789381  0.00003904
   0.32898045  0.66614359 -0.00031358
   0.32191593 -0.00098124  0.00019738
   1.01203486  0.33155099  0.00001936
   0.31200783  0.31957362  0.00030070
   0.67022099  0.32707148  0.00006280
   0.11117930  0.22348651  0.94362396
   0.22486870  0.11333169  0.05611172
   0.10630192  0.55673194  0.94781928
   0.22271012  0.44444556  0.05410374
   0.10693023  0.88324183  0.94700425
   0.21563091  0.77543389  0.05268441
   0.44402870  0.22411365  0.94816665
   0.55696910  0.10583115  0.05133449
   0.44663848  0.55453907  0.94930228
   0.55458958  0.44613432  0.04929330
   0.44823765  0.89231455  0.94901554