<?xml version="1.0" encoding="ISO-8859-1"?>
<modeling>
 <generator>
  <i name="program" type="string">vasp </i>
  <i name="version" type="string">5.4.1  </i>
  <i name="subversion" type="string">05Feb16 (build Jul 05 2020 17:13:04) complex                          parallel </i>
  <i name="platform" type="string">IFC91_ompi </i>
  <i name="date" type="string">2024 07 23 </i>
  <i name="time" type="string">15:59:01 </i>
 </generator>
 <incar>
  <i type="int" name="ISTART">     0</i>
  <i type="string" name="PREC">normal</i>
  <i type="string" name="ALGO"> Normal</i>
  <i type="int" name="ISPIN">     1</i>
  <i type="int" name="ICHARG">     2</i>
  <i type="int" name="IBRION">     1</i>
  <i type="int" name="NSW">   100</i>
  <i type="int" name="ISIF">     3</i>
  <i type="int" name="ISYM">     0</i>
  <i name="SYMPREC">      0.00000001</i>
  <i name="POTIM">      0.50000000</i>
  <i type="logical" name="LREAL"> F  </i>
  <i type="logical" name="LPLANE"> F  </i>
  <i type="int" name="ISMEAR">     0</i>
  <i type="logical" name="LWAVE"> F  </i>
  <i type="logical" name="LCHARG"> F  </i>
  <v type="int" name="KPOINT_BSE">    -1     0     0     0</v>
 </incar>
 <kpoints>
  <generation param="Gamma">
   <v type="int" name="divisions">       8        8        1 </v>
   <v name="usershift">      0.00000000       0.00000000       0.00000000 </v>
   <v name="genvec1">      0.12500000       0.00000000       0.00000000 </v>
   <v name="genvec2">     -0.00000000       0.12500000       0.00000000 </v>
   <v name="genvec3">      0.00000000       0.00000000       1.00000000 </v>
   <v name="shift">      0.00000000       0.00000000       0.00000000 </v>
  </generation>
  <varray name="kpointlist" >
   <v>       0.00000000       0.00000000       0.00000000 </v>
   <v>       0.12500000       0.00000000       0.00000000 </v>
   <v>       0.25000000       0.00000000       0.00000000 </v>
   <v>       0.37500000       0.00000000       0.00000000 </v>
   <v>       0.50000000       0.00000000       0.00000000 </v>
   <v>       0.00000000       0.12500000       0.00000000 </v>
   <v>       0.12500000       0.12500000       0.00000000 </v>
   <v>       0.25000000       0.12500000       0.00000000 </v>
   <v>       0.37500000       0.12500000       0.00000000 </v>
   <v>       0.50000000       0.12500000       0.00000000 </v>
   <v>      -0.37500000       0.12500000       0.00000000 </v>
   <v>      -0.25000000       0.12500000       0.00000000 </v>
   <v>      -0.12500000       0.12500000       0.00000000 </v>
   <v>       0.00000000       0.25000000       0.00000000 </v>
   <v>       0.12500000       0.25000000       0.00000000 </v>
   <v>       0.25000000       0.25000000       0.00000000 </v>
   <v>       0.37500000       0.25000000       0.00000000 </v>
   <v>       0.50000000       0.25000000       0.00000000 </v>
   <v>      -0.37500000       0.25000000       0.00000000 </v>
   <v>      -0.25000000       0.25000000       0.00000000 </v>
   <v>      -0.12500000       0.25000000       0.00000000 </v>
   <v>      -0.00000000       0.37500000       0.00000000 </v>
   <v>       0.12500000       0.37500000       0.00000000 </v>
   <v>       0.25000000       0.37500000       0.00000000 </v>
   <v>       0.37500000       0.37500000       0.00000000 </v>
   <v>       0.50000000       0.37500000       0.00000000 </v>
   <v>      -0.37500000       0.37500000       0.00000000 </v>
   <v>      -0.25000000       0.37500000       0.00000000 </v>
   <v>      -0.12500000       0.37500000       0.00000000 </v>
   <v>       0.00000000       0.50000000       0.00000000 </v>
   <v>       0.12500000       0.50000000       0.00000000 </v>
   <v>       0.25000000       0.50000000       0.00000000 </v>
   <v>       0.37500000       0.50000000       0.00000000 </v>
   <v>       0.50000000       0.50000000       0.00000000 </v>
  </varray>
  <varray name="weights" >
   <v>       0.01562500 </v>
   <v>       0.03125000 </v>
   <v>       0.03125000 </v>
   <v>       0.03125000 </v>
   <v>       0.01562500 </v>
   <v>       0.03125000 </v>
   <v>       0.03125000 </v>
   <v>       0.03125000 </v>
   <v>       0.03125000 </v>
   <v>       0.03125000 </v>
   <v>       0.03125000 </v>
   <v>       0.03125000 </v>
   <v>       0.03125000 </v>
   <v>       0.03125000 </v>
   <v>       0.03125000 </v>
   <v>       0.03125000 </v>
   <v>       0.03125000 </v>
   <v>       0.03125000 </v>
   <v>       0.03125000 </v>
   <v>       0.03125000 </v>
   <v>       0.03125000 </v>
   <v>       0.03125000 </v>
   <v>       0.03125000 </v>
   <v>       0.03125000 </v>
   <v>       0.03125000 </v>
   <v>       0.03125000 </v>
   <v>       0.03125000 </v>
   <v>       0.03125000 </v>
   <v>       0.03125000 </v>
   <v>       0.01562500 </v>
   <v>       0.03125000 </v>
   <v>       0.03125000 </v>
   <v>       0.03125000 </v>
   <v>       0.01562500 </v>
  </varray>
 </kpoints>
 <parameters>
  <separator name="general" >
   <i type="string" name="SYSTEM">unknown system</i>
   <i type="logical" name="LCOMPAT"> F  </i>
  </separator>
  <separator name="electronic" >
   <i type="string" name="PREC">normal</i>
   <i name="ENMAX">    280.00000000</i>
   <i name="ENAUG">    373.43800000</i>
   <i name="EDIFF">      0.00010000</i>
   <i type="int" name="IALGO">    38</i>
   <i type="int" name="IWAVPR">    11</i>
   <i type="int" name="NBANDS">   120</i>
   <i name="NELECT">    159.00000000</i>
   <i type="int" name="TURBO">     0</i>
   <i type="int" name="IRESTART">     0</i>
   <i type="int" name="NREBOOT">     0</i>
   <i type="int" name="NMIN">     0</i>
   <i name="EREF">      0.00000000</i>
   <separator name="electronic smearing" >
    <i type="int" name="ISMEAR">     0</i>
    <i name="SIGMA">      0.20000000</i>
    <i name="KSPACING">      0.50000000</i>
    <i type="logical" name="KGAMMA"> T  </i>
   </separator>
   <separator name="electronic projectors" >
    <i type="logical" name="LREAL"> F  </i>
    <v name="ROPT">      0.00000000      0.00000000      0.00000000      0.00000000</v>
    <i type="int" name="LMAXPAW">  -100</i>
    <i type="int" name="LMAXMIX">     2</i>
    <i type="logical" name="NLSPLINE"> F  </i>
   </separator>
   <separator name="electronic startup" >
    <i type="int" name="ISTART">     0</i>
    <i type="int" name="ICHARG">     2</i>
    <i type="int" name="INIWAV">     1</i>
   </separator>
   <separator name="electronic spin" >
    <i type="int" name="ISPIN">     1</i>
    <i type="logical" name="LNONCOLLINEAR"> F  </i>
    <v name="MAGMOM">      1.00000000      1.00000000      1.00000000      1.00000000      1.00000000      1.00000000      1.00000000      1.00000000      1.00000000      1.00000000      1.00000000      1.00000000      1.00000000      1.00000000      1.00000000      1.00000000      1.00000000      1.00000000      1.00000000      1.00000000
      1.00000000      1.00000000      1.00000000      1.00000000      1.00000000      1.00000000      1.00000000</v>
    <i name="NUPDOWN">     -1.00000000</i>
    <i type="logical" name="LSORBIT"> F  </i>
    <v name="SAXIS">      0.00000000      0.00000000      1.00000000</v>
    <i type="logical" name="LSPIRAL"> F  </i>
    <v name="QSPIRAL">      0.00000000      0.00000000      0.00000000</v>
    <i type="logical" name="LZEROZ"> F  </i>
   </separator>
   <separator name="electronic exchange-correlation" >
    <i type="logical" name="LASPH"> F  </i>
    <i type="logical" name="LMETAGGA"> F  </i>
   </separator>
   <separator name="electronic convergence" >
    <i type="int" name="NELM">    60</i>
    <i type="int" name="NELMDL">    -5</i>
    <i type="int" name="NELMIN">     2</i>
    <i name="ENINI">    280.00000000</i>
    <separator name="electronic convergence detail" >
     <i type="logical" name="LDIAG"> T  </i>
     <i type="logical" name="LSUBROT"> F  </i>
     <i name="WEIMIN">      0.00100000</i>
     <i name="EBREAK">      0.00000021</i>
     <i name="DEPER">      0.30000000</i>
     <i type="int" name="NRMM">     4</i>
     <i name="TIME">      0.40000000</i>
    </separator>
   </separator>
   <separator name="electronic mixer" >
    <i name="AMIX">      0.40000000</i>
    <i name="BMIX">      1.00000000</i>
    <i name="AMIN">      0.10000000</i>
    <i name="AMIX_MAG">      1.60000000</i>
    <i name="BMIX_MAG">      1.00000000</i>
    <separator name="electronic mixer details" >
     <i type="int" name="IMIX">     4</i>
     <i type="logical" name="MIXFIRST"> F  </i>
     <i type="int" name="MAXMIX">   -45</i>
     <i name="WC">    100.00000000</i>
     <i type="int" name="INIMIX">     1</i>
     <i type="int" name="MIXPRE">     1</i>
     <i type="int" name="MREMOVE">     5</i>
    </separator>
   </separator>
   <separator name="electronic dipolcorrection" >
    <i type="logical" name="LDIPOL"> F  </i>
    <i type="logical" name="LMONO"> F  </i>
    <i type="int" name="IDIPOL">     0</i>
    <i name="EPSILON">      1.00000000</i>
    <v name="DIPOL">   -100.00000000   -100.00000000   -100.00000000</v>
    <i name="EFIELD">      0.00000000</i>
   </separator>
  </separator>
  <separator name="grids" >
   <i type="int" name="NGX">    42</i>
   <i type="int" name="NGY">    42</i>
   <i type="int" name="NGZ">   126</i>
   <i type="int" name="NGXF">    84</i>
   <i type="int" name="NGYF">    84</i>
   <i type="int" name="NGZF">   252</i>
   <i type="logical" name="ADDGRID"> F  </i>
  </separator>
  <separator name="ionic" >
   <i type="int" name="NSW">   100</i>
   <i type="int" name="IBRION">     1</i>
   <i type="int" name="ISIF">     3</i>
   <i name="PSTRESS">      0.00000000</i>
   <i name="EDIFFG">      0.00100000</i>
   <i type="int" name="NFREE">     0</i>
   <i name="POTIM">      0.50000000</i>
   <i name="SMASS">     -3.00000000</i>
   <i name="SCALEE">      1.00000000</i>
  </separator>
  <separator name="ionic md" >
   <i name="TEBEG">      0.00010000</i>
   <i name="TEEND">      0.00010000</i>
   <i type="int" name="NBLOCK">     1</i>
   <i type="int" name="KBLOCK">   100</i>
   <i type="int" name="NPACO">   256</i>
   <i name="APACO">     16.00000000</i>
  </separator>
  <separator name="symmetry" >
   <i type="int" name="ISYM">     0</i>
   <i name="SYMPREC">      0.00000001</i>
  </separator>
  <separator name="dos" >
   <i type="logical" name="LORBIT"> F  </i>
   <v name="RWIGS">     -1.00000000     -1.00000000     -1.00000000     -1.00000000</v>
   <i type="int" name="NEDOS">   301</i>
   <i name="EMIN">     10.00000000</i>
   <i name="EMAX">    -10.00000000</i>
   <i name="EFERMI">      0.00000000</i>
  </separator>
  <separator name="writing" >
   <i type="int" name="NWRITE">     2</i>
   <i type="logical" name="LWAVE"> F  </i>
   <i type="logical" name="LCHARG"> F  </i>
   <i type="logical" name="LPARD"> F  </i>
   <i type="logical" name="LVTOT"> F  </i>
   <i type="logical" name="LVHAR"> F  </i>
   <i type="logical" name="LELF"> F  </i>
   <i type="logical" name="LOPTICS"> F  </i>
   <v name="STM">      0.00000000      0.00000000      0.00000000      0.00000000      0.00000000      0.00000000      0.00000000</v>
  </separator>
  <separator name="performance" >
   <i type="int" name="NPAR">    40</i>
   <i type="int" name="NSIM">     4</i>
   <i type="int" name="NBLK">    -1</i>
   <i type="logical" name="LPLANE"> F  </i>
   <i type="logical" name="LSCALAPACK"> T  </i>
   <i type="logical" name="LSCAAWARE"> F  </i>
   <i type="logical" name="LSCALU"> F  </i>
   <i type="logical" name="LASYNC"> F  </i>
   <i type="logical" name="LORBITALREAL"> F  </i>
  </separator>
  <separator name="miscellaneous" >
   <i type="int" name="IDIOT">     3</i>
   <i type="logical" name="LMUSIC"> F  </i>
   <v name="POMASS">     50.94100000     95.94000000    183.85000000     32.06600000</v>
   <v name="DARWINR">      0.00000000      0.00000000      0.00000000      0.00000000</v>
   <v name="DARWINV">      1.00000000      1.00000000      1.00000000      1.00000000</v>
   <i type="logical" name="LCORR"> T  </i>
  </separator>
  <i type="logical" name="GGA_COMPAT"> T  </i>
  <i type="logical" name="LBERRY"> F  </i>
  <i type="int" name="ICORELEVEL">     0</i>
  <i type="logical" name="LDAU"> F  </i>
  <i type="int" name="I_CONSTRAINED_M">     0</i>
  <separator name="electronic exchange-correlation" >
   <i type="string" name="GGA">--</i>
   <i type="int" name="VOSKOWN">     0</i>
   <i type="logical" name="LHFCALC"> F  </i>
   <i type="string" name="PRECFOCK"></i>
   <i type="logical" name="LSYMGRAD"> F  </i>
   <i type="logical" name="LHFONE"> F  </i>
   <i type="logical" name="LRHFCALC"> F  </i>
   <i type="logical" name="LTHOMAS"> F  </i>
   <i type="logical" name="LMODELHF"> F  </i>
   <i name="ENCUT4O">     -1.00000000</i>
   <i type="int" name="EXXOEP">     0</i>
   <i type="int" name="FOURORBIT">     0</i>
   <i name="AEXX">      0.00000000</i>
   <i name="HFALPHA">      0.00000000</i>
   <i name="MCALPHA">      0.00000000</i>
   <i name="ALDAX">      1.00000000</i>
   <i name="AGGAX">      1.00000000</i>
   <i name="ALDAC">      1.00000000</i>
   <i name="AGGAC">      1.00000000</i>
   <i type="int" name="NKREDX">     1</i>
   <i type="int" name="NKREDY">     1</i>
   <i type="int" name="NKREDZ">     1</i>
   <i type="logical" name="SHIFTRED"> F  </i>
   <i type="logical" name="ODDONLY"> F  </i>
   <i type="logical" name="EVENONLY"> F  </i>
   <i type="int" name="LMAXFOCK">     0</i>
   <i type="int" name="NMAXFOCKAE">     0</i>
   <i type="logical" name="LFOCKAEDFT"> F  </i>
   <i name="HFSCREEN">      0.00000000</i>
   <i name="HFSCREENC">      0.00000000</i>
   <i type="int" name="NBANDSGWLOW">     0</i>
  </separator>
  <separator name="vdW DFT" >
   <i type="logical" name="LUSE_VDW"> F  </i>
   <i name="Zab_VDW">     -0.84910000</i>
   <i name="PARAM1">      0.12340000</i>
   <i name="PARAM2">      1.00000000</i>
   <i name="PARAM3">      0.00000000</i>
  </separator>
  <separator name="model GW" >
   <i type="int" name="MODEL_GW">     0</i>
   <i name="MODEL_EPS0">     58.26239943</i>
   <i name="MODEL_ALPHA">      1.00000000</i>
  </separator>
  <separator name="linear response parameters" >
   <i type="logical" name="LEPSILON"> F  </i>
   <i type="logical" name="LRPA"> F  </i>
   <i type="logical" name="LNABLA"> F  </i>
   <i type="logical" name="LVEL"> F  </i>
   <i type="int" name="KINTER">     0</i>
   <i name="CSHIFT">      0.10000000</i>
   <i name="OMEGAMAX">     -1.00000000</i>
   <i name="DEG_THRESHOLD">      0.00200000</i>
  </separator>
  <separator name="orbital magnetization" >
   <i type="logical" name="NUCIND"> F  </i>
   <v name="MAGPOS">      0.00000000      0.00000000      0.00000000</v>
   <i type="logical" name="LNICSALL"> T  </i>
   <i type="logical" name="ORBITALMAG"> F  </i>
   <i type="logical" name="LMAGBLOCH"> F  </i>
   <i type="logical" name="LCHIMAG"> F  </i>
   <i type="logical" name="LGAUGE"> T  </i>
   <i type="int" name="MAGATOM">     0</i>
   <v name="MAGDIPOL">      0.00000000      0.00000000      0.00000000</v>
   <v name="AVECCONST">      0.00000000      0.00000000      0.00000000</v>
  </separator>
  <separator name="response functions" >
   <i type="logical" name="LADDER"> F  </i>
   <i type="logical" name="LFXC"> F  </i>
   <i type="logical" name="LHARTREE"> T  </i>
   <i type="int" name="IBSE">     0</i>
   <v type="int" name="KPOINT">    -1     0     0     0</v>
   <i type="logical" name="LTCTE"> F  </i>
   <i type="logical" name="LTETE"> F  </i>
   <i type="logical" name="LTRIPLET"> F  </i>
   <i type="logical" name="LFXCEPS"> F  </i>
   <i type="logical" name="LFXHEG"> F  </i>
   <i type="int" name="NATURALO">     0</i>
   <i type="logical" name="L2ORDER"> F  </i>
   <i type="logical" name="LUSEW"> F  </i>
   <i name="ENCUTGW">     -2.00000000</i>
   <i name="ENCUTGWSOFT">     -2.00000000</i>
   <i name="ENCUTLF">     -1.00000000</i>
   <i type="int" name="LMAXMP2">    -1</i>
   <i name="SCISSOR">      0.00000000</i>
   <i type="int" name="NOMEGA">     0</i>
   <i type="int" name="NOMEGAR">     0</i>
   <i type="int" name="NBANDSGW">    -1</i>
   <i type="int" name="NBANDSO">    -1</i>
   <i type="int" name="NBANDSV">    -1</i>
   <i type="int" name="NELM">     1</i>
   <i type="int" name="NELMHF">     1</i>
   <i type="int" name="DIM">     3</i>
   <i type="int" name="ANTIRES">     0</i>
   <i name="OMEGAMAX">    -30.00000000</i>
   <i name="OMEGAMIN">    -30.00000000</i>
   <i name="OMEGATL">   -200.00000000</i>
   <i type="int" name="OMEGAGRID">     0</i>
   <i name="CSHIFT">     -0.10000000</i>
   <i type="logical" name="SELFENERGY"> F  </i>
   <i type="logical" name="LSPECTRAL"> F  </i>
   <i type="logical" name="LSPECTRALGW"> F  </i>
   <i type="logical" name="LSINGLES"> F  </i>
   <i type="logical" name="LFERMIGW"> F  </i>
   <i type="logical" name="ODDONLYGW"> F  </i>
   <i type="logical" name="EVENONLYGW"> F  </i>
   <i type="int" name="NKREDLFX">     1</i>
   <i type="int" name="NKREDLFY">     1</i>
   <i type="int" name="NKREDLFZ">     1</i>
   <i type="int" name="MAXMEM">  1800</i>
   <i type="int" name="TELESCOPE">     0</i>
   <i type="int" name="TAUPAR">     1</i>
   <i type="int" name="OMEGAPAR">    -1</i>
   <i name="LAMBDA">      1.00000000</i>
  </separator>
  <separator name="External order field" >
   <i name="OFIELD_KAPPA">      0.00000000</i>
   <v name="OFIELD_K">      0.00000000      0.00000000      0.00000000</v>
   <i name="OFIELD_Q6_NEAR">      0.00000000</i>
   <i name="OFIELD_Q6_FAR">      0.00000000</i>
   <i name="OFIELD_A">      0.00000000</i>
  </separator>
 </parameters>
 <atominfo>
  <atoms>      27 </atoms>
  <types>       4 </types>
  <array name="atoms" >
   <dimension dim="1">ion</dimension>
   <field type="string">element</field>
   <field type="int">atomtype</field>
   <set>
    <rc><c>V </c><c>   1</c></rc>
    <rc><c>V </c><c>   1</c></rc>
    <rc><c>V </c><c>   1</c></rc>
    <rc><c>Mo</c><c>   2</c></rc>
    <rc><c>Mo</c><c>   2</c></rc>
    <rc><c>Mo</c><c>   2</c></rc>
    <rc><c>W </c><c>   3</c></rc>
    <rc><c>W </c><c>   3</c></rc>
    <rc><c>W </c><c>   3</c></rc>
    <rc><c>S </c><c>   4</c></rc>
    <rc><c>S </c><c>   4</c></rc>
    <rc><c>S </c><c>   4</c></rc>
    <rc><c>S </c><c>   4</c></rc>
    <rc><c>S </c><c>   4</c></rc>
    <rc><c>S </c><c>   4</c></rc>
    <rc><c>S </c><c>   4</c></rc>
    <rc><c>S </c><c>   4</c></rc>
    <rc><c>S </c><c>   4</c></rc>
    <rc><c>S </c><c>   4</c></rc>
    <rc><c>S </c><c>   4</c></rc>
    <rc><c>S </c><c>   4</c></rc>
    <rc><c>S </c><c>   4</c></rc>
    <rc><c>S </c><c>   4</c></rc>
    <rc><c>S </c><c>   4</c></rc>
    <rc><c>S </c><c>   4</c></rc>
    <rc><c>S </c><c>   4</c></rc>
    <rc><c>S </c><c>   4</c></rc>
   </set>
  </array>
  <array name="atomtypes" >
   <dimension dim="1">type</dimension>
   <field type="int">atomspertype</field>
   <field type="string">element</field>
   <field>mass</field>
   <field>valence</field>
   <field type="string">pseudopotential</field>
   <set>
    <rc><c>   3</c><c>V </c><c>     50.94100000</c><c>      5.00000000</c><c> PAW_PBE V 08Apr2002                    </c></rc>
    <rc><c>   3</c><c>Mo</c><c>     95.94000000</c><c>      6.00000000</c><c> PAW_PBE Mo 08Apr2002                   </c></rc>
    <rc><c>   3</c><c>W </c><c>    183.85000000</c><c>      6.00000000</c><c> PAW_PBE W 08Apr2002                    </c></rc>
    <rc><c>  18</c><c>S </c><c>     32.06600000</c><c>      6.00000000</c><c>  PAW_PBE S 17Jan2003                   </c></rc>
   </set>
  </array>
 </atominfo>
 <structure name="initialpos" >
  <crystal>
   <varray name="basis" >
    <v>       8.66999996       5.03999989       0.00000000 </v>
    <v>      -8.66999982       5.04000013       0.00000000 </v>
    <v>       0.00000000       0.00000000      30.00000000 </v>
   </varray>
   <i name="volume">   2621.80797419 </i>
   <varray name="rec_basis" >
    <v>       0.05767013       0.09920635       0.00000000 </v>
    <v>      -0.05767013       0.09920635       0.00000000 </v>
    <v>       0.00000000       0.00000000       0.03333333 </v>
   </varray>
  </crystal>
  <varray name="positions" >
   <v>       1.00000000       0.33333334       0.00000000 </v>
   <v>       0.33333334       0.33333334       0.00000000 </v>
   <v>       0.33333334       0.66666669       0.00000000 </v>
   <v>       0.66666669       0.66666669       0.00000000 </v>
   <v>       0.33333334       0.00000000       0.00000000 </v>
   <v>       0.66666669       0.00000000       0.00000000 </v>
   <v>       0.00000000       0.00000000       0.00000000 </v>
   <v>       0.00000000       0.66666669       0.00000000 </v>
   <v>       0.66666669       0.33333334       0.00000000 </v>
   <v>       0.11068511       0.22244981       0.95539999 </v>
   <v>       0.22244981       0.11068511       0.04460000 </v>
   <v>       0.11068511       0.55578315       0.95539999 </v>
   <v>       0.22244981       0.44401845       0.04460000 </v>
   <v>       0.11068511       0.88911647       0.95539999 </v>
   <v>       0.22244981       0.77735180       0.04460000 </v>
   <v>       0.44401845       0.22244981       0.95539999 </v>
   <v>       0.55578315       0.11068511       0.04460000 </v>
   <v>       0.44401845       0.55578315       0.95539999 </v>
   <v>       0.55578315       0.44401845       0.04460000 </v>
   <v>       0.44401845       0.88911647       0.95539999 </v>
   <v>       0.55578315       0.77735180       0.04460000 </v>
   <v>       0.77735180       0.22244981       0.95539999 </v>
   <v>       0.88911647       0.11068511       0.04460000 </v>
   <v>       0.77735180       0.55578315       0.95539999 </v>
   <v>       0.88911647       0.44401845       0.04460000 </v>
   <v>       0.77735180       0.88911647       0.95539999 </v>
   <v>       0.88911647       0.77735180       0.04460000 </v>
  </varray>
 </structure>
 <calculation>
  <scstep>
   <time name="dav">   21.91   21.97</time>
   <time name="total">   21.96   22.02</time>
   <energy>
    <i name="alphaZ">     81.65567618 </i>
    <i name="ewald">  41891.17179523 </i>
    <i name="hartreedc"> -47723.81660351 </i>
    <i name="XCdc">   -242.92514238 </i>
    <i name="pawpsdc">   3467.42045192 </i>
    <i name="pawaedc">  -2871.19716117 </i>
    <i name="eentropy">     -0.52698661 </i>
    <i name="bandstr">   -239.53881001 </i>
    <i name="atom">   6761.44252427 </i>
    <i name="e_fr_energy">   1123.68574391 </i>
    <i name="e_wo_entrp">   1124.21273052 </i>
    <i name="e_0_energy">   1123.94923721 </i>
   </energy>
  </scstep>
  <scstep>
   <time name="dav">   28.77   28.84</time>
   <time name="total">   28.78   28.85</time>
   <energy>
    <i name="e_fr_energy">     -4.88427536 </i>
    <i name="e_wo_entrp">     -4.67666213 </i>
    <i name="e_0_energy">     -4.78046874 </i>
   </energy>
  </scstep>
  <scstep>
   <time name="dav">   27.73   27.79</time>
   <time name="total">   27.73   27.80</time>
   <energy>
    <i name="e_fr_energy">   -200.04751236 </i>
    <i name="e_wo_entrp">   -199.79433598 </i>
    <i name="e_0_energy">   -199.92092417 </i>
   </energy>
  </scstep>
  <scstep>
   <time name="dav">   30.17   30.24</time>
   <time name="total">   30.17   30.25</time>
   <energy>
    <i name="e_fr_energy">   -209.00908683 </i>
    <i name="e_wo_entrp">   -208.72414854 </i>
    <i name="e_0_energy">   -208.86661768 </i>
   </energy>
  </scstep>
  <scstep>
   <time name="dav">   28.58   28.65</time>
   <time name="total">   29.04   29.12</time>
   <energy>
    <i name="e_fr_energy">   -209.32132232 </i>
    <i name="e_wo_entrp">   -209.03903892 </i>
    <i name="e_0_energy">   -209.18018062 </i>
   </energy>
  </scstep>
  <scstep>
   <time name="dav">   30.66   30.73</time>
   <time name="total">   31.16   31.24</time>
   <energy>
    <i name="e_fr_energy">   -237.93738972 </i>
    <i name="e_wo_entrp">   -237.67845510 </i>
    <i name="e_0_energy">   -237.80792241 </i>
   </energy>
  </scstep>
  <scstep>
   <time name="dav">   32.92   33.00</time>
   <time name="total">   33.43   33.52</time>
   <energy>
    <i name="e_fr_energy">   -196.56671854 </i>
    <i name="e_wo_entrp">   -196.22546067 </i>
    <i name="e_0_energy">   -196.39608961 </i>
   </energy>
  </scstep>
  <scstep>
   <time name="dav">   29.76   29.84</time>
   <time name="total">   30.28   30.36</time>
   <energy>
    <i name="e_fr_energy">   -189.48426630 </i>
    <i name="e_wo_entrp">   -189.17278898 </i>
    <i name="e_0_energy">   -189.32852764 </i>
   </energy>
  </scstep>
  <scstep>
   <time name="dav">   32.85   32.93</time>
   <time name="total">   33.37   33.46</time>
   <energy>
    <i name="e_fr_energy">   -188.16203990 </i>
    <i name="e_wo_entrp">   -187.84414573 </i>
    <i name="e_0_energy">   -188.00309281 </i>
   </energy>
  </scstep>
  <scstep>
   <time name="dav">   32.58   32.66</time>
   <time name="total">   33.11   33.20</time>
   <energy>
    <i name="e_fr_energy">   -186.95773382 </i>
    <i name="e_wo_entrp">   -186.60538464 </i>
    <i name="e_0_energy">   -186.78155923 </i>
   </energy>
  </scstep>
  <scstep>
   <time name="dav">   33.01   33.09</time>
   <time name="total">   33.54   33.63</time>
   <energy>
    <i name="e_fr_energy">   -187.05176629 </i>
    <i name="e_wo_entrp">   -186.70970781 </i>
    <i name="e_0_energy">   -186.88073705 </i>
   </energy>
  </scstep>
  <scstep>
   <time name="dav">   31.43   31.51</time>
   <time name="total">   31.96   32.05</time>
   <energy>
    <i name="e_fr_energy">   -186.99291933 </i>
    <i name="e_wo_entrp">   -186.66210731 </i>
    <i name="e_0_energy">   -186.82751332 </i>
   </energy>
  </scstep>
  <scstep>
   <time name="dav">   32.05   32.13</time>
   <time name="total">   32.60   32.68</time>
   <energy>
    <i name="e_fr_energy">   -186.88855117 </i>
    <i name="e_wo_entrp">   -186.55390054 </i>
    <i name="e_0_energy">   -186.72122585 </i>
   </energy>
  </scstep>
  <scstep>
   <time name="dav">   32.33   32.41</time>
   <time name="total">   32.86   32.95</time>
   <energy>
    <i name="e_fr_energy">   -186.85084871 </i>
    <i name="e_wo_entrp">   -186.50629941 </i>
    <i name="e_0_energy">   -186.67857406 </i>
   </energy>
  </scstep>
  <scstep>
   <time name="dav">   32.11   32.19</time>
   <time name="total">   32.65   32.73</time>
   <energy>
    <i name="e_fr_energy">   -186.84942490 </i>
    <i name="e_wo_entrp">   -186.50565251 </i>
    <i name="e_0_energy">   -186.67753871 </i>
   </energy>
  </scstep>
  <scstep>
   <time name="dav">   32.21   32.29</time>
   <time name="total">   32.75   32.83</time>
   <energy>
    <i name="e_fr_energy">   -186.84348160 </i>
    <i name="e_wo_entrp">   -186.50022507 </i>
    <i name="e_0_energy">   -186.67185333 </i>
   </energy>
  </scstep>
  <scstep>
   <time name="dav">   31.69   31.76</time>
   <time name="total">   32.22   32.31</time>
   <energy>
    <i name="e_fr_energy">   -186.84217902 </i>
    <i name="e_wo_entrp">   -186.50039914 </i>
    <i name="e_0_energy">   -186.67128908 </i>
   </energy>
  </scstep>
  <scstep>
   <time name="dav">   29.66   29.73</time>
   <time name="total">   30.19   30.27</time>
   <energy>
    <i name="e_fr_energy">   -186.84194617 </i>
    <i name="e_wo_entrp">   -186.49968376 </i>
    <i name="e_0_energy">   -186.67081497 </i>
   </energy>
  </scstep>
  <scstep>
   <time name="dav">   27.65   27.72</time>
   <time name="total">   28.18   28.26</time>
   <energy>
    <i name="e_fr_energy">   -186.84173864 </i>
    <i name="e_wo_entrp">   -186.49936691 </i>
    <i name="e_0_energy">   -186.67055278 </i>
   </energy>
  </scstep>
  <scstep>
   <time name="dav">   24.22   24.28</time>
   <time name="total">   24.75   24.82</time>
   <energy>
    <i name="e_fr_energy">   -186.84247939 </i>
    <i name="e_wo_entrp">   -186.50054787 </i>
    <i name="e_0_energy">   -186.67151363 </i>
   </energy>
  </scstep>
  <scstep>
   <time name="dav">   21.77   21.83</time>
   <time name="total">   22.31   22.37</time>
   <energy>
    <i name="e_fr_energy">   -186.84325984 </i>
    <i name="e_wo_entrp">   -186.50129959 </i>
    <i name="e_0_energy">   -186.67227972 </i>
   </energy>
  </scstep>
  <scstep>
   <time name="dav">   20.50   20.55</time>
   <time name="total">   21.03   21.09</time>
   <energy>
    <i name="e_fr_energy">   -186.84425627 </i>
    <i name="e_wo_entrp">   -186.50218700 </i>
    <i name="e_0_energy">   -186.67322163 </i>
   </energy>
  </scstep>
  <scstep>
   <time name="dav">   20.43   20.48</time>
   <time name="total">   20.97   21.02</time>
   <energy>
    <i name="e_fr_energy">   -186.84541881 </i>
    <i name="e_wo_entrp">   -186.50347191 </i>
    <i name="e_0_energy">   -186.67444536 </i>
   </energy>
  </scstep>
  <scstep>
   <time name="dav">   19.04   19.08</time>
   <time name="total">   19.57   19.63</time>
   <energy>
    <i name="e_fr_energy">   -186.84597630 </i>
    <i name="e_wo_entrp">   -186.50396855 </i>
    <i name="e_0_energy">   -186.67497243 </i>
   </energy>
  </scstep>
  <scstep>
   <time name="dav">   16.29   16.33</time>
   <time name="total">   16.83   16.88</time>
   <energy>
    <i name="e_fr_energy">   -186.84636972 </i>
    <i name="e_wo_entrp">   -186.50434658 </i>
    <i name="e_0_energy">   -186.67535815 </i>
   </energy>
  </scstep>
  <scstep>
   <time name="dav">   19.02   19.07</time>
   <time name="total">   19.56   19.61</time>
   <energy>
    <i name="e_fr_energy">   -186.84661398 </i>
    <i name="e_wo_entrp">   -186.50460801 </i>
    <i name="e_0_energy">   -186.67561099 </i>
   </energy>
  </scstep>
  <scstep>
   <time name="dav">   20.80   20.85</time>
   <time name="total">   20.84   20.89</time>
   <energy>
    <i name="alphaZ">     81.65567618 </i>
    <i name="ewald">  41891.17179523 </i>
    <i name="hartreedc"> -47833.66746189 </i>
    <i name="XCdc">   -231.60453088 </i>
    <i name="pawpsdc">   4192.08566335 </i>
    <i name="pawaedc">  -3610.08722195 </i>
    <i name="eentropy">     -0.34201193 </i>
    <i name="bandstr">  -1437.50113317 </i>
    <i name="atom">   6761.44252427 </i>
    <i name="e_fr_energy">   -186.84670078 </i>
    <i name="e_wo_entrp">   -186.50468885 </i>
    <i name="e_0_energy">   -186.67569482 </i>
   </energy>
  </scstep>
  <structure>
   <crystal>
    <varray name="basis" >
     <v>       8.66999996       5.03999989       0.00000000 </v>
     <v>      -8.66999982       5.04000013       0.00000000 </v>
     <v>       0.00000000       0.00000000      30.00000000 </v>
    </varray>
    <i name="volume">   2621.80797419 </i>
    <varray name="rec_basis" >
     <v>       0.05767013       0.09920635       0.00000000 </v>
     <v>      -0.05767013       0.09920635       0.00000000 </v>
     <v>       0.00000000       0.00000000       0.03333333 </v>
    </varray>
   </crystal>
   <varray name="positions" >
    <v>       1.00000000       0.33333334       0.00000000 </v>
    <v>       0.33333334       0.33333334       0.00000000 </v>
    <v>       0.33333334       0.66666669       0.00000000 </v>
    <v>       0.66666669       0.66666669       0.00000000 </v>
    <v>       0.33333334       0.00000000       0.00000000 </v>
    <v>       0.66666669       0.00000000       0.00000000 </v>
    <v>       0.00000000       0.00000000       0.00000000 </v>
    <v>       0.00000000       0.66666669       0.00000000 </v>
    <v>       0.66666669       0.33333334       0.00000000 </v>
    <v>       0.11068511       0.22244981       0.95539999 </v>
    <v>       0.22244981       0.11068511       0.04460000 </v>
    <v>       0.11068511       0.55578315       0.95539999 </v>
    <v>       0.22244981       0.44401845       0.04460000 </v>
    <v>       0.11068511       0.88911647       0.95539999 </v>
    <v>       0.22244981       0.77735180       0.04460000 </v>
    <v>       0.44401845       0.22244981       0.95539999 </v>
    <v>       0.55578315       0.11068511       0.04460000 </v>
    <v>       0.44401845       0.55578315       0.95539999 </v>
    <v>       0.55578315       0.44401845       0.04460000 </v>
    <v>       0.44401845       0.88911647       0.95539999 </v>
    <v>       0.55578315       0.77735180       0.04460000 </v>
    <v>       0.77735180       0.22244981       0.95539999 </v>
    <v>       0.88911647       0.11068511       0.04460000 </v>
    <v>       0.77735180       0.55578315       0.95539999 </v>
    <v>       0.88911647       0.44401845       0.04460000 </v>
    <v>       0.77735180       0.88911647       0.95539999 </v>
    <v>       0.88911647       0.77735180       0.04460000 </v>
   </varray>
  </structure>
  <varray name="forces" >
   <v>       0.07908460      -0.07769279       0.02976914 </v>
   <v>       0.01332192       0.12756394       0.04833931 </v>
   <v>       0.10651927       0.33158572       0.01270021 </v>
   <v>      -0.28167019       0.13379095       0.06664466 </v>
   <v>       0.26405513       0.12771918      -0.09487688 </v>
   <v>      -0.00461409      -0.32673414      -0.11861400 </v>
   <v>      -0.06441574      -0.22542980       0.13634005 </v>
   <v>      -0.14467292       0.16919222       0.06562305 </v>
   <v>       0.00154881      -0.35242415      -0.14584835 </v>
   <v>      -0.24228546       0.53666030      -1.41322429 </v>
   <v>      -0.62403892       0.53251466       2.10324861 </v>
   <v>       0.74499330      -0.00309069      -1.44310754 </v>
   <v>      -0.05724871      -0.00778095       0.76252655 </v>
   <v>       0.07744709      -0.09209511      -2.90400620 </v>
   <v>       0.65881332      -0.16784931       2.10544805 </v>
   <v>      -0.64006132       0.16743604      -2.14766758 </v>
   <v>      -0.20132880       0.16187386       2.88457906 </v>
   <v>      -0.32588811      -0.67215699      -1.41680855 </v>
   <v>      -0.38376007      -0.67474089       2.14828663 </v>
   <v>       0.51896612      -0.67736726      -2.18530820 </v>
   <v>      -0.50742459      -0.70508487       2.17304687 </v>
   <v>       0.34725026       0.68564394      -2.15680889 </v>
   <v>      -0.33716439       0.70456371       2.13554449 </v>
   <v>       0.29160786      -0.02477932      -2.84069143 </v>
   <v>       0.58912819       0.02966821       2.10434238 </v>
   <v>       0.17098178       0.15798786      -2.89349084 </v>
   <v>      -0.04914434       0.14102566       2.98401368 </v>
  </varray>
  <varray name="stress" >
   <v>       7.25841634      -0.04992236      -1.51380561 </v>
   <v>      -0.04992236       4.49726863      -0.05231532 </v>
   <v>      -1.51380539      -0.05231525      30.31654775 </v>
  </varray>
  <energy>
   <i name="e_fr_energy">   -186.84670078 </i>
   <i name="e_wo_entrp">   -186.67569482 </i>
   <i name="e_0_energy">     -0.34201193 </i>
  </energy>
  <time name="totalsc">  793.92  796.02</time>
 </calculation>
 <calculation>
  <scstep>
   <time name="dav">   21.90   21.96</time>
   <time name="total">   22.45   22.51</time>
   <energy>
    <i name="alphaZ">     78.92097656 </i>
    <i name="ewald">  39378.92286419 </i>
    <i name="hartreedc"> -45336.22918062 </i>
    <i name="XCdc">   -239.06935202 </i>
    <i name="pawpsdc">   4192.07115755 </i>
    <i name="pawaedc">  -3610.07285482 </i>
    <i name="eentropy">     -0.27929757 </i>
    <i name="bandstr">  -1413.20579903 </i>
    <i name="atom">   6761.44252427 </i>
    <i name="e_fr_energy">   -187.49896150 </i>
    <i name="e_wo_entrp">   -187.21966392 </i>
    <i name="e_0_energy">   -187.35931271 </i>
   </energy>
  </scstep>
  <scstep>
   <time name="dav">   30.43   30.50</time>
   <time name="total">   30.97   31.05</time>
   <energy>
    <i name="e_fr_energy">   -189.38159145 </i>
    <i name="e_wo_entrp">   -189.05610400 </i>
    <i name="e_0_energy">   -189.21884772 </i>
   </energy>
  </scstep>
  <scstep>
   <time name="dav">   30.42   30.49</time>
   <time name="total">   30.97   31.05</time>
   <energy>
    <i name="e_fr_energy">   -189.35368089 </i>
    <i name="e_wo_entrp">   -189.09676007 </i>
    <i name="e_0_energy">   -189.22522048 </i>
   </energy>
  </scstep>
  <scstep>
   <time name="dav">   29.44   29.51</time>
   <time name="total">   29.99   30.07</time>
   <energy>
    <i name="e_fr_energy">   -188.75431145 </i>
    <i name="e_wo_entrp">   -188.47366101 </i>
    <i name="e_0_energy">   -188.61398623 </i>
   </energy>
  </scstep>
  <scstep>
   <time name="dav">   29.27   29.34</time>
   <time name="total">   29.81   29.89</time>
   <energy>
    <i name="e_fr_energy">   -188.86916701 </i>
    <i name="e_wo_entrp">   -188.58226592 </i>
    <i name="e_0_energy">   -188.72571647 </i>
   </energy>
  </scstep>
  <scstep>
   <time name="dav">   31.05   31.12</time>
   <time name="total">   31.59   31.67</time>
   <energy>
    <i name="e_fr_energy">   -188.73745544 </i>
    <i name="e_wo_entrp">   -188.45601605 </i>
    <i name="e_0_energy">   -188.59673574 </i>
   </energy>
  </scstep>
  <scstep>
   <time name="dav">   29.61   29.68</time>
   <time name="total">   30.16   30.24</time>
   <energy>
    <i name="e_fr_energy">   -188.68695329 </i>
    <i name="e_wo_entrp">   -188.40538708 </i>
    <i name="e_0_energy">   -188.54617019 </i>
   </energy>
  </scstep>
  <scstep>
   <time name="dav">   30.57   30.65</time>
   <time name="total">   31.12   31.20</time>
   <energy>
    <i name="e_fr_energy">   -188.68388014 </i>
    <i name="e_wo_entrp">   -188.40157026 </i>
    <i name="e_0_energy">   -188.54272520 </i>
   </energy>
  </scstep>
  <scstep>
   <time name="dav">   29.28   29.35</time>
   <time name="total">   29.83   29.90</time>
   <energy>
    <i name="e_fr_energy">   -188.65590076 </i>
    <i name="e_wo_entrp">   -188.37666838 </i>
    <i name="e_0_energy">   -188.51628457 </i>
   </energy>
  </scstep>
  <scstep>
   <time name="dav">   31.48   31.55</time>
   <time name="total">   32.02   32.11</time>
   <energy>
    <i name="e_fr_energy">   -188.65496922 </i>
    <i name="e_wo_entrp">   -188.37673269 </i>
    <i name="e_0_energy">   -188.51585096 </i>
   </energy>
  </scstep>
  <scstep>
   <time name="dav">   30.98   31.06</time>
   <time name="total">   31.54   31.61</time>
   <energy>
    <i name="e_fr_energy">   -188.65453261 </i>
    <i name="e_wo_entrp">   -188.37697357 </i>
    <i name="e_0_energy">   -188.51575309 </i>
   </energy>
  </scstep>
  <scstep>
   <time name="dav">   28.07   28.13</time>
   <time name="total">   28.10   28.17</time>
   <energy>
    <i name="alphaZ">     78.92097656 </i>
    <i name="ewald">  39378.92286419 </i>
    <i name="hartreedc"> -45347.21060573 </i>
    <i name="XCdc">   -237.97743354 </i>
    <i name="pawpsdc">   3952.39801653 </i>
    <i name="pawaedc">  -3366.92317286 </i>
    <i name="eentropy">     -0.27771268 </i>
    <i name="bandstr">  -1407.95000433 </i>
    <i name="atom">   6761.44252427 </i>
    <i name="e_fr_energy">   -188.65454759 </i>
    <i name="e_wo_entrp">   -188.37683491 </i>
    <i name="e_0_energy">   -188.51569125 </i>
   </energy>
  </scstep>
  <structure>
   <crystal>
    <varray name="basis" >
     <v>       8.85326466       5.10500744       0.00000000 </v>
     <v>      -8.85473586       5.10753873       0.00000000 </v>
     <v>       0.00000000       0.00000000      30.00000000 </v>
    </varray>
    <i name="volume">   2712.65653649 </i>
    <varray name="rec_basis" >
     <v>       0.05648565       0.09792691       0.00000000 </v>
     <v>      -0.05645765       0.09791064       0.00000000 </v>
     <v>       0.00000000       0.00000000       0.03333333 </v>
    </varray>
   </crystal>
   <varray name="positions" >
    <v>       0.99984819       0.33274148       0.00004787 </v>
    <v>       0.33398093       0.33390680       0.00007773 </v>
    <v>       0.33521666       0.66795729       0.00002042 </v>
    <v>       0.66652336       0.66809066       0.00010717 </v>
    <v>       0.33467925      -0.00012338      -0.00015257 </v>
    <v>       0.66509011      -0.00155091      -0.00019074 </v>
    <v>      -0.00125812      -0.00089969       0.00021925 </v>
    <v>       0.00040725       0.66787894       0.00010553 </v>
    <v>       0.66498430       0.33164234      -0.00023454 </v>
    <v>       0.11257948       0.22569233       0.95312740 </v>
    <v>       0.22326224       0.11496989       0.04798221 </v>
    <v>       0.11274301       0.55369567       0.95307935 </v>
    <v>       0.22225329       0.44414049       0.04582621 </v>
    <v>       0.11045982       0.88846023       0.95073009 </v>
    <v>       0.22347941       0.77471555       0.04798575 </v>
    <v>       0.44303905       0.22503191       0.95194635 </v>
    <v>       0.55599775       0.11201996       0.04923866 </v>
    <v>       0.43989485       0.55347290       0.95312164 </v>
    <v>       0.55148618       0.44185684       0.04805463 </v>
    <v>       0.44222044       0.88443075       0.95188582 </v>
    <v>       0.55099690       0.77538901       0.04809445 </v>
    <v>       0.78159938       0.22476518       0.95193165 </v>
    <v>       0.89155045       0.11499518       0.04803414 </v>
    <v>       0.77804450       0.55485326       0.95083191 </v>
    <v>       0.89089751       0.44252140       0.04798397 </v>
    <v>       0.77858362       0.88939689       0.95074700 </v>
    <v>       0.88965468       0.77816347       0.04939856 </v>
   </varray>
  </structure>
  <varray name="forces" >
   <v>       0.03320336      -0.09781278       0.00243819 </v>
   <v>       0.10006931       0.11423939       0.08439814 </v>
   <v>       0.04986634       0.32956339      -0.01066806 </v>
   <v>      -0.09179093       0.43802508      -0.03393923 </v>
   <v>       0.25398758       0.21615750       0.04076991 </v>
   <v>      -0.05792253      -0.27695037      -0.03014191 </v>
   <v>       0.12637701      -0.48783240       0.05973660 </v>
   <v>      -0.42520943       0.18364251      -0.04743437 </v>
   <v>       0.03957354      -0.39820028      -0.03725449 </v>
   <v>       0.06044166      -0.05479969       0.16065014 </v>
   <v>      -0.07977235      -0.05371221      -0.13705167 </v>
   <v>      -0.08433475       0.01008884       0.24295452 </v>
   <v>      -0.00715100       0.01099280      -0.19589045 </v>
   <v>      -0.07780537      -0.08424367       0.01384079 </v>
   <v>      -0.00528732      -0.10954784      -0.01797852 </v>
   <v>       0.01221380       0.10337533      -0.11124030 </v>
   <v>      -0.04701316       0.11358102       0.09106722 </v>
   <v>      -0.02631676      -0.05688803       0.07486749 </v>
   <v>       0.10029970      -0.04500827      -0.06478188 </v>
   <v>       0.04542457      -0.08378383      -0.19628801 </v>
   <v>      -0.03650826      -0.08606018       0.15143602 </v>
   <v>      -0.11031489       0.04063682       0.00993010 </v>
   <v>       0.11229387       0.04026266      -0.04889642 </v>
   <v>       0.11005467       0.00254184       0.10068184 </v>
   <v>      -0.10456493       0.00450379      -0.14475020 </v>
   <v>       0.04956589       0.12037037      -0.13747985 </v>
   <v>       0.06062040       0.10685820       0.18102439 </v>
  </varray>
  <varray name="stress" >
   <v>     -19.99208597      -0.01077566       0.01054828 </v>
   <v>      -0.01077548     -19.58196642      -0.01046432 </v>
   <v>       0.01054841      -0.01046444      -1.80542754 </v>
  </varray>
  <energy>
   <i name="e_fr_energy">   -188.65454759 </i>
   <i name="e_wo_entrp">   -188.51569125 </i>
   <i name="e_0_energy">     -0.27771268 </i>
  </energy>
  <time name="totalsc">  400.57  401.61</time>
 </calculation>
 <calculation>
  <scstep>
   <time name="dav">   24.01   24.06</time>
   <time name="total">   24.54   24.60</time>
   <energy>
    <i name="alphaZ">     82.34623913 </i>
    <i name="ewald">  41302.52126703 </i>
    <i name="hartreedc"> -47301.40094218 </i>
    <i name="XCdc">   -233.85628057 </i>
    <i name="pawpsdc">   3950.55332276 </i>
    <i name="pawaedc">  -3365.05687103 </i>
    <i name="eentropy">     -0.23207553 </i>
    <i name="bandstr">  -1386.89341382 </i>
    <i name="atom">   6761.44252427 </i>
    <i name="e_fr_energy">   -190.57622993 </i>
    <i name="e_wo_entrp">   -190.34415440 </i>
    <i name="e_0_energy">   -190.46019216 </i>
   </energy>
  </scstep>
  <scstep>
   <time name="dav">   28.84   28.91</time>
   <time name="total">   29.37   29.44</time>
   <energy>
    <i name="e_fr_energy">   -190.52554246 </i>
    <i name="e_wo_entrp">   -190.30836870 </i>
    <i name="e_0_energy">   -190.41695558 </i>
   </energy>
  </scstep>
  <scstep>
   <time name="dav">   30.36   30.44</time>
   <time name="total">   30.89   30.97</time>
   <energy>
    <i name="e_fr_energy">   -190.05976397 </i>
    <i name="e_wo_entrp">   -189.81001327 </i>
    <i name="e_0_energy">   -189.93488862 </i>
   </energy>
  </scstep>
  <scstep>
   <time name="dav">   31.77   31.85</time>
   <time name="total">   32.30   32.39</time>
   <energy>
    <i name="e_fr_energy">   -189.84866903 </i>
    <i name="e_wo_entrp">   -189.62607622 </i>
    <i name="e_0_energy">   -189.73737262 </i>
   </energy>
  </scstep>
  <scstep>
   <time name="dav">   30.18   30.25</time>
   <time name="total">   30.71   30.79</time>
   <energy>
    <i name="e_fr_energy">   -189.81305505 </i>
    <i name="e_wo_entrp">   -189.57215859 </i>
    <i name="e_0_energy">   -189.69260682 </i>
   </energy>
  </scstep>
  <scstep>
   <time name="dav">   31.19   31.27</time>
   <time name="total">   31.72   31.80</time>
   <energy>
    <i name="e_fr_energy">   -189.74749813 </i>
    <i name="e_wo_entrp">   -189.51647319 </i>
    <i name="e_0_energy">   -189.63198566 </i>
   </energy>
  </scstep>
  <scstep>
   <time name="dav">   29.00   29.07</time>
   <time name="total">   29.53   29.61</time>
   <energy>
    <i name="e_fr_energy">   -189.74270652 </i>
    <i name="e_wo_entrp">   -189.50981300 </i>
    <i name="e_0_energy">   -189.62625976 </i>
   </energy>
  </scstep>
  <scstep>
   <time name="dav">   31.04   31.12</time>
   <time name="total">   31.57   31.66</time>
   <energy>
    <i name="e_fr_energy">   -189.74290854 </i>
    <i name="e_wo_entrp">   -189.51056767 </i>
    <i name="e_0_energy">   -189.62673811 </i>
   </energy>
  </scstep>
  <scstep>
   <time name="dav">   28.48   28.55</time>
   <time name="total">   29.01   29.09</time>
   <energy>
    <i name="e_fr_energy">   -189.74190378 </i>
    <i name="e_wo_entrp">   -189.50943798 </i>
    <i name="e_0_energy">   -189.62567088 </i>
   </energy>
  </scstep>
  <scstep>
   <time name="dav">   25.45   25.51</time>
   <time name="total">   25.98   26.05</time>
   <energy>
    <i name="e_fr_energy">   -189.74215479 </i>
    <i name="e_wo_entrp">   -189.50943034 </i>
    <i name="e_0_energy">   -189.62579256 </i>
   </energy>
  </scstep>
  <scstep>
   <time name="dav">   21.76   21.81</time>
   <time name="total">   21.79   21.85</time>
   <energy>
    <i name="alphaZ">     82.34623913 </i>
    <i name="ewald">  41302.52126703 </i>
    <i name="hartreedc"> -47274.49355677 </i>
    <i name="XCdc">   -235.25031160 </i>
    <i name="pawpsdc">   4038.05726362 </i>
    <i name="pawaedc">  -3453.75103813 </i>
    <i name="eentropy">     -0.23268854 </i>
    <i name="bandstr">  -1410.38178016 </i>
    <i name="atom">   6761.44252427 </i>
    <i name="e_fr_energy">   -189.74208114 </i>
    <i name="e_wo_entrp">   -189.50939260 </i>
    <i name="e_0_energy">   -189.62573687 </i>
   </energy>
  </scstep>
  <structure>
   <crystal>
    <varray name="basis" >
     <v>       8.66519276       4.99871696       0.00000000 </v>
     <v>      -8.66674961       5.00139830       0.00000000 </v>
     <v>       0.00000000       0.00000000      30.00000000 </v>
    </varray>
    <i name="volume">   2599.82125712 </i>
    <varray name="rec_basis" >
     <v>       0.05771241       0.10000783       0.00000000 </v>
     <v>      -0.05768147       0.09998987       0.00000000 </v>
     <v>       0.00000000       0.00000000       0.03333333 </v>
    </varray>
   </crystal>
   <varray name="positions" >
    <v>       0.99971770       0.33254750       0.00004925 </v>
    <v>       0.33426618       0.33400057       0.00012539 </v>
    <v>       0.33581107       0.66845621       0.00001440 </v>
    <v>       0.66716215       0.66890495       0.00008801 </v>
    <v>       0.33528085      -0.00000778      -0.00012955 </v>
    <v>       0.66457526      -0.00195485      -0.00020776 </v>
    <v>      -0.00194644      -0.00182966       0.00025298 </v>
    <v>       0.00030502       0.66859019       0.00007874 </v>
    <v>       0.66436161       0.33094405      -0.00025557 </v>
    <v>       0.11254641       0.22554364       0.95321811 </v>
    <v>       0.22309681       0.11495710       0.04790482 </v>
    <v>       0.11267905       0.55379306       0.95321653 </v>
    <v>       0.22226469       0.44416556       0.04571560 </v>
    <v>       0.11024562       0.88839492       0.95073791 </v>
    <v>       0.22329263       0.77453891       0.04797559 </v>
    <v>       0.44322222       0.22519168       0.95188354 </v>
    <v>       0.55614118       0.11225331       0.04929008 </v>
    <v>       0.43977530       0.55340371       0.95316391 </v>
    <v>       0.55150749       0.44168627       0.04801805 </v>
    <v>       0.44212491       0.88424835       0.95177499 </v>
    <v>       0.55081920       0.77528119       0.04817996 </v>
    <v>       0.78156123       0.22493808       0.95193726 </v>
    <v>       0.89172469       0.11495456       0.04800653 </v>
    <v>       0.77815403       0.55475222       0.95088876 </v>
    <v>       0.89080492       0.44262887       0.04790223 </v>
    <v>       0.77883073       0.88954913       0.95066937 </v>
    <v>       0.88988995       0.77828273       0.04950077 </v>
   </varray>
  </structure>
  <varray name="forces" >
   <v>      -0.00650908      -0.13819737      -0.00587633 </v>
   <v>       0.15959938       0.10269023       0.07179109 </v>
   <v>       0.01046114       0.34779296      -0.01498402 </v>
   <v>      -0.02154825       0.54142802      -0.04065020 </v>
   <v>       0.25683176       0.24888548       0.05561623 </v>
   <v>      -0.08570998      -0.24688309      -0.00082856 </v>
   <v>       0.17982079      -0.58211014       0.02499126 </v>
   <v>      -0.52181573       0.15780826      -0.06021840 </v>
   <v>       0.06910223      -0.40155240       0.00144792 </v>
   <v>      -0.00798443       0.06734424      -0.27827019 </v>
   <v>      -0.07388476       0.07111284       0.34306906 </v>
   <v>       0.06701680       0.01382941      -0.19281327 </v>
   <v>      -0.01655579       0.01587037       0.21172374 </v>
   <v>      -0.04548689      -0.00285305      -0.53559860 </v>
   <v>       0.11050854      -0.04306573       0.47459954 </v>
   <v>      -0.11347673       0.02028913      -0.63222982 </v>
   <v>       0.00406362       0.05125004       0.64661801 </v>
   <v>      -0.05941340      -0.11276040      -0.36437788 </v>
   <v>      -0.01325284      -0.09019230       0.41561876 </v>
   <v>       0.09091424      -0.15630240      -0.70824290 </v>
   <v>      -0.07671980      -0.14532009       0.64571924 </v>
   <v>       0.01863252       0.09848802      -0.49251777 </v>
   <v>      -0.01729524       0.08903820       0.44291736 </v>
   <v>       0.04041631      -0.00386510      -0.43488333 </v>
   <v>       0.02812934       0.00191444       0.33562510 </v>
   <v>      -0.00002749       0.06187330      -0.69648714 </v>
   <v>       0.02418375       0.03348712       0.78824109 </v>
  </varray>
  <varray name="stress" >
   <v>     -10.20250312       0.01288398      -0.01875239 </v>
   <v>       0.01288389      -9.88948228       0.00018387 </v>
   <v>      -0.01875232       0.00018380       6.51931867 </v>
  </varray>
  <energy>
   <i name="e_fr_energy">   -189.74208114 </i>
   <i name="e_wo_entrp">   -189.62573687 </i>
   <i name="e_0_energy">     -0.23268854 </i>
  </energy>
  <time name="totalsc">  359.40  360.33</time>
 </calculation>
 <calculation>
  <scstep>
   <time name="dav">   22.02   22.08</time>
   <time name="total">   22.55   22.60</time>
   <energy>
    <i name="alphaZ">     85.83230061 </i>
    <i name="ewald">  42838.26498922 </i>
    <i name="hartreedc"> -48854.86961416 </i>
    <i name="XCdc">   -232.95718577 </i>
    <i name="pawpsdc">   4038.56473884 </i>
    <i name="pawaedc">  -3454.25932241 </i>
    <i name="eentropy">     -0.19036340 </i>
    <i name="bandstr">  -1373.14554071 </i>
    <i name="atom">   6761.44252427 </i>
    <i name="e_fr_energy">   -191.31747350 </i>
    <i name="e_wo_entrp">   -191.12711010 </i>
    <i name="e_0_energy">   -191.22229180 </i>
   </energy>
  </scstep>
  <scstep>
   <time name="dav">   32.73   32.81</time>
   <time name="total">   33.25   33.33</time>
   <energy>
    <i name="e_fr_energy">   -191.11797659 </i>
    <i name="e_wo_entrp">   -190.92927382 </i>
    <i name="e_0_energy">   -191.02362520 </i>
   </energy>
  </scstep>
  <scstep>
   <time name="dav">   30.19   30.26</time>
   <time name="total">   30.70   30.78</time>
   <energy>
    <i name="e_fr_energy">   -191.31220502 </i>
    <i name="e_wo_entrp">   -191.09717317 </i>
    <i name="e_0_energy">   -191.20468909 </i>
   </energy>
  </scstep>
  <scstep>
   <time name="dav">   29.44   29.51</time>
   <time name="total">   29.96   30.03</time>
   <energy>
    <i name="e_fr_energy">   -190.90050368 </i>
    <i name="e_wo_entrp">   -190.70302889 </i>
    <i name="e_0_energy">   -190.80176628 </i>
   </energy>
  </scstep>
  <scstep>
   <time name="dav">   27.87   27.94</time>
   <time name="total">   28.39   28.47</time>
   <energy>
    <i name="e_fr_energy">   -190.90286100 </i>
    <i name="e_wo_entrp">   -190.71910996 </i>
    <i name="e_0_energy">   -190.81098548 </i>
   </energy>
  </scstep>
  <scstep>
   <time name="dav">   29.90   29.97</time>
   <time name="total">   30.42   30.50</time>
   <energy>
    <i name="e_fr_energy">   -190.73279432 </i>
    <i name="e_wo_entrp">   -190.53722214 </i>
    <i name="e_0_energy">   -190.63500823 </i>
   </energy>
  </scstep>
  <scstep>
   <time name="dav">   30.60   30.67</time>
   <time name="total">   31.12   31.20</time>
   <energy>
    <i name="e_fr_energy">   -190.73287289 </i>
    <i name="e_wo_entrp">   -190.53802682 </i>
    <i name="e_0_energy">   -190.63544986 </i>
   </energy>
  </scstep>
  <scstep>
   <time name="dav">   29.05   29.12</time>
   <time name="total">   29.57   29.65</time>
   <energy>
    <i name="e_fr_energy">   -190.73057043 </i>
    <i name="e_wo_entrp">   -190.53568911 </i>
    <i name="e_0_energy">   -190.63312977 </i>
   </energy>
  </scstep>
  <scstep>
   <time name="dav">   28.81   28.88</time>
   <time name="total">   29.33   29.41</time>
   <energy>
    <i name="e_fr_energy">   -190.72846854 </i>
    <i name="e_wo_entrp">   -190.53351368 </i>
    <i name="e_0_energy">   -190.63099111 </i>
   </energy>
  </scstep>
  <scstep>
   <time name="dav">   27.57   27.64</time>
   <time name="total">   28.09   28.16</time>
   <energy>
    <i name="e_fr_energy">   -190.72873324 </i>
    <i name="e_wo_entrp">   -190.53366321 </i>
    <i name="e_0_energy">   -190.63119822 </i>
   </energy>
  </scstep>
  <scstep>
   <time name="dav">   26.08   26.14</time>
   <time name="total">   26.60   26.67</time>
   <energy>
    <i name="e_fr_energy">   -190.72854633 </i>
    <i name="e_wo_entrp">   -190.53343218 </i>
    <i name="e_0_energy">   -190.63098926 </i>
   </energy>
  </scstep>
  <scstep>
   <time name="dav">   19.72   19.77</time>
   <time name="total">   19.75   19.81</time>
   <energy>
    <i name="alphaZ">     85.83230061 </i>
    <i name="ewald">  42838.26498922 </i>
    <i name="hartreedc"> -48826.28260215 </i>
    <i name="XCdc">   -234.29585490 </i>
    <i name="pawpsdc">   4063.51560164 </i>
    <i name="pawaedc">  -3479.38351035 </i>
    <i name="eentropy">     -0.19515474 </i>
    <i name="bandstr">  -1399.62684316 </i>
    <i name="atom">   6761.44252427 </i>
    <i name="e_fr_energy">   -190.72854956 </i>
    <i name="e_wo_entrp">   -190.53339482 </i>
    <i name="e_0_energy">   -190.63097219 </i>
   </energy>
  </scstep>
  <structure>
   <crystal>
    <varray name="basis" >
     <v>       8.48366046       4.89930458       0.00000000 </v>
     <v>      -8.48432604       4.90044412       0.00000000 </v>
     <v>       0.00000000       0.00000000      30.00000000 </v>
    </varray>
    <i name="volume">   2494.23004401 </i>
    <varray name="rec_basis" >
     <v>       0.05894137       0.10204744       0.00000000 </v>
     <v>      -0.05892766       0.10203943       0.00000000 </v>
     <v>       0.00000000       0.00000000       0.03333333 </v>
    </varray>
   </crystal>
   <varray name="positions" >
    <v>       0.99867064       0.33166223       0.00003001 </v>
    <v>       0.33554281       0.33395219       0.00026319 </v>
    <v>       0.33801499       0.67069784      -0.00002028 </v>
    <v>       0.67083400       0.67252912      -0.00000181 </v>
    <v>       0.33785306       0.00070032      -0.00000184 </v>
    <v>       0.66275506      -0.00307535      -0.00018451 </v>
    <v>      -0.00509973      -0.00643566       0.00027509 </v>
    <v>      -0.00079664       0.67153723      -0.00005673 </v>
    <v>       0.66213160       0.32813003      -0.00021962 </v>
    <v>       0.11314602       0.22639826       0.95226858 </v>
    <v>       0.22359583       0.11597282       0.04902351 </v>
    <v>       0.11323558       0.55342863       0.95244649 </v>
    <v>       0.22230285       0.44435046       0.04650079 </v>
    <v>       0.11031367       0.88869832       0.94916185 </v>
    <v>       0.22375578       0.77386953       0.04937702 </v>
    <v>       0.44254992       0.22570196       0.95013178 </v>
    <v>       0.55639448       0.11232983       0.05110104 </v>
    <v>       0.43866712       0.55282045       0.95203595 </v>
    <v>       0.55061802       0.44122035       0.04928708 </v>
    <v>       0.44135911       0.88269463       0.94987365 </v>
    <v>       0.54942589       0.77455841       0.04993688 </v>
    <v>       0.78257599       0.22544598       0.95049035 </v>
    <v>       0.89215463       0.11588329       0.04934176 </v>
    <v>       0.77815934       0.55466649       0.94953289 </v>
    <v>       0.89110358       0.44234138       0.04900574 </v>
    <v>       0.77900006       0.88986172       0.94875229 </v>
    <v>       0.88995083       0.77827401       0.05164875 </v>
   </varray>
  </structure>
  <varray name="forces" >
   <v>       0.00526437      -0.11732029      -0.02107317 </v>
   <v>       0.16621928       0.07319893       0.02073649 </v>
   <v>      -0.00034633       0.28920980      -0.02202854 </v>
   <v>       0.05393457       0.67249221      -0.02055865 </v>
   <v>       0.27912412       0.34159113       0.02585500 </v>
   <v>      -0.15647766      -0.19328506       0.03067820 </v>
   <v>       0.19405332      -0.66928411      -0.02668316 </v>
   <v>      -0.63329991       0.12439690      -0.03723502 </v>
   <v>       0.15155657      -0.48070768       0.03242567 </v>
   <v>       0.03869221      -0.02267784      -0.14406826 </v>
   <v>      -0.01669629      -0.01931041       0.18010187 </v>
   <v>      -0.01262734       0.03669985      -0.09051752 </v>
   <v>      -0.01524017       0.03458154       0.21808413 </v>
   <v>      -0.01366842       0.08956424      -0.35355348 </v>
   <v>       0.03581923      -0.00767785       0.27491251 </v>
   <v>      -0.03659033      -0.02589500      -0.46529647 </v>
   <v>       0.04750373      -0.00694603       0.50254720 </v>
   <v>       0.00144950       0.03107326      -0.23718627 </v>
   <v>      -0.03190115       0.02698068       0.22673387 </v>
   <v>       0.04901849      -0.06001634      -0.53292905 </v>
   <v>      -0.01082560      -0.04436891       0.43587236 </v>
   <v>       0.02298494      -0.01578487      -0.37234170 </v>
   <v>       0.00622354      -0.02578318       0.28013836 </v>
   <v>      -0.00621058      -0.03722495      -0.25464858 </v>
   <v>      -0.03635155       0.00237025       0.15093186 </v>
   <v>      -0.06196565       0.02623981      -0.52240027 </v>
   <v>      -0.01964291      -0.02211610       0.72150263 </v>
  </varray>
  <varray name="stress" >
   <v>      -5.87912460      -0.06772213      -0.01255800 </v>
   <v>      -0.06772220      -5.72776381      -0.08545123 </v>
   <v>      -0.01255806      -0.08545123       4.55023558 </v>
  </varray>
  <energy>
   <i name="e_fr_energy">   -190.72854956 </i>
   <i name="e_wo_entrp">   -190.63097219 </i>
   <i name="e_0_energy">     -0.19515474 </i>
  </energy>
  <time name="totalsc">  381.27  382.28</time>
 </calculation>
 <calculation>
  <scstep>
   <time name="dav">   22.03   22.08</time>
   <time name="total">   22.54   22.60</time>
   <energy>
    <i name="alphaZ">     90.23364316 </i>
    <i name="ewald">  44692.91886309 </i>
    <i name="hartreedc"> -50736.56066879 </i>
    <i name="XCdc">   -231.80581828 </i>
    <i name="pawpsdc">   4063.45557210 </i>
    <i name="pawaedc">  -3479.32010585 </i>
    <i name="eentropy">     -0.17703768 </i>
    <i name="bandstr">  -1352.35275898 </i>
    <i name="atom">   6761.44252427 </i>
    <i name="e_fr_energy">   -192.16578696 </i>
    <i name="e_wo_entrp">   -191.98874928 </i>
    <i name="e_0_energy">   -192.07726812 </i>
   </energy>
  </scstep>
  <scstep>
   <time name="dav">   27.59   27.66</time>
   <time name="total">   28.10   28.17</time>
   <energy>
    <i name="e_fr_energy">   -191.88522602 </i>
    <i name="e_wo_entrp">   -191.69215197 </i>
    <i name="e_0_energy">   -191.78868900 </i>
   </energy>
  </scstep>
  <scstep>
   <time name="dav">   29.93   30.00</time>
   <time name="total">   30.44   30.52</time>
   <energy>
    <i name="e_fr_energy">   -192.36230739 </i>
    <i name="e_wo_entrp">   -192.17849284 </i>
    <i name="e_0_energy">   -192.27040012 </i>
   </energy>
  </scstep>
  <scstep>
   <time name="dav">   28.88   28.95</time>
   <time name="total">   29.39   29.47</time>
   <energy>
    <i name="e_fr_energy">   -191.68098278 </i>
    <i name="e_wo_entrp">   -191.50031325 </i>
    <i name="e_0_energy">   -191.59064802 </i>
   </energy>
  </scstep>
  <scstep>
   <time name="dav">   30.06   30.14</time>
   <time name="total">   30.57   30.65</time>
   <energy>
    <i name="e_fr_energy">   -191.62712881 </i>
    <i name="e_wo_entrp">   -191.43089352 </i>
    <i name="e_0_energy">   -191.52901116 </i>
   </energy>
  </scstep>
  <scstep>
   <time name="dav">   30.34   30.41</time>
   <time name="total">   30.85   30.93</time>
   <energy>
    <i name="e_fr_energy">   -191.47395340 </i>
    <i name="e_wo_entrp">   -191.28852664 </i>
    <i name="e_0_energy">   -191.38124002 </i>
   </energy>
  </scstep>
  <scstep>
   <time name="dav">   30.92   31.00</time>
   <time name="total">   31.43   31.52</time>
   <energy>
    <i name="e_fr_energy">   -191.46519714 </i>
    <i name="e_wo_entrp">   -191.28280986 </i>
    <i name="e_0_energy">   -191.37400350 </i>
   </energy>
  </scstep>
  <scstep>
   <time name="dav">   30.36   30.43</time>
   <time name="total">   30.87   30.95</time>
   <energy>
    <i name="e_fr_energy">   -191.44622503 </i>
    <i name="e_wo_entrp">   -191.25967677 </i>
    <i name="e_0_energy">   -191.35295090 </i>
   </energy>
  </scstep>
  <scstep>
   <time name="dav">   28.24   28.31</time>
   <time name="total">   28.75   28.83</time>
   <energy>
    <i name="e_fr_energy">   -191.44366741 </i>
    <i name="e_wo_entrp">   -191.25798540 </i>
    <i name="e_0_energy">   -191.35082641 </i>
   </energy>
  </scstep>
  <scstep>
   <time name="dav">   28.89   28.96</time>
   <time name="total">   29.40   29.48</time>
   <energy>
    <i name="e_fr_energy">   -191.44383176 </i>
    <i name="e_wo_entrp">   -191.25764096 </i>
    <i name="e_0_energy">   -191.35073636 </i>
   </energy>
  </scstep>
  <scstep>
   <time name="dav">   26.42   26.48</time>
   <time name="total">   26.45   26.52</time>
   <energy>
    <i name="alphaZ">     90.23364316 </i>
    <i name="ewald">  44692.91886309 </i>
    <i name="hartreedc"> -50702.23037986 </i>
    <i name="XCdc">   -233.32853122 </i>
    <i name="pawpsdc">   4086.81775767 </i>
    <i name="pawaedc">  -3502.78920944 </i>
    <i name="eentropy">     -0.18619955 </i>
    <i name="bandstr">  -1384.32222743 </i>
    <i name="atom">   6761.44252427 </i>
    <i name="e_fr_energy">   -191.44375930 </i>
    <i name="e_wo_entrp">   -191.25755975 </i>
    <i name="e_0_energy">   -191.35065953 </i>
   </energy>
  </scstep>
  <structure>
   <crystal>
    <varray name="basis" >
     <v>       8.26835480       4.77771577       0.00000000 </v>
     <v>      -8.27244097       4.78477850       0.00000000 </v>
     <v>       0.00000000       0.00000000      30.00000000 </v>
    </varray>
    <i name="volume">   2372.56853914 </i>
    <varray name="rec_basis" >
     <v>       0.06050125       0.10460108       0.00000000 </v>
     <v>      -0.06041194       0.10454941       0.00000000 </v>
     <v>       0.00000000       0.00000000       0.03333333 </v>
    </varray>
   </crystal>
   <varray name="positions" >
    <v>       0.99703270       0.33010551      -0.00005467 </v>
    <v>       0.33773607       0.33359370       0.00036130 </v>
    <v>       0.34166990       0.67446870      -0.00010920 </v>
    <v>       0.67962795       0.68046483      -0.00010174 </v>
    <v>       0.34396991       0.00287933       0.00013259 </v>
    <v>       0.65928073      -0.00436656      -0.00004923 </v>
    <v>      -0.01201564      -0.01626331       0.00016127 </v>
    <v>      -0.00384381       0.67760863      -0.00023117 </v>
    <v>       0.65738131       0.32128409      -0.00006774 </v>
    <v>       0.11348777       0.22650909       0.95118373 </v>
    <v>       0.22370806       0.11641301       0.05030920 </v>
    <v>       0.11390126       0.55361252       0.95159681 </v>
    <v>       0.22258627       0.44488475       0.04777639 </v>
    <v>       0.11142564       0.88995753       0.94710107 </v>
    <v>       0.22431671       0.77338832       0.05107529 </v>
    <v>       0.44152099       0.22576360       0.94765876 </v>
    <v>       0.55660652       0.11177846       0.05374555 </v>
    <v>       0.43854323       0.55290438       0.95058078 </v>
    <v>       0.55022373       0.44162498       0.05077412 </v>
    <v>       0.44071360       0.88111850       0.94713362 </v>
    <v>       0.54833041       0.77387901       0.05228835 </v>
    <v>       0.78311637       0.22523505       0.94843386 </v>
    <v>       0.89197480       0.11609506       0.05104047 </v>
    <v>       0.77762181       0.55436112       0.94788382 </v>
    <v>       0.89115072       0.44233611       0.05018624 </v>
    <v>       0.77874824       0.89053842       0.94600858 </v>
    <v>       0.88939918       0.77803961       0.05518184 </v>
   </varray>
  </structure>
  <varray name="forces" >
   <v>       0.10233705      -0.03597606       0.01851237 </v>
   <v>       0.04910616       0.02280552       0.03189921 </v>
   <v>       0.05924747       0.13051560       0.00511362 </v>
   <v>       0.04634789       0.40197264       0.01961967 </v>
   <v>       0.21216959       0.32513934      -0.04422152 </v>
   <v>      -0.22412247      -0.00451411      -0.00306771 </v>
   <v>       0.01366182      -0.35277561      -0.04890871 </v>
   <v>      -0.45943795       0.03264637       0.05797608 </v>
   <v>       0.28467507      -0.44052704       0.02736561 </v>
   <v>       0.12154719      -0.17988854       0.07925137 </v>
   <v>       0.04781933      -0.18225315      -0.15787357 </v>
   <v>      -0.22344796       0.04853537       0.13422526 </v>
   <v>       0.01020528       0.04025237       0.00839817 </v>
   <v>      -0.00105879       0.17407371      -0.06274497 </v>
   <v>      -0.09417793       0.00825878      -0.08622401 </v>
   <v>       0.07768217      -0.04635782      -0.13856896 </v>
   <v>       0.09368707      -0.05503334       0.31745223 </v>
   <v>       0.09903450       0.21730980       0.04152985 </v>
   <v>       0.02154094       0.16772334      -0.14152014 </v>
   <v>      -0.02045147       0.04779553      -0.14981378 </v>
   <v>       0.08498431       0.07085688       0.05423262 </v>
   <v>      -0.03612132      -0.12623317      -0.09636158 </v>
   <v>       0.09739342      -0.12306972      -0.01444451 </v>
   <v>      -0.03423331      -0.11042879       0.07538610 </v>
   <v>      -0.13975527      -0.00150879      -0.16064486 </v>
   <v>      -0.15786999       0.00743587      -0.21042251 </v>
   <v>      -0.03076281      -0.03675496       0.44385468 </v>
  </varray>
  <varray name="stress" >
   <v>      -0.09399047      -0.04301761       0.29394834 </v>
   <v>      -0.04301766       0.45257613      -0.15607885 </v>
   <v>       0.29394846      -0.15607891      -0.35739736 </v>
  </varray>
  <energy>
   <i name="e_fr_energy">   -191.44375930 </i>
   <i name="e_wo_entrp">   -191.35065953 </i>
   <i name="e_0_energy">     -0.18619955 </i>
  </energy>
  <time name="totalsc">  360.69  361.65</time>
 </calculation>
 <calculation>
  <scstep>
   <time name="dav">   21.98   22.03</time>
   <time name="total">   22.49   22.54</time>
   <energy>
    <i name="alphaZ">     90.14156937 </i>
    <i name="ewald">  44626.95718164 </i>
    <i name="hartreedc"> -50636.18747729 </i>
    <i name="XCdc">   -233.49497935 </i>
    <i name="pawpsdc">   4087.26732833 </i>
    <i name="pawaedc">  -3503.23720474 </i>
    <i name="eentropy">     -0.18746666 </i>
    <i name="bandstr">  -1384.22478989 </i>
    <i name="atom">   6761.44252427 </i>
    <i name="e_fr_energy">   -191.52331430 </i>
    <i name="e_wo_entrp">   -191.33584765 </i>
    <i name="e_0_energy">   -191.42958098 </i>
   </energy>
  </scstep>
  <scstep>
   <time name="dav">   33.18   33.26</time>
   <time name="total">   33.68   33.77</time>
   <energy>
    <i name="e_fr_energy">   -191.60447438 </i>
    <i name="e_wo_entrp">   -191.40447229 </i>
    <i name="e_0_energy">   -191.50447333 </i>
   </energy>
  </scstep>
  <scstep>
   <time name="dav">   30.94   31.01</time>
   <time name="total">   31.48   31.56</time>
   <energy>
    <i name="e_fr_energy">   -191.53470270 </i>
    <i name="e_wo_entrp">   -191.34608927 </i>
    <i name="e_0_energy">   -191.44039598 </i>
   </energy>
  </scstep>
  <scstep>
   <time name="dav">   28.93   29.00</time>
   <time name="total">   29.44   29.52</time>
   <energy>
    <i name="e_fr_energy">   -191.53827927 </i>
    <i name="e_wo_entrp">   -191.34741860 </i>
    <i name="e_0_energy">   -191.44284894 </i>
   </energy>
  </scstep>
  <scstep>
   <time name="dav">   28.77   28.84</time>
   <time name="total">   29.28   29.36</time>
   <energy>
    <i name="e_fr_energy">   -191.53284522 </i>
    <i name="e_wo_entrp">   -191.34302506 </i>
    <i name="e_0_energy">   -191.43793514 </i>
   </energy>
  </scstep>
  <scstep>
   <time name="dav">   28.52   28.58</time>
   <time name="total">   29.03   29.10</time>
   <energy>
    <i name="e_fr_energy">   -191.53368582 </i>
    <i name="e_wo_entrp">   -191.34372774 </i>
    <i name="e_0_energy">   -191.43870678 </i>
   </energy>
  </scstep>
  <scstep>
   <time name="dav">   28.25   28.31</time>
   <time name="total">   28.76   28.83</time>
   <energy>
    <i name="e_fr_energy">   -191.53295528 </i>
    <i name="e_wo_entrp">   -191.34308217 </i>
    <i name="e_0_energy">   -191.43801873 </i>
   </energy>
  </scstep>
  <scstep>
   <time name="dav">   26.63   26.70</time>
   <time name="total">   27.14   27.22</time>
   <energy>
    <i name="e_fr_energy">   -191.53239778 </i>
    <i name="e_wo_entrp">   -191.34265437 </i>
    <i name="e_0_energy">   -191.43752607 </i>
   </energy>
  </scstep>
  <scstep>
   <time name="dav">   18.63   18.67</time>
   <time name="total">   18.66   18.72</time>
   <energy>
    <i name="alphaZ">     90.14156937 </i>
    <i name="ewald">  44626.95718164 </i>
    <i name="hartreedc"> -50638.23589162 </i>
    <i name="XCdc">   -233.42528849 </i>
    <i name="pawpsdc">   4084.22320906 </i>
    <i name="pawaedc">  -3500.14633594 </i>
    <i name="eentropy">     -0.18974750 </i>
    <i name="bandstr">  -1382.29963318 </i>
    <i name="atom">   6761.44252427 </i>
    <i name="e_fr_energy">   -191.53241240 </i>
    <i name="e_wo_entrp">   -191.34266490 </i>
    <i name="e_0_energy">   -191.43753865 </i>
   </energy>
  </scstep>
  <structure>
   <crystal>
    <varray name="basis" >
     <v>       8.26609874       4.78265921       0.00000000 </v>
     <v>      -8.27126056       4.79159270       0.00000000 </v>
     <v>       0.00000000       0.00000000      30.00000000 </v>
    </varray>
    <i name="volume">   2374.99196458 </i>
    <varray name="rec_basis" >
     <v>       0.06052559       0.10447943       0.00000000 </v>
     <v>      -0.06041274       0.10441423       0.00000000 </v>
     <v>       0.00000000       0.00000000       0.03333333 </v>
    </varray>
   </crystal>
   <varray name="positions" >
    <v>       0.99715406       0.32963215      -0.00002480 </v>
    <v>       0.33798736       0.33356682       0.00041208 </v>
    <v>       0.34248797       0.67494186      -0.00010077 </v>
    <v>       0.68175873       0.68232787      -0.00007004 </v>
    <v>       0.34620397       0.00389073       0.00006138 </v>
    <v>       0.65861590      -0.00373546      -0.00005452 </v>
    <v>      -0.01372995      -0.01804814       0.00008328 </v>
    <v>      -0.00500670       0.67908960      -0.00013784 </v>
    <v>       0.65600770       0.31826373      -0.00002436 </v>
    <v>       0.11293570       0.22525162       0.95131437 </v>
    <v>       0.22293025       0.11535691       0.05005207 </v>
    <v>       0.11349350       0.55450475       0.95181480 </v>
    <v>       0.22281747       0.44505586       0.04778577 </v>
    <v>       0.11229400       0.89083130       0.94700718 </v>
    <v>       0.22408234       0.77370457       0.05093172 </v>
    <v>       0.44151733       0.22530503       0.94744449 </v>
    <v>       0.55660179       0.11123194       0.05424572 </v>
    <v>       0.43992403       0.55370854       0.95065199 </v>
    <v>       0.55113090       0.44240392       0.05054261 </v>
    <v>       0.44089645       0.88142287       0.94690205 </v>
    <v>       0.54893707       0.77399040       0.05236792 </v>
    <v>       0.78237477       0.22470627       0.94828599 </v>
    <v>       0.89163982       0.11519289       0.05101185 </v>
    <v>       0.77696902       0.55390654       0.94800996 </v>
    <v>       0.89073641       0.44273458       0.04992492 </v>
    <v>       0.77832774       0.89103221       0.94568006 </v>
    <v>       0.88912683       0.77794510       0.05588202 </v>
   </varray>
  </structure>
  <varray name="forces" >
   <v>       0.14650286      -0.02942069      -0.00188147 </v>
   <v>       0.01680864       0.02438200       0.04628305 </v>
   <v>       0.09861973       0.12377127      -0.01264611 </v>
   <v>      -0.02461301       0.40836447       0.00235840 </v>
   <v>       0.22791793       0.32518787      -0.01250483 </v>
   <v>      -0.23563710      -0.00558314       0.00537234 </v>
   <v>       0.01264964      -0.38053756      -0.02378915 </v>
   <v>      -0.44854211       0.07534725      -0.00622155 </v>
   <v>       0.30185750      -0.44162471       0.03184376 </v>
   <v>       0.07773944      -0.11736347       0.06844957 </v>
   <v>       0.03565024      -0.12821266      -0.18893340 </v>
   <v>      -0.17108906       0.02406720       0.18849688 </v>
   <v>       0.00736622       0.02542612      -0.03009572 </v>
   <v>       0.00081402       0.10465915       0.02305365 </v>
   <v>      -0.07402861       0.00371629      -0.11100899 </v>
   <v>       0.05926085      -0.02829770      -0.10202854 </v>
   <v>       0.06848540      -0.05208831       0.27269988 </v>
   <v>       0.07704749       0.14813791       0.06706845 </v>
   <v>       0.03933841       0.11147629      -0.17460581 </v>
   <v>      -0.00053466       0.02571039      -0.10641077 </v>
   <v>       0.04171249       0.05357414       0.02065420 </v>
   <v>      -0.01599519      -0.07604339      -0.08547588 </v>
   <v>       0.04866287      -0.07707950      -0.01128463 </v>
   <v>      -0.00421373      -0.10407068       0.13700590 </v>
   <v>      -0.10308877      -0.01357554      -0.16485246 </v>
   <v>      -0.12267311       0.00041708      -0.13393409 </v>
   <v>      -0.06001839      -0.00034007       0.30238731 </v>
  </varray>
  <varray name="stress" >
   <v>      -0.01669287       0.02175453       0.10800026 </v>
   <v>       0.02175433       0.12071632      -0.05591476 </v>
   <v>       0.10800013      -0.05591477      -1.34611402 </v>
  </varray>
  <energy>
   <i name="e_fr_energy">   -191.53241240 </i>
   <i name="e_wo_entrp">   -191.43753865 </i>
   <i name="e_0_energy">     -0.18974750 </i>
  </energy>
  <time name="totalsc">  291.98  292.75</time>
 </calculation>
 <calculation>
  <scstep>
   <time name="dav">   21.95   22.00</time>
   <time name="total">   22.46   22.51</time>
   <energy>
    <i name="alphaZ">     90.09053998 </i>
    <i name="ewald">  44607.96755776 </i>
    <i name="hartreedc"> -50618.19318313 </i>
    <i name="XCdc">   -233.45441791 </i>
    <i name="pawpsdc">   4084.09261134 </i>
    <i name="pawaedc">  -3500.01404184 </i>
    <i name="eentropy">     -0.18680591 </i>
    <i name="bandstr">  -1383.38318091 </i>
    <i name="atom">   6761.44252427 </i>
    <i name="e_fr_energy">   -191.63839636 </i>
    <i name="e_wo_entrp">   -191.45159045 </i>
    <i name="e_0_energy">   -191.54499340 </i>
   </energy>
  </scstep>
  <scstep>
   <time name="dav">   32.09   32.16</time>
   <time name="total">   32.59   32.68</time>
   <energy>
    <i name="e_fr_energy">   -191.77821804 </i>
    <i name="e_wo_entrp">   -191.56702506 </i>
    <i name="e_0_energy">   -191.67262155 </i>
   </energy>
  </scstep>
  <scstep>
   <time name="dav">   30.50   30.57</time>
   <time name="total">   31.00   31.09</time>
   <energy>
    <i name="e_fr_energy">   -191.65843831 </i>
    <i name="e_wo_entrp">   -191.46957598 </i>
    <i name="e_0_energy">   -191.56400714 </i>
   </energy>
  </scstep>
  <scstep>
   <time name="dav">   29.86   29.94</time>
   <time name="total">   30.37   30.45</time>
   <energy>
    <i name="e_fr_energy">   -191.66733050 </i>
    <i name="e_wo_entrp">   -191.47475946 </i>
    <i name="e_0_energy">   -191.57104498 </i>
   </energy>
  </scstep>
  <scstep>
   <time name="dav">   29.05   29.12</time>
   <time name="total">   29.56   29.64</time>
   <energy>
    <i name="e_fr_energy">   -191.65325081 </i>
    <i name="e_wo_entrp">   -191.46213842 </i>
    <i name="e_0_energy">   -191.55769462 </i>
   </energy>
  </scstep>
  <scstep>
   <time name="dav">   28.84   28.91</time>
   <time name="total">   29.34   29.42</time>
   <energy>
    <i name="e_fr_energy">   -191.65591330 </i>
    <i name="e_wo_entrp">   -191.46405825 </i>
    <i name="e_0_energy">   -191.55998577 </i>
   </energy>
  </scstep>
  <scstep>
   <time name="dav">   28.94   29.01</time>
   <time name="total">   29.44   29.52</time>
   <energy>
    <i name="e_fr_energy">   -191.65322738 </i>
    <i name="e_wo_entrp">   -191.46160117 </i>
    <i name="e_0_energy">   -191.55741428 </i>
   </energy>
  </scstep>
  <scstep>
   <time name="dav">   27.41   27.47</time>
   <time name="total">   27.91   27.99</time>
   <energy>
    <i name="e_fr_energy">   -191.65212059 </i>
    <i name="e_wo_entrp">   -191.46067492 </i>
    <i name="e_0_energy">   -191.55639775 </i>
   </energy>
  </scstep>
  <scstep>
   <time name="dav">   21.93   21.98</time>
   <time name="total">   21.97   22.03</time>
   <energy>
    <i name="alphaZ">     90.09053998 </i>
    <i name="ewald">  44607.96755776 </i>
    <i name="hartreedc"> -50619.88136861 </i>
    <i name="XCdc">   -233.36888503 </i>
    <i name="pawpsdc">   4089.17006589 </i>
    <i name="pawaedc">  -3505.16403267 </i>
    <i name="eentropy">     -0.19137665 </i>
    <i name="bandstr">  -1381.71714202 </i>
    <i name="atom">   6761.44252427 </i>
    <i name="e_fr_energy">   -191.65211708 </i>
    <i name="e_wo_entrp">   -191.46074043 </i>
[...]
      <set comment="kpoint 31">
       <r>  -17.5126    1.0000 </r>
       <r>  -17.2609    1.0000 </r>
       <r>  -16.9144    1.0000 </r>
       <r>  -16.6217    1.0000 </r>
       <r>  -16.5158    1.0000 </r>
       <r>  -16.3990    1.0000 </r>
       <r>  -16.2609    1.0000 </r>
       <r>  -16.2100    1.0000 </r>
       <r>  -16.0994    1.0000 </r>
       <r>  -16.0475    1.0000 </r>
       <r>  -15.9379    1.0000 </r>
       <r>  -15.8613    1.0000 </r>
       <r>  -15.7777    1.0000 </r>
       <r>  -15.7541    1.0000 </r>
       <r>  -15.6491    1.0000 </r>
       <r>  -15.5692    1.0000 </r>
       <r>  -15.4473    1.0000 </r>
       <r>  -15.1992    1.0000 </r>
       <r>   -9.7228    1.0000 </r>
       <r>   -9.4257    1.0000 </r>
       <r>   -9.3331    1.0000 </r>
       <r>   -8.9981    1.0000 </r>
       <r>   -8.8535    1.0000 </r>
       <r>   -8.7558    1.0000 </r>
       <r>   -8.5301    1.0000 </r>
       <r>   -8.4792    1.0000 </r>
       <r>   -8.4283    1.0000 </r>
       <r>   -8.3704    1.0000 </r>
       <r>   -8.2429    1.0000 </r>
       <r>   -8.1686    1.0000 </r>
       <r>   -8.1179    1.0000 </r>
       <r>   -8.0546    1.0000 </r>
       <r>   -7.9893    1.0000 </r>
       <r>   -7.9209    1.0000 </r>
       <r>   -7.7855    1.0000 </r>
       <r>   -7.7171    1.0000 </r>
       <r>   -7.5936    1.0000 </r>
       <r>   -7.3848    1.0000 </r>
       <r>   -7.2834    1.0000 </r>
       <r>   -7.2554    1.0000 </r>
       <r>   -7.1311    1.0000 </r>
       <r>   -7.0985    1.0000 </r>
       <r>   -7.0427    1.0000 </r>
       <r>   -6.9159    1.0000 </r>
       <r>   -6.8711    1.0000 </r>
       <r>   -6.7589    1.0000 </r>
       <r>   -6.6696    1.0000 </r>
       <r>   -6.6200    1.0000 </r>
       <r>   -6.5646    1.0000 </r>
       <r>   -6.4432    1.0000 </r>
       <r>   -6.4127    1.0000 </r>
       <r>   -6.3446    1.0000 </r>
       <r>   -6.2327    1.0000 </r>
       <r>   -6.2052    1.0000 </r>
       <r>   -6.1330    1.0000 </r>
       <r>   -6.0997    1.0000 </r>
       <r>   -6.0235    1.0000 </r>
       <r>   -5.9866    1.0000 </r>
       <r>   -5.9330    1.0000 </r>
       <r>   -5.8218    1.0000 </r>
       <r>   -5.7119    1.0000 </r>
       <r>   -5.6341    1.0000 </r>
       <r>   -5.5993    1.0000 </r>
       <r>   -5.4354    1.0000 </r>
       <r>   -5.2826    1.0000 </r>
       <r>   -5.1088    1.0000 </r>
       <r>   -5.0739    1.0000 </r>
       <r>   -4.8948    1.0000 </r>
       <r>   -4.8022    1.0000 </r>
       <r>   -4.6909    1.0000 </r>
       <r>   -4.6121    1.0000 </r>
       <r>   -4.4324    1.0000 </r>
       <r>   -4.3187    1.0000 </r>
       <r>   -4.2716    1.0000 </r>
       <r>   -4.1585    1.0000 </r>
       <r>   -4.0571    1.0000 </r>
       <r>   -3.9009    1.0000 </r>
       <r>   -3.6809    0.9982 </r>
       <r>   -3.5416    0.9726 </r>
       <r>   -3.1048    0.1214 </r>
       <r>   -2.9938    0.0254 </r>
       <r>   -2.8664    0.0022 </r>
       <r>   -2.7868    0.0003 </r>
       <r>   -2.6564    0.0000 </r>
       <r>   -2.5087    0.0000 </r>
       <r>   -2.4071    0.0000 </r>
       <r>   -2.2091    0.0000 </r>
       <r>   -2.1342    0.0000 </r>
       <r>   -2.0806    0.0000 </r>
       <r>   -1.9487    0.0000 </r>
       <r>   -1.8860    0.0000 </r>
       <r>   -1.7192    0.0000 </r>
       <r>   -1.5065    0.0000 </r>
       <r>   -1.3638    0.0000 </r>
       <r>   -1.2972    0.0000 </r>
       <r>   -1.1498    0.0000 </r>
       <r>   -1.0371    0.0000 </r>
       <r>   -0.9785    0.0000 </r>
       <r>   -0.9175    0.0000 </r>
       <r>   -0.8673    0.0000 </r>
       <r>   -0.7457    0.0000 </r>
       <r>   -0.7028    0.0000 </r>
       <r>   -0.6710    0.0000 </r>
       <r>   -0.6022    0.0000 </r>
       <r>   -0.4950    0.0000 </r>
       <r>   -0.3764    0.0000 </r>
       <r>   -0.3325    0.0000 </r>
       <r>   -0.1281    0.0000 </r>
       <r>    0.0696    0.0000 </r>
       <r>    0.2204    0.0000 </r>
       <r>    0.4684    0.0000 </r>
       <r>    0.4951    0.0000 </r>
       <r>    0.7928    0.0000 </r>
       <r>    0.8885    0.0000 </r>
       <r>    1.0678    0.0000 </r>
       <r>    1.1712    0.0000 </r>
       <r>    1.3462    0.0000 </r>
       <r>    2.1091    0.0000 </r>
       <r>    2.2967    0.0000 </r>
       <r>    2.3669    0.0000 </r>
      </set>
      <set comment="kpoint 32">
       <r>  -17.5190    1.0000 </r>
       <r>  -17.1936    1.0000 </r>
       <r>  -17.0292    1.0000 </r>
       <r>  -16.6135    1.0000 </r>
       <r>  -16.4513    1.0000 </r>
       <r>  -16.3631    1.0000 </r>
       <r>  -16.2572    1.0000 </r>
       <r>  -16.2057    1.0000 </r>
       <r>  -16.1610    1.0000 </r>
       <r>  -16.0352    1.0000 </r>
       <r>  -16.0001    1.0000 </r>
       <r>  -15.8562    1.0000 </r>
       <r>  -15.7761    1.0000 </r>
       <r>  -15.7339    1.0000 </r>
       <r>  -15.6012    1.0000 </r>
       <r>  -15.5863    1.0000 </r>
       <r>  -15.4470    1.0000 </r>
       <r>  -15.2061    1.0000 </r>
       <r>   -9.6401    1.0000 </r>
       <r>   -9.5552    1.0000 </r>
       <r>   -9.4089    1.0000 </r>
       <r>   -8.9554    1.0000 </r>
       <r>   -8.7273    1.0000 </r>
       <r>   -8.6618    1.0000 </r>
       <r>   -8.5579    1.0000 </r>
       <r>   -8.4665    1.0000 </r>
       <r>   -8.4197    1.0000 </r>
       <r>   -8.3718    1.0000 </r>
       <r>   -8.2395    1.0000 </r>
       <r>   -8.1942    1.0000 </r>
       <r>   -8.1579    1.0000 </r>
       <r>   -8.0597    1.0000 </r>
       <r>   -8.0058    1.0000 </r>
       <r>   -7.9625    1.0000 </r>
       <r>   -7.8556    1.0000 </r>
       <r>   -7.7225    1.0000 </r>
       <r>   -7.5498    1.0000 </r>
       <r>   -7.4343    1.0000 </r>
       <r>   -7.3465    1.0000 </r>
       <r>   -7.2185    1.0000 </r>
       <r>   -7.1800    1.0000 </r>
       <r>   -7.0881    1.0000 </r>
       <r>   -7.0320    1.0000 </r>
       <r>   -6.8835    1.0000 </r>
       <r>   -6.8647    1.0000 </r>
       <r>   -6.7826    1.0000 </r>
       <r>   -6.6787    1.0000 </r>
       <r>   -6.6126    1.0000 </r>
       <r>   -6.5403    1.0000 </r>
       <r>   -6.4407    1.0000 </r>
       <r>   -6.4263    1.0000 </r>
       <r>   -6.3285    1.0000 </r>
       <r>   -6.2781    1.0000 </r>
       <r>   -6.1924    1.0000 </r>
       <r>   -6.1430    1.0000 </r>
       <r>   -6.0856    1.0000 </r>
       <r>   -5.9995    1.0000 </r>
       <r>   -5.9148    1.0000 </r>
       <r>   -5.8580    1.0000 </r>
       <r>   -5.7293    1.0000 </r>
       <r>   -5.6696    1.0000 </r>
       <r>   -5.6076    1.0000 </r>
       <r>   -5.5072    1.0000 </r>
       <r>   -5.4736    1.0000 </r>
       <r>   -5.2968    1.0000 </r>
       <r>   -5.2203    1.0000 </r>
       <r>   -5.1264    1.0000 </r>
       <r>   -4.9811    1.0000 </r>
       <r>   -4.8072    1.0000 </r>
       <r>   -4.6428    1.0000 </r>
       <r>   -4.6041    1.0000 </r>
       <r>   -4.4649    1.0000 </r>
       <r>   -4.3976    1.0000 </r>
       <r>   -4.2886    1.0000 </r>
       <r>   -4.1420    1.0000 </r>
       <r>   -4.0679    1.0000 </r>
       <r>   -3.8928    1.0000 </r>
       <r>   -3.6685    0.9976 </r>
       <r>   -3.4740    0.9254 </r>
       <r>   -3.0843    0.0946 </r>
       <r>   -3.0006    0.0284 </r>
       <r>   -2.9054    0.0050 </r>
       <r>   -2.7831    0.0003 </r>
       <r>   -2.6323    0.0000 </r>
       <r>   -2.5164    0.0000 </r>
       <r>   -2.4410    0.0000 </r>
       <r>   -2.2447    0.0000 </r>
       <r>   -2.1390    0.0000 </r>
       <r>   -2.0575    0.0000 </r>
       <r>   -1.9920    0.0000 </r>
       <r>   -1.8976    0.0000 </r>
       <r>   -1.7601    0.0000 </r>
       <r>   -1.4651    0.0000 </r>
       <r>   -1.3197    0.0000 </r>
       <r>   -1.2762    0.0000 </r>
       <r>   -1.1298    0.0000 </r>
       <r>   -1.0302    0.0000 </r>
       <r>   -1.0229    0.0000 </r>
       <r>   -0.9255    0.0000 </r>
       <r>   -0.8206    0.0000 </r>
       <r>   -0.7860    0.0000 </r>
       <r>   -0.7307    0.0000 </r>
       <r>   -0.6532    0.0000 </r>
       <r>   -0.5774    0.0000 </r>
       <r>   -0.4635    0.0000 </r>
       <r>   -0.3701    0.0000 </r>
       <r>   -0.2871    0.0000 </r>
       <r>   -0.1130    0.0000 </r>
       <r>    0.0264    0.0000 </r>
       <r>    0.1762    0.0000 </r>
       <r>    0.4543    0.0000 </r>
       <r>    0.4935    0.0000 </r>
       <r>    0.7882    0.0000 </r>
       <r>    0.8590    0.0000 </r>
       <r>    1.0810    0.0000 </r>
       <r>    1.1816    0.0000 </r>
       <r>    1.3740    0.0000 </r>
       <r>    2.0865    0.0000 </r>
       <r>    2.2651    0.0000 </r>
       <r>    2.5527    0.0000 </r>
      </set>
      <set comment="kpoint 33">
       <r>  -17.4924    1.0000 </r>
       <r>  -17.2883    1.0000 </r>
       <r>  -16.9083    1.0000 </r>
       <r>  -16.6069    1.0000 </r>
       <r>  -16.4952    1.0000 </r>
       <r>  -16.4522    1.0000 </r>
       <r>  -16.2621    1.0000 </r>
       <r>  -16.1918    1.0000 </r>
       <r>  -16.1400    1.0000 </r>
       <r>  -16.0673    1.0000 </r>
       <r>  -15.9268    1.0000 </r>
       <r>  -15.8455    1.0000 </r>
       <r>  -15.7788    1.0000 </r>
       <r>  -15.7080    1.0000 </r>
       <r>  -15.6078    1.0000 </r>
       <r>  -15.5921    1.0000 </r>
       <r>  -15.4471    1.0000 </r>
       <r>  -15.2242    1.0000 </r>
       <r>   -9.7209    1.0000 </r>
       <r>   -9.4441    1.0000 </r>
       <r>   -9.3511    1.0000 </r>
       <r>   -8.9171    1.0000 </r>
       <r>   -8.8187    1.0000 </r>
       <r>   -8.7544    1.0000 </r>
       <r>   -8.6485    1.0000 </r>
       <r>   -8.5718    1.0000 </r>
       <r>   -8.3917    1.0000 </r>
       <r>   -8.2961    1.0000 </r>
       <r>   -8.2364    1.0000 </r>
       <r>   -8.1811    1.0000 </r>
       <r>   -8.1017    1.0000 </r>
       <r>   -8.0397    1.0000 </r>
       <r>   -7.9728    1.0000 </r>
       <r>   -7.8973    1.0000 </r>
       <r>   -7.8132    1.0000 </r>
       <r>   -7.6932    1.0000 </r>
       <r>   -7.6023    1.0000 </r>
       <r>   -7.5414    1.0000 </r>
       <r>   -7.3594    1.0000 </r>
       <r>   -7.2812    1.0000 </r>
       <r>   -7.0982    1.0000 </r>
       <r>   -7.0504    1.0000 </r>
       <r>   -6.9536    1.0000 </r>
       <r>   -6.9224    1.0000 </r>
       <r>   -6.8415    1.0000 </r>
       <r>   -6.7921    1.0000 </r>
       <r>   -6.7040    1.0000 </r>
       <r>   -6.6080    1.0000 </r>
       <r>   -6.5738    1.0000 </r>
       <r>   -6.5024    1.0000 </r>
       <r>   -6.4215    1.0000 </r>
       <r>   -6.3460    1.0000 </r>
       <r>   -6.2274    1.0000 </r>
       <r>   -6.1692    1.0000 </r>
       <r>   -6.1147    1.0000 </r>
       <r>   -6.0381    1.0000 </r>
       <r>   -5.9814    1.0000 </r>
       <r>   -5.9611    1.0000 </r>
       <r>   -5.8714    1.0000 </r>
       <r>   -5.7828    1.0000 </r>
       <r>   -5.6767    1.0000 </r>
       <r>   -5.6196    1.0000 </r>
       <r>   -5.5414    1.0000 </r>
       <r>   -5.3824    1.0000 </r>
       <r>   -5.3346    1.0000 </r>
       <r>   -5.1813    1.0000 </r>
       <r>   -5.1208    1.0000 </r>
       <r>   -4.9016    1.0000 </r>
       <r>   -4.7597    1.0000 </r>
       <r>   -4.7047    1.0000 </r>
       <r>   -4.6284    1.0000 </r>
       <r>   -4.5006    1.0000 </r>
       <r>   -4.4276    1.0000 </r>
       <r>   -4.2232    1.0000 </r>
       <r>   -4.1684    1.0000 </r>
       <r>   -4.0669    1.0000 </r>
       <r>   -3.9201    1.0000 </r>
       <r>   -3.6803    0.9981 </r>
       <r>   -3.4568    0.9068 </r>
       <r>   -3.0673    0.0759 </r>
       <r>   -2.9925    0.0249 </r>
       <r>   -2.9452    0.0108 </r>
       <r>   -2.7694    0.0002 </r>
       <r>   -2.6378    0.0000 </r>
       <r>   -2.5491    0.0000 </r>
       <r>   -2.4307    0.0000 </r>
       <r>   -2.2920    0.0000 </r>
       <r>   -2.1455    0.0000 </r>
       <r>   -2.0713    0.0000 </r>
       <r>   -1.9805    0.0000 </r>
       <r>   -1.8735    0.0000 </r>
       <r>   -1.7817    0.0000 </r>
       <r>   -1.4380    0.0000 </r>
       <r>   -1.3056    0.0000 </r>
       <r>   -1.2293    0.0000 </r>
       <r>   -1.1441    0.0000 </r>
       <r>   -1.0737    0.0000 </r>
       <r>   -1.0135    0.0000 </r>
       <r>   -0.9268    0.0000 </r>
       <r>   -0.8272    0.0000 </r>
       <r>   -0.7812    0.0000 </r>
       <r>   -0.7178    0.0000 </r>
       <r>   -0.6466    0.0000 </r>
       <r>   -0.5648    0.0000 </r>
       <r>   -0.5075    0.0000 </r>
       <r>   -0.3971    0.0000 </r>
       <r>   -0.2331    0.0000 </r>
       <r>   -0.0738    0.0000 </r>
       <r>    0.0179    0.0000 </r>
       <r>    0.1693    0.0000 </r>
       <r>    0.4009    0.0000 </r>
       <r>    0.4579    0.0000 </r>
       <r>    0.7695    0.0000 </r>
       <r>    0.8683    0.0000 </r>
       <r>    1.0982    0.0000 </r>
       <r>    1.2455    0.0000 </r>
       <r>    1.4356    0.0000 </r>
       <r>    2.1247    0.0000 </r>
       <r>    2.2936    0.0000 </r>
       <r>    2.3924    0.0000 </r>
      </set>
      <set comment="kpoint 34">
       <r>  -17.4543    1.0000 </r>
       <r>  -17.3630    1.0000 </r>
       <r>  -16.7534    1.0000 </r>
       <r>  -16.6571    1.0000 </r>
       <r>  -16.6034    1.0000 </r>
       <r>  -16.4632    1.0000 </r>
       <r>  -16.2304    1.0000 </r>
       <r>  -16.2045    1.0000 </r>
       <r>  -16.1561    1.0000 </r>
       <r>  -16.0545    1.0000 </r>
       <r>  -15.8858    1.0000 </r>
       <r>  -15.8329    1.0000 </r>
       <r>  -15.7808    1.0000 </r>
       <r>  -15.6896    1.0000 </r>
       <r>  -15.6177    1.0000 </r>
       <r>  -15.6052    1.0000 </r>
       <r>  -15.4473    1.0000 </r>
       <r>  -15.2352    1.0000 </r>
       <r>   -9.7630    1.0000 </r>
       <r>   -9.3441    1.0000 </r>
       <r>   -9.2689    1.0000 </r>
       <r>   -8.9932    1.0000 </r>
       <r>   -8.8888    1.0000 </r>
       <r>   -8.8019    1.0000 </r>
       <r>   -8.6855    1.0000 </r>
       <r>   -8.6395    1.0000 </r>
       <r>   -8.3821    1.0000 </r>
       <r>   -8.2562    1.0000 </r>
       <r>   -8.2324    1.0000 </r>
       <r>   -8.1844    1.0000 </r>
       <r>   -8.0484    1.0000 </r>
       <r>   -8.0336    1.0000 </r>
       <r>   -7.9099    1.0000 </r>
       <r>   -7.8843    1.0000 </r>
       <r>   -7.7473    1.0000 </r>
       <r>   -7.7128    1.0000 </r>
       <r>   -7.6201    1.0000 </r>
       <r>   -7.5589    1.0000 </r>
       <r>   -7.3819    1.0000 </r>
       <r>   -7.3515    1.0000 </r>
       <r>   -7.0724    1.0000 </r>
       <r>   -7.0252    1.0000 </r>
       <r>   -6.9167    1.0000 </r>
       <r>   -6.8843    1.0000 </r>
       <r>   -6.8195    1.0000 </r>
       <r>   -6.7656    1.0000 </r>
       <r>   -6.7163    1.0000 </r>
       <r>   -6.6194    1.0000 </r>
       <r>   -6.5802    1.0000 </r>
       <r>   -6.5168    1.0000 </r>
       <r>   -6.4615    1.0000 </r>
       <r>   -6.3451    1.0000 </r>
       <r>   -6.3347    1.0000 </r>
       <r>   -6.1101    1.0000 </r>
       <r>   -6.1003    1.0000 </r>
       <r>   -6.0261    1.0000 </r>
       <r>   -5.9969    1.0000 </r>
       <r>   -5.9433    1.0000 </r>
       <r>   -5.8727    1.0000 </r>
       <r>   -5.8133    1.0000 </r>
       <r>   -5.7243    1.0000 </r>
       <r>   -5.6363    1.0000 </r>
       <r>   -5.5209    1.0000 </r>
       <r>   -5.4157    1.0000 </r>
       <r>   -5.3380    1.0000 </r>
       <r>   -5.1572    1.0000 </r>
       <r>   -5.0060    1.0000 </r>
       <r>   -4.8803    1.0000 </r>
       <r>   -4.8427    1.0000 </r>
       <r>   -4.6642    1.0000 </r>
       <r>   -4.5348    1.0000 </r>
       <r>   -4.5248    1.0000 </r>
       <r>   -4.4747    1.0000 </r>
       <r>   -4.2375    1.0000 </r>
       <r>   -4.1576    1.0000 </r>
       <r>   -4.0690    1.0000 </r>
       <r>   -3.9423    1.0000 </r>
       <r>   -3.6936    0.9986 </r>
       <r>   -3.4562    0.9061 </r>
       <r>   -3.0560    0.0651 </r>
       <r>   -3.0111    0.0336 </r>
       <r>   -2.9369    0.0093 </r>
       <r>   -2.7582    0.0001 </r>
       <r>   -2.6578    0.0000 </r>
       <r>   -2.5675    0.0000 </r>
       <r>   -2.4121    0.0000 </r>
       <r>   -2.3159    0.0000 </r>
       <r>   -2.1439    0.0000 </r>
       <r>   -2.0933    0.0000 </r>
       <r>   -1.9625    0.0000 </r>
       <r>   -1.8482    0.0000 </r>
       <r>   -1.7859    0.0000 </r>
       <r>   -1.4399    0.0000 </r>
       <r>   -1.2931    0.0000 </r>
       <r>   -1.2053    0.0000 </r>
       <r>   -1.1663    0.0000 </r>
       <r>   -1.0912    0.0000 </r>
       <r>   -1.0287    0.0000 </r>
       <r>   -0.9115    0.0000 </r>
       <r>   -0.8293    0.0000 </r>
       <r>   -0.7666    0.0000 </r>
       <r>   -0.6848    0.0000 </r>
       <r>   -0.6480    0.0000 </r>
       <r>   -0.5734    0.0000 </r>
       <r>   -0.5662    0.0000 </r>
       <r>   -0.4117    0.0000 </r>
       <r>   -0.2100    0.0000 </r>
       <r>   -0.0383    0.0000 </r>
       <r>    0.0116    0.0000 </r>
       <r>    0.1884    0.0000 </r>
       <r>    0.3597    0.0000 </r>
       <r>    0.4243    0.0000 </r>
       <r>    0.7853    0.0000 </r>
       <r>    0.8636    0.0000 </r>
       <r>    1.1216    0.0000 </r>
       <r>    1.2690    0.0000 </r>
       <r>    1.4737    0.0000 </r>
       <r>    2.2076    0.0000 </r>
       <r>    2.2461    0.0000 </r>
       <r>    2.3810    0.0000 </r>
      </set>
     </set>
    </set>
   </array>
  </eigenvalues>
  <separator name="orbital magnetization" >
   <v name="MAGDIPOLOUT">      0.00000000      0.00000000      0.00000000</v>
  </separator>
 </calculation>
 <structure name="finalpos" >
  <crystal>
   <varray name="basis" >
    <v>       8.33264290       4.82369289       0.00000000 </v>
    <v>      -8.35503730       4.86232726       0.00000000 </v>
    <v>       0.00000000       0.00000000      30.00000000 </v>
   </varray>
   <i name="volume">   2424.54511999 </i>
   <varray name="rec_basis" >
    <v>       0.06016379       0.10338068       0.00000000 </v>
    <v>      -0.05968575       0.10310358       0.00000000 </v>
    <v>       0.00000000       0.00000000       0.03333333 </v>
   </varray>
  </crystal>
  <varray name="positions" >
   <v>       0.98408122       0.30210740      -0.00148519 </v>
   <v>       0.33047837       0.33198961       0.00255361 </v>
   <v>       0.36306090       0.68059050      -0.00091648 </v>
   <v>       0.68596803       0.70130386       0.00076218 </v>
   <v>       0.35556148      -0.00058861      -0.00026009 </v>
   <v>       0.65903690      -0.00173159       0.00001373 </v>
   <v>      -0.02661646      -0.01398746      -0.00041969 </v>
   <v>       0.00095213       0.70349575       0.00146301 </v>
   <v>       0.64990678       0.29349823      -0.00119158 </v>
   <v>       0.11293495       0.22487565       0.94988342 </v>
   <v>       0.22059890       0.10951374       0.04644617 </v>
   <v>       0.11082107       0.55642577       0.95952401 </v>
   <v>       0.22076353       0.44389808       0.04570674 </v>
   <v>       0.11430186       0.90049202       0.94773736 </v>
   <v>       0.22485140       0.77291732       0.05019752 </v>
   <v>       0.44027909       0.21980354       0.94761277 </v>
   <v>       0.55463772       0.10528714       0.05645519 </v>
   <v>       0.44748583       0.55628180       0.95119114 </v>
   <v>       0.56012235       0.44554793       0.04532714 </v>
   <v>       0.44213439       0.87979762       0.94570190 </v>
   <v>       0.55106871       0.77620830       0.05442744 </v>
   <v>       0.77965573       0.21855494       0.94545616 </v>
   <v>       0.88849651       0.11444994       0.05331487 </v>
   <v>       0.77448119       0.55016756       0.95440007 </v>
   <v>       0.88985608       0.44462493       0.04450906 </v>
   <v>       0.77472713       0.89427828       0.94355910 </v>
   <v>       0.88856865       0.78841221       0.05803034 </v>
  </varray>
 </structure>
</modeling>
