   27   27  100    1
  0.9710400E+02  0.1002848E-08  0.1002848E-08  0.3000000E-08  0.5000000E-15
  1.000000000000000E-004
  CAR 
 unknown system                          
    159     34    120
 
  0.0000000E+00  0.0000000E+00  0.0000000E+00  0.1562500E-01
    1      -17.802219   1.000000
    2      -16.704216   1.000000
    3      -16.641956   1.000000
    4      -16.609083   1.000000
    5      -16.504346   1.000000
    6      -16.438875   1.000000
    7      -16.410298   1.000000
    8      -16.271186   1.000000
    9      -16.158797   1.000000
   10      -16.128511   1.000000
   11      -16.044292   1.000000
   12      -15.898711   1.000000
   13      -15.879661   1.000000
   14      -15.681179   1.000000
   15      -15.572804   1.000000
   16      -15.520812   1.000000
   17      -15.416382   1.000000
   18      -15.323856   1.000000
   19       -9.381867   1.000000
   20       -9.045240   1.000000
   21       -8.947123   1.000000
   22       -8.871080   1.000000
   23       -8.719647   1.000000
   24       -8.662389   1.000000
   25       -8.604459   1.000000
   26       -8.532058   1.000000
   27       -8.463864   1.000000
   28       -8.438083   1.000000
   29       -8.423976   1.000000
   30       -8.338193   1.000000
   31       -8.256558   1.000000
   32       -8.159100   1.000000
   33       -8.067487   1.000000
   34       -8.012160   1.000000
   35       -7.894582   1.000000
   36       -7.727171   1.000000
   37       -7.716949   1.000000
   38       -7.534423   1.000000
   39       -7.480306   1.000000
   40       -7.451585   1.000000
   41       -7.393411   1.000000
   42       -7.162254   1.000000
   43       -7.116682   1.000000
   44       -6.958403   1.000000
   45       -6.836715   1.000000
   46       -6.787273   1.000000
   47       -6.741882   1.000000
   48       -6.708037   1.000000
   49       -6.625628   1.000000
   50       -6.456105   1.000000
   51       -6.424562   1.000000
   52       -6.406292   1.000000
   53       -6.248449   1.000000
   54       -6.200585   1.000000
   55       -6.186070   1.000000
   56       -6.085977   1.000000
   57       -5.977265   1.000000
   58       -5.900937   1.000000
   59       -5.757965   1.000000
   60       -5.568352   1.000000
   61       -5.458031   1.000000
   62       -5.439073   1.000000
   63       -5.212118   1.000000
   64       -5.147927   1.000000
   65       -5.073013   1.000000
   66       -5.038174   1.000000
   67       -4.892312   1.000000
   68       -4.834245   1.000000
   69       -4.817093   1.000000
   70       -4.777601   1.000000
   71       -4.648726   1.000000
   72       -4.544827   1.000000
   73       -4.495614   1.000000
   74       -4.475447   1.000000
   75       -4.199010   1.000000
   76       -4.044029   0.999999
   77       -3.814453   0.998989
   78       -3.713463   0.991176
   79       -3.635334   0.965656
   80       -3.386216   0.523497
   81       -3.231708   0.150660
   82       -2.725078   0.000002
   83       -2.637022   0.000000
   84       -2.573037   0.000000
   85       -2.556596   0.000000
   86       -2.503120   0.000000
   87       -2.344272   0.000000
   88       -2.278680   0.000000
   89       -2.238187   0.000000
   90       -2.153015   0.000000
   91       -1.726915   0.000000
   92       -1.706950   0.000000
   93       -1.568387   0.000000
   94       -1.292963   0.000000
   95       -1.184845   0.000000
   96       -1.049383   0.000000
   97       -0.945468   0.000000
   98       -0.882600   0.000000
   99       -0.723921   0.000000
  100       -0.648223   0.000000
  101       -0.586908   0.000000
  102       -0.547981   0.000000
  103       -0.496365   0.000000
  104       -0.470725   0.000000
  105       -0.223720   0.000000
  106       -0.059730   0.000000
  107       -0.022973   0.000000
  108        0.009245   0.000000
  109        0.155531   0.000000
  110        0.387686   0.000000
  111        0.427469   0.000000
  112        0.436058   0.000000
  113        0.545064   0.000000
  114        0.721452   0.000000
  115        0.785760   0.000000
  116        0.985457   0.000000
  117        1.203095   0.000000
  118        1.640185   0.000000
  119        1.833507   0.000000
  120        2.148667   0.000000
 
  0.1250000E+00  0.2775558E-16  0.0000000E+00  0.3125000E-01
    1      -17.777840   1.000000
    2      -16.794939   1.000000
    3      -16.702408   1.000000
    4      -16.585225   1.000000
    5      -16.513746   1.000000
    6      -16.453091   1.000000
    7      -16.343861   1.000000
    8      -16.269434   1.000000
    9      -16.165994   1.000000
   10      -16.066231   1.000000
   11      -16.034163   1.000000
   12      -15.884034   1.000000
   13      -15.855870   1.000000
   14      -15.693893   1.000000
   15      -15.575230   1.000000
   16      -15.533069   1.000000
   17      -15.417887   1.000000
   18      -15.330034   1.000000
   19       -9.385879   1.000000
   20       -9.153530   1.000000
   21       -9.012054   1.000000
   22       -8.974500   1.000000
   23       -8.740180   1.000000
   24       -8.718492   1.000000
   25       -8.618803   1.000000
   26       -8.518601   1.000000
   27       -8.485064   1.000000
   28       -8.434155   1.000000
   29       -8.343998   1.000000
   30       -8.242671   1.000000
   31       -8.200081   1.000000
   32       -8.119156   1.000000
   33       -8.010517   1.000000
   34       -7.931465   1.000000
   35       -7.812463   1.000000
   36       -7.707737   1.000000
   37       -7.661635   1.000000
   38       -7.564930   1.000000
   39       -7.516341   1.000000
   40       -7.485093   1.000000
   41       -7.349309   1.000000
   42       -7.167227   1.000000
   43       -7.105477   1.000000
   44       -7.017315   1.000000
   45       -6.903368   1.000000
   46       -6.805606   1.000000
   47       -6.748700   1.000000
   48       -6.620210   1.000000
   49       -6.535006   1.000000
   50       -6.472633   1.000000
   51       -6.430249   1.000000
   52       -6.380371   1.000000
   53       -6.299624   1.000000
   54       -6.226045   1.000000
   55       -6.175994   1.000000
   56       -6.103290   1.000000
   57       -5.937157   1.000000
   58       -5.922401   1.000000
   59       -5.749735   1.000000
   60       -5.587283   1.000000
   61       -5.513825   1.000000
   62       -5.424168   1.000000
   63       -5.303091   1.000000
   64       -5.282939   1.000000
   65       -5.100984   1.000000
   66       -4.974500   1.000000
   67       -4.917375   1.000000
   68       -4.837481   1.000000
   69       -4.776607   1.000000
   70       -4.718264   1.000000
   71       -4.595534   1.000000
   72       -4.570045   1.000000
   73       -4.452343   1.000000
   74       -4.413517   1.000000
   75       -4.156556   1.000000
   76       -4.101148   1.000000
   77       -3.869210   0.999744
   78       -3.773538   0.997427
   79       -3.655382   0.975132
   80       -3.350265   0.422586
   81       -3.224140   0.138493
   82       -2.701065   0.000001
   83       -2.631060   0.000000
   84       -2.578060   0.000000
   85       -2.533244   0.000000
   86       -2.476555   0.000000
   87       -2.320380   0.000000
   88       -2.272573   0.000000
   89       -2.215999   0.000000
   90       -2.130189   0.000000
   91       -1.749668   0.000000
   92       -1.688967   0.000000
   93       -1.549914   0.000000
   94       -1.299807   0.000000
   95       -1.184070   0.000000
   96       -1.047893   0.000000
   97       -0.957054   0.000000
   98       -0.893977   0.000000
   99       -0.791848   0.000000
  100       -0.726426   0.000000
  101       -0.649546   0.000000
  102       -0.593673   0.000000
  103       -0.537419   0.000000
  104       -0.460764   0.000000
  105       -0.250235   0.000000
  106       -0.134899   0.000000
  107       -0.011540   0.000000
  108        0.018676   0.000000
  109        0.129737   0.000000
  110        0.357315   0.000000
  111        0.420770   0.000000
  112        0.491920   0.000000
  113        0.560122   0.000000
  114        0.732875   0.000000
  115        0.866258   0.000000
  116        0.988119   0.000000
  117        1.191524   0.000000
  118        1.681701   0.000000
  119        1.873802   0.000000
  120        2.183238   0.000000
 
  0.2500000E+00  0.5551115E-16  0.0000000E+00  0.3125000E-01
    1      -17.706107   1.000000
    2      -17.001633   1.000000
    3      -16.706068   1.000000
    4      -16.628098   1.000000
    5      -16.575459   1.000000
    6      -16.397497   1.000000
    7      -16.305873   1.000000
    8      -16.218294   1.000000
    9      -16.145675   1.000000
   10      -16.055643   1.000000
   11      -15.949749   1.000000
   12      -15.854678   1.000000
   13      -15.800955   1.000000
   14      -15.711285   1.000000
   15      -15.600328   1.000000
   16      -15.542472   1.000000
   17      -15.424444   1.000000
   18      -15.347821   1.000000
   19       -9.498704   1.000000
   20       -9.276188   1.000000
   21       -9.167506   1.000000
   22       -9.026788   1.000000
   23       -8.857548   1.000000
   24       -8.761787   1.000000
   25       -8.596514   1.000000
   26       -8.511270   1.000000
   27       -8.442636   1.000000
   28       -8.385174   1.000000
   29       -8.310116   1.000000
   30       -8.199498   1.000000
   31       -8.127990   1.000000
   32       -8.051113   1.000000
   33       -7.875450   1.000000
   34       -7.810873   1.000000
   35       -7.772706   1.000000
   36       -7.680082   1.000000
   37       -7.596446   1.000000
   38       -7.546153   1.000000
   39       -7.464176   1.000000
   40       -7.416454   1.000000
   41       -7.299977   1.000000
   42       -7.188528   1.000000
   43       -7.121533   1.000000
   44       -7.022453   1.000000
   45       -6.914093   1.000000
   46       -6.806027   1.000000
   47       -6.759852   1.000000
   48       -6.589335   1.000000
   49       -6.525106   1.000000
   50       -6.449731   1.000000
   51       -6.402357   1.000000
   52       -6.325121   1.000000
   53       -6.307605   1.000000
   54       -6.238461   1.000000
   55       -6.173590   1.000000
   56       -6.109147   1.000000
   57       -5.964904   1.000000
   58       -5.905934   1.000000
   59       -5.767198   1.000000
   60       -5.689016   1.000000
   61       -5.613010   1.000000
   62       -5.522530   1.000000
   63       -5.457074   1.000000
   64       -5.404393   1.000000
   65       -5.245002   1.000000
   66       -4.893178   1.000000
   67       -4.843893   1.000000
   68       -4.790840   1.000000
   69       -4.692362   1.000000
   70       -4.681348   1.000000
   71       -4.607322   1.000000
   72       -4.478148   1.000000
   73       -4.388163   1.000000
   74       -4.326504   1.000000
   75       -4.293989   1.000000
   76       -4.064749   0.999999
   77       -4.002942   0.999995
   78       -3.829429   0.999296
   79       -3.668484   0.980054
   80       -3.322041   0.346477
   81       -3.200144   0.104413
   82       -2.683458   0.000000
   83       -2.614501   0.000000
   84       -2.556360   0.000000
   85       -2.470432   0.000000
   86       -2.412021   0.000000
   87       -2.293651   0.000000
   88       -2.235800   0.000000
   89       -2.156096   0.000000
   90       -2.062778   0.000000
   91       -1.753502   0.000000
   92       -1.666606   0.000000
   93       -1.523475   0.000000
   94       -1.328355   0.000000
   95       -1.193414   0.000000
   96       -1.081917   0.000000
   97       -1.024046   0.000000
   98       -0.957218   0.000000
   99       -0.909111   0.000000
  100       -0.874922   0.000000
  101       -0.736200   0.000000
  102       -0.644255   0.000000
  103       -0.591612   0.000000
  104       -0.492208   0.000000
  105       -0.393419   0.000000
  106       -0.199118   0.000000
  107       -0.051040   0.000000
  108       -0.003169   0.000000
  109        0.095010   0.000000
  110        0.304132   0.000000
  111        0.403846   0.000000
  112        0.535769   0.000000
  113        0.593919   0.000000
  114        0.815330   0.000000
  115        0.971388   0.000000
  116        1.020178   0.000000
  117        1.207082   0.000000
  118        1.799521   0.000000
  119        1.988399   0.000000
  120        2.285734   0.000000
 
  0.3750000E+00  0.0000000E+00  0.0000000E+00  0.3125000E-01
    1      -17.593296   1.000000
    2      -17.207363   1.000000
    3      -16.722355   1.000000
    4      -16.647184   1.000000
    5      -16.613735   1.000000
    6      -16.391491   1.000000
    7      -16.278008   1.000000
    8      -16.195442   1.000000
    9      -16.082751   1.000000
   10      -16.007084   1.000000
   11      -15.913021   1.000000
   12      -15.860307   1.000000
   13      -15.789772   1.000000
   14      -15.680316   1.000000
   15      -15.622660   1.000000
   16      -15.536231   1.000000
   17      -15.434255   1.000000
   18      -15.371455   1.000000
   19       -9.672516   1.000000
   20       -9.332699   1.000000
   21       -9.242242   1.000000
   22       -9.024218   1.000000
   23       -8.948026   1.000000
   24       -8.819886   1.000000
   25       -8.524177   1.000000
   26       -8.459716   1.000000
   27       -8.402088   1.000000
   28       -8.333831   1.000000
   29       -8.304839   1.000000
   30       -8.223640   1.000000
   31       -8.128821   1.000000
   32       -8.019375   1.000000
   33       -7.893812   1.000000
   34       -7.828247   1.000000
   35       -7.748062   1.000000
   36       -7.697894   1.000000
   37       -7.569916   1.000000
   38       -7.441585   1.000000
   39       -7.385305   1.000000
   40       -7.268562   1.000000
   41       -7.207514   1.000000
   42       -7.151620   1.000000
   43       -7.063703   1.000000
   44       -6.965446   1.000000
   45       -6.878162   1.000000
   46       -6.775296   1.000000
   47       -6.740142   1.000000
   48       -6.620826   1.000000
   49       -6.536111   1.000000
   50       -6.438083   1.000000
   51       -6.406220   1.000000
   52       -6.335882   1.000000
   53       -6.314664   1.000000
   54       -6.203829   1.000000
   55       -6.113309   1.000000
   56       -6.015995   1.000000
   57       -5.972397   1.000000
   58       -5.944630   1.000000
   59       -5.901150   1.000000
   60       -5.794162   1.000000
   61       -5.757950   1.000000
   62       -5.641936   1.000000
   63       -5.574049   1.000000
   64       -5.493659   1.000000
   65       -5.206435   1.000000
   66       -4.912548   1.000000
   67       -4.832918   1.000000
   68       -4.775190   1.000000
   69       -4.732224   1.000000
   70       -4.628749   1.000000
   71       -4.579423   1.000000
   72       -4.479082   1.000000
   73       -4.367453   1.000000
   74       -4.301250   1.000000
   75       -4.267256   1.000000
   76       -4.155464   1.000000
   77       -3.967026   0.999984
   78       -3.834249   0.999375
   79       -3.650884   0.973223
   80       -3.341253   0.397815
   81       -3.169467   0.070279
   82       -2.686981   0.000001
   83       -2.607004   0.000000
   84       -2.513825   0.000000
   85       -2.410799   0.000000
   86       -2.340650   0.000000
   87       -2.268485   0.000000
   88       -2.181060   0.000000
   89       -2.086600   0.000000
   90       -1.987444   0.000000
   91       -1.703122   0.000000
   92       -1.643097   0.000000
   93       -1.520350   0.000000
   94       -1.384353   0.000000
   95       -1.260476   0.000000
   96       -1.193680   0.000000
   97       -1.146265   0.000000
   98       -1.032500   0.000000
   99       -0.995691   0.000000
  100       -0.887217   0.000000
  101       -0.775532   0.000000
  102       -0.708083   0.000000
  103       -0.605931   0.000000
  104       -0.579889   0.000000
  105       -0.473115   0.000000
  106       -0.238338   0.000000
  107       -0.124473   0.000000
  108       -0.069785   0.000000
  109        0.050334   0.000000
  110        0.257892   0.000000
  111        0.399766   0.000000
  112        0.537570   0.000000
  113        0.638626   0.000000
  114        0.879740   0.000000
  115        1.014232   0.000000
  116        1.078580   0.000000
  117        1.274152   0.000000
  118        1.978068   0.000000
  119        2.164050   0.000000
  120        2.429597   0.000000
 
  0.5000000E+00  0.1110223E-15  0.0000000E+00  0.1562500E-01
    1      -17.492659   1.000000
    2      -17.340693   1.000000
    3      -16.731981   1.000000
    4      -16.652135   1.000000
    5      -16.623630   1.000000
    6      -16.395238   1.000000
    7      -16.266786   1.000000
    8      -16.197760   1.000000
    9      -16.022528   1.000000
   10      -15.985072   1.000000
   11      -15.923841   1.000000
   12      -15.853981   1.000000
   13      -15.810944   1.000000
   14      -15.682658   1.000000
   15      -15.598940   1.000000
   16      -15.534064   1.000000
   17      -15.439150   1.000000
   18      -15.384029   1.000000
   19       -9.740172   1.000000
   20       -9.365913   1.000000
   21       -9.259322   1.000000
   22       -9.005462   1.000000
   23       -8.975986   1.000000
   24       -8.841648   1.000000
   25       -8.520920   1.000000
   26       -8.439108   1.000000
   27       -8.379380   1.000000
   28       -8.313305   1.000000
   29       -8.259007   1.000000
   30       -8.223157   1.000000
   31       -8.116437   1.000000
   32       -8.046774   1.000000
   33       -7.938938   1.000000
   34       -7.875045   1.000000
   35       -7.796031   1.000000
   36       -7.708835   1.000000
   37       -7.505363   1.000000
   38       -7.422466   1.000000
   39       -7.319167   1.000000
   40       -7.205634   1.000000
   41       -7.140486   1.000000
   42       -7.104512   1.000000
   43       -7.044382   1.000000
   44       -6.940019   1.000000
   45       -6.891833   1.000000
   46       -6.767436   1.000000
   47       -6.663246   1.000000
   48       -6.618073   1.000000
   49       -6.523173   1.000000
   50       -6.479336   1.000000
   51       -6.431254   1.000000
   52       -6.313192   1.000000
   53       -6.254942   1.000000
   54       -6.226595   1.000000
   55       -6.138682   1.000000
   56       -6.129987   1.000000
   57       -6.018772   1.000000
   58       -5.907564   1.000000
   59       -5.859772   1.000000
   60       -5.813034   1.000000
   61       -5.762653   1.000000
   62       -5.686120   1.000000
   63       -5.580730   1.000000
   64       -5.528319   1.000000
   65       -5.186315   1.000000
   66       -5.131129   1.000000
   67       -4.810156   1.000000
   68       -4.767089   1.000000
   69       -4.716834   1.000000
   70       -4.621219   1.000000
   71       -4.556389   1.000000
   72       -4.451895   1.000000
   73       -4.354846   1.000000
   74       -4.285335   1.000000
   75       -4.255132   1.000000
   76       -4.206666   1.000000
   77       -3.933083   0.999957
   78       -3.831481   0.999330
   79       -3.627514   0.961232
   80       -3.362540   0.456806
   81       -3.156390   0.058653
   82       -2.689945   0.000001
   83       -2.602859   0.000000
   84       -2.498015   0.000000
   85       -2.388472   0.000000
   86       -2.319307   0.000000
   87       -2.237209   0.000000
   88       -2.157744   0.000000
   89       -2.055888   0.000000
   90       -1.954349   0.000000
   91       -1.639770   0.000000
   92       -1.631981   0.000000
   93       -1.547484   0.000000
   94       -1.420093   0.000000
   95       -1.324948   0.000000
   96       -1.245049   0.000000
   97       -1.189290   0.000000
   98       -1.070383   0.000000
   99       -1.031566   0.000000
  100       -0.865760   0.000000
  101       -0.776908   0.000000
  102       -0.737523   0.000000
  103       -0.654381   0.000000
  104       -0.588577   0.000000
  105       -0.484672   0.000000
  106       -0.253268   0.000000
  107       -0.168779   0.000000
  108       -0.096472   0.000000
  109        0.028347   0.000000
  110        0.240338   0.000000
  111        0.396358   0.000000
  112        0.539581   0.000000
  113        0.654122   0.000000
  114        0.897562   0.000000
  115        1.028672   0.000000
  116        1.103546   0.000000
  117        1.308274   0.000000
  118        2.182314   0.000000
  119        2.228576   0.000000
  120        2.375521   0.000000
 
  0.0000000E+00  0.1250000E+00  0.0000000E+00  0.3125000E-01
    1      -17.778191   1.000000
    2      -16.770600   1.000000
    3      -16.690372   1.000000
    4      -16.621638   1.000000
    5      -16.549520   1.000000
    6      -16.413017   1.000000
    7      -16.357972   1.000000
    8      -16.274376   1.000000
    9      -16.154713   1.000000
   10      -16.096667   1.000000
   11      -15.981770   1.000000
   12      -15.903230   1.000000
   13      -15.864013   1.000000
   14      -15.678903   1.000000
   15      -15.588112   1.000000
   16      -15.512293   1.000000
   17      -15.426523   1.000000
   18      -15.334453   1.000000
   19       -9.395300   1.000000
   20       -9.119021   1.000000
   21       -9.034059   1.000000
   22       -8.961893   1.000000
   23       -8.776306   1.000000
   24       -8.673501   1.000000
   25       -8.613022   1.000000
   26       -8.543014   1.000000
   27       -8.488753   1.000000
   28       -8.460849   1.000000
   29       -8.394040   1.000000
   30       -8.238882   1.000000
   31       -8.175922   1.000000
   32       -8.103506   1.000000
   33       -7.971579   1.000000
   34       -7.916584   1.000000
   35       -7.827567   1.000000
   36       -7.727992   1.000000
   37       -7.681477   1.000000
   38       -7.577234   1.000000
   39       -7.480707   1.000000
   40       -7.399398   1.000000
   41       -7.359203   1.000000
   42       -7.194871   1.000000
   43       -7.111951   1.000000
   44       -7.031076   1.000000
   45       -6.903911   1.000000
   46       -6.832256   1.000000
   47       -6.749105   1.000000
   48       -6.629141   1.000000
   49       -6.592104   1.000000
   50       -6.508100   1.000000
   51       -6.451459   1.000000
   52       -6.360695   1.000000
   53       -6.242997   1.000000
   54       -6.197906   1.000000
   55       -6.167405   1.000000
   56       -6.085409   1.000000
   57       -5.966618   1.000000
   58       -5.897288   1.000000
   59       -5.718579   1.000000
   60       -5.554611   1.000000
   61       -5.526088   1.000000
   62       -5.415409   1.000000
   63       -5.324815   1.000000
   64       -5.188170   1.000000
   65       -5.093522   1.000000
   66       -5.015096   1.000000
   67       -4.983370   1.000000
   68       -4.908359   1.000000
   69       -4.771217   1.000000
   70       -4.754007   1.000000
   71       -4.666007   1.000000
   72       -4.573434   1.000000
   73       -4.410695   1.000000
   74       -4.322414   1.000000
   75       -4.141974   1.000000
   76       -4.032994   0.999998
   77       -3.873542   0.999772
   78       -3.743627   0.995148
   79       -3.635477   0.965732
   80       -3.541798   0.876785
   81       -3.075754   0.016325
   82       -2.732756   0.000003
   83       -2.689864   0.000001
   84       -2.563196   0.000000
   85       -2.551653   0.000000
   86       -2.473594   0.000000
   87       -2.359569   0.000000
   88       -2.268952   0.000000
   89       -2.198820   0.000000
   90       -2.144189   0.000000
   91       -1.751980   0.000000
   92       -1.660105   0.000000
   93       -1.559335   0.000000
   94       -1.281794   0.000000
   95       -1.171375   0.000000
   96       -1.047382   0.000000
   97       -0.957919   0.000000
   98       -0.890764   0.000000
   99       -0.750616   0.000000
  100       -0.682305   0.000000
  101       -0.645675   0.000000
  102       -0.601768   0.000000
  103       -0.573103   0.000000
  104       -0.461878   0.000000
  105       -0.273662   0.000000
  106       -0.143682   0.000000
  107       -0.051075   0.000000
  108        0.003368   0.000000
  109        0.129951   0.000000
  110        0.298022   0.000000
  111        0.385858   0.000000
  112        0.485622   0.000000
  113        0.583245   0.000000
  114        0.770695   0.000000
  115        0.865655   0.000000
  116        1.016178   0.000000
  117        1.249860   0.000000
  118        1.684302   0.000000
  119        1.872204   0.000000
  120        2.183897   0.000000
 
  0.1250000E+00  0.1250000E+00  0.0000000E+00  0.3125000E-01
    1      -17.730681   1.000000
    2      -16.912068   1.000000
    3      -16.762944   1.000000
    4      -16.641279   1.000000
    5      -16.485361   1.000000
    6      -16.426946   1.000000
    7      -16.315188   1.000000
    8      -16.265935   1.000000
    9      -16.122798   1.000000
   10      -16.047394   1.000000
   11      -15.962562   1.000000
   12      -15.885939   1.000000
   13      -15.823893   1.000000
   14      -15.695902   1.000000
   15      -15.605540   1.000000
   16      -15.526462   1.000000
   17      -15.433332   1.000000
   18      -15.335036   1.000000
   19       -9.447182   1.000000
   20       -9.253729   1.000000
   21       -9.163184   1.000000
   22       -9.040468   1.000000
   23       -8.785302   1.000000
   24       -8.664782   1.000000
   25       -8.628397   1.000000
   26       -8.530770   1.000000
   27       -8.452903   1.000000
   28       -8.425208   1.000000
   29       -8.290658   1.000000
   30       -8.219613   1.000000
   31       -8.147448   1.000000
   32       -8.054595   1.000000
   33       -7.991220   1.000000
   34       -7.837215   1.000000
   35       -7.789144   1.000000
   36       -7.676394   1.000000
   37       -7.612689   1.000000
   38       -7.546858   1.000000
   39       -7.452398   1.000000
   40       -7.364519   1.000000
   41       -7.290532   1.000000
   42       -7.221931   1.000000
   43       -7.131038   1.000000
   44       -7.068362   1.000000
   45       -6.923031   1.000000
   46       -6.828307   1.000000
   47       -6.733042   1.000000
   48       -6.614693   1.000000
   49       -6.552334   1.000000
   50       -6.482808   1.000000
   51       -6.417461   1.000000
   52       -6.397946   1.000000
   53       -6.267308   1.000000
   54       -6.216953   1.000000
   55       -6.160654   1.000000
   56       -6.063361   1.000000
   57       -5.977438   1.000000
   58       -5.899564   1.000000
   59       -5.745468   1.000000
   60       -5.682173   1.000000
   61       -5.570238   1.000000
   62       -5.431723   1.000000
   63       -5.394865   1.000000
   64       -5.274229   1.000000
   65       -5.182004   1.000000
   66       -5.054718   1.000000
   67       -4.923593   1.000000
   68       -4.833568   1.000000
   69       -4.782136   1.000000
   70       -4.705136   1.000000
   71       -4.591006   1.000000
   72       -4.518260   1.000000
   73       -4.322714   1.000000
   74       -4.269033   1.000000
   75       -4.212710   1.000000
   76       -4.091675   1.000000
   77       -3.987416   0.999992
   78       -3.795590   0.998430
   79       -3.606954   0.947361
   80       -3.501028   0.808062
   81       -3.069240   0.014539
   82       -2.716694   0.000001
   83       -2.647249   0.000000
   84       -2.548977   0.000000
   85       -2.511406   0.000000
   86       -2.449343   0.000000
   87       -2.317261   0.000000
   88       -2.258594   0.000000
   89       -2.161543   0.000000
   90       -2.110634   0.000000
   91       -1.756682   0.000000
   92       -1.667005   0.000000
   93       -1.527526   0.000000
   94       -1.287502   0.000000
   95       -1.169146   0.000000
   96       -1.044240   0.000000
   97       -0.995523   0.000000
   98       -0.914077   0.000000
   99       -0.877393   0.000000
  100       -0.802545   0.000000
  101       -0.720836   0.000000
  102       -0.674643   0.000000
  103       -0.605540   0.000000
  104       -0.503436   0.000000
  105       -0.314012   0.000000
  106       -0.213532   0.000000
  107       -0.095282   0.000000
  108       -0.007854   0.000000
  109        0.099335   0.000000
  110        0.255875   0.000000
  111        0.396858   0.000000
  112        0.548567   0.000000
  113        0.576979   0.000000
  114        0.809685   0.000000
  115        1.001690   0.000000
  116        1.020181   0.000000
  117        1.244261   0.000000
  118        1.762867   0.000000
  119        1.950631   0.000000
  120        2.252471   0.000000
 
  0.2500000E+00  0.1250000E+00  0.0000000E+00  0.3125000E-01
    1      -17.638595   1.000000
    2      -17.099319   1.000000
    3      -16.843319   1.000000
    4      -16.644659   1.000000
    5      -16.479156   1.000000
    6      -16.391708   1.000000
    7      -16.301145   1.000000
    8      -16.211773   1.000000
    9      -16.109565   1.000000
   10      -16.012709   1.000000
   11      -15.927721   1.000000
   12      -15.859920   1.000000
   13      -15.781782   1.000000
   14      -15.698394   1.000000
   15      -15.637399   1.000000
   16      -15.535843   1.000000
   17      -15.433844   1.000000
   18      -15.346956   1.000000
   19       -9.585521   1.000000
   20       -9.391995   1.000000
   21       -9.266009   1.000000
   22       -9.070541   1.000000
   23       -8.842340   1.000000
   24       -8.664444   1.000000
   25       -8.534639   1.000000
   26       -8.466269   1.000000
   27       -8.415454   1.000000
   28       -8.349869   1.000000
   29       -8.295793   1.000000
   30       -8.250783   1.000000
   31       -8.126634   1.000000
   32       -8.046911   1.000000
   33       -7.971243   1.000000
   34       -7.866563   1.000000
   35       -7.813777   1.000000
   36       -7.644119   1.000000
   37       -7.547202   1.000000
   38       -7.496405   1.000000
   39       -7.344962   1.000000
   40       -7.286431   1.000000
   41       -7.203411   1.000000
   42       -7.159402   1.000000
   43       -7.099882   1.000000
   44       -6.992862   1.000000
   45       -6.918290   1.000000
   46       -6.825244   1.000000
   47       -6.738951   1.000000