 vasp.5.4.1 05Feb16 (build Jul 05 2020 17:13:04) complex                        
  
 executed on           IFC91_ompi date 2024.08.03  12:05:00
 running on   40 total cores
 distrk:  each k-point on   40 cores,    1 groups
 distr:  one band on NCORES_PER_BAND=   1 cores,   40 groups


--------------------------------------------------------------------------------------------------------


 INCAR:
 POTCAR:   PAW_PBE V 08Apr2002                    
 POTCAR:   PAW_PBE Mo 08Apr2002                   
 POTCAR:   PAW_PBE W 08Apr2002                    
 POTCAR:    PAW_PBE S 17Jan2003                   

 ----------------------------------------------------------------------------- 
|                                                                             |
|           W    W    AA    RRRRR   N    N  II  N    N   GGGG   !!!           |
|           W    W   A  A   R    R  NN   N  II  NN   N  G    G  !!!           |
|           W    W  A    A  R    R  N N  N  II  N N  N  G       !!!           |
|           W WW W  AAAAAA  RRRRR   N  N N  II  N  N N  G  GGG   !            |
|           WW  WW  A    A  R   R   N   NN  II  N   NN  G    G                |
|           W    W  A    A  R    R  N    N  II  N    N   GGGG   !!!           |
|                                                                             |
|      For optimal performance we recommend to set                            |
|        NCORE= 4 - approx SQRT( number of cores)                             |
|      NCORE specifies how many cores store one orbital (NPAR=cpu/NCORE).     |
|      This setting can  greatly improve the performance of VASP for DFT.     |
|      The default, NPAR=number of cores might be grossly inefficient         |
|      on modern multi-core architectures or massively parallel machines.     |
|      Do your own testing !!!!                                               |
|      Unfortunately you need to use the default for GW and RPA calculations. |
|      (for HF NCORE is supported but not extensively tested yet)             |
|                                                                             |
 ----------------------------------------------------------------------------- 

 POTCAR:   PAW_PBE V 08Apr2002                    
   VRHFIN =V: p6 d4 s1                                                          
   LEXCH  = PE                                                                  
   EATOM  =   170.8679 eV,   12.5584 Ry                                         
                                                                                
   TITEL  = PAW_PBE V 08Apr2002                                                 
   LULTRA =        F    use ultrasoft PP ?                                      
   IUNSCR =        1    unscreen: 0-lin 1-nonlin 2-no                           
   RPACOR =    2.000    partial core radius                                     
   POMASS =   50.941; ZVAL   =    5.000    mass and valenz                      
   RCORE  =    2.700    outmost cutoff radius                                   
   RWIGS  =    2.500; RWIGS  =    1.323    wigner-seitz radius (au A)           
   ENMAX  =  192.543; ENMIN  =  144.408 eV                                      
   RCLOC  =    1.779    cutoff for local pot                                    
   LCOR   =        T    correct aug charges                                     
   LPAW   =        T    paw PP                                                  
   EAUG   =  358.662                                                            
   DEXC   =    -.034                                                            
   RMAX   =    3.323    core radius for proj-oper                               
   RAUG   =    1.300    factor for augmentation sphere                          
   RDEP   =    2.762    radius for radial grids                                 
   QCUT   =   -3.762; QGAM   =    7.524    optimization parameters              
                                                                                
   Description                                                                  
     l     E      TYP  RCUT    TYP  RCUT                                        
     2   .000     23  2.700                                                     
     2   .000     23  2.700                                                     
     0   .000     23  2.700                                                     
     0  2.000     23  2.700                                                     
     1   .000     23  2.700                                                     
     1  2.000     23  2.700                                                     
     3   .000      7   .000                                                     
  local pseudopotential read in
  partial core-charges read in
  atomic valenz-charges read in
  non local Contribution for L=           2  read in
    real space projection operators read in
  non local Contribution for L=           2  read in
    real space projection operators read in
  non local Contribution for L=           0  read in
    real space projection operators read in
  non local Contribution for L=           0  read in
    real space projection operators read in
  non local Contribution for L=           1  read in
    real space projection operators read in
  non local Contribution for L=           1  read in
    real space projection operators read in
    PAW grid and wavefunctions read in
 
   number of l-projection  operators is LMAX  =           6
   number of lm-projection operators is LMMAX =          18
 
 POTCAR:   PAW_PBE Mo 08Apr2002                   
   VRHFIN =Mo: 4p5s4d                                                           
   LEXCH  = PE                                                                  
   EATOM  =   217.5180 eV,   15.9871 Ry                                         
                                                                                
   TITEL  = PAW_PBE Mo 08Apr2002                                                
   LULTRA =        F    use ultrasoft PP ?                                      
   IUNSCR =        1    unscreen: 0-lin 1-nonlin 2-no                           
   RPACOR =    2.200    partial core radius                                     
   POMASS =   95.940; ZVAL   =    6.000    mass and valenz                      
   RCORE  =    2.750    outmost cutoff radius                                   
   RWIGS  =    2.750; RWIGS  =    1.455    wigner-seitz radius (au A)           
   ENMAX  =  224.584; ENMIN  =  168.438 eV                                      
   RCLOC  =    2.111    cutoff for local pot                                    
   LCOR   =        T    correct aug charges                                     
   LPAW   =        T    paw PP                                                  
   EAUG   =  345.278                                                            
   DEXC   =    -.088                                                            
   RMAX   =    3.077    core radius for proj-oper                               
   RAUG   =    1.300    factor for augmentation sphere                          
   RDEP   =    2.815    radius for radial grids                                 
   QCUT   =   -4.063; QGAM   =    8.126    optimization parameters              
                                                                                
   Description                                                                  
     l     E      TYP  RCUT    TYP  RCUT                                        
     2   .000     23  2.500                                                     
     2   .000     23  2.500                                                     
     0   .000     23  2.600                                                     
     0  1.000     23  2.600                                                     
     1   .400     23  2.750                                                     
     1  2.000     23  2.750                                                     
     3   .000      7   .000                                                     
  local pseudopotential read in
  partial core-charges read in
  atomic valenz-charges read in
  non local Contribution for L=           2  read in
    real space projection operators read in
  non local Contribution for L=           2  read in
    real space projection operators read in
  non local Contribution for L=           0  read in
    real space projection operators read in
  non local Contribution for L=           0  read in
    real space projection operators read in
  non local Contribution for L=           1  read in
    real space projection operators read in
  non local Contribution for L=           1  read in
    real space projection operators read in
    PAW grid and wavefunctions read in
 
   number of l-projection  operators is LMAX  =           6
   number of lm-projection operators is LMMAX =          18
 
 POTCAR:   PAW_PBE W 08Apr2002                    
   VRHFIN =W : 6s5d                                                             
   LEXCH  = PE                                                                  
   EATOM  =   204.6100 eV,   15.0384 Ry                                         
                                                                                
   TITEL  = PAW_PBE W 08Apr2002                                                 
   LULTRA =        F    use ultrasoft PP ?                                      
   IUNSCR =        1    unscreen: 0-lin 1-nonlin 2-no                           
   RPACOR =    2.330    partial core radius                                     
   POMASS =  183.850; ZVAL   =    6.000    mass and valenz                      
   RCORE  =    2.750    outmost cutoff radius                                   
   RWIGS  =    2.750; RWIGS  =    1.455    wigner-seitz radius (au A)           
   ENMAX  =  223.057; ENMIN  =  167.293 eV                                      
   RCLOC  =    2.147    cutoff for local pot                                    
   LCOR   =        T    correct aug charges                                     
   LPAW   =        T    paw PP                                                  
   EAUG   =  373.438                                                            
   DEXC   =    -.060                                                            
   RMAX   =    3.087    core radius for proj-oper                               
   RAUG   =    1.300    factor for augmentation sphere                          
   RDEP   =    2.886    radius for radial grids                                 
   QCUT   =   -4.049; QGAM   =    8.098    optimization parameters              
                                                                                
   Description                                                                  
     l     E      TYP  RCUT    TYP  RCUT                                        
     2   .000     23  2.500                                                     
     2   .000     23  2.500                                                     
     0   .000     23  2.500                                                     
     0   .000     23  2.500                                                     
     1   .200     23  2.750                                                     
     1  2.000     23  2.750                                                     
     3   .000      7   .000                                                     
  local pseudopotential read in
  partial core-charges read in
  atomic valenz-charges read in
  non local Contribution for L=           2  read in
    real space projection operators read in
  non local Contribution for L=           2  read in
    real space projection operators read in
  non local Contribution for L=           0  read in
    real space projection operators read in
  non local Contribution for L=           0  read in
    real space projection operators read in
  non local Contribution for L=           1  read in
    real space projection operators read in
  non local Contribution for L=           1  read in
    real space projection operators read in
    PAW grid and wavefunctions read in
 
   number of l-projection  operators is LMAX  =           6
   number of lm-projection operators is LMMAX =          18
 
 POTCAR:    PAW_PBE S 17Jan2003                   
   VRHFIN =S : s2p4                                                             
   LEXCH  = PE                                                                  
   EATOM  =   276.8230 eV,   20.3459 Ry                                         
                                                                                
   TITEL  = PAW_PBE S 17Jan2003                                                 
   LULTRA =        F    use ultrasoft PP ?                                      
   IUNSCR =        1    unscreen: 0-lin 1-nonlin 2-no                           
   RPACOR =    1.500    partial core radius                                     
   POMASS =   32.066; ZVAL   =    6.000    mass and valenz                      
   RCORE  =    1.900    outmost cutoff radius                                   
   RWIGS  =    2.200; RWIGS  =    1.164    wigner-seitz radius (au A)           
   ENMAX  =  280.000; ENMIN  =  194.016 eV                                      
   ICORE  =        2    local potential                                         
   LCOR   =        T    correct aug charges                                     
   LPAW   =        T    paw PP                                                  
   EAUG   =  335.092                                                            
   DEXC   =     .000                                                            
   RMAX   =    2.867    core radius for proj-oper                               
   RAUG   =    1.300    factor for augmentation sphere                          
   RDEP   =    1.954    radius for radial grids                                 
   QCUT   =   -4.360; QGAM   =    8.721    optimization parameters              
                                                                                
   Description                                                                  
     l     E      TYP  RCUT    TYP  RCUT                                        
     0   .000     23  1.900                                                     
     0   .000     23  1.900                                                     
     1   .000     23  1.900                                                     
     1   .000     23  1.900                                                     
     2   .000     23  1.900                                                     
  local pseudopotential read in
  partial core-charges read in
  atomic valenz-charges read in
  non local Contribution for L=           0  read in
    real space projection operators read in
  non local Contribution for L=           0  read in
    real space projection operators read in
  non local Contribution for L=           1  read in
    real space projection operators read in
  non local Contribution for L=           1  read in
    real space projection operators read in
    PAW grid and wavefunctions read in
 
   number of l-projection  operators is LMAX  =           4
   number of lm-projection operators is LMMAX =           8
 

 ----------------------------------------------------------------------------- 
|                                                                             |
|  ADVICE TO THIS USER RUNNING 'VASP/VAMP'   (HEAR YOUR MASTER'S VOICE ...):  |
|                                                                             |
|      You have a (more or less) 'large supercell' and for larger cells       |
|      it might be more efficient to use real space projection operators      |
|      So try LREAL= Auto  in the INCAR   file.                               |
|      Mind: If you want to do a very accurate calculations keep the          |
|      reciprocal projection scheme          (i.e. LREAL=.FALSE.)             |
|                                                                             |
 ----------------------------------------------------------------------------- 

 PAW_PBE V 08Apr2002                    :
 energy of atom  1       EATOM= -170.8679
 kinetic energy error for atom=    0.0047 (will be added to EATOM!!)
 PAW_PBE Mo 08Apr2002                   :
 energy of atom  2       EATOM= -217.5180
 kinetic energy error for atom=    0.0215 (will be added to EATOM!!)
 PAW_PBE W 08Apr2002                    :
 energy of atom  3       EATOM= -204.6100
 kinetic energy error for atom=    0.0205 (will be added to EATOM!!)
  PAW_PBE S 17Jan2003                   :
 energy of atom  4       EATOM= -276.8230
 kinetic energy error for atom=    0.0122 (will be added to EATOM!!)
 
 
 POSCAR: crystal structure from VMoWS2 with Hexag
  positions in cartesian coordinates
  No initial velocities read in
 exchange correlation table for  LEXCH =        8
   RHO(1)=    0.500       N(1)  =     2000
   RHO(2)=  100.500       N(2)  =     4000
 


--------------------------------------------------------------------------------------------------------


 ion  position               nearest neighbor table
   1  0.667  0.000  0.000-  17 2.34  26 2.34  23 2.36  22 2.36  21 2.36  20 2.36
   2  0.667  0.667  0.000-  21 2.34  24 2.34  27 2.36  26 2.36  19 2.36  18 2.36
   3  0.333  0.667  0.000-  15 2.34  18 2.34  20 2.36  21 2.36  13 2.36  12 2.36
   4  0.000  0.667  0.000-  27 2.34  12 2.34  14 2.36  15 2.36  24 2.36  25 2.36   6 3.34   5 3.34
                             7 3.36   9 3.36
   5  1.000  0.333  0.000-  25 2.34  10 2.34  13 2.36  12 2.36  22 2.36  23 2.36   9 3.34   4 3.34
                             6 3.34   8 3.34
   6  0.000  0.000  0.000-  23 2.34  14 2.34  11 2.36  10 2.36  27 2.36  26 2.36   4 3.34   5 3.34
                             7 3.34   8 3.36
   7  0.333  0.000  0.000-  11 2.34  20 2.34  17 2.36  16 2.36  15 2.36  14 2.36   8 3.34   6 3.34
                             4 3.36   9 3.36
   8  0.333  0.333  0.000-  13 2.34  16 2.34  19 2.36  18 2.36  11 2.36  10 2.36   7 3.34   5 3.34
                             9 3.34   6 3.36
   9  0.667  0.333  0.000-  19 2.34  22 2.34  25 2.36  24 2.36  17 2.36  16 2.36   5 3.34   8 3.34
                             4 3.36   7 3.36
  10  0.111  0.222  0.955-   5 2.34   6 2.36   8 2.36
  11  0.222  0.111  0.045-   7 2.34   6 2.36   8 2.36
  12  0.111  0.556  0.955-   4 2.34   5 2.36   3 2.36
  13  0.222  0.444  0.045-   8 2.34   5 2.36   3 2.36
  14  0.111  0.889  0.955-   6 2.34   4 2.36   7 2.36
  15  0.222  0.777  0.045-   3 2.34   4 2.36   7 2.36
  16  0.444  0.222  0.955-   8 2.34   7 2.36   9 2.36
  17  0.556  0.111  0.045-   1 2.34   7 2.36   9 2.36
  18  0.444  0.556  0.955-   3 2.34   8 2.36   2 2.36
  19  0.556  0.444  0.045-   9 2.34   8 2.36   2 2.36
  20  0.444  0.889  0.955-   7 2.34   3 2.36   1 2.36
  21  0.556  0.777  0.045-   2 2.34   3 2.36   1 2.36
  22  0.777  0.222  0.955-   9 2.34   1 2.36   5 2.36
  23  0.889  0.111  0.045-   6 2.34   1 2.36   5 2.36
  24  0.777  0.556  0.955-   2 2.34   9 2.36   4 2.36
  25  0.889  0.444  0.045-   5 2.34   9 2.36   4 2.36
  26  0.777  0.889  0.955-   1 2.34   2 2.36   6 2.36
  27  0.889  0.777  0.045-   4 2.34   2 2.36   6 2.36
 

IMPORTANT INFORMATION: All symmetrisations will be switched off!
NOSYMM: (Re-)initialisation of all symmetry stuff for point group C_1.

 
 
 KPOINTS: K-POINTS 	#supercell of CrS2 in hexagona

Automatic generation of k-mesh.
Space group operators:
 irot       det(A)        alpha          n_x          n_y          n_z        tau_x        tau_y        tau_z
    1     1.000000     0.000000     1.000000     0.000000     0.000000     0.000000     0.000000     0.000000
 
 Subroutine IBZKPT returns following result:
 ===========================================
 
 Found     34 irreducible k-points:
 
 Following reciprocal coordinates:
            Coordinates               Weight
  0.000000  0.000000  0.000000      1.000000
  0.125000  0.000000  0.000000      2.000000
  0.250000  0.000000  0.000000      2.000000
  0.375000  0.000000  0.000000      2.000000
  0.500000  0.000000  0.000000      1.000000
  0.000000  0.125000  0.000000      2.000000
  0.125000  0.125000  0.000000      2.000000
  0.250000  0.125000  0.000000      2.000000
  0.375000  0.125000  0.000000      2.000000
  0.500000  0.125000  0.000000      2.000000
 -0.375000  0.125000  0.000000      2.000000
 -0.250000  0.125000  0.000000      2.000000
 -0.125000  0.125000  0.000000      2.000000
  0.000000  0.250000  0.000000      2.000000
  0.125000  0.250000  0.000000      2.000000
  0.250000  0.250000  0.000000      2.000000
  0.375000  0.250000  0.000000      2.000000
  0.500000  0.250000  0.000000      2.000000
 -0.375000  0.250000  0.000000      2.000000
 -0.250000  0.250000  0.000000      2.000000
 -0.125000  0.250000  0.000000      2.000000
 -0.000000  0.375000  0.000000      2.000000
  0.125000  0.375000  0.000000      2.000000
  0.250000  0.375000  0.000000      2.000000
  0.375000  0.375000  0.000000      2.000000
  0.500000  0.375000  0.000000      2.000000
 -0.375000  0.375000  0.000000      2.000000
 -0.250000  0.375000  0.000000      2.000000
 -0.125000  0.375000  0.000000      2.000000
  0.000000  0.500000  0.000000      1.000000
  0.125000  0.500000  0.000000      2.000000
  0.250000  0.500000  0.000000      2.000000
  0.375000  0.500000  0.000000      2.000000
  0.500000  0.500000  0.000000      1.000000
 
 Following cartesian coordinates:
            Coordinates               Weight
  0.000000  0.000000  0.000000      1.000000
  0.007209  0.012401  0.000000      2.000000
  0.014418  0.024802  0.000000      2.000000
  0.021626  0.037202  0.000000      2.000000
  0.028835  0.049603  0.000000      1.000000
 -0.007209  0.012401  0.000000      2.000000
  0.000000  0.024802  0.000000      2.000000
  0.007209  0.037202  0.000000      2.000000
  0.014418  0.049603  0.000000      2.000000
  0.021626  0.062004  0.000000      2.000000
 -0.028835 -0.024802  0.000000      2.000000
 -0.021626 -0.012401  0.000000      2.000000
 -0.014418  0.000000  0.000000      2.000000
 -0.014418  0.024802  0.000000      2.000000
 -0.007209  0.037202  0.000000      2.000000
  0.000000  0.049603  0.000000      2.000000
  0.007209  0.062004  0.000000      2.000000
  0.014418  0.074405  0.000000      2.000000
 -0.036044 -0.012401  0.000000      2.000000
 -0.028835  0.000000  0.000000      2.000000
 -0.021626  0.012401  0.000000      2.000000
 -0.021626  0.037202  0.000000      2.000000
 -0.014418  0.049603  0.000000      2.000000
 -0.007209  0.062004  0.000000      2.000000
  0.000000  0.074405  0.000000      2.000000
  0.007209  0.086806  0.000000      2.000000
 -0.043253  0.000000  0.000000      2.000000
 -0.036044  0.012401  0.000000      2.000000
 -0.028835  0.024802  0.000000      2.000000
 -0.028835  0.049603  0.000000      1.000000
 -0.021626  0.062004  0.000000      2.000000
 -0.014418  0.074405  0.000000      2.000000
 -0.007209  0.086806  0.000000      2.000000
  0.000000  0.099206  0.000000      1.000000
 


--------------------------------------------------------------------------------------------------------




 Dimension of arrays:
   k-points           NKPTS =     34   k-points in BZ     NKDIM =     34   number of bands    NBANDS=    120
   number of dos      NEDOS =    301   number of ions     NIONS =     27
   non local maximal  LDIM  =      6   non local SUM 2l+1 LMDIM =     18
   total plane-waves  NPLWV = 222264
   max r-space proj   IRMAX =      1   max aug-charges    IRDMAX=   5642
   dimension x,y,z NGX =    42 NGY =   42 NGZ =  126
   dimension x,y,z NGXF=    84 NGYF=   84 NGZF=  252
   support grid    NGXF=    84 NGYF=   84 NGZF=  252
   ions per type =               3   3   3  18
 NGX,Y,Z   is equivalent  to a cutoff of   6.96,  6.96,  6.98 a.u.
 NGXF,Y,Z  is equivalent  to a cutoff of  13.92, 13.92, 13.96 a.u.


 I would recommend the setting:
   dimension x,y,z NGX =    41 NGY =   41 NGZ =  123
 SYSTEM =  unknown system                          
 POSCAR =  crystal structure from VMoWS2 with Hexag

 Startparameter for this run:
   NWRITE =      2    write-flag & timer
   PREC   = normal    normal or accurate (medium, high low for compatibility)
   ISTART =      0    job   : 0-new  1-cont  2-samecut
   ICHARG =      2    charge: 1-file 2-atom 10-const
   ISPIN  =      1    spin polarized calculation?
   LNONCOLLINEAR =      F non collinear calculations
   LSORBIT =      F    spin-orbit coupling
   INIWAV =      1    electr: 0-lowe 1-rand  2-diag
   LASPH  =      F    aspherical Exc in radial PAW
   METAGGA=      F    non-selfconsistent MetaGGA calc.

 Electronic Relaxation 1
   ENCUT  =  280.0 eV  20.58 Ry    4.54 a.u.  13.68 13.68 40.93*2*pi/ulx,y,z
   ENINI  =  280.0     initial cutoff
   ENAUG  =  373.4 eV  augmentation charge cutoff
   NELM   =     60;   NELMIN=  2; NELMDL= -5     # of ELM steps 
   EDIFF  = 0.1E-03   stopping-criterion for ELM
   LREAL  =      F    real-space projection
   NLSPLINE    = F    spline interpolate recip. space projectors
   LCOMPAT=      F    compatible to vasp.4.4
   GGA_COMPAT  = T    GGA compatible to vasp.4.4-vasp.4.6
   LMAXPAW     = -100 max onsite density
   LMAXMIX     =    2 max onsite mixed and CHGCAR
   VOSKOWN=      0    Vosko Wilk Nusair interpolation
   ROPT   =    0.00000   0.00000   0.00000   0.00000
 Ionic relaxation
   EDIFFG = 0.1E-02   stopping-criterion for IOM
   NSW    =    100    number of steps for IOM
   NBLOCK =      1;   KBLOCK =    100    inner block; outer block 
   IBRION =      1    ionic relax: 0-MD 1-quasi-New 2-CG
   NFREE  =      0    steps in history (QN), initial steepest desc. (CG)
   ISIF   =      3    stress and relaxation
   IWAVPR =     11    prediction:  0-non 1-charg 2-wave 3-comb
   ISYM   =      0    0-nonsym 1-usesym 2-fastsym
   LCORR  =      T    Harris-Foulkes like correction to forces

   POTIM  = 0.5000    time-step for ionic-motion
   TEIN   =    0.0    initial temperature
   TEBEG  =    0.0;   TEEND  =   0.0 temperature during run
   SMASS  =  -3.00    Nose mass-parameter (am)
   estimated Nose-frequenzy (Omega)   =  0.10E-29 period in steps =****** mass=  -0.230E-26a.u.
   SCALEE = 1.0000    scale energy and forces
   NPACO  =    256;   APACO  = 16.0  distance and # of slots for P.C.
   PSTRESS=    0.0 pullay stress

  Mass of Ions in am
   POMASS =  50.94 95.94183.85 32.07
  Ionic Valenz
   ZVAL   =   5.00  6.00  6.00  6.00
  Atomic Wigner-Seitz radii
   RWIGS  =  -1.00 -1.00 -1.00 -1.00
  virtual crystal weights 
   VCA    =   1.00  1.00  1.00  1.00
   NELECT =     159.0000    total number of electrons
   NUPDOWN=      -1.0000    fix difference up-down

 DOS related values:
   EMIN   =  10.00;   EMAX   =-10.00  energy-range for DOS
   EFERMI =   0.00
   ISMEAR =     0;   SIGMA  =   0.20  broadening in eV -4-tet -1-fermi 0-gaus

 Electronic relaxation 2 (details)
   IALGO  =     38    algorithm
   LDIAG  =      T    sub-space diagonalisation (order eigenvalues)
   LSUBROT=      F    optimize rotation matrix (better conditioning)
   TURBO    =      0    0=normal 1=particle mesh
   IRESTART =      0    0=no restart 2=restart with 2 vectors
   NREBOOT  =      0    no. of reboots
   NMIN     =      0    reboot dimension
   EREF     =   0.00    reference energy to select bands
   IMIX   =      4    mixing-type and parameters
     AMIX     =   0.40;   BMIX     =  1.00
     AMIX_MAG =   1.60;   BMIX_MAG =  1.00
     AMIN     =   0.10
     WC   =   100.;   INIMIX=   1;  MIXPRE=   1;  MAXMIX= -45

 Intra band minimization:
   WEIMIN = 0.0010     energy-eigenvalue tresh-hold
   EBREAK =  0.21E-06  absolut break condition
   DEPER  =   0.30     relativ break condition  

   TIME   =   0.40     timestep for ELM

  volume/ion in A,a.u.               =      97.10       655.29
  Fermi-wavevector in a.u.,A,eV,Ry     =   0.643191  1.215456  5.628665  0.413695
  Thomas-Fermi vector in A             =   1.710110
 
 Write flags
   LWAVE  =      F    write WAVECAR
   LCHARG =      F    write CHGCAR
   LVTOT  =      F    write LOCPOT, total local potential
   LVHAR  =      F    write LOCPOT, Hartree potential only
   LELF   =      F    write electronic localiz. function (ELF)
   LORBIT =      0    0 simple, 1 ext, 2 COOP (PROOUT)


 Dipole corrections
   LMONO  =      F    monopole corrections only (constant potential shift)
   LDIPOL =      F    correct potential (dipole corrections)
   IDIPOL =      0    1-x, 2-y, 3-z, 4-all directions 
   EPSILON=  1.0000000 bulk dielectric constant

 Exchange correlation treatment:
   GGA     =    --    GGA type
   LEXCH   =     8    internal setting for exchange type
   VOSKOWN=      0    Vosko Wilk Nusair interpolation
   LHFCALC =     F    Hartree Fock is set to
   LHFONE  =     F    Hartree Fock one center treatment
   AEXX    =    0.0000 exact exchange contribution

 Linear response parameters
   LEPSILON=     F    determine dielectric tensor
   LRPA    =     F    only Hartree local field effects (RPA)
   LNABLA  =     F    use nabla operator in PAW spheres
   LVEL    =     F    velocity operator in full k-point grid
   LINTERFAST=   F  fast interpolation
   KINTER  =     0    interpolate to denser k-point grid
   CSHIFT  =0.1000    complex shift for real part using Kramers Kronig
   OMEGAMAX=  -1.0    maximum frequency
   DEG_THRESHOLD= 0.2000000E-02 threshold for treating states as degnerate
   RTIME   =    0.100 relaxation time in fs

 Orbital magnetization related:
   ORBITALMAG=     F  switch on orbital magnetization
   LCHIMAG   =     F  perturbation theory with respect to B field
   DQ        =  0.001000  dq finite difference perturbation B field



--------------------------------------------------------------------------------------------------------


 quasi-Newton-method for relaxation of ions
 charge density and potential will be updated during run
 non-spin polarized calculation
 Variant of blocked Davidson
 Davidson routine will perform the subspace rotation
 perform sub-space diagonalisation
    after iterative eigenvector-optimisation
 modified Broyden-mixing scheme, WC =      100.0
 initial mixing is a Kerker type mixing with AMIX =  0.4000 and BMIX =      1.0000
 Hartree-type preconditioning will be used
 using additional bands           40
 reciprocal scheme for non local part
 use partial core corrections
 calculate Harris-corrections to forces 
   (improved forces if not selfconsistent)
 use gradient corrections 
 use of overlap-Matrix (Vanderbilt PP)
 Gauss-broadening in eV      SIGMA  =   0.20


--------------------------------------------------------------------------------------------------------


  energy-cutoff  :      280.00
  volume of cell :     2621.81
      direct lattice vectors                 reciprocal lattice vectors
     8.669999960  5.039999894  0.000000000     0.057670129  0.099206348  0.000000000
    -8.669999821  5.040000133  0.000000000    -0.057670126  0.099206350  0.000000000
     0.000000000  0.000000000 30.000000000     0.000000000  0.000000000  0.033333333

  length of vectors
    10.028484344 10.028484344 30.000000000     0.114750788  0.114750788  0.033333333


 
 k-points in units of 2pi/SCALE and weight: K-POINTS 	#supercell of CrS2 in hexagona
   0.00000000  0.00000000  0.00000000       0.016
   0.00720877  0.01240079  0.00000000       0.031
   0.01441753  0.02480159  0.00000000       0.031
   0.02162630  0.03720238  0.00000000       0.031
   0.02883506  0.04960317  0.00000000       0.016
  -0.00720877  0.01240079  0.00000000       0.031
   0.00000000  0.02480159  0.00000000       0.031
   0.00720877  0.03720238  0.00000000       0.031
   0.01441753  0.04960317  0.00000000       0.031
   0.02162630  0.06200397  0.00000000       0.031
  -0.02883506 -0.02480159  0.00000000       0.031
  -0.02162630 -0.01240079  0.00000000       0.031
  -0.01441753  0.00000000  0.00000000       0.031
  -0.01441753  0.02480159  0.00000000       0.031
  -0.00720877  0.03720238  0.00000000       0.031
   0.00000000  0.04960317  0.00000000       0.031
   0.00720877  0.06200397  0.00000000       0.031
   0.01441753  0.07440476  0.00000000       0.031
  -0.03604383 -0.01240079  0.00000000       0.031
  -0.02883506  0.00000000  0.00000000       0.031
  -0.02162630  0.01240079  0.00000000       0.031
  -0.02162630  0.03720238  0.00000000       0.031
  -0.01441753  0.04960317  0.00000000       0.031
  -0.00720877  0.06200397  0.00000000       0.031
   0.00000000  0.07440476  0.00000000       0.031
   0.00720877  0.08680556  0.00000000       0.031
  -0.04325260  0.00000000  0.00000000       0.031
  -0.03604383  0.01240079  0.00000000       0.031
  -0.02883506  0.02480159  0.00000000       0.031
  -0.02883506  0.04960317  0.00000000       0.016
  -0.02162630  0.06200397  0.00000000       0.031
  -0.01441753  0.07440476  0.00000000       0.031
  -0.00720876  0.08680556  0.00000000       0.031
   0.00000000  0.09920635  0.00000000       0.016
 
 k-points in reciprocal lattice and weights: K-POINTS 	#supercell of CrS2 in hexagona
   0.00000000  0.00000000  0.00000000       0.016
   0.12500000  0.00000000  0.00000000       0.031
   0.25000000  0.00000000  0.00000000       0.031
   0.37500000  0.00000000  0.00000000       0.031
   0.50000000  0.00000000  0.00000000       0.016
   0.00000000  0.12500000  0.00000000       0.031
   0.12500000  0.12500000  0.00000000       0.031
   0.25000000  0.12500000  0.00000000       0.031
   0.37500000  0.12500000  0.00000000       0.031
   0.50000000  0.12500000  0.00000000       0.031
  -0.37500000  0.12500000  0.00000000       0.031
  -0.25000000  0.12500000  0.00000000       0.031
  -0.12500000  0.12500000  0.00000000       0.031
   0.00000000  0.25000000  0.00000000       0.031
   0.12500000  0.25000000  0.00000000       0.031
   0.25000000  0.25000000  0.00000000       0.031
   0.37500000  0.25000000  0.00000000       0.031
   0.50000000  0.25000000  0.00000000       0.031
  -0.37500000  0.25000000  0.00000000       0.031
  -0.25000000  0.25000000  0.00000000       0.031
  -0.12500000  0.25000000  0.00000000       0.031
  -0.00000000  0.37500000  0.00000000       0.031
   0.12500000  0.37500000  0.00000000       0.031
   0.25000000  0.37500000  0.00000000       0.031
   0.37500000  0.37500000  0.00000000       0.031
   0.50000000  0.37500000  0.00000000       0.031
  -0.37500000  0.37500000  0.00000000       0.031
  -0.25000000  0.37500000  0.00000000       0.031
  -0.12500000  0.37500000  0.00000000       0.031
   0.00000000  0.50000000  0.00000000       0.016
   0.12500000  0.50000000  0.00000000       0.031
   0.25000000  0.50000000  0.00000000       0.031
   0.37500000  0.50000000  0.00000000       0.031
   0.50000000  0.50000000  0.00000000       0.016
 
 position of ions in fractional coordinates (direct lattice) 
   0.66666669  0.00000000  0.00000000
   0.66666669  0.66666669  0.00000000
   0.33333334  0.66666669  0.00000000
   0.00000000  0.66666669  0.00000000
   1.00000000  0.33333334  0.00000000
   0.00000000  0.00000000  0.00000000
   0.33333334  0.00000000  0.00000000
   0.33333334  0.33333334  0.00000000
   0.66666669  0.33333334  0.00000000
   0.11068511  0.22244981  0.95539999
   0.22244981  0.11068511  0.04460000
   0.11068511  0.55578315  0.95539999
   0.22244981  0.44401845  0.04460000
   0.11068511  0.88911647  0.95539999
   0.22244981  0.77735180  0.04460000
   0.44401845  0.22244981  0.95539999
   0.55578315  0.11068511  0.04460000
   0.44401845  0.55578315  0.95539999
   0.55578315  0.44401845  0.04460000
   0.44401845  0.88911647  0.95539999
   0.55578315  0.77735180  0.04460000
   0.77735180  0.22244981  0.95539999
   0.88911647  0.11068511  0.04460000
   0.77735180  0.55578315  0.95539999
   0.88911647  0.44401845  0.04460000
   0.77735180  0.88911647  0.95539999
   0.88911647  0.77735180  0.04460000
 
 position of ions in cartesian coordinates  (Angst):
   5.78000015  3.36000003  0.00000000
   0.00000009  6.72000022  0.00000000
  -2.88999998  5.04000020  0.00000000
  -5.78000005  3.36000019  0.00000000
   5.77999993  6.71999999  0.00000000
   0.00000000  0.00000000  0.00000000
   2.89000007  1.68000002  0.00000000
   0.00000005  3.36000011  0.00000000
   2.89000012  5.04000012  0.00000000
  -0.96899991  1.67900001 28.66199970
   0.96899995  1.67899998  1.33799996
  -3.85899993  3.35900011 28.66199970
  -1.92100007  3.35900008  1.33799996
  -6.74899970  5.03900005 28.66199970
  -4.81100010  5.03900017  1.33799996
   1.92100017  3.35900003 28.66199970
   3.85900003  3.35900000  1.33799996
  -0.96899986  5.03900012 28.66199970
   0.96900000  5.03900009  1.33799996
  -3.85899963  6.71900006 28.66199970
  -1.92100003  6.71900019  1.33799996
   4.81100024  5.03900004 28.66199970
   6.74899984  5.03899987  1.33799996
   1.92100021  6.71900014 28.66199970
   3.85899981  6.71899996  1.33799996
  -0.96899956  8.39900008 28.66199970
   0.96899979  8.39900005  1.33799996
 


--------------------------------------------------------------------------------------------------------


 k-point  1 :   0.0000 0.0000 0.0000  plane waves:   27959
 k-point  2 :   0.1250 0.0000 0.0000  plane waves:   27889
 k-point  3 :   0.2500 0.0000 0.0000  plane waves:   27875
 k-point  4 :   0.3750 0.0000 0.0000  plane waves:   27893
 k-point  5 :   0.5000 0.0000 0.0000  plane waves:   27932
 k-point  6 :   0.0000 0.1250 0.0000  plane waves:   27889
 k-point  7 :   0.1250 0.1250 0.0000  plane waves:   27906
 k-point  8 :   0.2500 0.1250 0.0000  plane waves:   27898
 k-point  9 :   0.3750 0.1250 0.0000  plane waves:   27888
 k-point 10 :   0.5000 0.1250 0.0000  plane waves:   27873
 k-point 11 :  -0.3750 0.1250 0.0000  plane waves:   27874
 k-point 12 :  -0.2500 0.1250 0.0000  plane waves:   27895
 k-point 13 :  -0.1250 0.1250 0.0000  plane waves:   27879
 k-point 14 :   0.0000 0.2500 0.0000  plane waves:   27875
 k-point 15 :   0.1250 0.2500 0.0000  plane waves:   27898
 k-point 16 :   0.2500 0.2500 0.0000  plane waves:   27920
 k-point 17 :   0.3750 0.2500 0.0000  plane waves:   27901
 k-point 18 :   0.5000 0.2500 0.0000  plane waves:   27875
 k-point 19 :  -0.3750 0.2500 0.0000  plane waves:   27894
 k-point 20 :  -0.2500 0.2500 0.0000  plane waves:   27870
 k-point 21 :  -0.1250 0.2500 0.0000  plane waves:   27895
 k-point 22 :  -0.0000 0.3750 0.0000  plane waves:   27893
 k-point 23 :   0.1250 0.3750 0.0000  plane waves:   27888
 k-point 24 :   0.2500 0.3750 0.0000  plane waves:   27901
 k-point 25 :   0.3750 0.3750 0.0000  plane waves:   27860
 k-point 26 :   0.5000 0.3750 0.0000  plane waves:   27895
 k-point 27 :  -0.3750 0.3750 0.0000  plane waves:   27858
 k-point 28 :  -0.2500 0.3750 0.0000  plane waves:   27894
 k-point 29 :  -0.1250 0.3750 0.0000  plane waves:   27874
 k-point 30 :   0.0000 0.5000 0.0000  plane waves:   27932
 k-point 31 :   0.1250 0.5000 0.0000  plane waves:   27873
 k-point 32 :   0.2500 0.5000 0.0000  plane waves:   27875
 k-point 33 :   0.3750 0.5000 0.0000  plane waves:   27895
 k-point 34 :   0.5000 0.5000 0.0000  plane waves:   27910

 maximum and minimum number of plane-waves per node :     27959    27858

 maximum number of plane-waves:     27959
 maximum index in each direction: 
   IXMAX=   14   IYMAX=   13   IZMAX=   40
   IXMIN=  -14   IYMIN=  -14   IZMIN=  -40

 WARNING: aliasing errors must be expected set NGX to  58 to avoid them
 WARNING: aliasing errors must be expected set NGY to  56 to avoid them
 WARNING: aliasing errors must be expected set NGZ to 162 to avoid them
 aliasing errors are usually negligible using standard VASP settings
 and one can safely disregard these warnings

 serial   3D FFT for wavefunctions

 total amount of memory used by VASP on root node   650782. kBytes
========================================================================

   base      :      30000. kBytes
   nonl-proj :     559647. kBytes
   fftplans  :       2414. kBytes
   grid      :      12150. kBytes
   one-center:        419. kBytes
   wavefun   :      46152. kBytes
 
     INWAV:  cpu time    0.0000: real time    0.0000
 Broyden mixing: mesh for mixing (old mesh)
   NGX = 27   NGY = 27   NGZ = 81
  (NGX  = 84   NGY  = 84   NGZ  =252)
  gives a total of  59049 points

 initial charge density was supplied:
 charge density of overlapping atoms calculated
 number of electron     159.0000000 magnetization 
 keeping initial charge density in first step


--------------------------------------------------------------------------------------------------------


 Maximum index for augmentation-charges          148 (set IRDMAX)


--------------------------------------------------------------------------------------------------------


 First call to EWALD:  gamma=   0.129
 Maximum number of real-space cells 4x 4x 2
 Maximum number of reciprocal cells 2x 2x 5

 FEWALD executed in parallel
    FEWALD:  cpu time    0.0025: real time    0.0026


----------------------------------------- Iteration    1(   1)  ---------------------------------------


    POTLOK:  cpu time    0.0475: real time    0.0478
    SETDIJ:  cpu time    0.0041: real time    0.0044
     EDDAV:  cpu time   30.0610: real time   30.1346
       DOS:  cpu time    0.0023: real time    0.0024
    --------------------------------------------
      LOOP:  cpu time   30.1212: real time   30.1995

 eigenvalue-minimisations  :  8160
 total energy-change (2. order) : 0.1124323E+04  (-0.3586480E+04)
 number of electron     159.0000000 magnetization 
 augmentation part      159.0000000 magnetization 

 Free energy of the ion-electron system (eV)
  ---------------------------------------------------
  alpha Z        PSCENC =        81.65567618
  Ewald energy   TEWEN  =     41891.17177386
  -Hartree energ DENC   =    -47723.81767265
  -exchange      EXHF   =         0.00000000
  -V(xc)+E(xc)   XCENC  =      -242.92468729
  PAW double counting   =      3467.42045192    -2871.19716117
  entropy T*S    EENTRO =        -0.52633474
  eigenvalues    EBANDS =      -238.90143439
  atomic energy  EATOM  =      6761.44252427
  Solvation  Ediel_sol  =         0.00000000
  ---------------------------------------------------
  free energy    TOTEN  =      1124.32313598 eV

  energy without entropy =     1124.84947072  energy(sigma->0) =     1124.58630335


--------------------------------------------------------------------------------------------------------




----------------------------------------- Iteration    1(   2)  ---------------------------------------


     EDDAV:  cpu time   39.3932: real time   39.4875
       DOS:  cpu time    0.0015: real time    0.0015
    --------------------------------------------
      LOOP:  cpu time   39.3960: real time   39.4983

 eigenvalue-minimisations  : 11360
 total energy-change (2. order) :-0.1127046E+04  (-0.1083461E+04)
 number of electron     159.0000000 magnetization 
 augmentation part      159.0000000 magnetization 

 Free energy of the ion-electron system (eV)
  ---------------------------------------------------
  alpha Z        PSCENC =        81.65567618
  Ewald energy   TEWEN  =     41891.17177386
  -Hartree energ DENC   =    -47723.81767265
  -exchange      EXHF   =         0.00000000
  -V(xc)+E(xc)   XCENC  =      -242.92468729
  PAW double counting   =      3467.42045192    -2871.19716117
  entropy T*S    EENTRO =        -0.19171294
  eigenvalues    EBANDS =     -1366.28177681
  atomic energy  EATOM  =      6761.44252427
  Solvation  Ediel_sol  =         0.00000000
  ---------------------------------------------------
  free energy    TOTEN  =        -2.72258464 eV

  energy without entropy =       -2.53087170  energy(sigma->0) =       -2.62672817


--------------------------------------------------------------------------------------------------------




----------------------------------------- Iteration    1(   3)  ---------------------------------------


     EDDAV:  cpu time   37.8493: real time   37.9409
       DOS:  cpu time    0.0016: real time    0.0016
    --------------------------------------------
      LOOP:  cpu time   37.8519: real time   37.9513

 eigenvalue-minimisations  : 10880
 total energy-change (2. order) :-0.1971154E+03  (-0.1895535E+03)
 number of electron     159.0000000 magnetization 
 augmentation part      159.0000000 magnetization 

 Free energy of the ion-electron system (eV)
  ---------------------------------------------------
  alpha Z        PSCENC =        81.65567618
  Ewald energy   TEWEN  =     41891.17177386
  -Hartree energ DENC   =    -47723.81767265
  -exchange      EXHF   =         0.00000000
  -V(xc)+E(xc)   XCENC  =      -242.92468729
  PAW double counting   =      3467.42045192    -2871.19716117
  entropy T*S    EENTRO =        -0.25966154
  eigenvalues    EBANDS =     -1563.32927205
  atomic energy  EATOM  =      6761.44252427
  Solvation  Ediel_sol  =         0.00000000
  ---------------------------------------------------
  free energy    TOTEN  =      -199.83802848 eV

  energy without entropy =     -199.57836694  energy(sigma->0) =     -199.70819771


--------------------------------------------------------------------------------------------------------




----------------------------------------- Iteration    1(   4)  ---------------------------------------


     EDDAV:  cpu time   41.0976: real time   41.1970
       DOS:  cpu time    0.0008: real time    0.0016
    --------------------------------------------
      LOOP:  cpu time   41.1004: real time   41.2081

 eigenvalue-minimisations  : 12080
 total energy-change (2. order) :-0.9145145E+01  (-0.8871153E+01)
 number of electron     159.0000000 magnetization 
 augmentation part      159.0000000 magnetization 

 Free energy of the ion-electron system (eV)
  ---------------------------------------------------
  alpha Z        PSCENC =        81.65567618
  Ewald energy   TEWEN  =     41891.17177386
  -Hartree energ DENC   =    -47723.81767265
  -exchange      EXHF   =         0.00000000
  -V(xc)+E(xc)   XCENC  =      -242.92468729
  PAW double counting   =      3467.42045192    -2871.19716117
  entropy T*S    EENTRO =        -0.29132845
  eigenvalues    EBANDS =     -1572.44274981
  atomic energy  EATOM  =      6761.44252427
  Solvation  Ediel_sol  =         0.00000000
  ---------------------------------------------------
  free energy    TOTEN  =      -208.98317315 eV

  energy without entropy =     -208.69184470  energy(sigma->0) =     -208.83750892


--------------------------------------------------------------------------------------------------------




----------------------------------------- Iteration    1(   5)  ---------------------------------------


     EDDAV:  cpu time   38.9179: real time   39.0120
       DOS:  cpu time    0.0008: real time    0.0015
    CHARGE:  cpu time    0.5621: real time    0.5635
    MIXING:  cpu time    0.0029: real time    0.0033
    --------------------------------------------
      LOOP:  cpu time   39.4856: real time   39.5898

 eigenvalue-minimisations  : 11320
 total energy-change (2. order) :-0.3204556E+00  (-0.3195819E+00)
 number of electron     159.0000110 magnetization 
 augmentation part       -9.8016015 magnetization 

 Broyden mixing:
  rms(total) = 0.27508E+01    rms(broyden)= 0.27503E+01
  rms(prec ) = 0.29366E+01
  weight for this iteration     100.00

 Free energy of the ion-electron system (eV)
  ---------------------------------------------------
  alpha Z        PSCENC =        81.65567618
  Ewald energy   TEWEN  =     41891.17177386
  -Hartree energ DENC   =    -47723.81767265
  -exchange      EXHF   =         0.00000000
  -V(xc)+E(xc)   XCENC  =      -242.92468729
  PAW double counting   =      3467.42045192    -2871.19716117
  entropy T*S    EENTRO =        -0.28819537
  eigenvalues    EBANDS =     -1572.76633847
  atomic energy  EATOM  =      6761.44252427
  Solvation  Ediel_sol  =         0.00000000
  ---------------------------------------------------
  free energy    TOTEN  =      -209.30362872 eV

  energy without entropy =     -209.01543336  energy(sigma->0) =     -209.15953104


--------------------------------------------------------------------------------------------------------




----------------------------------------- Iteration    1(   6)  ---------------------------------------


    POTLOK:  cpu time    0.0452: real time    0.0453
    SETDIJ:  cpu time    0.0032: real time    0.0032
     EDDAV:  cpu time   42.8222: real time   42.9253
       DOS:  cpu time    0.0008: real time    0.0015
    CHARGE:  cpu time    0.5600: real time    0.5613
    MIXING:  cpu time    0.0027: real time    0.0028
    --------------------------------------------
      LOOP:  cpu time   43.4361: real time   43.5473

 eigenvalue-minimisations  : 12640
 total energy-change (2. order) :-0.2856248E+02  (-0.1080029E+02)
 number of electron     159.0000107 magnetization 
 augmentation part        7.0790516 magnetization 

 Broyden mixing:
  rms(total) = 0.59491E+01    rms(broyden)= 0.59484E+01
  rms(prec ) = 0.65603E+01
  weight for this iteration     100.00

 eigenvalues of (default mixing * dielectric matrix)
  average eigenvalue GAMMA=   0.2937
  0.2937

 Free energy of the ion-electron system (eV)
  ---------------------------------------------------
  alpha Z        PSCENC =        81.65567618
  Ewald energy   TEWEN  =     41891.17177386
  -Hartree energ DENC   =    -47702.18941841
  -exchange      EXHF   =         0.00000000
  -V(xc)+E(xc)   XCENC  =      -233.61809248
  PAW double counting   =      3676.56529845    -3082.65666281
  entropy T*S    EENTRO =        -0.25232862
  eigenvalues    EBANDS =     -1629.98488385
  atomic energy  EATOM  =      6761.44252427
  Solvation  Ediel_sol  =         0.00000000
  ---------------------------------------------------
  free energy    TOTEN  =      -237.86611342 eV

  energy without entropy =     -237.61378480  energy(sigma->0) =     -237.73994911


--------------------------------------------------------------------------------------------------------




----------------------------------------- Iteration    1(   7)  ---------------------------------------


    POTLOK:  cpu time    0.0395: real time    0.0396
    SETDIJ:  cpu time    0.0030: real time    0.0030
     EDDAV:  cpu time   45.1922: real time   45.3004
       DOS:  cpu time    0.0007: real time    0.0015
    CHARGE:  cpu time    0.5731: real time    0.5745
    MIXING:  cpu time    0.0016: real time    0.0016
    --------------------------------------------
      LOOP:  cpu time   45.8122: real time   45.9299

 eigenvalue-minimisations  : 13400
 total energy-change (2. order) : 0.4129772E+02  (-0.1751814E+02)
 number of electron     159.0000088 magnetization 
 augmentation part       -6.2631723 magnetization 

 Broyden mixing:
  rms(total) = 0.20019E+01    rms(broyden)= 0.20000E+01
  rms(prec ) = 0.22236E+01
  weight for this iteration     100.00

 eigenvalues of (default mixing * dielectric matrix)
  average eigenvalue GAMMA=   0.5523
  0.8934  0.2112

 Free energy of the ion-electron system (eV)
  ---------------------------------------------------
  alpha Z        PSCENC =        81.65567618
  Ewald energy   TEWEN  =     41891.17177386
  -Hartree energ DENC   =    -47739.18843359
  -exchange      EXHF   =         0.00000000
  -V(xc)+E(xc)   XCENC  =      -234.98861015
  PAW double counting   =      3763.82000631    -3177.85468916
  entropy T*S    EENTRO =        -0.35586739
  eigenvalues    EBANDS =     -1542.27077502
  atomic energy  EATOM  =      6761.44252427
  Solvation  Ediel_sol  =         0.00000000
  ---------------------------------------------------
  free energy    TOTEN  =      -196.56839470 eV

  energy without entropy =     -196.21252730  energy(sigma->0) =     -196.39046100


--------------------------------------------------------------------------------------------------------




----------------------------------------- Iteration    1(   8)  ---------------------------------------


    POTLOK:  cpu time    0.0415: real time    0.0416
    SETDIJ:  cpu time    0.0031: real time    0.0031
     EDDAV:  cpu time   41.0543: real time   41.1535
       DOS:  cpu time    0.0016: real time    0.0016
    CHARGE:  cpu time    0.5843: real time    0.5857
    MIXING:  cpu time    0.0014: real time    0.0014
    --------------------------------------------
      LOOP:  cpu time   41.6874: real time   41.7974

 eigenvalue-minimisations  : 12040
 total energy-change (2. order) : 0.7097806E+01  (-0.1763034E+01)
 number of electron     159.0000095 magnetization 
 augmentation part       -6.3731074 magnetization 

 Broyden mixing:
  rms(total) = 0.12522E+01    rms(broyden)= 0.12519E+01
  rms(prec ) = 0.13526E+01
  weight for this iteration     100.00

 eigenvalues of (default mixing * dielectric matrix)
  average eigenvalue GAMMA=   0.5863
  1.1358  0.2311  0.3919

 Free energy of the ion-electron system (eV)
  ---------------------------------------------------
  alpha Z        PSCENC =        81.65567618
  Ewald energy   TEWEN  =     41891.17177386
  -Hartree energ DENC   =    -47762.31563789
  -exchange      EXHF   =         0.00000000
  -V(xc)+E(xc)   XCENC  =      -235.00267342
  PAW double counting   =      3907.21120766    -3322.87843364
  entropy T*S    EENTRO =        -0.31143110
  eigenvalues    EBANDS =     -1510.44359442
  atomic energy  EATOM  =      6761.44252427
  Solvation  Ediel_sol  =         0.00000000
  ---------------------------------------------------
  free energy    TOTEN  =      -189.47058851 eV

  energy without entropy =     -189.15915741  energy(sigma->0) =     -189.31487296


--------------------------------------------------------------------------------------------------------




----------------------------------------- Iteration    1(   9)  ---------------------------------------


    POTLOK:  cpu time    0.0396: real time    0.0396
    SETDIJ:  cpu time    0.0031: real time    0.0031
     EDDAV:  cpu time   45.3044: real time   45.4140
       DOS:  cpu time    0.0018: real time    0.0018
    CHARGE:  cpu time    0.5908: real time    0.5923
    MIXING:  cpu time    0.0017: real time    0.0017
    --------------------------------------------
      LOOP:  cpu time   45.9426: real time   46.0623

 eigenvalue-minimisations  : 13440
 total energy-change (2. order) : 0.1343741E+01  (-0.3031017E+00)
 number of electron     159.0000091 magnetization 
 augmentation part       -5.5496224 magnetization 

 Broyden mixing:
  rms(total) = 0.91148E+00    rms(broyden)= 0.91125E+00
  rms(prec ) = 0.98872E+00
  weight for this iteration     100.00

 eigenvalues of (default mixing * dielectric matrix)
  average eigenvalue GAMMA=   0.7414
  1.8135  0.6219  0.2200  0.3103

 Free energy of the ion-electron system (eV)
  ---------------------------------------------------
  alpha Z        PSCENC =        81.65567618
  Ewald energy   TEWEN  =     41891.17177386
  -Hartree energ DENC   =    -47766.97151412
  -exchange      EXHF   =         0.00000000
  -V(xc)+E(xc)   XCENC  =      -234.10806022
  PAW double counting   =      3977.25875359    -3393.79795351
  entropy T*S    EENTRO =        -0.32135650
  eigenvalues    EBANDS =     -1504.45669155
  atomic energy  EATOM  =      6761.44252427
  Solvation  Ediel_sol  =         0.00000000
  ---------------------------------------------------
  free energy    TOTEN  =      -188.12684801 eV

  energy without entropy =     -187.80549150  energy(sigma->0) =     -187.96616976


--------------------------------------------------------------------------------------------------------




----------------------------------------- Iteration    1(  10)  ---------------------------------------


    POTLOK:  cpu time    0.0413: real time    0.0414
    SETDIJ:  cpu time    0.0031: real time    0.0031
     EDDAV:  cpu time   44.9191: real time   45.0267
       DOS:  cpu time    0.0010: real time    0.0018
    CHARGE:  cpu time    0.6126: real time    0.6140
    MIXING:  cpu time    0.0007: real time    0.0017
    --------------------------------------------
      LOOP:  cpu time   45.5809: real time   45.6984

 eigenvalue-minimisations  : 13440
 total energy-change (2. order) : 0.1190856E+01  (-0.1725530E+00)
 number of electron     159.0000092 magnetization 
 augmentation part       -4.2543270 magnetization 

 Broyden mixing:
  rms(total) = 0.21513E+00    rms(broyden)= 0.21455E+00
  rms(prec ) = 0.22703E+00
  weight for this iteration     100.00

 eigenvalues of (default mixing * dielectric matrix)
  average eigenvalue GAMMA=   0.8385
  1.8533  1.1881  0.6414  0.2205  0.2890

 Free energy of the ion-electron system (eV)
  ---------------------------------------------------
  alpha Z        PSCENC =        81.65567618
  Ewald energy   TEWEN  =     41891.17177386
  -Hartree energ DENC   =    -47780.19937026
  -exchange      EXHF   =         0.00000000
  -V(xc)+E(xc)   XCENC  =      -232.57214455
  PAW double counting   =      4105.46187068    -3523.60574237
  entropy T*S    EENTRO =        -0.35107777
  eigenvalues    EBANDS =     -1489.93950230
  atomic energy  EATOM  =      6761.44252427
  Solvation  Ediel_sol  =         0.00000000
  ---------------------------------------------------
  free energy    TOTEN  =      -186.93599226 eV

  energy without entropy =     -186.58491449  energy(sigma->0) =     -186.76045337


--------------------------------------------------------------------------------------------------------




----------------------------------------- Iteration    1(  11)  ---------------------------------------


    POTLOK:  cpu time    0.0409: real time    0.0410
    SETDIJ:  cpu time    0.0030: real time    0.0030
     EDDAV:  cpu time   45.3970: real time   45.5074
       DOS:  cpu time    0.0016: real time    0.0016
    CHARGE:  cpu time    0.6059: real time    0.6074
    MIXING:  cpu time    0.0018: real time    0.0018
    --------------------------------------------
      LOOP:  cpu time   46.0515: real time   46.1727

 eigenvalue-minimisations  : 13520
 total energy-change (2. order) :-0.8884475E-01  (-0.5892119E-01)
 number of electron     159.0000090 magnetization 
 augmentation part       -4.4485108 magnetization 

 Broyden mixing:
  rms(total) = 0.36962E+00    rms(broyden)= 0.36939E+00
  rms(prec ) = 0.40916E+00
  weight for this iteration     100.00

 eigenvalues of (default mixing * dielectric matrix)
  average eigenvalue GAMMA=   0.8536
  1.8607  1.8607  0.6391  0.2185  0.2840  0.2587

 Free energy of the ion-electron system (eV)
  ---------------------------------------------------
  alpha Z        PSCENC =        81.65567618
  Ewald energy   TEWEN  =     41891.17177386
  -Hartree energ DENC   =    -47790.09060664
  -exchange      EXHF   =         0.00000000
  -V(xc)+E(xc)   XCENC  =      -232.24372187
  PAW double counting   =      4151.62666705    -3569.88679768
  entropy T*S    EENTRO =        -0.33815898
  eigenvalues    EBANDS =     -1480.36219320
  atomic energy  EATOM  =      6761.44252427
  Solvation  Ediel_sol  =         0.00000000
  ---------------------------------------------------
  free energy    TOTEN  =      -187.02483701 eV

  energy without entropy =     -186.68667803  energy(sigma->0) =     -186.85575752


--------------------------------------------------------------------------------------------------------




----------------------------------------- Iteration    1(  12)  ---------------------------------------


    POTLOK:  cpu time    0.0398: real time    0.0399
    SETDIJ:  cpu time    0.0029: real time    0.0029
     EDDAV:  cpu time   43.2890: real time   43.3938
       DOS:  cpu time    0.0016: real time    0.0016
    CHARGE:  cpu time    0.6082: real time    0.6097
    MIXING:  cpu time    0.0019: real time    0.0019
    --------------------------------------------
      LOOP:  cpu time   43.9447: real time   44.0581

 eigenvalue-minimisations  : 12840
 total energy-change (2. order) : 0.7664745E-01  (-0.7004622E-01)
 number of electron     159.0000088 magnetization 
 augmentation part       -4.4532196 magnetization 

 Broyden mixing:
  rms(total) = 0.32625E+00    rms(broyden)= 0.32604E+00
  rms(prec ) = 0.36152E+00
  weight for this iteration     100.00

 eigenvalues of (default mixing * dielectric matrix)
  average eigenvalue GAMMA=   0.8069
  1.9642  1.9642  0.6387  0.3980  0.2984  0.2197  0.1652

 Free energy of the ion-electron system (eV)
  ---------------------------------------------------
  alpha Z        PSCENC =        81.65567618
  Ewald energy   TEWEN  =     41891.17177386
  -Hartree energ DENC   =    -47797.32616631
  -exchange      EXHF   =         0.00000000
  -V(xc)+E(xc)   XCENC  =      -232.04140824
  PAW double counting   =      4179.50651126    -3597.74818798
  entropy T*S    EENTRO =        -0.33228226
  eigenvalues    EBANDS =     -1473.27663034
  atomic energy  EATOM  =      6761.44252427
  Solvation  Ediel_sol  =         0.00000000
  ---------------------------------------------------
  free energy    TOTEN  =      -186.94818956 eV

  energy without entropy =     -186.61590730  energy(sigma->0) =     -186.78204843


--------------------------------------------------------------------------------------------------------




----------------------------------------- Iteration    1(  13)  ---------------------------------------


    POTLOK:  cpu time    0.0415: real time    0.0416
    SETDIJ:  cpu time    0.0034: real time    0.0034
     EDDAV:  cpu time   44.1717: real time   44.2786
       DOS:  cpu time    0.0016: real time    0.0016
    CHARGE:  cpu time    0.6111: real time    0.6126
    MIXING:  cpu time    0.0019: real time    0.0019
    --------------------------------------------
      LOOP:  cpu time   44.8328: real time   44.9501

 eigenvalue-minimisations  : 13120
 total energy-change (2. order) : 0.8266677E-01  (-0.2450120E-01)
 number of electron     159.0000088 magnetization 
 augmentation part       -4.3726460 magnetization 

 Broyden mixing:
  rms(total) = 0.18270E+00    rms(broyden)= 0.18256E+00
  rms(prec ) = 0.20496E+00
  weight for this iteration     100.00

 eigenvalues of (default mixing * dielectric matrix)
  average eigenvalue GAMMA=   0.7915
  2.2286  1.7372  0.8112  0.6359  0.2994  0.2200  0.2564  0.1430

 Free energy of the ion-electron system (eV)
  ---------------------------------------------------
  alpha Z        PSCENC =        81.65567618
  Ewald energy   TEWEN  =     41891.17177386
  -Hartree energ DENC   =    -47800.43538143
  -exchange      EXHF   =         0.00000000
  -V(xc)+E(xc)   XCENC  =      -231.95920909
  PAW double counting   =      4187.95662374    -3606.16779559
  entropy T*S    EENTRO =        -0.33547913
  eigenvalues    EBANDS =     -1470.19425560
  atomic energy  EATOM  =      6761.44252427
  Solvation  Ediel_sol  =         0.00000000
  ---------------------------------------------------
  free energy    TOTEN  =      -186.86552279 eV

  energy without entropy =     -186.53004366  energy(sigma->0) =     -186.69778322


--------------------------------------------------------------------------------------------------------




----------------------------------------- Iteration    1(  14)  ---------------------------------------


    POTLOK:  cpu time    0.0404: real time    0.0405
    SETDIJ:  cpu time    0.0029: real time    0.0029
     EDDAV:  cpu time   43.5946: real time   43.7001
       DOS:  cpu time    0.0019: real time    0.0019
    CHARGE:  cpu time    0.6072: real time    0.6087
    MIXING:  cpu time    0.0020: real time    0.0020
    --------------------------------------------
      LOOP:  cpu time   44.2503: real time   44.3666

 eigenvalue-minimisations  : 12960
 total energy-change (2. order) : 0.3838491E-01  (-0.9125160E-02)
 number of electron     159.0000089 magnetization 
 augmentation part       -4.1397314 magnetization 

 Broyden mixing:
  rms(total) = 0.60823E-01    rms(broyden)= 0.60628E-01
  rms(prec ) = 0.68620E-01
  weight for this iteration     100.00

 eigenvalues of (default mixing * dielectric matrix)
  average eigenvalue GAMMA=   0.7792
  2.2358  1.7969  0.9566  0.5876  0.5240  0.2982  0.2203  0.2520  0.1412

 Free energy of the ion-electron system (eV)
  ---------------------------------------------------
  alpha Z        PSCENC =        81.65567618
  Ewald energy   TEWEN  =     41891.17177386
  -Hartree energ DENC   =    -47804.05208598
  -exchange      EXHF   =         0.00000000
  -V(xc)+E(xc)   XCENC  =      -231.87461126
  PAW double counting   =      4191.92941434    -3610.08304895
  entropy T*S    EENTRO =        -0.34340210
  eigenvalues    EBANDS =     -1466.67337823
  atomic energy  EATOM  =      6761.44252427
  Solvation  Ediel_sol  =         0.00000000
  ---------------------------------------------------
  free energy    TOTEN  =      -186.82713788 eV

  energy without entropy =     -186.48373578  energy(sigma->0) =     -186.65543683


--------------------------------------------------------------------------------------------------------




----------------------------------------- Iteration    1(  15)  ---------------------------------------


    POTLOK:  cpu time    0.0410: real time    0.0411
    SETDIJ:  cpu time    0.0030: real time    0.0030
     EDDAV:  cpu time   40.0637: real time   40.1596
       DOS:  cpu time    0.0017: real time    0.0017
    CHARGE:  cpu time    0.6030: real time    0.6044
    MIXING:  cpu time    0.0021: real time    0.0021
    --------------------------------------------
      LOOP:  cpu time   40.7159: real time   40.8226

 eigenvalue-minimisations  : 11600
 total energy-change (2. order) : 0.3776195E-02  (-0.1056314E-02)
 number of electron     159.0000089 magnetization 
 augmentation part       -4.1622241 magnetization 

 Broyden mixing:
  rms(total) = 0.32709E-01    rms(broyden)= 0.32690E-01
  rms(prec ) = 0.37706E-01
  weight for this iteration     100.00

 eigenvalues of (default mixing * dielectric matrix)
  average eigenvalue GAMMA=   0.8094
  2.2792  1.9769  1.2240  0.6748  0.6748  0.3549  0.2982  0.2202  0.2497  0.1413

 Free energy of the ion-electron system (eV)
  ---------------------------------------------------
  alpha Z        PSCENC =        81.65567618
  Ewald energy   TEWEN  =     41891.17177386
  -Hartree energ DENC   =    -47806.90127741
  -exchange      EXHF   =         0.00000000
  -V(xc)+E(xc)   XCENC  =      -231.83235676
  PAW double counting   =      4193.05015811    -3611.16334617
  entropy T*S    EENTRO =        -0.34229671
  eigenvalues    EBANDS =     -1463.90421706
  atomic energy  EATOM  =      6761.44252427
  Solvation  Ediel_sol  =         0.00000000
  ---------------------------------------------------
  free energy    TOTEN  =      -186.82336169 eV

  energy without entropy =     -186.48106498  energy(sigma->0) =     -186.65221333


--------------------------------------------------------------------------------------------------------




----------------------------------------- Iteration    1(  16)  ---------------------------------------


    POTLOK:  cpu time    0.0390: real time    0.0400
    SETDIJ:  cpu time    0.0030: real time    0.0030
     EDDAV:  cpu time   43.3804: real time   43.4845
       DOS:  cpu time    0.0008: real time    0.0016
    CHARGE:  cpu time    0.6290: real time    0.6305
    MIXING:  cpu time    0.0023: real time    0.0023
    --------------------------------------------
      LOOP:  cpu time   44.0575: real time   44.1707

 eigenvalue-minimisations  : 12880
 total energy-change (2. order) :-0.1498843E-02  (-0.1100983E-02)
 number of electron     159.0000089 magnetization 
 augmentation part       -4.1990182 magnetization 

 Broyden mixing:
  rms(total) = 0.63477E-01    rms(broyden)= 0.63452E-01
  rms(prec ) = 0.70529E-01
  weight for this iteration     100.00

 eigenvalues of (default mixing * dielectric matrix)
  average eigenvalue GAMMA=   0.8002
  2.4128  2.1303  1.3944  0.7622  0.6559  0.4011  0.2986  0.2203  0.2506  0.1413
  0.1353

 Free energy of the ion-electron system (eV)
  ---------------------------------------------------
  alpha Z        PSCENC =        81.65567618
  Ewald energy   TEWEN  =     41891.17177386
  -Hartree energ DENC   =    -47811.19480255
  -exchange      EXHF   =         0.00000000
  -V(xc)+E(xc)   XCENC  =      -231.77581972
  PAW double counting   =      4194.41982889    -3612.48640476
  entropy T*S    EENTRO =        -0.34127601
  eigenvalues    EBANDS =     -1459.71636068
  atomic energy  EATOM  =      6761.44252427
  Solvation  Ediel_sol  =         0.00000000
  ---------------------------------------------------
  free energy    TOTEN  =      -186.82486053 eV

  energy without entropy =     -186.48358452  energy(sigma->0) =     -186.65422252


--------------------------------------------------------------------------------------------------------




----------------------------------------- Iteration    1(  17)  ---------------------------------------


    POTLOK:  cpu time    0.0409: real time    0.0410
    SETDIJ:  cpu time    0.0030: real time    0.0030
     EDDAV:  cpu time   43.4336: real time   43.5387
       DOS:  cpu time    0.0012: real time    0.0019
    CHARGE:  cpu time    0.6113: real time    0.6128
    MIXING:  cpu time    0.0022: real time    0.0022
    --------------------------------------------
      LOOP:  cpu time   44.0943: real time   44.2097

 eigenvalue-minimisations  : 12800
 total energy-change (2. order) : 0.3370480E-02  (-0.8221980E-03)
 number of electron     159.0000089 magnetization 
 augmentation part       -4.2152610 magnetization 

 Broyden mixing:
  rms(total) = 0.20276E-01    rms(broyden)= 0.20227E-01
  rms(prec ) = 0.23645E-01
  weight for this iteration     100.00

 eigenvalues of (default mixing * dielectric matrix)
  average eigenvalue GAMMA=   0.8204
  2.3049  2.3049  1.3549  1.1507  0.6591  0.6591  0.3771  0.2975  0.2202  0.2504
  0.1413  0.1243

 Free energy of the ion-electron system (eV)
  ---------------------------------------------------
  alpha Z        PSCENC =        81.65567618
  Ewald energy   TEWEN  =     41891.17177386
  -Hartree energ DENC   =    -47813.87003292
  -exchange      EXHF   =         0.00000000
  -V(xc)+E(xc)   XCENC  =      -231.74224325
  PAW double counting   =      4195.06295364    -3613.10346914
  entropy T*S    EENTRO =        -0.34093478
  eigenvalues    EBANDS =     -1457.09773790
  atomic energy  EATOM  =      6761.44252427
  Solvation  Ediel_sol  =         0.00000000
  ---------------------------------------------------
  free energy    TOTEN  =      -186.82149005 eV

  energy without entropy =     -186.48055527  energy(sigma->0) =     -186.65102266


--------------------------------------------------------------------------------------------------------




----------------------------------------- Iteration    1(  18)  ---------------------------------------


    POTLOK:  cpu time    0.0405: real time    0.0416
    SETDIJ:  cpu time    0.0031: real time    0.0031
     EDDAV:  cpu time   40.0109: real time   40.1067
       DOS:  cpu time    0.0019: real time    0.0019
    CHARGE:  cpu time    0.6241: real time    0.6256
    MIXING:  cpu time    0.0028: real time    0.0028
    --------------------------------------------
      LOOP:  cpu time   40.6855: real time   40.7907

 eigenvalue-minimisations  : 11680
 total energy-change (2. order) : 0.3969242E-03  (-0.1326036E-03)
 number of electron     159.0000089 magnetization 
 augmentation part       -4.1861369 magnetization 

 Broyden mixing:
  rms(total) = 0.65158E-02    rms(broyden)= 0.65026E-02
  rms(prec ) = 0.94004E-02
  weight for this iteration     100.00

 eigenvalues of (default mixing * dielectric matrix)
  average eigenvalue GAMMA=   0.8870
  2.5120  2.5120  1.5640  1.2645  0.9867  0.6414  0.6414  0.3751  0.2976  0.2202
  0.2505  0.1413  0.1241

 Free energy of the ion-electron system (eV)
  ---------------------------------------------------
  alpha Z        PSCENC =        81.65567618
  Ewald energy   TEWEN  =     41891.17177386
  -Hartree energ DENC   =    -47817.23399413
  -exchange      EXHF   =         0.00000000
  -V(xc)+E(xc)   XCENC  =      -231.71020155
  PAW double counting   =      4194.68791226    -3612.70787347
  entropy T*S    EENTRO =        -0.34158978
  eigenvalues    EBANDS =     -1453.78532075
  atomic energy  EATOM  =      6761.44252427
  Solvation  Ediel_sol  =         0.00000000
  ---------------------------------------------------
  free energy    TOTEN  =      -186.82109313 eV

  energy without entropy =     -186.47950335  energy(sigma->0) =     -186.65029824


--------------------------------------------------------------------------------------------------------




----------------------------------------- Iteration    1(  19)  ---------------------------------------


    POTLOK:  cpu time    0.0416: real time    0.0416
    SETDIJ:  cpu time    0.0030: real time    0.0030
     EDDAV:  cpu time   37.4861: real time   37.5768
       DOS:  cpu time    0.0016: real time    0.0016
    CHARGE:  cpu time    0.6093: real time    0.6108
    MIXING:  cpu time    0.0013: real time    0.0023
    --------------------------------------------
      LOOP:  cpu time   38.1450: real time   38.2464

 eigenvalue-minimisations  : 10720
 total energy-change (2. order) :-0.5791228E-03  (-0.8142723E-04)
 number of electron     159.0000089 magnetization 
 augmentation part       -4.1969784 magnetization 

 Broyden mixing:
  rms(total) = 0.81615E-02    rms(broyden)= 0.81558E-02
  rms(prec ) = 0.10107E-01
  weight for this iteration     100.00

 eigenvalues of (default mixing * dielectric matrix)
  average eigenvalue GAMMA=   0.8763
  2.6289  2.6289  1.6424  1.3401  1.0082  0.6459  0.6459  0.3754  0.2202  0.2505
  0.2976  0.3192  0.1413  0.1241

 Free energy of the ion-electron system (eV)
  ---------------------------------------------------
  alpha Z        PSCENC =        81.65567618
  Ewald energy   TEWEN  =     41891.17177386
  -Hartree energ DENC   =    -47822.40945764
  -exchange      EXHF   =         0.00000000
  -V(xc)+E(xc)   XCENC  =      -231.66745196
  PAW double counting   =      4193.49409253    -3611.49405722
  entropy T*S    EENTRO =        -0.34115855
  eigenvalues    EBANDS =     -1448.67361372
  atomic energy  EATOM  =      6761.44252427
  Solvation  Ediel_sol  =         0.00000000
  ---------------------------------------------------
  free energy    TOTEN  =      -186.82167225 eV

  energy without entropy =     -186.48051370  energy(sigma->0) =     -186.65109297


--------------------------------------------------------------------------------------------------------




----------------------------------------- Iteration    1(  20)  ---------------------------------------


    POTLOK:  cpu time    0.0417: real time    0.0418
    SETDIJ:  cpu time    0.0034: real time    0.0034
     EDDAV:  cpu time   30.5512: real time   30.6243
       DOS:  cpu time    0.0015: real time    0.0015
    CHARGE:  cpu time    0.6220: real time    0.6235
    MIXING:  cpu time    0.0027: real time    0.0027
    --------------------------------------------
      LOOP:  cpu time   31.2248: real time   31.3077

 eigenvalue-minimisations  :  8240
 total energy-change (2. order) :-0.3065819E-03  (-0.3239945E-04)
 number of electron     159.0000089 magnetization 
 augmentation part       -4.1975721 magnetization 

 Broyden mixing:
  rms(total) = 0.56484E-02    rms(broyden)= 0.56415E-02
  rms(prec ) = 0.71158E-02
  weight for this iteration     100.00

 eigenvalues of (default mixing * dielectric matrix)
  average eigenvalue GAMMA=   0.9534
  3.2850  2.5244  1.7667  1.7667  1.0042  1.0042  0.6434  0.6434  0.3754  0.2976
  0.2202  0.1413  0.2505  0.2539  0.1241

 Free energy of the ion-electron system (eV)
  ---------------------------------------------------
  alpha Z        PSCENC =        81.65567618
  Ewald energy   TEWEN  =     41891.17177386
  -Hartree energ DENC   =    -47824.40885703
  -exchange      EXHF   =         0.00000000
  -V(xc)+E(xc)   XCENC  =      -231.65208096
  PAW double counting   =      4193.08494977    -3611.07991527
  entropy T*S    EENTRO =        -0.34108057
  eigenvalues    EBANDS =     -1446.69496908
  atomic energy  EATOM  =      6761.44252427
  Solvation  Ediel_sol  =         0.00000000
  ---------------------------------------------------
  free energy    TOTEN  =      -186.82197883 eV

  energy without entropy =     -186.48089826  energy(sigma->0) =     -186.65143855


--------------------------------------------------------------------------------------------------------




----------------------------------------- Iteration    1(  21)  ---------------------------------------


    POTLOK:  cpu time    0.0417: real time    0.0418
    SETDIJ:  cpu time    0.0030: real time    0.0030
     EDDAV:  cpu time   30.2270: real time   30.3018
       DOS:  cpu time    0.0016: real time    0.0016
    CHARGE:  cpu time    0.6205: real time    0.6220
    MIXING:  cpu time    0.0025: real time    0.0025
    --------------------------------------------
      LOOP:  cpu time   30.8968: real time   30.9828

 eigenvalue-minimisations  :  8200
 total energy-change (2. order) :-0.1186010E-02  (-0.2960806E-04)
 number of electron     159.0000089 magnetization 
 augmentation part       -4.1892803 magnetization 

 Broyden mixing:
  rms(total) = 0.25438E-02    rms(broyden)= 0.25394E-02
  rms(prec ) = 0.33986E-02
  weight for this iteration     100.00

 eigenvalues of (default mixing * dielectric matrix)
  average eigenvalue GAMMA=   0.9936
  3.7534  2.4815  2.1396  1.6664  1.0826  1.0826  0.7582  0.6352  0.6352  0.3753
  0.2976  0.2202  0.1413  0.2505  0.2531  0.1241

 Free energy of the ion-electron system (eV)
  ---------------------------------------------------
  alpha Z        PSCENC =        81.65567618
  Ewald energy   TEWEN  =     41891.17177386
  -Hartree energ DENC   =    -47828.42117650
  -exchange      EXHF   =         0.00000000
  -V(xc)+E(xc)   XCENC  =      -231.62472161
  PAW double counting   =      4192.46025645    -3610.45289487
  entropy T*S    EENTRO =        -0.34118969
  eigenvalues    EBANDS =     -1442.71341292
  atomic energy  EATOM  =      6761.44252427
  Solvation  Ediel_sol  =         0.00000000
  ---------------------------------------------------
  free energy    TOTEN  =      -186.82316484 eV

  energy without entropy =     -186.48197515  energy(sigma->0) =     -186.65257000


--------------------------------------------------------------------------------------------------------




----------------------------------------- Iteration    1(  22)  ---------------------------------------


    POTLOK:  cpu time    0.0408: real time    0.0409
    SETDIJ:  cpu time    0.0030: real time    0.0030
     EDDAV:  cpu time   25.9534: real time   26.0163
       DOS:  cpu time    0.0017: real time    0.0017
    CHARGE:  cpu time    0.6243: real time    0.6258
    MIXING:  cpu time    0.0026: real time    0.0026
    --------------------------------------------
      LOOP:  cpu time   26.6271: real time   26.7000

 eigenvalue-minimisations  :  6680
 total energy-change (2. order) :-0.7889954E-03  (-0.8163667E-05)
 number of electron     159.0000089 magnetization 
 augmentation part       -4.1897682 magnetization 

 Broyden mixing:
  rms(total) = 0.24253E-02    rms(broyden)= 0.24234E-02
  rms(prec ) = 0.30312E-02
  weight for this iteration     100.00

 eigenvalues of (default mixing * dielectric matrix)
  average eigenvalue GAMMA=   1.0682
  4.7657  2.4921  2.4921  1.6334  1.4137  1.0156  1.0156  0.6401  0.6401  0.3754
  0.3887  0.2976  0.2202  0.2505  0.2529  0.1413  0.1241

 Free energy of the ion-electron system (eV)
  ---------------------------------------------------
  alpha Z        PSCENC =        81.65567618
  Ewald energy   TEWEN  =     41891.17177386
  -Hartree energ DENC   =    -47830.22057039
[...]
    104      -0.5586      0.00000
    105      -0.4816      0.00000
    106      -0.4053      0.00000
    107      -0.3460      0.00000
    108      -0.1111      0.00000
    109       0.0104      0.00000
    110       0.1339      0.00000
    111       0.3559      0.00000
    112       0.5850      0.00000
    113       0.7501      0.00000
    114       0.9857      0.00000
    115       1.1785      0.00000
    116       1.3054      0.00000
    117       1.5731      0.00000
    118       2.1624      0.00000
    119       2.3108      0.00000
    120       2.4208      0.00000

 k-point    34 :       0.5000    0.5000    0.0000
  band No.  band energies     occupation 
      1     -17.5057      2.00000
      2     -17.3495      2.00000
      3     -16.7456      2.00000
      4     -16.7174      2.00000
      5     -16.5824      2.00000
      6     -16.5514      2.00000
      7     -16.2783      2.00000
      8     -16.1989      2.00000
      9     -16.1182      2.00000
     10     -16.0829      2.00000
     11     -15.8798      2.00000
     12     -15.8353      2.00000
     13     -15.7704      2.00000
     14     -15.6990      2.00000
     15     -15.6425      2.00000
     16     -15.4313      2.00000
     17     -15.3394      2.00000
     18     -15.2142      2.00000
     19      -9.8136      2.00000
     20      -9.3524      2.00000
     21      -9.3029      2.00000
     22      -9.0074      2.00000
     23      -8.9399      2.00000
     24      -8.8319      2.00000
     25      -8.6786      2.00000
     26      -8.6622      2.00000
     27      -8.4404      2.00000
     28      -8.2927      2.00000
     29      -8.2292      2.00000
     30      -8.1320      2.00000
     31      -8.0832      2.00000
     32      -8.0135      2.00000
     33      -7.9235      2.00000
     34      -7.8474      2.00000
     35      -7.7464      2.00000
     36      -7.6822      2.00000
     37      -7.6435      2.00000
     38      -7.5974      2.00000
     39      -7.4683      2.00000
     40      -7.3376      2.00000
     41      -7.0934      2.00000
     42      -7.0736      2.00000
     43      -7.0029      2.00000
     44      -6.8538      2.00000
     45      -6.8260      2.00000
     46      -6.7138      2.00000
     47      -6.6518      2.00000
     48      -6.5904      2.00000
     49      -6.5220      2.00000
     50      -6.4615      2.00000
     51      -6.4138      2.00000
     52      -6.3468      2.00000
     53      -6.2718      2.00000
     54      -6.1846      2.00000
     55      -6.1133      2.00000
     56      -6.0980      2.00000
     57      -6.0114      2.00000
     58      -5.8467      2.00000
     59      -5.8163      2.00000
     60      -5.7932      2.00000
     61      -5.6318      2.00000
     62      -5.5987      2.00000
     63      -5.5348      2.00000
     64      -5.4093      2.00000
     65      -5.2257      2.00000
     66      -5.0699      2.00000
     67      -5.0008      2.00000
     68      -4.9553      2.00000
     69      -4.8330      2.00000
     70      -4.6324      2.00000
     71      -4.5797      2.00000
     72      -4.4498      2.00000
     73      -4.3350      2.00000
     74      -4.1776      2.00000
     75      -4.0379      2.00000
     76      -4.0117      2.00000
     77      -3.8604      1.99998
     78      -3.6852      1.99794
     79      -3.4736      1.88711
     80      -3.3373      1.46581
     81      -2.9920      0.06874
     82      -2.9553      0.03756
     83      -2.6618      0.00003
     84      -2.6127      0.00001
     85      -2.4607      0.00000
     86      -2.3419      0.00000
     87      -2.1893      0.00000
     88      -2.1027      0.00000
     89      -1.9269      0.00000
     90      -1.8473      0.00000
     91      -1.6602      0.00000
     92      -1.5687      0.00000
     93      -1.3918      0.00000
     94      -1.3689      0.00000
     95      -1.2000      0.00000
     96      -1.0926      0.00000
     97      -1.0735      0.00000
     98      -1.0011      0.00000
     99      -0.9319      0.00000
    100      -0.8967      0.00000
    101      -0.8244      0.00000
    102      -0.7103      0.00000
    103      -0.6334      0.00000
    104      -0.6017      0.00000
    105      -0.4821      0.00000
    106      -0.4084      0.00000
    107      -0.2987      0.00000
    108      -0.1208      0.00000
    109       0.0190      0.00000
    110       0.1962      0.00000
    111       0.2739      0.00000
    112       0.5847      0.00000
    113       0.7703      0.00000
    114       1.0441      0.00000
    115       1.1399      0.00000
    116       1.3252      0.00000
    117       1.5693      0.00000
    118       2.2520      0.00000
    119       2.2659      0.00000
    120       2.4061      0.00000


--------------------------------------------------------------------------------------------------------


 soft charge-density along one line, spin component           1
         0         1         2         3         4         5         6         7         8         9
 total charge-density along one line
 
 pseudopotential strength for first ion, spin component:           1
 -7.217   0.003  -0.007   0.002   0.001   0.673  -0.002   0.002
  0.003  -7.104  -0.001   0.005  -0.002  -0.002   0.639   0.000
 -0.007  -0.001  -7.075   0.006   0.023   0.002   0.000   0.632
  0.002   0.005   0.006  -7.138   0.019  -0.001  -0.001  -0.002
  0.001  -0.002   0.023   0.019  -7.216  -0.000   0.001  -0.007
  0.673  -0.002   0.002  -0.001  -0.000   0.333   0.001  -0.001
 -0.002   0.639   0.000  -0.001   0.001   0.001   0.344   0.000
  0.002   0.000   0.632  -0.002  -0.007  -0.001   0.000   0.345
 -0.001  -0.001  -0.002   0.649  -0.005   0.000   0.000   0.001
 -0.000   0.001  -0.007  -0.005   0.673   0.000  -0.000   0.002
 -0.002  -0.001  -0.021  -0.004   0.006   0.000   0.000   0.005
 -0.001  -0.000  -0.007  -0.001   0.002   0.000   0.000   0.002
  0.003   0.004  -0.002   0.003  -0.007   0.000  -0.001  -0.001
  0.003   0.010   0.002   0.005  -0.002  -0.000  -0.000  -0.001
  0.006   0.003  -0.000   0.000   0.003   0.001  -0.000  -0.000
  0.001   0.003  -0.001   0.003  -0.005  -0.000  -0.001   0.000
  0.003   0.008   0.000   0.004  -0.002  -0.000  -0.001  -0.000
  0.004   0.003   0.001  -0.001   0.001  -0.001  -0.000  -0.000
 total augmentation occupancy for first ion, spin component:           1
  0.796   0.156  -0.016   0.019   0.029   0.435   0.210  -0.001   0.012   0.007   0.028  -0.002  -0.004   0.053  -0.024  -0.001
  0.156   1.061   0.017  -0.010   0.003   0.208   0.643   0.035  -0.011  -0.006   0.016   0.004   0.060   0.064   0.062   0.002
 -0.016   0.017   0.860   0.030   0.048  -0.000   0.035   0.345   0.020   0.002   0.148   0.005   0.067   0.000   0.043   0.003
  0.019  -0.010   0.030   1.083  -0.145   0.011  -0.011   0.020   0.648  -0.216  -0.003   0.002   0.051   0.053  -0.025   0.002
  0.029   0.003   0.048  -0.145   0.843   0.007  -0.005   0.004  -0.219   0.444  -0.019  -0.000   0.002  -0.042   0.000   0.003
  0.435   0.208  -0.000   0.011   0.007   0.371   0.216   0.006   0.012  -0.007  -0.014  -0.002   0.018   0.065   0.024   0.000
  0.210   0.643   0.035  -0.011  -0.005   0.216   0.577   0.024  -0.003  -0.005   0.039   0.005   0.047   0.086   0.060   0.004
 -0.001   0.035   0.345   0.020   0.004   0.006   0.024   0.275   0.014  -0.001   0.040   0.009   0.020   0.004   0.011   0.004
  0.012  -0.011   0.020   0.648  -0.219   0.012  -0.003   0.014   0.577  -0.219   0.005   0.002   0.063   0.054  -0.026   0.005
  0.007  -0.006   0.002  -0.216   0.444  -0.007  -0.005  -0.001  -0.219   0.369   0.006   0.000  -0.023  -0.038   0.015   0.001
  0.028   0.016   0.148  -0.003  -0.019  -0.014   0.039   0.040   0.005   0.006   1.388   0.138   0.028   0.020   0.035   0.002
 -0.002   0.004   0.005   0.002  -0.000  -0.002   0.005   0.009   0.002   0.000   0.138   0.026   0.009   0.001   0.005   0.001
 -0.004   0.060   0.067   0.051   0.002   0.018   0.047   0.020   0.063  -0.023   0.028   0.009   0.359   0.010   0.005   0.027
  0.053   0.064   0.000   0.053  -0.042   0.065   0.086   0.004   0.054  -0.038   0.020   0.001   0.010   0.420   0.000   0.000
 -0.024   0.062   0.043  -0.025   0.000   0.024   0.060   0.011  -0.026   0.015   0.035   0.005   0.005   0.000   0.350  -0.000
 -0.001   0.002   0.003   0.002   0.003   0.000   0.004   0.004   0.005   0.001   0.002   0.001   0.027   0.000  -0.000   0.003
  0.002  -0.002   0.000  -0.000  -0.002   0.005   0.005   0.000   0.003  -0.003   0.001   0.000   0.000   0.029  -0.000   0.000
 -0.003   0.002   0.001  -0.000  -0.001  -0.001   0.005   0.002  -0.002  -0.000   0.001   0.000  -0.000  -0.000   0.027  -0.000


------------------------ aborting loop because EDIFF is reached ----------------------------------------


    CHARGE:  cpu time    0.5924: real time    0.5938
    FORLOC:  cpu time    0.0099: real time    0.0099
    FORNL :  cpu time    7.9543: real time    7.9733
    STRESS:  cpu time   46.3428: real time   46.4537
    FORCOR:  cpu time    0.0485: real time    0.0491
    FORHAR:  cpu time    0.0173: real time    0.0173
    MIXING:  cpu time    0.0013: real time    0.0013
    OFIELD:  cpu time    0.0000: real time    0.0000

  FORCE on cell =-STRESS in cart. coord.  units (eV):
  Direction    XX          YY          ZZ          XY          YZ          ZX
  --------------------------------------------------------------------------------------
  Alpha Z    89.48334    89.48334    89.48334
  Ewald   49344.02195 49298.01805-54260.75760   -39.41415    21.23497    12.04851
  Hartree 50049.86967 50020.65217-49681.38267   -25.11483    11.89578     6.82627
  E(xc)    -609.56685  -610.62170  -617.84983    -0.91534    -0.95008    -0.54311
  Local  ************************101379.70769    57.65342   -41.31286   -23.57341
  n-local  1213.59619  1215.48933  1248.84676     1.65846    -2.29827    -1.37915
  augment  -213.27409  -212.77101  -214.57699     0.45151     0.98889     0.57245
  Kinetic  2008.22368  2014.76855  2054.72101     5.63900    10.22233     5.92332
  Fock        0.00000     0.00000     0.00000     0.00000     0.00000     0.00000
  -------------------------------------------------------------------------------------
  Total      -0.03864    -0.06458    -1.80829    -0.04193    -0.21924    -0.12512
  in kB      -0.02588    -0.04325    -1.21097    -0.02808    -0.14682    -0.08379
  external pressure =       -0.43 kB  Pullay stress =        0.00 kB


 VOLUME and BASIS-vectors are now :
 -----------------------------------------------------------------------------
  energy-cutoff  :      280.00
  volume of cell :     2392.46
      direct lattice vectors                 reciprocal lattice vectors
     8.309507197  4.823400526  0.000000000     0.060017526  0.103927495  0.000000000
    -8.288086506  4.786321958  0.000000000    -0.060482469  0.104196097  0.000000000
     0.000000000  0.000000000 30.000000000     0.000000000  0.000000000  0.033333333

  length of vectors
     9.607970779  9.570854497 30.000000000     0.120012614  0.120478030  0.033333333


 FORCES acting on ions
    electron-ion (+dipol)            ewald-force                    non-local-force                 convergence-correction
 -----------------------------------------------------------------------------------------------
   0.114E+02 0.216E+02 0.151E+02   -.119E+02 -.231E+02 -.149E+02   0.499E+00 0.148E+01 -.235E+00   -.210E-01 -.315E-02 -.231E-01
   0.128E+02 0.205E+02 0.151E+02   -.138E+02 -.216E+02 -.148E+02   0.103E+01 0.118E+01 -.238E+00   0.191E-01 -.187E-01 -.222E-01
   -.132E+02 -.229E+02 -.128E+02   0.139E+02 0.243E+02 0.126E+02   -.761E+00 -.132E+01 0.283E+00   -.173E-01 -.243E-01 0.241E-01
   0.605E+01 -.422E+01 0.204E+01   -.587E+01 0.406E+01 -.207E+01   -.225E+00 0.157E+00 0.230E-01   0.302E-01 0.463E-02 0.777E-03
   -.596E+01 0.269E+01 0.200E+01   0.575E+01 -.263E+01 -.202E+01   0.249E+00 -.112E+00 0.233E-01   -.184E-01 0.398E-01 0.122E-02
   0.577E+01 0.117E+02 0.344E+01   -.571E+01 -.115E+02 -.343E+01   -.104E+00 -.180E+00 -.109E-01   0.267E-01 0.268E-01 0.336E-02
   -.184E+02 -.270E+02 -.231E+02   0.190E+02 0.277E+02 0.229E+02   -.580E+00 -.710E+00 0.221E+00   0.182E-01 -.596E-02 0.105E-01
   -.144E+02 -.298E+02 -.230E+02   0.147E+02 0.306E+02 0.227E+02   -.321E+00 -.840E+00 0.217E+00   -.442E-02 0.227E-01 0.112E-01
   0.173E+02 0.298E+02 0.192E+02   -.177E+02 -.305E+02 -.190E+02   0.383E+00 0.656E+00 -.163E+00   -.647E-02 0.123E-01 -.527E-02
   -.292E+01 -.964E+01 0.613E+03   0.385E+01 0.106E+02 -.617E+03   -.904E+00 -.101E+01 0.351E+01   -.117E-01 0.360E-01 -.152E-01
   -.111E+02 -.187E+02 -.633E+03   0.113E+02 0.190E+02 0.637E+03   -.209E+00 -.358E+00 -.404E+01   0.187E-01 0.256E-01 0.504E-02
   -.852E+01 -.149E+02 0.607E+03   0.920E+01 0.161E+02 -.610E+03   -.671E+00 -.121E+01 0.320E+01   -.935E-02 0.768E-02 0.201E-01
   -.107E+02 -.214E+02 -.606E+03   0.110E+02 0.221E+02 0.609E+03   -.272E+00 -.828E+00 -.366E+01   -.728E-02 0.160E-01 -.227E-01
   -.676E+01 -.694E+01 0.612E+03   0.719E+01 0.826E+01 -.615E+03   -.465E+00 -.130E+01 0.352E+01   0.435E-01 -.550E-02 -.568E-02
   -.129E+02 -.200E+02 -.606E+03   0.134E+02 0.207E+02 0.609E+03   -.577E+00 -.643E+00 -.366E+01   0.825E-02 -.746E-02 -.307E-01
   -.631E+01 -.107E+02 0.505E+03   0.613E+01 0.104E+02 -.510E+03   0.180E+00 0.299E+00 0.524E+01   -.297E-02 -.196E-02 0.486E-02
   0.146E+01 0.944E+01 -.496E+03   -.962E+00 -.903E+01 0.501E+03   -.452E+00 -.390E+00 -.506E+01   -.363E-01 -.141E-01 0.139E-01
   -.576E+01 -.128E+02 0.488E+03   0.552E+01 0.131E+02 -.493E+03   0.243E+00 -.266E+00 0.487E+01   -.117E-01 -.255E-01 -.158E-02
   0.741E+01 0.572E+01 -.496E+03   -.730E+01 -.509E+01 0.501E+03   -.118E+00 -.585E+00 -.506E+01   0.280E-02 -.245E-01 0.723E-02
   -.803E+01 -.112E+02 0.488E+03   0.841E+01 0.111E+02 -.493E+03   -.358E+00 0.857E-01 0.487E+01   -.215E-01 -.358E-01 -.695E-02
   0.373E+01 0.656E+01 -.480E+03   -.360E+01 -.631E+01 0.485E+03   -.112E+00 -.202E+00 -.457E+01   -.156E-01 -.468E-01 0.274E-01
   0.715E+01 0.239E+02 0.610E+03   -.744E+01 -.247E+02 -.614E+03   0.328E+00 0.758E+00 0.364E+01   -.257E-01 0.218E-01 -.121E-01
   0.536E+01 0.147E+02 -.590E+03   -.618E+01 -.165E+02 0.593E+03   0.835E+00 0.168E+01 -.311E+01   -.147E-01 0.343E-01 0.454E-01
   0.174E+02 0.179E+02 0.610E+03   -.179E+02 -.186E+02 -.613E+03   0.490E+00 0.660E+00 0.365E+01   0.242E-01 0.134E-02 0.566E-02
   0.750E+01 0.128E+02 -.621E+03   -.818E+01 -.140E+02 0.624E+03   0.683E+00 0.113E+01 -.348E+01   -.251E-02 0.238E-01 -.104E-01
   0.114E+02 0.204E+02 0.586E+03   -.120E+02 -.213E+02 -.589E+03   0.590E+00 0.102E+01 0.323E+01   0.313E-02 -.222E-01 -.415E-01
   0.979E+01 0.116E+02 -.589E+03   -.109E+02 -.132E+02 0.592E+03   0.103E+01 0.159E+01 -.311E+01   0.474E-01 -.612E-02 0.273E-01
 -----------------------------------------------------------------------------------------------
   -.436E+00 -.763E+00 -.113E+00   0.249E-13 0.320E-13 -.341E-12   0.421E+00 0.734E+00 0.106E+00   0.154E-01 0.308E-01 0.107E-01
 
 
 POSITION                                       TOTAL-FORCE (eV/Angst)
 -----------------------------------------------------------------------------------
      5.67807      3.46796     -0.05537        -0.000460     -0.002603     -0.034640
      0.16345      6.65288     -0.05476        -0.000588      0.001805     -0.033050
     -2.88953      4.56513      0.04990        -0.004630     -0.008927      0.033476
     -5.47437      3.15960     -0.00612        -0.011352     -0.001811      0.002333
      5.50058      6.44348     -0.00608         0.022652     -0.019939      0.003710
      0.03103      0.06659     -0.00997        -0.010780      0.022582      0.001930
      2.58911      1.33373      0.07100         0.001188     -0.001353      0.015582
     -0.13909      2.91051      0.07055        -0.001820      0.004383      0.015497
      2.94383      5.09827     -0.06204         0.001653      0.000742     -0.010758
     -0.94967      1.56618     28.35106         0.010474      0.021495      0.002497
      0.89125      1.54480      1.74228        -0.001150      0.003441      0.015370
     -3.66168      3.22697     28.37474         0.007151      0.008950      0.027454
     -1.87537      3.21301      1.65501        -0.003147     -0.022839      0.023913
     -6.45835      4.74497     28.35476         0.007519      0.015833      0.014383
     -4.56813      4.76726      1.65475        -0.018148     -0.016454      0.024094
      1.85540      3.21326     28.66994        -0.001152     -0.003127      0.009233
      3.70820      3.20876      1.30920         0.011777      0.006902     -0.007728
     -0.91979      4.80723     28.71800        -0.010542     -0.004234      0.009121
      0.92499      4.81642      1.30874         0.001478      0.014227     -0.009338
     -3.66575      6.39256     28.71888        -0.000024     -0.011900      0.011630
     -1.82379      6.41261      1.25795         0.002453      0.004429     -0.014836
      4.65925      4.82030     28.33284         0.003155      0.006112     -0.023733
      6.45311      4.80487      1.57697        -0.003039     -0.022398     -0.001296
      1.84519      6.44582     28.33333         0.007669      0.005493     -0.021716
      3.72455      6.45089      1.66583        -0.004499     -0.012445     -0.009744
     -0.91061      7.99540     28.40484         0.010472      0.022076     -0.030897
      0.93464      7.99344      1.57379        -0.016310     -0.010439     -0.012484
 -----------------------------------------------------------------------------------
    total drift:                                0.000345      0.002167      0.004135


--------------------------------------------------------------------------------------------------------



  FREE ENERGIE OF THE ION-ELECTRON SYSTEM (eV)
  ---------------------------------------------------
  free  energy   TOTEN  =      -192.33644544 eV

  energy  without entropy=     -192.20245656  energy(sigma->0) =     -192.26945100
 
 d Force = 0.3606596E-03[ 0.345E-03, 0.376E-03]  d Energy = 0.2016460E-03 0.159E-03
 d Force =-0.1017543E+00[-0.101E+00,-0.102E+00]  d Ewald  = 0.5477454E+00-0.649E+00


--------------------------------------------------------------------------------------------------------


    POTLOK:  cpu time    0.0476: real time    0.0477


--------------------------------------------------------------------------------------------------------


 Quasi-Newton relaxation of ions (Broydens 2nd method)
  g(Force)  = 0.760E-03   g(Stress)= 0.164E-04

 retain information from N=  2 steps
 eigenvalues of (default step * inverse Hessian matrix)
  average eigenvalue of G=   0.4051
 eigenvalue spectrum of G is  0.4945  0.3156


--------------------------------------------------------------------------------------------------------


  
 reached required accuracy - stopping structural energy minimisation
     LOOP+:  cpu time  187.0683: real time  187.5318
    4ORBIT:  cpu time    0.0000: real time    0.0000

 total amount of memory used by VASP on root node   650782. kBytes
========================================================================

   base      :      30000. kBytes
   nonl-proj :     559647. kBytes
   fftplans  :       2414. kBytes
   grid      :      12150. kBytes
   one-center:        419. kBytes
   wavefun   :      46152. kBytes
 
  
  
 General timing and accounting informations for this job:
 ========================================================
  
                  Total CPU time used (sec):     8863.036
                            User time (sec):     8793.253
                          System time (sec):       69.783
                         Elapsed time (sec):     8886.878
  
                   Maximum memory used (kb):      753908.
                   Average memory used (kb):           0.
  
                          Minor page faults:      1261784
                          Major page faults:            5
                 Voluntary context switches:         5283
