unknown system                          
           1
     8.860177    5.109088    0.000000
    -8.857637    5.104719    0.000000
     0.000000    0.000000   30.000000
   V    Mo   W    S 
   3   3   3  18
Direct configuration=     1
   0.00000000  0.66666669  0.00000000
   0.00000000  0.00000000  0.00000000
   0.33333334  0.00000000  0.00000000
   0.33333334  0.33333334  0.00000000
   0.66666669  0.66666669  0.00000000
   0.66666669  0.00000000  0.00000000
   1.00000000  0.33333334  0.00000000
   0.33333334  0.66666669  0.00000000
   0.66666669  0.33333334  0.00000000
   0.11068511  0.22244981  0.95539999
   0.22244981  0.11068511  0.04460000
   0.11068511  0.55578315  0.95539999
   0.22244981  0.44401845  0.04460000
   0.11068511  0.88911647  0.95539999
   0.22244981  0.77735180  0.04460000
   0.44401845  0.22244981  0.95539999
   0.55578315  0.11068511  0.04460000
   0.44401845  0.55578315  0.95539999
   0.55578315  0.44401845  0.04460000
   0.44401845  0.88911647  0.95539999
   0.55578315  0.77735180  0.04460000
   0.77735180  0.22244981  0.95539999
   0.88911647  0.11068511  0.04460000
   0.77735180  0.55578315  0.95539999
   0.88911647  0.44401845  0.04460000
   0.77735180  0.88911647  0.95539999
   0.88911647  0.77735180  0.04460000
unknown system                          
           1
     8.670641    5.002003    0.000000
    -8.668211    4.997823    0.000000
     0.000000    0.000000   30.000000
   V    Mo   W    S 
   3   3   3  18
Direct configuration=     2
  -0.00077422  0.66755461 -0.00001597
  -0.00061983 -0.00046052  0.00000042
   0.33354994  0.00083340  0.00002482
   0.33447119  0.33436849 -0.00006027
   0.66556078  0.66693566 -0.00016595
   0.66672271 -0.00150514  0.00009348
   1.00014265  0.33166325  0.00015026
   0.33614390  0.66702371 -0.00015551
   0.66492869  0.33328855  0.00017546
   0.10846070  0.21813922  0.95192216
   0.22015255  0.10657518  0.04682940
   0.10911091  0.55752748  0.95205528
   0.22146297  0.44471334  0.04921953
   0.11083796  0.88890040  0.95414931
   0.22031766  0.77945700  0.04689399
   0.44302424  0.21813020  0.95190703
   0.55159397  0.10987086  0.04805789
   0.44383628  0.55593055  0.95062009
   0.55603404  0.44382701  0.04923215
   0.44133571  0.89013020  0.95202744
   0.55456823  0.77742016  0.04930152
   0.77814911  0.22294615  0.95083305
   0.89165587  0.10966453  0.04805621
   0.78165766  0.55678698  0.95195634
   0.89047544  0.44789633  0.04808455
   0.78212698  0.89089428  0.95194554
   0.89328835  0.77970258  0.04686167
unknown system                          
           1
     8.486273    4.899702    0.000000
    -8.484746    4.897083    0.000000
     0.000000    0.000000   30.000000
   V    Mo   W    S 
   3   3   3  18
Direct configuration=     3
  -0.00105241  0.66763035 -0.00000726
  -0.00088055 -0.00048036  0.00000698
   0.33374711  0.00114441  0.00008163
   0.33513726  0.33527216 -0.00003073
   0.66454548  0.66670461 -0.00018838
   0.66675331 -0.00194911  0.00005657
   1.00004683  0.33113835  0.00011110
   0.33726167  0.66694147 -0.00018543
   0.66448477  0.33329566  0.00019613
   0.10828383  0.21814867  0.95194503
   0.22008053  0.10647588  0.04674342
   0.10922734  0.55743770  0.95219178
   0.22134768  0.44483871  0.04921797
   0.11084524  0.88890090  0.95422740
   0.22042079  0.77937425  0.04673772
   0.44316480  0.21813566  0.95188012
   0.55160740  0.11003799  0.04804553
   0.44372117  0.55608628  0.95044766
   0.55619107  0.44372542  0.04930538
   0.44115916  0.88990913  0.95204204
   0.55435296  0.77730349  0.04942696
   0.77825698  0.22320191  0.95092374
   0.89182477  0.10983223  0.04811788
   0.78162360  0.55663239  0.95198377
   0.89040155  0.44771274  0.04800693
   0.78228549  0.89096858  0.95190360
   0.89337661  0.77979499  0.04681237
unknown system                          
           1
     8.287826    4.786449    0.000000
    -8.281156    4.774921    0.000000
     0.000000    0.000000   30.000000
   V    Mo   W    S 
   3   3   3  18
Direct configuration=     4
  -0.00233296  0.66717697  0.00004128
  -0.00214685 -0.00009228  0.00004626
   0.33505590  0.00256328  0.00028688
   0.33811660  0.33957249  0.00007676
   0.65965093  0.66520165 -0.00019561
   0.66695343 -0.00344233 -0.00008503
   0.99944037  0.32928673 -0.00008755
   0.34156680  0.66609843 -0.00019760
   0.66314904  0.33335022  0.00016891
   0.10787048  0.21696957  0.95057621
   0.21944740  0.10549522  0.04769799
   0.10909405  0.55791603  0.95128533
   0.22135213  0.44509297  0.05082399
   0.11093346  0.88899609  0.95328669
   0.22017053  0.77971472  0.04744150
   0.44243395  0.21702082  0.95031192
   0.55055129  0.10940138  0.04945662
   0.44376266  0.55619152  0.94804880
   0.55643994  0.44395979  0.05122770
   0.44050239  0.89028546  0.95063062
   0.55441086  0.77728018  0.05154821
   0.77816648  0.22341606  0.94968405
   0.89236150  0.10909046  0.04986253
   0.78251204  0.55722449  0.95064722
   0.89084865  0.44847374  0.04920213
   0.78369811  0.89152182  0.95030042
   0.89420529  0.78044896  0.04791366
unknown system                          
           1
     8.286415    4.790327    0.000000
    -8.274703    4.770058    0.000000
     0.000000    0.000000   30.000000
   V    Mo   W    S 
   3   3   3  18
Direct configuration=     5
  -0.00485815  0.66612005  0.00016353
  -0.00470830  0.00072379  0.00013685
   0.33735073  0.00504668  0.00055822
   0.34444004  0.34841614  0.00015333
   0.65004683  0.66168664 -0.00009790
   0.66770349 -0.00582060 -0.00027036
   0.99757732  0.32561631 -0.00038076
   0.34941412  0.66432216 -0.00007947
   0.66098564  0.33379156 -0.00001560
   0.10844760  0.21573435  0.94892296
   0.21925212  0.10573912  0.04888277
   0.10983243  0.55862045  0.95037420
   0.22169800  0.44557457  0.05279173
   0.11104642  0.88931027  0.95185329
   0.22058972  0.77973454  0.04819312
   0.44131582  0.21622484  0.94835487
   0.54981292  0.10866407  0.05129057
   0.44417688  0.55604332  0.94429261
   0.55676405  0.44486691  0.05388752
   0.44004809  0.89031055  0.94887878
   0.55501912  0.77759085  0.05447809
   0.77742146  0.22297856  0.94818881
   0.89260451  0.10782540  0.05222245
   0.78266280  0.55810641  0.94897002
   0.89103745  0.44899721  0.05075327
   0.78473316  0.89120493  0.94815963
   0.89380018  0.78078538  0.04933738
unknown system                          
           1
     8.280797    4.787717    0.000000
    -8.269674    4.768465    0.000000
     0.000000    0.000000   30.000000
   V    Mo   W    S 
   3   3   3  18
Direct configuration=     6
  -0.00573749  0.66615473  0.00017883
  -0.00576867  0.00061051  0.00009899
   0.33768713  0.00556696  0.00059223
   0.34592705  0.34990823  0.00003749
   0.64924031  0.66103986 -0.00006948
   0.66852792 -0.00584038 -0.00025173
   0.99614472  0.32405488 -0.00041988
   0.35063663  0.66419240 -0.00015124
   0.66061377  0.33432848  0.00002040
   0.10933460  0.21607296  0.94898578
   0.21988868  0.10730644  0.04877790
   0.11082005  0.55868033  0.95066761
   0.22195318  0.44577623  0.05284608
   0.11100831  0.88947927  0.95181227
   0.22144115  0.77911180  0.04797348
   0.44116370  0.21673167  0.94823138
   0.55037746  0.10889866  0.05133102
   0.44425861  0.55596739  0.94365026
   0.55698635  0.44539591  0.05420545
   0.44021544  0.88970270  0.94887349
   0.55546322  0.77790108  0.05491216
   0.77677277  0.22244252  0.94810993
   0.89236598  0.10763296  0.05249752
   0.78177006  0.55826800  0.94890995
   0.89065951  0.44840125  0.05077880
   0.78404172  0.89012783  0.94803119
   0.89242231  0.78030180  0.04937002
unknown system                          
           1
     8.285473    4.791663    0.000000
    -8.273258    4.770517    0.000000
     0.000000    0.000000   30.000000
   V    Mo   W    S 
   3   3   3  18
Direct configuration=     7
  -0.00686676  0.66653469  0.00018858
  -0.00728653  0.00027302  0.00004449
   0.33801388  0.00623099  0.00068702
   0.34814165  0.35181808 -0.00000500
   0.64785483  0.66016225 -0.00004798
   0.66973341 -0.00593024 -0.00017692
   0.99397090  0.32169980 -0.00046585
   0.35295437  0.66434370 -0.00013675
   0.65994370  0.33510181  0.00008849
   0.11004018  0.21629922  0.94911794
   0.22039491  0.10869444  0.04855173
   0.11153735  0.55855726  0.95107981
   0.22205875  0.44581676  0.05271131
   0.11094399  0.88961074  0.95185390
   0.22210020  0.77856067  0.04765360
   0.44118200  0.21717538  0.94809974
   0.55090442  0.10915716  0.05128905
   0.44453686  0.55606662  0.94312178
   0.55714957  0.44576174  0.05449865
   0.44056905  0.88939036  0.94888667
   0.55578841  0.77812322  0.05517825
   0.77608808  0.22199442  0.94804129
   0.89216140  0.10737015  0.05282203
   0.78109571  0.55833578  0.94881360
   0.89028592  0.44783139  0.05076750
   0.78356057  0.88927274  0.94789699
   0.89135764  0.77996229  0.04943997
unknown system                          
           1
     8.290448    4.796202    0.000000
    -8.276494    4.772040    0.000000
     0.000000    0.000000   30.000000
   V    Mo   W    S 
   3   3   3  18
Direct configuration=     8
  -0.00723834  0.66680318  0.00018832
  -0.00781899  0.00007785  0.00002627
   0.33804277  0.00641170  0.00072071
   0.34882317  0.35216172 -0.00003658
   0.64775611  0.65997830 -0.00004394
   0.67022205 -0.00586984 -0.00017604
   0.99305064  0.32080207 -0.00049350
   0.35358798  0.66458083 -0.00017116
   0.65976345  0.33541473  0.00010805
   0.11018705  0.21634656  0.94920712
   0.22049011  0.10902694  0.04844763
   0.11166699  0.55845533  0.95126854
   0.22204657  0.44579762  0.05260314
   0.11090660  0.88963358  0.95189821
   0.22223961  0.77841158  0.04752687
   0.44121523  0.21728172  0.94808563
   0.55106074  0.10925484  0.05123535
   0.44461544  0.55609981  0.94304027
   0.55723336  0.44586962  0.05456928
   0.44070144  0.88933888  0.94892934
   0.55593607  0.77820719  0.05523559
   0.77584246  0.22186356  0.94804878
   0.89213077  0.10728736  0.05291302
   0.78094360  0.55830870  0.94879664
   0.89020873  0.44769971  0.05073200
   0.78344304  0.88906321  0.94787958
   0.89115780  0.77990769  0.04946077
unknown system                          
           1
     8.292534    4.797970    0.000000
    -8.278229    4.773200    0.000000
     0.000000    0.000000   30.000000
   V    Mo   W    S 
   3   3   3  18
Direct configuration=     9
  -0.00759176  0.66704386  0.00018911
  -0.00832057 -0.00009475  0.00001203
   0.33809212  0.00659938  0.00075208
   0.34947685  0.35250500 -0.00007391
   0.64764525  0.65980471 -0.00004093
   0.67067154 -0.00582470 -0.00019136
   0.99218800  0.31995411 -0.00052942
   0.35418448  0.66480000 -0.00021881
   0.65958869  0.33569587  0.00011720
   0.11030329  0.21635655  0.94926124
   0.22055112  0.10928435  0.04837696
   0.11176530  0.55836915  0.95142176
   0.22203105  0.44578209  0.05254134
   0.11087527  0.88965553  0.95191534
   0.22235082  0.77829560  0.04743203
   0.44121976  0.21734199  0.94804357
   0.55117235  0.10932491  0.05121830
   0.44467796  0.55611955  0.94292311
   0.55732363  0.44598317  0.05467796
   0.44080433  0.88930331  0.94894347
   0.55609833  0.77829626  0.05534311
   0.77561241  0.22174377  0.94803443
   0.89212211  0.10719378  0.05303389
   0.78082990  0.55829192  0.94875356
   0.89016235  0.44761568  0.05072675
   0.78336699  0.88889205  0.94783173
   0.89101287  0.77988132  0.04950536
unknown system                          
           1
     8.290503    4.797553    0.000000
    -8.275755    4.772014    0.000000
     0.000000    0.000000   30.000000
   V    Mo   W    S 
   3   3   3  18
Direct configuration=    10
  -0.00792891  0.66730804  0.00018872
  -0.00874853 -0.00028326 -0.00000168
   0.33807036  0.00671749  0.00078735
   0.35007138  0.35276247 -0.00008637
   0.64755999  0.65961844 -0.00003177
   0.67109614 -0.00574143 -0.00018086
   0.99132234  0.31916628 -0.00054196
   0.35474953  0.66505657 -0.00023262
   0.65948073  0.33600681  0.00014309
   0.11040634  0.21639832  0.94934640
   0.22061437  0.10952296  0.04828742
   0.11183598  0.55826696  0.95160072
   0.22201313  0.44576219  0.05241069
   0.11082681  0.88965043  0.95195375
   0.22241992  0.77816917  0.04731753
   0.44127300  0.21743176  0.94803365
   0.55130817  0.10940991  0.05115839
   0.44475752  0.55614871  0.94287638
   0.55739002  0.44605722  0.05472550
   0.44093077  0.88929117  0.94897636
   0.55620328  0.77835186  0.05536531
   0.77539662  0.22164042  0.94803403
   0.89208814  0.10712518  0.05310635
   0.78075820  0.55826123  0.94873707
   0.89011346  0.44753140  0.05068407
   0.78328655  0.88874512  0.94780904
   0.89091915  0.77983903  0.04953332
unknown system                          
           1
     8.290267    4.797780    0.000000
    -8.274967    4.771282    0.000000
     0.000000    0.000000   30.000000
   V    Mo   W    S 
   3   3   3  18
Direct configuration=    11
  -0.00819344  0.66754657  0.00018305
  -0.00900397 -0.00046972 -0.00001631
   0.33816570  0.00687999  0.00081223
   0.35071406  0.35292479 -0.00011263
   0.64750372  0.65943135 -0.00002780
   0.67129949 -0.00566064 -0.00019008
   0.99037072  0.31851291 -0.00055359
   0.35531945  0.66541911 -0.00026710
   0.65933072  0.33617958  0.00015317
   0.11050017  0.21649731  0.94942026
   0.22071019  0.10967821  0.04822798
   0.11187595  0.55815114  0.95176586
   0.22195169  0.44572572  0.05227541
   0.11084527  0.88964958  0.95196762
   0.22247137  0.77811457  0.04722216
   0.44131465  0.21745463  0.94803122
   0.55139547  0.10946644  0.05110081
   0.44482618  0.55617536  0.94285734
   0.55746188  0.44613319  0.05478873
   0.44102584  0.88932006  0.94900515
   0.55631423  0.77840512  0.05539028
   0.77517548  0.22153461  0.94801968
   0.89202293  0.10707570  0.05319576
   0.78072028  0.55822647  0.94870610
   0.89009600  0.44747748  0.05066428
   0.78315033  0.88860212  0.94777585
   0.89085009  0.77976282  0.04960448
unknown system                          
           1
     8.291909    4.800939    0.000000
    -8.275704    4.772870    0.000000
     0.000000    0.000000   30.000000
   V    Mo   W    S 
   3   3   3  18
Direct configuration=    12
  -0.00855864  0.66791494  0.00018835
  -0.00972074 -0.00063217 -0.00002459
   0.33802197  0.00700263  0.00086840
   0.35132717  0.35334532 -0.00010678
   0.64733247  0.65931321 -0.00001224
   0.67199031 -0.00578170 -0.00015387
   0.98976099  0.31755007 -0.00057368
   0.35598256  0.66557302 -0.00025608
   0.65911343  0.33662030  0.00020321
   0.11053386  0.21639419  0.94949483
   0.22063282  0.10986737  0.04812113
   0.11196117  0.55806156  0.95192996
   0.22199651  0.44574218  0.05217963
   0.11073208  0.88967824  0.95201760
   0.22254180  0.77794876  0.04711067
   0.44138135  0.21757421  0.94801010
   0.55152894  0.10956201  0.05103004
   0.44491995  0.55622468  0.94278782
   0.55751583  0.44621489  0.05481085
   0.44116785  0.88927652  0.94904085
   0.55638309  0.77842274  0.05539790
   0.77501019  0.22146748  0.94804591
   0.89206656  0.10696984  0.05324343
   0.78060122  0.55818787  0.94869667
   0.89002544  0.44736899  0.05059517
   0.78320271  0.88850946  0.94776422
   0.89076357  0.77983784  0.04959042
unknown system                          
           1
     8.302859    4.809781    0.000000
    -8.284179    4.777422    0.000000
     0.000000    0.000000   30.000000
   V    Mo   W    S 
   3   3   3  18
Direct configuration=    13
  -0.00891461  0.66826787  0.00018717
  -0.00994881 -0.00084339 -0.00003054
   0.33814309  0.00718038  0.00089282
   0.35216582  0.35337832 -0.00010105
   0.64744273  0.65914294  0.00001756
   0.67222924 -0.00564222 -0.00013028
   0.98826051  0.31666728 -0.00053092
   0.35666189  0.66615121 -0.00024851
   0.65913456  0.33679363  0.00023973
   0.11059689  0.21650208  0.94960684
   0.22072846  0.10997996  0.04807760
   0.11196907  0.55793929  0.95209249
   0.22192547  0.44568111  0.05196893
   0.11076022  0.88969462  0.95201216
   0.22256883  0.77793875  0.04703556
   0.44139822  0.21753244  0.94794732
   0.55157396  0.10960568  0.05101797
   0.44502083  0.55621280  0.94273795
   0.55762277  0.44625588  0.05488861
   0.44121600  0.88939388  0.94898750
   0.55653145  0.77848161  0.05542219
   0.77465283  0.22130857  0.94792110
   0.89194940  0.10685456  0.05330526
   0.78060623  0.55816115  0.94862734
   0.89000809  0.44738086  0.05062614
   0.78311132  0.88840715  0.94773920
   0.89080001  0.77978805  0.04968975
unknown system                          
           1
     8.302015    4.810364    0.000000
    -8.282568    4.776674    0.000000
     0.000000    0.000000   30.000000
   V    Mo   W    S 
   3   3   3  18
Direct configuration=    14
  -0.00972551  0.66924011  0.00015412
  -0.01114229 -0.00128219 -0.00007548
   0.33804089  0.00756621  0.00098366
   0.35374298  0.35370282 -0.00018639
   0.64759332  0.65892087  0.00000943
   0.67330985 -0.00571844 -0.00016845
   0.98598280  0.31462014 -0.00060586
   0.35808289  0.66705717 -0.00038111
   0.65878832  0.33756796  0.00028301
   0.11073175  0.21648228  0.94980998
   0.22067247  0.11029965  0.04792315
   0.11206424  0.55764711  0.95253331
   0.22183105  0.44559267  0.05166571
   0.11062889  0.88976785  0.95204986
   0.22264108  0.77769394  0.04682686
   0.44152830  0.21765427  0.94788340
   0.55179462  0.10973656  0.05089255
   0.44521497  0.55626624  0.94265153
   0.55786131  0.44649597  0.05509517
   0.44149955  0.88943547  0.94903193
   0.55687403  0.77862001  0.05557321
   0.77405890  0.22098589  0.94789250
   0.89189850  0.10653422  0.05356232
   0.78047627  0.55805705  0.94852920
   0.88997706  0.44728521  0.05057326
   0.78304797  0.88812594  0.94764414
   0.89074025  0.77985947  0.04984888
unknown system                          
           1
     8.299193    4.809916    0.000000
    -8.278698    4.774408    0.000000
     0.000000    0.000000   30.000000
   V    Mo   W    S 
   3   3   3  18
Direct configuration=    15
  -0.01003849  0.66960996  0.00014479
  -0.01149989 -0.00145239 -0.00008449
   0.33803331  0.00772032  0.00101986
   0.35442904  0.35378447 -0.00019820
   0.64764831  0.65881881  0.00002537
   0.67361724 -0.00576147 -0.00016670
   0.98496744  0.31389216 -0.00060450
   0.35866966  0.66746945 -0.00040621
   0.65870812  0.33783564  0.00031239
   0.11077230  0.21653321  0.94990716
   0.22067866  0.11039655  0.04787107
   0.11207774  0.55752226  0.95270481
   0.22179229  0.44555191  0.05149918
   0.11059471  0.88978589  0.95206049
   0.22264787  0.77763056  0.04674602
   0.44159291  0.21768182  0.94785757
   0.55186678  0.10978149  0.05083788
   0.44529422  0.55627262  0.94264211
   0.55795581  0.44656858  0.05514493
   0.44158711  0.88947642  0.94903470
   0.55698052  0.77864848  0.05558973
   0.77380815  0.22084795  0.94785903
   0.89183983  0.10642546  0.05362661
   0.78045413  0.55800549  0.94849443
   0.88997048  0.44726558  0.05055345
   0.78300446  0.88803173  0.94761773
   0.89076176  0.77987151  0.04991068
unknown system                          
           1
     8.304045    4.814576    0.000000
    -8.282258    4.776825    0.000000
     0.000000    0.000000   30.000000
   V    Mo   W    S 
   3   3   3  18
Direct configuration=    16
  -0.01050496  0.67030753  0.00014221
  -0.01225012 -0.00170345 -0.00008805
   0.33793893  0.00800161  0.00110116
   0.35546697  0.35397734 -0.00019561
   0.64768227  0.65865597  0.00006514
   0.67428360 -0.00593790 -0.00013966
   0.98366778  0.31262438 -0.00059438
   0.35961162  0.66803879 -0.00041871
   0.65835673  0.33834599  0.00038330
   0.11084327  0.21653884  0.95003698
   0.22063145  0.11055574  0.04775578
   0.11212536  0.55730704  0.95298428
   0.22177408  0.44551835  0.05125081
   0.11053004  0.88985042  0.95208829
   0.22269384  0.77750750  0.04659562
   0.44170127  0.21774522  0.94782803
   0.55201497  0.10987085  0.05070558
   0.44541567  0.55629598  0.94260807
   0.55807540  0.44670133  0.05519993
   0.44176382  0.88952539  0.94907262
   0.55711570  0.77867384  0.05559075
   0.77343975  0.22066184  0.94785525
   0.89180665  0.10627352  0.05371785
   0.78036672  0.55790055  0.94844177
   0.88994505  0.44716775  0.05046652
   0.78296992  0.88787238  0.94756141
   0.89074866  0.77993765  0.04998498
unknown system                          
           1
     8.313852    4.824513    0.000000
    -8.288264    4.780175    0.000000
     0.000000    0.000000   30.000000
   V    Mo   W    S 
   3   3   3  18
Direct configuration=    17
  -0.01099335  0.67074513  0.00012514
  -0.01260710 -0.00199239 -0.00009933
   0.33790065  0.00814713  0.00114592
   0.35627236  0.35394321 -0.00022069
   0.64792993  0.65859379  0.00008282
   0.67453402 -0.00601686 -0.00014315
   0.98234114  0.31187486 -0.00058254
   0.36026957  0.66860569 -0.00045715
   0.65844570  0.33874243  0.00041187
   0.11090838  0.21664308  0.95016313
   0.22065394  0.11067485  0.04771663
   0.11210744  0.55718906  0.95320313
   0.22169279  0.44543697  0.05104227
   0.11044127  0.88981175  0.95209749
   0.22262240  0.77740670  0.04649601
   0.44179279  0.21777535  0.94778405
   0.55209213  0.10990590  0.05065238
   0.44553532  0.55628756  0.94258272
   0.55823295  0.44680159  0.05528223
   0.44186600  0.88960233  0.94904792
   0.55727986  0.77872522  0.05563613
   0.77306291  0.22043467  0.94778164
   0.89169627  0.10610961  0.05380500
   0.78041200  0.55787856  0.94839360
   0.88997881  0.44722592  0.05046646
   0.78290358  0.88774546  0.94751581
   0.89084270  0.77991688  0.05007041
unknown system                          
           1
     8.320053    4.830281    0.000000
    -8.291552    4.780903    0.000000
     0.000000    0.000000   30.000000
   V    Mo   W    S 
   3   3   3  18
Direct configuration=    18
  -0.01210621  0.67243295  0.00005130
  -0.01413043 -0.00252540 -0.00014976
   0.33776276  0.00893627  0.00129387
   0.35884118  0.35388666 -0.00034724
   0.64848520  0.65850095  0.00009886
   0.67572628 -0.00666008 -0.00018654
   0.97865300  0.30921708 -0.00056512
   0.36234680  0.67017945 -0.00063272
   0.65794168  0.33979454  0.00048867
   0.11109837  0.21684536  0.95058371
   0.22057385  0.11104287  0.04755126
   0.11215389  0.55668741  0.95391245
   0.22147134  0.44518026  0.05037012
   0.11026502  0.88997978  0.95210323
   0.22260036  0.77716051  0.04619434
   0.44209640  0.21786018  0.94766390
   0.55239470  0.11002882  0.05041500
   0.44588623  0.55624943  0.94257460
   0.55867512  0.44717558  0.05558284
   0.44220794  0.88979047  0.94905828
   0.55776981  0.77883879  0.05578695
   0.77193651  0.21973482  0.94766452
   0.89144519  0.10554079  0.05409453
   0.78030435  0.55765195  0.94820150
   0.89002523  0.44718550  0.05041937
   0.78280550  0.88735840  0.94737950
   0.89098440  0.78014113  0.05039247
unknown system                          
           1
     8.337035    4.842809    0.000000
    -8.303308    4.784401    0.000000
     0.000000    0.000000   30.000000
   V    Mo   W    S 
   3   3   3  18
Direct configuration=    19
  -0.01300471  0.67383497  0.00000195
  -0.01530221 -0.00308284 -0.00014802
   0.33755177  0.00965335  0.00144027
   0.36085645  0.35364880 -0.00039470
   0.64919874  0.65849183  0.00018267
   0.67648223 -0.00745949 -0.00018855
   0.97595924  0.30745743 -0.00048338
   0.36391378  0.67145442 -0.00072035
   0.65755761  0.34087581  0.00059177
   0.11131541  0.21713295  0.95092285
   0.22051694  0.11135287  0.04743680
   0.11211740  0.55628463  0.95449424
   0.22127875  0.44491495  0.04978049
   0.11011147  0.89011521  0.95210381
   0.22253759  0.77701028  0.04592326
   0.44237091  0.21783508  0.94751417
   0.55265460  0.11008960  0.05016566
   0.44618672  0.55617900  0.94253714
   0.55908419  0.44755396  0.05578750
   0.44247983  0.88997270  0.94906522
   0.55811755  0.77886585  0.05586229
   0.77092298  0.21908961  0.94757965
   0.89117571  0.10506261  0.05432006
   0.78026691  0.55745606  0.94807195
   0.89003220  0.44715938  0.05032627
   0.78268842  0.88694029  0.94721080
   0.89114396  0.78032514  0.05061608
unknown system                          
           1
     8.353415    4.850220    0.000000
    -8.315140    4.784007    0.000000
     0.000000    0.000000   30.000000
   V    Mo   W    S 
   3   3   3  18
Direct configuration=    20
  -0.01456574  0.67648196 -0.00015740
  -0.01762941 -0.00416985 -0.00019046
   0.33710388  0.01130479  0.00168219
   0.36457408  0.35302050 -0.00065293
   0.65077729  0.65874202  0.00021490
   0.67780477 -0.00946977 -0.00026845
   0.97084766  0.30431673 -0.00034294
   0.36681397  0.67373473 -0.00101589
   0.65679516  0.34296343  0.00067396
   0.11179493  0.21785413  0.95172388
   0.22039112  0.11204011  0.04729004
   0.11200622  0.55557416  0.95566019
   0.22077717  0.44421620  0.04858344
   0.10974950  0.89043434  0.95208041
   0.22235415  0.77678400  0.04539912
   0.44301290  0.21774964  0.94723823
   0.55320561  0.11014162  0.04963906
   0.44689513  0.55599026  0.94262322
   0.55996917  0.44838056  0.05632514
   0.44299049  0.89032433  0.94910057
   0.55884507  0.77886995  0.05607820
   0.76886469  0.21767684  0.94749268
   0.89054090  0.10401049  0.05475674
   0.78021614  0.55709854  0.94781536
   0.89002959  0.44723852  0.05021054
   0.78249857  0.88608188  0.94690782
   0.89155145  0.78082435  0.05113228
unknown system                          
           1
     8.368813    4.856619    0.000000
    -8.328878    4.787583    0.000000
     0.000000    0.000000   30.000000
   V    Mo   W    S 
   3   3   3  18
Direct configuration=    21
  -0.01587551  0.67925676 -0.00029927
  -0.02033953 -0.00558407 -0.00010600
   0.33633222  0.01342602  0.00202371
   0.36828033  0.35243954 -0.00069664
   0.65281964  0.65915193  0.00047592
   0.67895788 -0.01222671 -0.00021907
   0.96590824  0.30162780  0.00003650
   0.36951589  0.67579437 -0.00115051
   0.65601259  0.34537084  0.00088189
   0.11256891  0.21901371  0.95279505
   0.22033712  0.11304384  0.04714109
   0.11173250  0.55484562  0.95696873
   0.22017728  0.44319397  0.04704223
   0.10927217  0.89095797  0.95200344
   0.22217607  0.77678420  0.04473250
   0.44391530  0.21740567  0.94681193
   0.55388475  0.11011607  0.04884241
   0.44795756  0.55566861  0.94262920
   0.56093375  0.44935928  0.05670729
   0.44359749  0.89077793  0.94912719
   0.55958100  0.77862380  0.05614511
   0.76619369  0.21576205  0.94740834
   0.88964307  0.10272306  0.05511189
   0.78020083  0.55676229  0.94747453
   0.88981703  0.44736847  0.05004285
   0.78241629  0.88493427  0.94643049
   0.89219788  0.78161716  0.05163909
unknown system                          
           1
     8.373029    4.855316    0.000000
    -8.335178    4.789924    0.000000
     0.000000    0.000000   30.000000
   V    Mo   W    S 
   3   3   3  18
Direct configuration=    22
  -0.01641140  0.68061864 -0.00044319
  -0.02199527 -0.00648651 -0.00011187
   0.33576152  0.01479220  0.00211269
   0.36989507  0.35221111 -0.00092133
   0.65418170  0.65958189  0.00044305
   0.67958066 -0.01378929 -0.00032921
   0.96333414  0.30037326  0.00014926
   0.37075668  0.67654625 -0.00139995
   0.65582547  0.34657167  0.00080582
   0.11305327  0.21975884  0.95351891
   0.22022554  0.11371382  0.04715583
   0.11148563  0.55452150  0.95770226
   0.21968738  0.44247378  0.04621879
   0.10896662  0.89138976  0.95194174
   0.22211603  0.77689378  0.04437322
   0.44447670  0.21719988  0.94663790
   0.55435760  0.10999164  0.04835474
   0.44872819  0.55551320  0.94276193
   0.56155804  0.45000422  0.05709419
   0.44394449  0.89090695  0.94920200
   0.56003355  0.77841357  0.05630388
   0.76474423  0.21457841  0.94749270
   0.88905867  0.10186644  0.05539883
   0.78018802  0.55658634  0.94732716
   0.88961969  0.44760378  0.05003559
   0.78240068  0.88421065  0.94619320
   0.89264156  0.78216867  0.05198176
unknown system                          
           1
     8.380945    4.857562    0.000000
    -8.343690    4.793232    0.000000
     0.000000    0.000000   30.000000
   V    Mo   W    S 
   3   3   3  18
Direct configuration=    23
  -0.01610214  0.68064391 -0.00045239
  -0.02254659 -0.00694741 -0.00004746
   0.33521271  0.01531697  0.00209369
   0.36966949  0.35249271 -0.00087668
   0.65466236  0.65983318  0.00048127
   0.67960452 -0.01418445 -0.00030861
   0.96350975  0.30065476  0.00029430
   0.37055162  0.67601602 -0.00137827
   0.65608484  0.34665388  0.00078644
   0.11320968  0.22007459  0.95382057
   0.22020715  0.11405158  0.04722758
   0.11121480  0.55458977  0.95778674
   0.21951029  0.44220945  0.04605378
   0.10884590  0.89173136  0.95189289
   0.22224914  0.77720709  0.04424516
   0.44464810  0.21701913  0.94660205
   0.55450749  0.10977755  0.04806080
   0.44923167  0.55553305  0.94277278
   0.56168352  0.45009698  0.05704133
   0.44401333  0.89078822  0.94925897
   0.55997323  0.77809884  0.05623351
   0.76431791  0.21410873  0.94759285
   0.88879020  0.10164798  0.05539421
   0.78029638  0.55665270  0.94728887
   0.88938104  0.44778302  0.05006710
   0.78254523  0.88393912  0.94607782
   0.89294285  0.78242573  0.05199060
unknown system                          
           1
     8.386189    4.858334    0.000000
    -8.349286    4.794642    0.000000
     0.000000    0.000000   30.000000
   V    Mo   W    S 
   3   3   3  18
Direct configuration=    24
  -0.01603494  0.68108119 -0.00049820
  -0.02353052 -0.00784255  0.00001394
   0.33409035  0.01631119  0.00206697
   0.37043329  0.35259655 -0.00093166
   0.65556204  0.66022169  0.00048743
   0.68001602 -0.01502590 -0.00036894
   0.96237794  0.30032486  0.00046124
   0.37088251  0.67584997 -0.00146975
   0.65624261  0.34721836  0.00073905
   0.11341130  0.22057548  0.95431406
   0.22014525  0.11458080  0.04732641
   0.11088141  0.55456872  0.95803763
   0.21916785  0.44182525  0.04578102
   0.10861773  0.89225801  0.95183914
   0.22248213  0.77759000  0.04399420
   0.44485237  0.21694140  0.94657658
   0.55471450  0.10944583  0.04758279
   0.45001290  0.55558176  0.94279579
   0.56198517  0.45028272  0.05704195
   0.44406902  0.89048342  0.94939525