       N       E                     dE             d eps       ncg     rms          rms(c)
DAV:   1     0.112679363856E+04    0.11268E+04   -0.35973E+04  8160   0.577E+02
DAV:   2    -0.357901494659E+01   -0.11304E+04   -0.10912E+04 11280   0.173E+02
DAV:   3    -0.199905416229E+03   -0.19633E+03   -0.18851E+03 10920   0.819E+01
DAV:   4    -0.208998444745E+03   -0.90930E+01   -0.87991E+01 11960   0.259E+01
DAV:   5    -0.209348656103E+03   -0.35021E+00   -0.34924E+00 11640   0.376E+00    0.275E+01
DAV:   6    -0.236550619509E+03   -0.27202E+02   -0.10030E+02 12760   0.596E+01    0.595E+01
DAV:   7    -0.196086681645E+03    0.40464E+02   -0.16763E+02 12600   0.146E+02    0.198E+01
DAV:   8    -0.189219080614E+03    0.68676E+01   -0.16372E+01 12160   0.123E+01    0.118E+01
DAV:   9    -0.188013920340E+03    0.12052E+01   -0.29935E+00 13440   0.661E+00    0.824E+00
DAV:  10    -0.187021793564E+03    0.99213E+00   -0.14400E+00 13120   0.677E+00    0.201E+00
DAV:  11    -0.187219136761E+03   -0.19734E+00   -0.80607E-01 13200   0.455E+00    0.479E+00
DAV:  12    -0.187060086972E+03    0.15905E+00   -0.39298E-01 12200   0.412E+00    0.344E+00
DAV:  13    -0.186941143948E+03    0.11894E+00   -0.20813E-01 12520   0.289E+00    0.121E+00
DAV:  14    -0.186934535786E+03    0.66082E-02   -0.46296E-02 13040   0.116E+00    0.103E+00
DAV:  15    -0.186928144547E+03    0.63912E-02   -0.15027E-02 13560   0.624E-01    0.592E-01
DAV:  16    -0.186923913852E+03    0.42307E-02   -0.88607E-03 13160   0.402E-01    0.168E-01
DAV:  17    -0.186923670965E+03    0.24289E-03   -0.33998E-03 11960   0.164E-01    0.203E-01
DAV:  18    -0.186923142925E+03    0.52804E-03   -0.15692E-03 12400   0.174E-01    0.861E-02
DAV:  19    -0.186923544362E+03   -0.40144E-03   -0.74084E-04 10840   0.791E-02    0.940E-02
DAV:  20    -0.186924095342E+03   -0.55098E-03   -0.64240E-04  9640   0.843E-02    0.792E-02
DAV:  21    -0.186925246752E+03   -0.11514E-02   -0.35738E-04  9120   0.754E-02    0.242E-02
DAV:  22    -0.186926157581E+03   -0.91083E-03   -0.94654E-05  7240   0.266E-02    0.274E-02
DAV:  23    -0.186926848304E+03   -0.69072E-03   -0.57247E-05  7520   0.225E-02    0.143E-02
DAV:  24    -0.186927524702E+03   -0.67640E-03   -0.45634E-05  7200   0.197E-02    0.101E-02
DAV:  25    -0.186927890405E+03   -0.36570E-03   -0.10102E-05  6320   0.136E-02    0.522E-03
DAV:  26    -0.186928113769E+03   -0.22336E-03   -0.76423E-06  6800   0.807E-03    0.301E-03
DAV:  27    -0.186928195891E+03   -0.82122E-04   -0.29194E-06  7200   0.553E-03
   1 F= -.18692820E+03 E0= -.18675597E+03  d E =-.186928E+03
       N       E                     dE             d eps       ncg     rms          rms(c)
DAV:   1    -0.187487576593E+03   -0.55946E+00   -0.26699E+02  8160   0.346E+01    0.463E+00
DAV:   2    -0.189404055712E+03   -0.19165E+01   -0.20560E+01 12920   0.154E+01    0.883E+00
DAV:   3    -0.189395243669E+03    0.88120E-02   -0.40611E+00 12360   0.117E+01    0.701E+00
DAV:   4    -0.188763631970E+03    0.63161E+00   -0.60200E-01 12120   0.457E+00    0.173E+00
DAV:   5    -0.188773069019E+03   -0.94370E-02   -0.31805E-01 10160   0.155E+00    0.235E+00
DAV:   6    -0.188715881531E+03    0.57187E-01   -0.29894E-01 12160   0.217E+00    0.199E+00
DAV:   7    -0.188722113136E+03   -0.62316E-02   -0.17571E-01 12240   0.261E+00    0.236E+00
DAV:   8    -0.188677788062E+03    0.44325E-01   -0.82681E-02 12800   0.155E+00    0.379E-01
DAV:   9    -0.188675770119E+03    0.20179E-02   -0.68205E-03 10560   0.291E-01    0.210E-01
DAV:  10    -0.188677145867E+03   -0.13757E-02   -0.46505E-03 13520   0.403E-01    0.483E-01
DAV:  11    -0.188675314082E+03    0.18318E-02   -0.36920E-03 12640   0.352E-01    0.105E-01
DAV:  12    -0.188675433562E+03   -0.11948E-03   -0.67178E-04 11560   0.976E-02    0.792E-02
DAV:  13    -0.188675365874E+03    0.67688E-04   -0.19363E-04  7920   0.467E-02
   2 F= -.18867537E+03 E0= -.18853341E+03  d E =-.174717E+01
       N       E                     dE             d eps       ncg     rms          rms(c)
DAV:   1    -0.190573833953E+03   -0.18984E+01   -0.30373E+01  8880   0.141E+01    0.447E+00
DAV:   2    -0.190675173011E+03   -0.10134E+00   -0.29224E+00 11360   0.101E+01    0.807E+00
DAV:   3    -0.190029075348E+03    0.64610E+00   -0.13790E+00 12320   0.857E+00    0.392E+00
DAV:   4    -0.189846506934E+03    0.18257E+00   -0.66528E-01 12280   0.364E+00    0.250E+00
DAV:   5    -0.189767708745E+03    0.78798E-01   -0.28863E-01 12040   0.195E+00    0.119E+00
DAV:   6    -0.189749471926E+03    0.18237E-01   -0.59833E-02 11840   0.135E+00    0.850E-01
DAV:   7    -0.189743940128E+03    0.55318E-02   -0.14442E-02 11440   0.709E-01    0.203E-01
DAV:   8    -0.189743967163E+03   -0.27035E-04   -0.20797E-03 12400   0.165E-01    0.147E-01
DAV:   9    -0.189744112284E+03   -0.14512E-03   -0.10807E-03 10600   0.146E-01    0.154E-01
DAV:  10    -0.189744605328E+03   -0.49304E-03   -0.14596E-03 10480   0.266E-01    0.260E-01
DAV:  11    -0.189743969558E+03    0.63577E-03   -0.85401E-04  9160   0.194E-01    0.218E-02
DAV:  12    -0.189743993370E+03   -0.23813E-04   -0.66809E-05  5760   0.279E-02
   3 F= -.18974399E+03 E0= -.18962431E+03  d E =-.106863E+01
       N       E                     dE             d eps       ncg     rms          rms(c)
DAV:   1    -0.191236478540E+03   -0.14925E+01   -0.63111E+01  8160   0.182E+01    0.464E+00
DAV:   2    -0.191351140777E+03   -0.11466E+00   -0.55892E+00 13560   0.100E+01    0.683E+00
DAV:   3    -0.191001248643E+03    0.34989E+00   -0.16824E+00 12040   0.922E+00    0.493E+00
DAV:   4    -0.190759394907E+03    0.24185E+00   -0.86782E-01 12280   0.506E+00    0.256E+00
DAV:   5    -0.190666712475E+03    0.92682E-01   -0.27696E-01 12160   0.209E+00    0.122E+00
DAV:   6    -0.190657000257E+03    0.97122E-02   -0.10562E-01 11720   0.197E+00    0.142E+00
DAV:   7    -0.190643673087E+03    0.13327E-01   -0.52036E-02 11400   0.159E+00    0.605E-01
DAV:   8    -0.190638768232E+03    0.49049E-02   -0.68124E-03 12200   0.476E-01    0.118E-01
DAV:   9    -0.190639327835E+03   -0.55960E-03   -0.19623E-03 10840   0.153E-01    0.152E-01
DAV:  10    -0.190639159267E+03    0.16857E-03   -0.89971E-04 10680   0.191E-01    0.116E-01
DAV:  11    -0.190639080678E+03    0.78589E-04   -0.31747E-04  7880   0.123E-01
   4 F= -.19063908E+03 E0= -.19053887E+03  d E =-.895087E+00
       N       E                     dE             d eps       ncg     rms          rms(c)
DAV:   1    -0.191939146386E+03   -0.13000E+01   -0.11427E+02  8160   0.242E+01    0.569E+00
DAV:   2    -0.192054110997E+03   -0.11496E+00   -0.93575E+00 13560   0.118E+01    0.707E+00
DAV:   3    -0.191732798846E+03    0.32131E+00   -0.23312E+00 11760   0.113E+01    0.628E+00
DAV:   4    -0.191363048443E+03    0.36975E+00   -0.13653E+00 12240   0.751E+00    0.316E+00
DAV:   5    -0.191205437062E+03    0.15761E+00   -0.42937E-01 12600   0.312E+00    0.159E+00
DAV:   6    -0.191202713030E+03    0.27240E-02   -0.18727E-01 12560   0.303E+00    0.196E+00
DAV:   7    -0.191169484889E+03    0.33228E-01   -0.88343E-02 12400   0.214E+00    0.550E-01
DAV:   8    -0.191164246584E+03    0.52383E-02   -0.90695E-03 11160   0.467E-01    0.148E-01
DAV:   9    -0.191165011983E+03   -0.76540E-03   -0.33130E-03 11360   0.237E-01    0.202E-01
DAV:  10    -0.191164739350E+03    0.27263E-03   -0.12605E-03 10440   0.262E-01    0.108E-01
DAV:  11    -0.191164655874E+03    0.83476E-04   -0.27148E-04  7480   0.106E-01
   5 F= -.19116466E+03 E0= -.19107378E+03  d E =-.525575E+00
       N       E                     dE             d eps       ncg     rms          rms(c)
DAV:   1    -0.191204878319E+03   -0.40139E-01   -0.36029E+00  8160   0.406E+00    0.522E-01
DAV:   2    -0.191216928683E+03   -0.12050E-01   -0.14438E-01 13200   0.127E+00    0.727E-01
DAV:   3    -0.191213455481E+03    0.34732E-02   -0.30760E-02 12440   0.122E+00    0.688E-01
DAV:   4    -0.191209452091E+03    0.40034E-02   -0.12071E-02 11280   0.806E-01    0.310E-01
DAV:   5    -0.191208025094E+03    0.14270E-02   -0.37719E-03 10120   0.380E-01    0.201E-01
DAV:   6    -0.191208260117E+03   -0.23502E-03   -0.25132E-03 12120   0.379E-01    0.233E-01
DAV:   7    -0.191207632143E+03    0.62797E-03   -0.94838E-04 10360   0.221E-01    0.345E-02
DAV:   8    -0.191207667075E+03   -0.34932E-04   -0.10943E-04  6080   0.665E-02
   6 F= -.19120767E+03 E0= -.19111417E+03  d E =-.430112E-01
       N       E                     dE             d eps       ncg     rms          rms(c)
DAV:   1    -0.191219928010E+03   -0.12296E-01   -0.32703E-01  8160   0.123E+00    0.174E-01
DAV:   2    -0.191220728735E+03   -0.80072E-03   -0.12530E-02 11640   0.367E-01    0.223E-01
DAV:   3    -0.191220675362E+03    0.53373E-04   -0.31126E-03 12440   0.411E-01    0.246E-01
DAV:   4    -0.191220097335E+03    0.57803E-03   -0.13782E-03  9720   0.275E-01    0.994E-02
DAV:   5    -0.191220022831E+03    0.74504E-04   -0.48925E-04  8880   0.139E-01
   7 F= -.19122002E+03 E0= -.19112545E+03  d E =-.123558E-01
       N       E                     dE             d eps       ncg     rms          rms(c)
DAV:   1    -0.191218699214E+03    0.13981E-02   -0.99107E-01  8160   0.237E+00    0.580E-01
DAV:   2    -0.191216363115E+03    0.23361E-02   -0.71148E-02 12480   0.101E+00    0.714E-01
DAV:   3    -0.191216759450E+03   -0.39633E-03   -0.30803E-02 11720   0.135E+00    0.798E-01
DAV:   4    -0.191210119761E+03    0.66397E-02   -0.15513E-02 11480   0.906E-01    0.341E-01
DAV:   5    -0.191210303499E+03   -0.18374E-03   -0.73839E-03 10400   0.619E-01    0.406E-01
DAV:   6    -0.191208280953E+03    0.20225E-02   -0.33004E-03 11960   0.408E-01    0.673E-02
DAV:   7    -0.191208345820E+03   -0.64867E-04   -0.42503E-04  9600   0.101E-01
   8 F= -.19120835E+03 E0= -.19111542E+03  d E =0.116770E-01
       N       E                     dE             d eps       ncg     rms          rms(c)
DAV:   1    -0.191288710662E+03   -0.80430E-01   -0.65931E+00  8160   0.567E+00    0.949E-01
DAV:   2    -0.191297825022E+03   -0.91144E-02   -0.25666E-01 12920   0.197E+00    0.135E+00
DAV:   3    -0.191289524538E+03    0.83005E-02   -0.88220E-02 12200   0.225E+00    0.113E+00
DAV:   4    -0.191276174846E+03    0.13350E-01   -0.36461E-02 12360   0.135E+00    0.602E-01
DAV:   5    -0.191275914847E+03    0.26000E-03   -0.21706E-02 10760   0.103E+00    0.728E-01
DAV:   6    -0.191270538782E+03    0.53761E-02   -0.12805E-02 11840   0.792E-01    0.211E-01
DAV:   7    -0.191269976908E+03    0.56187E-03   -0.21382E-03 10760   0.233E-01    0.810E-02
DAV:   8    -0.191270029032E+03   -0.52124E-04   -0.64353E-04 11160   0.169E-01
   9 F= -.19127003E+03 E0= -.19117270E+03  d E =-.616832E-01
       N       E                     dE             d eps       ncg     rms          rms(c)
DAV:   1    -0.191291265430E+03   -0.21289E-01   -0.71092E-01  8160   0.183E+00    0.280E-01
DAV:   2    -0.191293096054E+03   -0.18306E-02   -0.30822E-02 12720   0.644E-01    0.409E-01
DAV:   3    -0.191292019883E+03    0.10762E-02   -0.78032E-03 11800   0.637E-01    0.320E-01
DAV:   4    -0.191291209496E+03    0.81039E-03   -0.33732E-03 10760   0.393E-01    0.195E-01
DAV:   5    -0.191290943750E+03    0.26575E-03   -0.17804E-03  9680   0.303E-01    0.182E-01
DAV:   6    -0.191290638679E+03    0.30507E-03   -0.91451E-04  9760   0.222E-01    0.718E-02
DAV:   7    -0.191290580777E+03    0.57902E-04   -0.13803E-04  6040   0.742E-02
  10 F= -.19129058E+03 E0= -.19119289E+03  d E =-.205517E-01
       N       E                     dE             d eps       ncg     rms          rms(c)
DAV:   1    -0.191340499561E+03   -0.49861E-01   -0.30579E+00  8160   0.371E+00    0.389E-01
DAV:   2    -0.191349567845E+03   -0.90683E-02   -0.81862E-02 13560   0.105E+00    0.689E-01
DAV:   3    -0.191345920573E+03    0.36473E-02   -0.20013E-02 12120   0.103E+00    0.482E-01
DAV:   4    -0.191343754204E+03    0.21664E-02   -0.56689E-03 11440   0.515E-01    0.198E-01
DAV:   5    -0.191343352060E+03    0.40214E-03   -0.19626E-03 11720   0.289E-01    0.184E-01
DAV:   6    -0.191343282523E+03    0.69537E-04   -0.13707E-03 11240   0.285E-01    0.144E-01
DAV:   7    -0.191343031984E+03    0.25054E-03   -0.42211E-04  8360   0.139E-01    0.282E-02
DAV:   8    -0.191343033278E+03   -0.12937E-05   -0.67596E-05  6240   0.430E-02
  11 F= -.19134303E+03 E0= -.19124554E+03  d E =-.524525E-01
       N       E                     dE             d eps       ncg     rms          rms(c)
DAV:   1    -0.191293274271E+03    0.49758E-01   -0.27100E+00  8160   0.353E+00    0.440E-01
DAV:   2    -0.191299271336E+03   -0.59971E-02   -0.80166E-02 13320   0.102E+00    0.649E-01
DAV:   3    -0.191297386576E+03    0.18848E-02   -0.21162E-02 11840   0.109E+00    0.592E-01
DAV:   4    -0.191293853126E+03    0.35334E-02   -0.84825E-03 11480   0.640E-01    0.215E-01
DAV:   5    -0.191293401726E+03    0.45140E-03   -0.27930E-03 11320   0.310E-01    0.204E-01
DAV:   6    -0.191293221946E+03    0.17978E-03   -0.18553E-03 11760   0.319E-01    0.161E-01
DAV:   7    -0.191292927620E+03    0.29433E-03   -0.62503E-04  9760   0.168E-01    0.368E-02
DAV:   8    -0.191292912962E+03    0.14658E-04   -0.75669E-05  6400   0.380E-02
  12 F= -.19129291E+03 E0= -.19119537E+03  d E =0.501203E-01
       N       E                     dE             d eps       ncg     rms          rms(c)
DAV:   1    -0.191375566679E+03   -0.82639E-01   -0.65827E+00  8160   0.557E+00    0.729E-01
DAV:   2    -0.191388536988E+03   -0.12970E-01   -0.21119E-01 13560   0.164E+00    0.991E-01
DAV:   3    -0.191385693379E+03    0.28436E-02   -0.54949E-02 11360   0.175E+00    0.933E-01
DAV:   4    -0.191376057687E+03    0.96357E-02   -0.21149E-02 11880   0.105E+00    0.396E-01
DAV:   5    -0.191375731975E+03    0.32571E-03   -0.10337E-02 11280   0.689E-01    0.484E-01
DAV:   6    -0.191373645481E+03    0.20865E-02   -0.68201E-03 11480   0.598E-01    0.204E-01
DAV:   7    -0.191373078792E+03    0.56669E-03   -0.15105E-03 10880   0.213E-01    0.533E-02
DAV:   8    -0.191373017722E+03    0.61069E-04   -0.21945E-04  8600   0.566E-02
  13 F= -.19137302E+03 E0= -.19127588E+03  d E =-.801048E-01
       N       E                     dE             d eps       ncg     rms          rms(c)
DAV:   1    -0.191398712568E+03   -0.25634E-01   -0.58531E-01  8160   0.163E+00    0.193E-01
DAV:   2    -0.191401192828E+03   -0.24803E-02   -0.19179E-02 12760   0.624E-01    0.416E-01
DAV:   3    -0.191399411335E+03    0.17815E-02   -0.42728E-03 11760   0.499E-01    0.159E-01
DAV:   4    -0.191399262190E+03    0.14915E-03   -0.10652E-03  9560   0.214E-01    0.128E-01
DAV:   5    -0.191399209702E+03    0.52488E-04   -0.81024E-04 10040   0.215E-01
  14 F= -.19139921E+03 E0= -.19130339E+03  d E =-.261920E-01
       N       E                     dE             d eps       ncg     rms          rms(c)
DAV:   1    -0.191466327650E+03   -0.67065E-01   -0.41461E+00  8160   0.433E+00    0.451E-01
DAV:   2    -0.191478646920E+03   -0.12319E-01   -0.11146E-01 13520   0.136E+00    0.843E-01
DAV:   3    -0.191471965720E+03    0.66812E-02   -0.20984E-02 12160   0.112E+00    0.408E-01
DAV:   4    -0.191470594667E+03    0.13711E-02   -0.55152E-03 11160   0.514E-01    0.283E-01
DAV:   5    -0.191470387146E+03    0.20752E-03   -0.41063E-03 10120   0.490E-01    0.286E-01
DAV:   6    -0.191469714264E+03    0.67288E-03   -0.21438E-03 12640   0.324E-01    0.107E-01
DAV:   7    -0.191469484100E+03    0.23016E-03   -0.49135E-04  9480   0.101E-01    0.238E-02
DAV:   8    -0.191469487607E+03   -0.35066E-05   -0.68605E-05  6880   0.277E-02
  15 F= -.19146949E+03 E0= -.19137773E+03  d E =-.702779E-01
       N       E                     dE             d eps       ncg     rms          rms(c)
DAV:   1    -0.191494155942E+03   -0.24672E-01   -0.45641E-01  8160   0.145E+00    0.155E-01
DAV:   2    -0.191495342441E+03   -0.11865E-02   -0.13467E-02 13520   0.402E-01    0.241E-01
DAV:   3    -0.191495060524E+03    0.28192E-03   -0.27674E-03 11240   0.402E-01    0.196E-01
DAV:   4    -0.191494628003E+03    0.43252E-03   -0.76919E-04  9040   0.202E-01    0.606E-02
DAV:   5    -0.191494595681E+03    0.32321E-04   -0.20927E-04  5720   0.800E-02
  16 F= -.19149460E+03 E0= -.19140436E+03  d E =-.251081E-01
       N       E                     dE             d eps       ncg     rms          rms(c)
DAV:   1    -0.191505576587E+03   -0.10949E-01   -0.26710E-01  8160   0.123E+00    0.375E-01
DAV:   2    -0.191510760827E+03   -0.51842E-02   -0.28881E-02 11280   0.114E+00    0.893E-01
DAV:   3    -0.191502169365E+03    0.85915E-02   -0.14429E-02 11280   0.994E-01    0.220E-01
DAV:   4    -0.191501691126E+03    0.47824E-03   -0.28319E-03 11360   0.321E-01    0.229E-01
DAV:   5    -0.191501869608E+03   -0.17848E-03   -0.33376E-03 11480   0.451E-01    0.293E-01
DAV:   6    -0.191500835694E+03    0.10339E-02   -0.17299E-03 11240   0.292E-01    0.342E-02
DAV:   7    -0.191500833677E+03    0.20167E-05   -0.11572E-04  5680   0.421E-02
  17 F= -.19150083E+03 E0= -.19141071E+03  d E =-.623800E-02
       N       E                     dE             d eps       ncg     rms          rms(c)
DAV:   1    -0.191591196198E+03   -0.90361E-01   -0.69587E+00  8160   0.562E+00    0.576E-01
DAV:   2    -0.191614728254E+03   -0.23532E-01   -0.20579E-01 12680   0.182E+00    0.110E+00
DAV:   3    -0.191603220589E+03    0.11508E-01   -0.36565E-02 12200   0.151E+00    0.532E-01
DAV:   4    -0.191600557729E+03    0.26629E-02   -0.82863E-03 11120   0.664E-01    0.331E-01
DAV:   5    -0.191600196206E+03    0.36152E-03   -0.51805E-03 10320   0.581E-01    0.331E-01
DAV:   6    -0.191599311568E+03    0.88464E-03   -0.29230E-03 12720   0.389E-01    0.135E-01
DAV:   7    -0.191598935719E+03    0.37585E-03   -0.82275E-04  9560   0.129E-01    0.347E-02
DAV:   8    -0.191598946330E+03   -0.10611E-04   -0.12595E-04  6560   0.654E-02
  18 F= -.19159895E+03 E0= -.19151531E+03  d E =-.981127E-01
       N       E                     dE             d eps       ncg     rms          rms(c)
DAV:   1    -0.191655437170E+03   -0.56501E-01   -0.26859E+00  8160   0.351E+00    0.363E-01
DAV:   2    -0.191662149514E+03   -0.67123E-02   -0.80750E-02 12240   0.902E-01    0.503E-01
DAV:   3    -0.191661510867E+03    0.63865E-03   -0.13952E-02 12360   0.922E-01    0.472E-01
DAV:   4    -0.191658910608E+03    0.26003E-02   -0.39374E-03 11120   0.491E-01    0.133E-01
DAV:   5    -0.191658937380E+03   -0.26772E-04   -0.14032E-03 11920   0.245E-01    0.169E-01
DAV:   6    -0.191658848388E+03    0.88992E-04   -0.11411E-03 10160   0.280E-01    0.136E-01
DAV:   7    -0.191658585653E+03    0.26274E-03   -0.38744E-04  8240   0.148E-01    0.274E-02
DAV:   8    -0.191658593832E+03   -0.81795E-05   -0.71498E-05  5920   0.508E-02
  19 F= -.19165859E+03 E0= -.19157795E+03  d E =-.596475E-01
       N       E                     dE             d eps       ncg     rms          rms(c)
DAV:   1    -0.191782746556E+03   -0.12416E+00   -0.63853E+01  8160   0.172E+01    0.167E+00
DAV:   2    -0.191966421083E+03   -0.18367E+00   -0.20533E+00 11920   0.438E+00    0.231E+00
DAV:   3    -0.191942004871E+03    0.24416E-01   -0.28418E-01 12400   0.419E+00    0.195E+00
DAV:   4    -0.191894361728E+03    0.47643E-01   -0.73690E-02 12240   0.223E+00    0.656E-01
DAV:   5    -0.191896515717E+03   -0.21540E-02   -0.30150E-02 12400   0.142E+00    0.886E-01
DAV:   6    -0.191889870029E+03    0.66457E-02   -0.22275E-02 12720   0.126E+00    0.460E-01
DAV:   7    -0.191885942558E+03    0.39275E-02   -0.70363E-03 11680   0.491E-01    0.968E-02
DAV:   8    -0.191886032880E+03   -0.90323E-04   -0.12992E-03 11840   0.177E-01    0.118E-01
DAV:   9    -0.191885930260E+03    0.10262E-03   -0.71660E-04 10480   0.211E-01    0.988E-02
DAV:  10    -0.191885793912E+03    0.13635E-03   -0.26693E-04  7480   0.116E-01    0.217E-02
DAV:  11    -0.191885813976E+03   -0.20064E-04   -0.81450E-05  6480   0.328E-02
  20 F= -.19188581E+03 E0= -.19180803E+03  d E =-.227220E+00
       N       E                     dE             d eps       ncg     rms          rms(c)
DAV:   1    -0.191913888728E+03   -0.28095E-01   -0.17218E+00  8160   0.292E+00    0.535E-01
DAV:   2    -0.191920205485E+03   -0.63168E-02   -0.11100E-01 12360   0.140E+00    0.777E-01
DAV:   3    -0.191915798114E+03    0.44074E-02   -0.22049E-02 11800   0.130E+00    0.495E-01
DAV:   4    -0.191912362607E+03    0.34355E-02   -0.68917E-03 12360   0.655E-01    0.265E-01
DAV:   5    -0.191912874510E+03   -0.51190E-03   -0.52434E-03 11520   0.582E-01    0.377E-01
DAV:   6    -0.191911153352E+03    0.17212E-02   -0.31468E-03 11680   0.445E-01    0.762E-02
DAV:   7    -0.191911164740E+03   -0.11389E-04   -0.42645E-04  9040   0.132E-01
  21 F= -.19191116E+03 E0= -.19183161E+03  d E =-.253508E-01
       N       E                     dE             d eps       ncg     rms          rms(c)
DAV:   1    -0.191928607169E+03   -0.17454E-01   -0.99205E-01  8160   0.213E+00    0.299E-01
DAV:   2    -0.191934937220E+03   -0.63301E-02   -0.49102E-02 10760   0.114E+00    0.642E-01
DAV:   3    -0.191930166520E+03    0.47707E-02   -0.10032E-02 12280   0.818E-01    0.188E-01
DAV:   4    -0.191929792917E+03    0.37360E-03   -0.14950E-03 11120   0.281E-01    0.165E-01
DAV:   5    -0.191929848765E+03   -0.55848E-04   -0.13220E-03 10280   0.320E-01    0.188E-01
DAV:   6    -0.191929428027E+03    0.42074E-03   -0.81360E-04 11280   0.209E-01    0.392E-02
DAV:   7    -0.191929419126E+03    0.89013E-05   -0.11748E-04  5960   0.530E-02
  22 F= -.19192942E+03 E0= -.19184988E+03  d E =-.182544E-01
       N       E                     dE             d eps       ncg     rms          rms(c)
DAV:   1    -0.191945246537E+03   -0.15819E-01   -0.10496E+00  8160   0.219E+00    0.245E-01
DAV:   2    -0.191948434691E+03   -0.31882E-02   -0.41258E-02 12040   0.642E-01    0.300E-01
DAV:   3    -0.191948514703E+03   -0.80013E-04   -0.56968E-03 12360   0.617E-01    0.316E-01
DAV:   4    -0.191947192033E+03    0.13227E-02   -0.17070E-03 11000   0.348E-01    0.723E-02
DAV:   5    -0.191947275305E+03   -0.83272E-04   -0.71615E-04  9840   0.155E-01
  23 F= -.19194728E+03 E0= -.19186686E+03  d E =-.178562E-01
       N       E                     dE             d eps       ncg     rms          rms(c)
DAV:   1    -0.191966455838E+03   -0.19264E-01   -0.13938E+01  8160   0.792E+00    0.811E-01
DAV:   2    -0.192012586826E+03   -0.46131E-01   -0.50952E-01 11880   0.233E+00    0.115E+00
DAV:   3    -0.192007350780E+03    0.52360E-02   -0.70664E-02 12280   0.212E+00    0.936E-01
DAV:   4    -0.191995227927E+03    0.12123E-01   -0.15033E-02 12200   0.100E+00    0.253E-01
DAV:   5    -0.191997974451E+03   -0.27465E-02   -0.83040E-03 12560   0.732E-01    0.529E-01
DAV:   6    -0.191994352416E+03    0.36220E-02   -0.53375E-03 11440   0.631E-01    0.103E-01
DAV:   7    -0.191994240318E+03    0.11210E-03   -0.74214E-04 10040   0.126E-01    0.555E-02
DAV:   8    -0.191994226248E+03    0.14071E-04   -0.20552E-04  8040   0.103E-01
  24 F= -.19199423E+03 E0= -.19191114E+03  d E =-.469509E-01
       N       E                     dE             d eps       ncg     rms          rms(c)
DAV:   1    -0.191998814780E+03   -0.45745E-02   -0.55291E+00  8160   0.499E+00    0.536E-01
DAV:   2    -0.192017399959E+03   -0.18585E-01   -0.23315E-01 11880   0.149E+00    0.584E-01
DAV:   3    -0.192019092880E+03   -0.16929E-02   -0.27801E-02 12120   0.132E+00    0.707E-01
DAV:   4    -0.192012564479E+03    0.65284E-02   -0.87601E-03 11640   0.816E-01    0.181E-01
DAV:   5    -0.192013033504E+03   -0.46903E-03   -0.40972E-03 10840   0.400E-01    0.274E-01
DAV:   6    -0.192012443105E+03    0.59040E-03   -0.35102E-03 11880   0.465E-01    0.179E-01
DAV:   7    -0.192011992877E+03    0.45023E-03   -0.85392E-04  9960   0.202E-01    0.448E-02
DAV:   8    -0.192011978885E+03    0.13992E-04   -0.10931E-04  6200   0.696E-02
  25 F= -.19201198E+03 E0= -.19192747E+03  d E =-.177526E-01
       N       E                     dE             d eps       ncg     rms          rms(c)
DAV:   1    -0.192014125621E+03   -0.21327E-02   -0.11933E+00  8160   0.229E+00    0.223E-01
DAV:   2    -0.192017868046E+03   -0.37424E-02   -0.44105E-02 11760   0.650E-01    0.248E-01
DAV:   3    -0.192018195275E+03   -0.32723E-03   -0.50505E-03 12520   0.558E-01    0.301E-01
DAV:   4    -0.192017056350E+03    0.11389E-02   -0.14540E-03 10240   0.334E-01    0.745E-02
DAV:   5    -0.192017260655E+03   -0.20431E-03   -0.54984E-04 10840   0.195E-01    0.142E-01
DAV:   6    -0.192017033030E+03    0.22763E-03   -0.40646E-04  8840   0.176E-01    0.337E-02
DAV:   7    -0.192017018901E+03    0.14129E-04   -0.68052E-05  5960   0.423E-02
  26 F= -.19201702E+03 E0= -.19193214E+03  d E =-.504002E-02
       N       E                     dE             d eps       ncg     rms          rms(c)
DAV:   1    -0.192018040722E+03   -0.10077E-02   -0.70265E-02  8160   0.564E-01    0.692E-02
DAV:   2    -0.192018422138E+03   -0.38142E-03   -0.31826E-03 12600   0.269E-01    0.140E-01
DAV:   3    -0.192018184116E+03    0.23802E-03   -0.50955E-04  9360   0.190E-01    0.440E-02
DAV:   4    -0.192018168482E+03    0.15635E-04   -0.78722E-05  5960   0.616E-02
  27 F= -.19201817E+03 E0= -.19193318E+03  d E =-.114958E-02
       N       E                     dE             d eps       ncg     rms          rms(c)
DAV:   1    -0.192019662149E+03   -0.14780E-02   -0.15620E-01  8160   0.834E-01    0.904E-02
DAV:   2    -0.192020121782E+03   -0.45963E-03   -0.55024E-03 11840   0.229E-01    0.113E-01
DAV:   3    -0.192020075100E+03    0.46682E-04   -0.78409E-04 11280   0.225E-01
  28 F= -.19202008E+03 E0= -.19193486E+03  d E =-.190662E-02
       N       E                     dE             d eps       ncg     rms          rms(c)
DAV:   1    -0.192021145428E+03   -0.10236E-02   -0.11285E-01  8160   0.715E-01    0.911E-02
DAV:   2    -0.192021424706E+03   -0.27928E-03   -0.36896E-03 13040   0.237E-01    0.119E-01
DAV:   3    -0.192021307379E+03    0.11733E-03   -0.82818E-04 11000   0.215E-01    0.903E-02
DAV:   4    -0.192021240685E+03    0.66694E-04   -0.26286E-04  7400   0.124E-01
  29 F= -.19202124E+03 E0= -.19193599E+03  d E =-.116558E-02
       N       E                     dE             d eps       ncg     rms          rms(c)
DAV:   1    -0.192022816128E+03   -0.15087E-02   -0.34837E-01  8160   0.124E+00    0.126E-01
DAV:   2    -0.192023649559E+03   -0.83343E-03   -0.11046E-02 11880   0.324E-01    0.126E-01
DAV:   3    -0.192023793043E+03   -0.14348E-03   -0.11788E-03 11240   0.291E-01    0.173E-01
DAV:   4    -0.192023427095E+03    0.36595E-03   -0.46751E-04  8520   0.192E-01    0.426E-02
DAV:   5    -0.192023524713E+03   -0.97618E-04   -0.26606E-04  7160   0.120E-01
  30 F= -.19202352E+03 E0= -.19193815E+03  d E =-.228403E-02
       N       E                     dE             d eps       ncg     rms          rms(c)
DAV:   1    -0.192023927268E+03   -0.50017E-03   -0.22512E-02  8160   0.335E-01    0.664E-02
DAV:   2    -0.192024082773E+03   -0.15551E-03   -0.14345E-03 11160   0.198E-01    0.127E-01
DAV:   3    -0.192023889485E+03    0.19329E-03   -0.43927E-04  9160   0.174E-01    0.470E-02
DAV:   4    -0.192023885437E+03    0.40477E-05   -0.11676E-04  5760   0.885E-02
  31 F= -.19202389E+03 E0= -.19193882E+03  d E =-.360725E-03
