 vasp.5.4.1 05Feb16 (build Jul 05 2020 17:13:04) complex                        
  
 executed on           IFC91_ompi date 2024.08.02  04:45:50
 running on   40 total cores
 distrk:  each k-point on   40 cores,    1 groups
 distr:  one band on NCORES_PER_BAND=   1 cores,   40 groups


--------------------------------------------------------------------------------------------------------


 INCAR:
 POTCAR:   PAW_PBE V 08Apr2002                    
 POTCAR:   PAW_PBE Mo 08Apr2002                   
 POTCAR:   PAW_PBE W 08Apr2002                    
 POTCAR:    PAW_PBE S 17Jan2003                   

 ----------------------------------------------------------------------------- 
|                                                                             |
|           W    W    AA    RRRRR   N    N  II  N    N   GGGG   !!!           |
|           W    W   A  A   R    R  NN   N  II  NN   N  G    G  !!!           |
|           W    W  A    A  R    R  N N  N  II  N N  N  G       !!!           |
|           W WW W  AAAAAA  RRRRR   N  N N  II  N  N N  G  GGG   !            |
|           WW  WW  A    A  R   R   N   NN  II  N   NN  G    G                |
|           W    W  A    A  R    R  N    N  II  N    N   GGGG   !!!           |
|                                                                             |
|      For optimal performance we recommend to set                            |
|        NCORE= 4 - approx SQRT( number of cores)                             |
|      NCORE specifies how many cores store one orbital (NPAR=cpu/NCORE).     |
|      This setting can  greatly improve the performance of VASP for DFT.     |
|      The default, NPAR=number of cores might be grossly inefficient         |
|      on modern multi-core architectures or massively parallel machines.     |
|      Do your own testing !!!!                                               |
|      Unfortunately you need to use the default for GW and RPA calculations. |
|      (for HF NCORE is supported but not extensively tested yet)             |
|                                                                             |
 ----------------------------------------------------------------------------- 

 POTCAR:   PAW_PBE V 08Apr2002                    
   VRHFIN =V: p6 d4 s1                                                          
   LEXCH  = PE                                                                  
   EATOM  =   170.8679 eV,   12.5584 Ry                                         
                                                                                
   TITEL  = PAW_PBE V 08Apr2002                                                 
   LULTRA =        F    use ultrasoft PP ?                                      
   IUNSCR =        1    unscreen: 0-lin 1-nonlin 2-no                           
   RPACOR =    2.000    partial core radius                                     
   POMASS =   50.941; ZVAL   =    5.000    mass and valenz                      
   RCORE  =    2.700    outmost cutoff radius                                   
   RWIGS  =    2.500; RWIGS  =    1.323    wigner-seitz radius (au A)           
   ENMAX  =  192.543; ENMIN  =  144.408 eV                                      
   RCLOC  =    1.779    cutoff for local pot                                    
   LCOR   =        T    correct aug charges                                     
   LPAW   =        T    paw PP                                                  
   EAUG   =  358.662                                                            
   DEXC   =    -.034                                                            
   RMAX   =    3.323    core radius for proj-oper                               
   RAUG   =    1.300    factor for augmentation sphere                          
   RDEP   =    2.762    radius for radial grids                                 
   QCUT   =   -3.762; QGAM   =    7.524    optimization parameters              
                                                                                
   Description                                                                  
     l     E      TYP  RCUT    TYP  RCUT                                        
     2   .000     23  2.700                                                     
     2   .000     23  2.700                                                     
     0   .000     23  2.700                                                     
     0  2.000     23  2.700                                                     
     1   .000     23  2.700                                                     
     1  2.000     23  2.700                                                     
     3   .000      7   .000                                                     
  local pseudopotential read in
  partial core-charges read in
  atomic valenz-charges read in
  non local Contribution for L=           2  read in
    real space projection operators read in
  non local Contribution for L=           2  read in
    real space projection operators read in
  non local Contribution for L=           0  read in
    real space projection operators read in
  non local Contribution for L=           0  read in
    real space projection operators read in
  non local Contribution for L=           1  read in
    real space projection operators read in
  non local Contribution for L=           1  read in
    real space projection operators read in
    PAW grid and wavefunctions read in
 
   number of l-projection  operators is LMAX  =           6
   number of lm-projection operators is LMMAX =          18
 
 POTCAR:   PAW_PBE Mo 08Apr2002                   
   VRHFIN =Mo: 4p5s4d                                                           
   LEXCH  = PE                                                                  
   EATOM  =   217.5180 eV,   15.9871 Ry                                         
                                                                                
   TITEL  = PAW_PBE Mo 08Apr2002                                                
   LULTRA =        F    use ultrasoft PP ?                                      
   IUNSCR =        1    unscreen: 0-lin 1-nonlin 2-no                           
   RPACOR =    2.200    partial core radius                                     
   POMASS =   95.940; ZVAL   =    6.000    mass and valenz                      
   RCORE  =    2.750    outmost cutoff radius                                   
   RWIGS  =    2.750; RWIGS  =    1.455    wigner-seitz radius (au A)           
   ENMAX  =  224.584; ENMIN  =  168.438 eV                                      
   RCLOC  =    2.111    cutoff for local pot                                    
   LCOR   =        T    correct aug charges                                     
   LPAW   =        T    paw PP                                                  
   EAUG   =  345.278                                                            
   DEXC   =    -.088                                                            
   RMAX   =    3.077    core radius for proj-oper                               
   RAUG   =    1.300    factor for augmentation sphere                          
   RDEP   =    2.815    radius for radial grids                                 
   QCUT   =   -4.063; QGAM   =    8.126    optimization parameters              
                                                                                
   Description                                                                  
     l     E      TYP  RCUT    TYP  RCUT                                        
     2   .000     23  2.500                                                     
     2   .000     23  2.500                                                     
     0   .000     23  2.600                                                     
     0  1.000     23  2.600                                                     
     1   .400     23  2.750                                                     
     1  2.000     23  2.750                                                     
     3   .000      7   .000                                                     
  local pseudopotential read in
  partial core-charges read in
  atomic valenz-charges read in
  non local Contribution for L=           2  read in
    real space projection operators read in
  non local Contribution for L=           2  read in
    real space projection operators read in
  non local Contribution for L=           0  read in
    real space projection operators read in
  non local Contribution for L=           0  read in
    real space projection operators read in
  non local Contribution for L=           1  read in
    real space projection operators read in
  non local Contribution for L=           1  read in
    real space projection operators read in
    PAW grid and wavefunctions read in
 
   number of l-projection  operators is LMAX  =           6
   number of lm-projection operators is LMMAX =          18
 
 POTCAR:   PAW_PBE W 08Apr2002                    
   VRHFIN =W : 6s5d                                                             
   LEXCH  = PE                                                                  
   EATOM  =   204.6100 eV,   15.0384 Ry                                         
                                                                                
   TITEL  = PAW_PBE W 08Apr2002                                                 
   LULTRA =        F    use ultrasoft PP ?                                      
   IUNSCR =        1    unscreen: 0-lin 1-nonlin 2-no                           
   RPACOR =    2.330    partial core radius                                     
   POMASS =  183.850; ZVAL   =    6.000    mass and valenz                      
   RCORE  =    2.750    outmost cutoff radius                                   
   RWIGS  =    2.750; RWIGS  =    1.455    wigner-seitz radius (au A)           
   ENMAX  =  223.057; ENMIN  =  167.293 eV                                      
   RCLOC  =    2.147    cutoff for local pot                                    
   LCOR   =        T    correct aug charges                                     
   LPAW   =        T    paw PP                                                  
   EAUG   =  373.438                                                            
   DEXC   =    -.060                                                            
   RMAX   =    3.087    core radius for proj-oper                               
   RAUG   =    1.300    factor for augmentation sphere                          
   RDEP   =    2.886    radius for radial grids                                 
   QCUT   =   -4.049; QGAM   =    8.098    optimization parameters              
                                                                                
   Description                                                                  
     l     E      TYP  RCUT    TYP  RCUT                                        
     2   .000     23  2.500                                                     
     2   .000     23  2.500                                                     
     0   .000     23  2.500                                                     
     0   .000     23  2.500                                                     
     1   .200     23  2.750                                                     
     1  2.000     23  2.750                                                     
     3   .000      7   .000                                                     
  local pseudopotential read in
  partial core-charges read in
  atomic valenz-charges read in
  non local Contribution for L=           2  read in
    real space projection operators read in
  non local Contribution for L=           2  read in
    real space projection operators read in
  non local Contribution for L=           0  read in
    real space projection operators read in
  non local Contribution for L=           0  read in
    real space projection operators read in
  non local Contribution for L=           1  read in
    real space projection operators read in
  non local Contribution for L=           1  read in
    real space projection operators read in
    PAW grid and wavefunctions read in
 
   number of l-projection  operators is LMAX  =           6
   number of lm-projection operators is LMMAX =          18
 
 POTCAR:    PAW_PBE S 17Jan2003                   
   VRHFIN =S : s2p4                                                             
   LEXCH  = PE                                                                  
   EATOM  =   276.8230 eV,   20.3459 Ry                                         
                                                                                
   TITEL  = PAW_PBE S 17Jan2003                                                 
   LULTRA =        F    use ultrasoft PP ?                                      
   IUNSCR =        1    unscreen: 0-lin 1-nonlin 2-no                           
   RPACOR =    1.500    partial core radius                                     
   POMASS =   32.066; ZVAL   =    6.000    mass and valenz                      
   RCORE  =    1.900    outmost cutoff radius                                   
   RWIGS  =    2.200; RWIGS  =    1.164    wigner-seitz radius (au A)           
   ENMAX  =  280.000; ENMIN  =  194.016 eV                                      
   ICORE  =        2    local potential                                         
   LCOR   =        T    correct aug charges                                     
   LPAW   =        T    paw PP                                                  
   EAUG   =  335.092                                                            
   DEXC   =     .000                                                            
   RMAX   =    2.867    core radius for proj-oper                               
   RAUG   =    1.300    factor for augmentation sphere                          
   RDEP   =    1.954    radius for radial grids                                 
   QCUT   =   -4.360; QGAM   =    8.721    optimization parameters              
                                                                                
   Description                                                                  
     l     E      TYP  RCUT    TYP  RCUT                                        
     0   .000     23  1.900                                                     
     0   .000     23  1.900                                                     
     1   .000     23  1.900                                                     
     1   .000     23  1.900                                                     
     2   .000     23  1.900                                                     
  local pseudopotential read in
  partial core-charges read in
  atomic valenz-charges read in
  non local Contribution for L=           0  read in
    real space projection operators read in
  non local Contribution for L=           0  read in
    real space projection operators read in
  non local Contribution for L=           1  read in
    real space projection operators read in
  non local Contribution for L=           1  read in
    real space projection operators read in
    PAW grid and wavefunctions read in
 
   number of l-projection  operators is LMAX  =           4
   number of lm-projection operators is LMMAX =           8
 

 ----------------------------------------------------------------------------- 
|                                                                             |
|  ADVICE TO THIS USER RUNNING 'VASP/VAMP'   (HEAR YOUR MASTER'S VOICE ...):  |
|                                                                             |
|      You have a (more or less) 'large supercell' and for larger cells       |
|      it might be more efficient to use real space projection operators      |
|      So try LREAL= Auto  in the INCAR   file.                               |
|      Mind: If you want to do a very accurate calculations keep the          |
|      reciprocal projection scheme          (i.e. LREAL=.FALSE.)             |
|                                                                             |
 ----------------------------------------------------------------------------- 

 PAW_PBE V 08Apr2002                    :
 energy of atom  1       EATOM= -170.8679
 kinetic energy error for atom=    0.0047 (will be added to EATOM!!)
 PAW_PBE Mo 08Apr2002                   :
 energy of atom  2       EATOM= -217.5180
 kinetic energy error for atom=    0.0215 (will be added to EATOM!!)
 PAW_PBE W 08Apr2002                    :
 energy of atom  3       EATOM= -204.6100
 kinetic energy error for atom=    0.0205 (will be added to EATOM!!)
  PAW_PBE S 17Jan2003                   :
 energy of atom  4       EATOM= -276.8230
 kinetic energy error for atom=    0.0122 (will be added to EATOM!!)
 
 
 POSCAR: crystal structure from VMoWS2 with Hexag
  positions in cartesian coordinates
  No initial velocities read in
 exchange correlation table for  LEXCH =        8
   RHO(1)=    0.500       N(1)  =     2000
   RHO(2)=  100.500       N(2)  =     4000
 


--------------------------------------------------------------------------------------------------------


 ion  position               nearest neighbor table
   1  0.333  0.333  0.000-  13 2.34  16 2.34  19 2.36  18 2.36  11 2.36  10 2.36
   2  0.333  0.000  0.000-  11 2.34  20 2.34  17 2.36  16 2.36  15 2.36  14 2.36
   3  0.667  0.333  0.000-  19 2.34  22 2.34  25 2.36  24 2.36  17 2.36  16 2.36
   4  0.000  0.000  0.000-  23 2.34  14 2.34  11 2.36  10 2.36  27 2.36  26 2.36   6 3.34   8 3.34
                             7 3.34   5 3.36
   5  0.667  0.667  0.000-  21 2.34  24 2.34  27 2.36  26 2.36  19 2.36  18 2.36   8 3.34   6 3.34
                             9 3.34   4 3.36
   6  0.667  0.000  0.000-  17 2.34  26 2.34  23 2.36  22 2.36  21 2.36  20 2.36   4 3.34   5 3.34
                             7 3.36   9 3.36
   7  1.000  0.333  0.000-  25 2.34  10 2.34  13 2.36  12 2.36  22 2.36  23 2.36   8 3.34   4 3.34
                             6 3.36   9 3.36
   8  0.000  0.667  0.000-  27 2.34  12 2.34  14 2.36  15 2.36  24 2.36  25 2.36   5 3.34   4 3.34
                             7 3.34   9 3.34
   9  0.333  0.667  0.000-  15 2.34  18 2.34  20 2.36  21 2.36  13 2.36  12 2.36   8 3.34   5 3.34
                             6 3.36   7 3.36
  10  0.111  0.222  0.955-   7 2.34   4 2.36   1 2.36
  11  0.222  0.111  0.045-   2 2.34   4 2.36   1 2.36
  12  0.111  0.556  0.955-   8 2.34   7 2.36   9 2.36
  13  0.222  0.444  0.045-   1 2.34   7 2.36   9 2.36
  14  0.111  0.889  0.955-   4 2.34   8 2.36   2 2.36
  15  0.222  0.777  0.045-   9 2.34   8 2.36   2 2.36
  16  0.444  0.222  0.955-   1 2.34   2 2.36   3 2.36
  17  0.556  0.111  0.045-   6 2.34   2 2.36   3 2.36
  18  0.444  0.556  0.955-   9 2.34   1 2.36   5 2.36
  19  0.556  0.444  0.045-   3 2.34   1 2.36   5 2.36
  20  0.444  0.889  0.955-   2 2.34   9 2.36   6 2.36
  21  0.556  0.777  0.045-   5 2.34   9 2.36   6 2.36
  22  0.777  0.222  0.955-   3 2.34   6 2.36   7 2.36
  23  0.889  0.111  0.045-   4 2.34   6 2.36   7 2.36
  24  0.777  0.556  0.955-   5 2.34   3 2.36   8 2.36
  25  0.889  0.444  0.045-   7 2.34   3 2.36   8 2.36
  26  0.777  0.889  0.955-   6 2.34   5 2.36   4 2.36
  27  0.889  0.777  0.045-   8 2.34   5 2.36   4 2.36
 

IMPORTANT INFORMATION: All symmetrisations will be switched off!
NOSYMM: (Re-)initialisation of all symmetry stuff for point group C_1.

 
 
 KPOINTS: K-POINTS 	#supercell of CrS2 in hexagona

Automatic generation of k-mesh.
Space group operators:
 irot       det(A)        alpha          n_x          n_y          n_z        tau_x        tau_y        tau_z
    1     1.000000     0.000000     1.000000     0.000000     0.000000     0.000000     0.000000     0.000000
 
 Subroutine IBZKPT returns following result:
 ===========================================
 
 Found     34 irreducible k-points:
 
 Following reciprocal coordinates:
            Coordinates               Weight
  0.000000  0.000000  0.000000      1.000000
  0.125000  0.000000  0.000000      2.000000
  0.250000  0.000000  0.000000      2.000000
  0.375000  0.000000  0.000000      2.000000
  0.500000  0.000000  0.000000      1.000000
  0.000000  0.125000  0.000000      2.000000
  0.125000  0.125000  0.000000      2.000000
  0.250000  0.125000  0.000000      2.000000
  0.375000  0.125000  0.000000      2.000000
  0.500000  0.125000  0.000000      2.000000
 -0.375000  0.125000  0.000000      2.000000
 -0.250000  0.125000  0.000000      2.000000
 -0.125000  0.125000  0.000000      2.000000
  0.000000  0.250000  0.000000      2.000000
  0.125000  0.250000  0.000000      2.000000
  0.250000  0.250000  0.000000      2.000000
  0.375000  0.250000  0.000000      2.000000
  0.500000  0.250000  0.000000      2.000000
 -0.375000  0.250000  0.000000      2.000000
 -0.250000  0.250000  0.000000      2.000000
 -0.125000  0.250000  0.000000      2.000000
 -0.000000  0.375000  0.000000      2.000000
  0.125000  0.375000  0.000000      2.000000
  0.250000  0.375000  0.000000      2.000000
  0.375000  0.375000  0.000000      2.000000
  0.500000  0.375000  0.000000      2.000000
 -0.375000  0.375000  0.000000      2.000000
 -0.250000  0.375000  0.000000      2.000000
 -0.125000  0.375000  0.000000      2.000000
  0.000000  0.500000  0.000000      1.000000
  0.125000  0.500000  0.000000      2.000000
  0.250000  0.500000  0.000000      2.000000
  0.375000  0.500000  0.000000      2.000000
  0.500000  0.500000  0.000000      1.000000
 
 Following cartesian coordinates:
            Coordinates               Weight
  0.000000  0.000000  0.000000      1.000000
  0.007209  0.012401  0.000000      2.000000
  0.014418  0.024802  0.000000      2.000000
  0.021626  0.037202  0.000000      2.000000
  0.028835  0.049603  0.000000      1.000000
 -0.007209  0.012401  0.000000      2.000000
  0.000000  0.024802  0.000000      2.000000
  0.007209  0.037202  0.000000      2.000000
  0.014418  0.049603  0.000000      2.000000
  0.021626  0.062004  0.000000      2.000000
 -0.028835 -0.024802  0.000000      2.000000
 -0.021626 -0.012401  0.000000      2.000000
 -0.014418  0.000000  0.000000      2.000000
 -0.014418  0.024802  0.000000      2.000000
 -0.007209  0.037202  0.000000      2.000000
  0.000000  0.049603  0.000000      2.000000
  0.007209  0.062004  0.000000      2.000000
  0.014418  0.074405  0.000000      2.000000
 -0.036044 -0.012401  0.000000      2.000000
 -0.028835  0.000000  0.000000      2.000000
 -0.021626  0.012401  0.000000      2.000000
 -0.021626  0.037202  0.000000      2.000000
 -0.014418  0.049603  0.000000      2.000000
 -0.007209  0.062004  0.000000      2.000000
  0.000000  0.074405  0.000000      2.000000
  0.007209  0.086806  0.000000      2.000000
 -0.043253  0.000000  0.000000      2.000000
 -0.036044  0.012401  0.000000      2.000000
 -0.028835  0.024802  0.000000      2.000000
 -0.028835  0.049603  0.000000      1.000000
 -0.021626  0.062004  0.000000      2.000000
 -0.014418  0.074405  0.000000      2.000000
 -0.007209  0.086806  0.000000      2.000000
  0.000000  0.099206  0.000000      1.000000
 


--------------------------------------------------------------------------------------------------------




 Dimension of arrays:
   k-points           NKPTS =     34   k-points in BZ     NKDIM =     34   number of bands    NBANDS=    120
   number of dos      NEDOS =    301   number of ions     NIONS =     27
   non local maximal  LDIM  =      6   non local SUM 2l+1 LMDIM =     18
   total plane-waves  NPLWV = 222264
   max r-space proj   IRMAX =      1   max aug-charges    IRDMAX=   5642
   dimension x,y,z NGX =    42 NGY =   42 NGZ =  126
   dimension x,y,z NGXF=    84 NGYF=   84 NGZF=  252
   support grid    NGXF=    84 NGYF=   84 NGZF=  252
   ions per type =               3   3   3  18
 NGX,Y,Z   is equivalent  to a cutoff of   6.96,  6.96,  6.98 a.u.
 NGXF,Y,Z  is equivalent  to a cutoff of  13.92, 13.92, 13.96 a.u.


 I would recommend the setting:
   dimension x,y,z NGX =    41 NGY =   41 NGZ =  123
 SYSTEM =  unknown system                          
 POSCAR =  crystal structure from VMoWS2 with Hexag

 Startparameter for this run:
   NWRITE =      2    write-flag & timer
   PREC   = normal    normal or accurate (medium, high low for compatibility)
   ISTART =      0    job   : 0-new  1-cont  2-samecut
   ICHARG =      2    charge: 1-file 2-atom 10-const
   ISPIN  =      1    spin polarized calculation?
   LNONCOLLINEAR =      F non collinear calculations
   LSORBIT =      F    spin-orbit coupling
   INIWAV =      1    electr: 0-lowe 1-rand  2-diag
   LASPH  =      F    aspherical Exc in radial PAW
   METAGGA=      F    non-selfconsistent MetaGGA calc.

 Electronic Relaxation 1
   ENCUT  =  280.0 eV  20.58 Ry    4.54 a.u.  13.68 13.68 40.93*2*pi/ulx,y,z
   ENINI  =  280.0     initial cutoff
   ENAUG  =  373.4 eV  augmentation charge cutoff
   NELM   =     60;   NELMIN=  2; NELMDL= -5     # of ELM steps 
   EDIFF  = 0.1E-03   stopping-criterion for ELM
   LREAL  =      F    real-space projection
   NLSPLINE    = F    spline interpolate recip. space projectors
   LCOMPAT=      F    compatible to vasp.4.4
   GGA_COMPAT  = T    GGA compatible to vasp.4.4-vasp.4.6
   LMAXPAW     = -100 max onsite density
   LMAXMIX     =    2 max onsite mixed and CHGCAR
   VOSKOWN=      0    Vosko Wilk Nusair interpolation
   ROPT   =    0.00000   0.00000   0.00000   0.00000
 Ionic relaxation
   EDIFFG = 0.1E-02   stopping-criterion for IOM
   NSW    =    100    number of steps for IOM
   NBLOCK =      1;   KBLOCK =    100    inner block; outer block 
   IBRION =      1    ionic relax: 0-MD 1-quasi-New 2-CG
   NFREE  =      0    steps in history (QN), initial steepest desc. (CG)
   ISIF   =      3    stress and relaxation
   IWAVPR =     11    prediction:  0-non 1-charg 2-wave 3-comb
   ISYM   =      0    0-nonsym 1-usesym 2-fastsym
   LCORR  =      T    Harris-Foulkes like correction to forces

   POTIM  = 0.5000    time-step for ionic-motion
   TEIN   =    0.0    initial temperature
   TEBEG  =    0.0;   TEEND  =   0.0 temperature during run
   SMASS  =  -3.00    Nose mass-parameter (am)
   estimated Nose-frequenzy (Omega)   =  0.10E-29 period in steps =****** mass=  -0.230E-26a.u.
   SCALEE = 1.0000    scale energy and forces
   NPACO  =    256;   APACO  = 16.0  distance and # of slots for P.C.
   PSTRESS=    0.0 pullay stress

  Mass of Ions in am
   POMASS =  50.94 95.94183.85 32.07
  Ionic Valenz
   ZVAL   =   5.00  6.00  6.00  6.00
  Atomic Wigner-Seitz radii
   RWIGS  =  -1.00 -1.00 -1.00 -1.00
  virtual crystal weights 
   VCA    =   1.00  1.00  1.00  1.00
   NELECT =     159.0000    total number of electrons
   NUPDOWN=      -1.0000    fix difference up-down

 DOS related values:
   EMIN   =  10.00;   EMAX   =-10.00  energy-range for DOS
   EFERMI =   0.00
   ISMEAR =     0;   SIGMA  =   0.20  broadening in eV -4-tet -1-fermi 0-gaus

 Electronic relaxation 2 (details)
   IALGO  =     38    algorithm
   LDIAG  =      T    sub-space diagonalisation (order eigenvalues)
   LSUBROT=      F    optimize rotation matrix (better conditioning)
   TURBO    =      0    0=normal 1=particle mesh
   IRESTART =      0    0=no restart 2=restart with 2 vectors
   NREBOOT  =      0    no. of reboots
   NMIN     =      0    reboot dimension
   EREF     =   0.00    reference energy to select bands
   IMIX   =      4    mixing-type and parameters
     AMIX     =   0.40;   BMIX     =  1.00
     AMIX_MAG =   1.60;   BMIX_MAG =  1.00
     AMIN     =   0.10
     WC   =   100.;   INIMIX=   1;  MIXPRE=   1;  MAXMIX= -45

 Intra band minimization:
   WEIMIN = 0.0010     energy-eigenvalue tresh-hold
   EBREAK =  0.21E-06  absolut break condition
   DEPER  =   0.30     relativ break condition  

   TIME   =   0.40     timestep for ELM

  volume/ion in A,a.u.               =      97.10       655.29
  Fermi-wavevector in a.u.,A,eV,Ry     =   0.643191  1.215456  5.628665  0.413695
  Thomas-Fermi vector in A             =   1.710110
 
 Write flags
   LWAVE  =      F    write WAVECAR
   LCHARG =      F    write CHGCAR
   LVTOT  =      F    write LOCPOT, total local potential
   LVHAR  =      F    write LOCPOT, Hartree potential only
   LELF   =      F    write electronic localiz. function (ELF)
   LORBIT =      0    0 simple, 1 ext, 2 COOP (PROOUT)


 Dipole corrections
   LMONO  =      F    monopole corrections only (constant potential shift)
   LDIPOL =      F    correct potential (dipole corrections)
   IDIPOL =      0    1-x, 2-y, 3-z, 4-all directions 
   EPSILON=  1.0000000 bulk dielectric constant

 Exchange correlation treatment:
   GGA     =    --    GGA type
   LEXCH   =     8    internal setting for exchange type
   VOSKOWN=      0    Vosko Wilk Nusair interpolation
   LHFCALC =     F    Hartree Fock is set to
   LHFONE  =     F    Hartree Fock one center treatment
   AEXX    =    0.0000 exact exchange contribution

 Linear response parameters
   LEPSILON=     F    determine dielectric tensor
   LRPA    =     F    only Hartree local field effects (RPA)
   LNABLA  =     F    use nabla operator in PAW spheres
   LVEL    =     F    velocity operator in full k-point grid
   LINTERFAST=   F  fast interpolation
   KINTER  =     0    interpolate to denser k-point grid
   CSHIFT  =0.1000    complex shift for real part using Kramers Kronig
   OMEGAMAX=  -1.0    maximum frequency
   DEG_THRESHOLD= 0.2000000E-02 threshold for treating states as degnerate
   RTIME   =    0.100 relaxation time in fs

 Orbital magnetization related:
   ORBITALMAG=     F  switch on orbital magnetization
   LCHIMAG   =     F  perturbation theory with respect to B field
   DQ        =  0.001000  dq finite difference perturbation B field



--------------------------------------------------------------------------------------------------------


 quasi-Newton-method for relaxation of ions
 charge density and potential will be updated during run
 non-spin polarized calculation
 Variant of blocked Davidson
 Davidson routine will perform the subspace rotation
 perform sub-space diagonalisation
    after iterative eigenvector-optimisation
 modified Broyden-mixing scheme, WC =      100.0
 initial mixing is a Kerker type mixing with AMIX =  0.4000 and BMIX =      1.0000
 Hartree-type preconditioning will be used
 using additional bands           40
 reciprocal scheme for non local part
 use partial core corrections
 calculate Harris-corrections to forces 
   (improved forces if not selfconsistent)
 use gradient corrections 
 use of overlap-Matrix (Vanderbilt PP)
 Gauss-broadening in eV      SIGMA  =   0.20


--------------------------------------------------------------------------------------------------------


  energy-cutoff  :      280.00
  volume of cell :     2621.81
      direct lattice vectors                 reciprocal lattice vectors
     8.669999960  5.039999894  0.000000000     0.057670129  0.099206348  0.000000000
    -8.669999821  5.040000133  0.000000000    -0.057670126  0.099206350  0.000000000
     0.000000000  0.000000000 30.000000000     0.000000000  0.000000000  0.033333333

  length of vectors
    10.028484344 10.028484344 30.000000000     0.114750788  0.114750788  0.033333333


 
 k-points in units of 2pi/SCALE and weight: K-POINTS 	#supercell of CrS2 in hexagona
   0.00000000  0.00000000  0.00000000       0.016
   0.00720877  0.01240079  0.00000000       0.031
   0.01441753  0.02480159  0.00000000       0.031
   0.02162630  0.03720238  0.00000000       0.031
   0.02883506  0.04960317  0.00000000       0.016
  -0.00720877  0.01240079  0.00000000       0.031
   0.00000000  0.02480159  0.00000000       0.031
   0.00720877  0.03720238  0.00000000       0.031
   0.01441753  0.04960317  0.00000000       0.031
   0.02162630  0.06200397  0.00000000       0.031
  -0.02883506 -0.02480159  0.00000000       0.031
  -0.02162630 -0.01240079  0.00000000       0.031
  -0.01441753  0.00000000  0.00000000       0.031
  -0.01441753  0.02480159  0.00000000       0.031
  -0.00720877  0.03720238  0.00000000       0.031
   0.00000000  0.04960317  0.00000000       0.031
   0.00720877  0.06200397  0.00000000       0.031
   0.01441753  0.07440476  0.00000000       0.031
  -0.03604383 -0.01240079  0.00000000       0.031
  -0.02883506  0.00000000  0.00000000       0.031
  -0.02162630  0.01240079  0.00000000       0.031
  -0.02162630  0.03720238  0.00000000       0.031
  -0.01441753  0.04960317  0.00000000       0.031
  -0.00720877  0.06200397  0.00000000       0.031
   0.00000000  0.07440476  0.00000000       0.031
   0.00720877  0.08680556  0.00000000       0.031
  -0.04325260  0.00000000  0.00000000       0.031
  -0.03604383  0.01240079  0.00000000       0.031
  -0.02883506  0.02480159  0.00000000       0.031
  -0.02883506  0.04960317  0.00000000       0.016
  -0.02162630  0.06200397  0.00000000       0.031
  -0.01441753  0.07440476  0.00000000       0.031
  -0.00720876  0.08680556  0.00000000       0.031
   0.00000000  0.09920635  0.00000000       0.016
 
 k-points in reciprocal lattice and weights: K-POINTS 	#supercell of CrS2 in hexagona
   0.00000000  0.00000000  0.00000000       0.016
   0.12500000  0.00000000  0.00000000       0.031
   0.25000000  0.00000000  0.00000000       0.031
   0.37500000  0.00000000  0.00000000       0.031
   0.50000000  0.00000000  0.00000000       0.016
   0.00000000  0.12500000  0.00000000       0.031
   0.12500000  0.12500000  0.00000000       0.031
   0.25000000  0.12500000  0.00000000       0.031
   0.37500000  0.12500000  0.00000000       0.031
   0.50000000  0.12500000  0.00000000       0.031
  -0.37500000  0.12500000  0.00000000       0.031
  -0.25000000  0.12500000  0.00000000       0.031
  -0.12500000  0.12500000  0.00000000       0.031
   0.00000000  0.25000000  0.00000000       0.031
   0.12500000  0.25000000  0.00000000       0.031
   0.25000000  0.25000000  0.00000000       0.031
   0.37500000  0.25000000  0.00000000       0.031
   0.50000000  0.25000000  0.00000000       0.031
  -0.37500000  0.25000000  0.00000000       0.031
  -0.25000000  0.25000000  0.00000000       0.031
  -0.12500000  0.25000000  0.00000000       0.031
  -0.00000000  0.37500000  0.00000000       0.031
   0.12500000  0.37500000  0.00000000       0.031
   0.25000000  0.37500000  0.00000000       0.031
   0.37500000  0.37500000  0.00000000       0.031
   0.50000000  0.37500000  0.00000000       0.031
  -0.37500000  0.37500000  0.00000000       0.031
  -0.25000000  0.37500000  0.00000000       0.031
  -0.12500000  0.37500000  0.00000000       0.031
   0.00000000  0.50000000  0.00000000       0.016
   0.12500000  0.50000000  0.00000000       0.031
   0.25000000  0.50000000  0.00000000       0.031
   0.37500000  0.50000000  0.00000000       0.031
   0.50000000  0.50000000  0.00000000       0.016
 
 position of ions in fractional coordinates (direct lattice) 
   0.33333334  0.33333334  0.00000000
   0.33333334  0.00000000  0.00000000
   0.66666669  0.33333334  0.00000000
   0.00000000  0.00000000  0.00000000
   0.66666669  0.66666669  0.00000000
   0.66666669  0.00000000  0.00000000
   1.00000000  0.33333334  0.00000000
   0.00000000  0.66666669  0.00000000
   0.33333334  0.66666669  0.00000000
   0.11068511  0.22244981  0.95539999
   0.22244981  0.11068511  0.04460000
   0.11068511  0.55578315  0.95539999
   0.22244981  0.44401845  0.04460000
   0.11068511  0.88911647  0.95539999
   0.22244981  0.77735180  0.04460000
   0.44401845  0.22244981  0.95539999
   0.55578315  0.11068511  0.04460000
   0.44401845  0.55578315  0.95539999
   0.55578315  0.44401845  0.04460000
   0.44401845  0.88911647  0.95539999
   0.55578315  0.77735180  0.04460000
   0.77735180  0.22244981  0.95539999
   0.88911647  0.11068511  0.04460000
   0.77735180  0.55578315  0.95539999
   0.88911647  0.44401845  0.04460000
   0.77735180  0.88911647  0.95539999
   0.88911647  0.77735180  0.04460000
 
 position of ions in cartesian coordinates  (Angst):
   0.00000005  3.36000011  0.00000000
   2.89000007  1.68000002  0.00000000
   2.89000012  5.04000012  0.00000000
   0.00000000  0.00000000  0.00000000
   0.00000009  6.72000022  0.00000000
   5.78000015  3.36000003  0.00000000
   5.77999993  6.71999999  0.00000000
  -5.78000005  3.36000019  0.00000000
  -2.88999998  5.04000020  0.00000000
  -0.96899991  1.67900001 28.66199970
   0.96899995  1.67899998  1.33799996
  -3.85899993  3.35900011 28.66199970
  -1.92100007  3.35900008  1.33799996
  -6.74899970  5.03900005 28.66199970
  -4.81100010  5.03900017  1.33799996
   1.92100017  3.35900003 28.66199970
   3.85900003  3.35900000  1.33799996
  -0.96899986  5.03900012 28.66199970
   0.96900000  5.03900009  1.33799996
  -3.85899963  6.71900006 28.66199970
  -1.92100003  6.71900019  1.33799996
   4.81100024  5.03900004 28.66199970
   6.74899984  5.03899987  1.33799996
   1.92100021  6.71900014 28.66199970
   3.85899981  6.71899996  1.33799996
  -0.96899956  8.39900008 28.66199970
   0.96899979  8.39900005  1.33799996
 


--------------------------------------------------------------------------------------------------------


 k-point  1 :   0.0000 0.0000 0.0000  plane waves:   27959
 k-point  2 :   0.1250 0.0000 0.0000  plane waves:   27889
 k-point  3 :   0.2500 0.0000 0.0000  plane waves:   27875
 k-point  4 :   0.3750 0.0000 0.0000  plane waves:   27893
 k-point  5 :   0.5000 0.0000 0.0000  plane waves:   27932
 k-point  6 :   0.0000 0.1250 0.0000  plane waves:   27889
 k-point  7 :   0.1250 0.1250 0.0000  plane waves:   27906
 k-point  8 :   0.2500 0.1250 0.0000  plane waves:   27898
 k-point  9 :   0.3750 0.1250 0.0000  plane waves:   27888
 k-point 10 :   0.5000 0.1250 0.0000  plane waves:   27873
 k-point 11 :  -0.3750 0.1250 0.0000  plane waves:   27874
 k-point 12 :  -0.2500 0.1250 0.0000  plane waves:   27895
 k-point 13 :  -0.1250 0.1250 0.0000  plane waves:   27879
 k-point 14 :   0.0000 0.2500 0.0000  plane waves:   27875
 k-point 15 :   0.1250 0.2500 0.0000  plane waves:   27898
 k-point 16 :   0.2500 0.2500 0.0000  plane waves:   27920
 k-point 17 :   0.3750 0.2500 0.0000  plane waves:   27901
 k-point 18 :   0.5000 0.2500 0.0000  plane waves:   27875
 k-point 19 :  -0.3750 0.2500 0.0000  plane waves:   27894
 k-point 20 :  -0.2500 0.2500 0.0000  plane waves:   27870
 k-point 21 :  -0.1250 0.2500 0.0000  plane waves:   27895
 k-point 22 :  -0.0000 0.3750 0.0000  plane waves:   27893
 k-point 23 :   0.1250 0.3750 0.0000  plane waves:   27888
 k-point 24 :   0.2500 0.3750 0.0000  plane waves:   27901
 k-point 25 :   0.3750 0.3750 0.0000  plane waves:   27860
 k-point 26 :   0.5000 0.3750 0.0000  plane waves:   27895
 k-point 27 :  -0.3750 0.3750 0.0000  plane waves:   27858
 k-point 28 :  -0.2500 0.3750 0.0000  plane waves:   27894
 k-point 29 :  -0.1250 0.3750 0.0000  plane waves:   27874
 k-point 30 :   0.0000 0.5000 0.0000  plane waves:   27932
 k-point 31 :   0.1250 0.5000 0.0000  plane waves:   27873
 k-point 32 :   0.2500 0.5000 0.0000  plane waves:   27875
 k-point 33 :   0.3750 0.5000 0.0000  plane waves:   27895
 k-point 34 :   0.5000 0.5000 0.0000  plane waves:   27910

 maximum and minimum number of plane-waves per node :     27959    27858

 maximum number of plane-waves:     27959
 maximum index in each direction: 
   IXMAX=   14   IYMAX=   13   IZMAX=   40
   IXMIN=  -14   IYMIN=  -14   IZMIN=  -40

 WARNING: aliasing errors must be expected set NGX to  58 to avoid them
 WARNING: aliasing errors must be expected set NGY to  56 to avoid them
 WARNING: aliasing errors must be expected set NGZ to 162 to avoid them
 aliasing errors are usually negligible using standard VASP settings
 and one can safely disregard these warnings

 serial   3D FFT for wavefunctions

 total amount of memory used by VASP on root node   650782. kBytes
========================================================================

   base      :      30000. kBytes
   nonl-proj :     559647. kBytes
   fftplans  :       2414. kBytes
   grid      :      12150. kBytes
   one-center:        419. kBytes
   wavefun   :      46152. kBytes
 
     INWAV:  cpu time    0.0000: real time    0.0000
 Broyden mixing: mesh for mixing (old mesh)
   NGX = 27   NGY = 27   NGZ = 81
  (NGX  = 84   NGY  = 84   NGZ  =252)
  gives a total of  59049 points

 initial charge density was supplied:
 charge density of overlapping atoms calculated
 number of electron     159.0000000 magnetization 
 keeping initial charge density in first step


--------------------------------------------------------------------------------------------------------


 Maximum index for augmentation-charges          148 (set IRDMAX)


--------------------------------------------------------------------------------------------------------


 First call to EWALD:  gamma=   0.129
 Maximum number of real-space cells 4x 4x 2
 Maximum number of reciprocal cells 2x 2x 5

 FEWALD executed in parallel
    FEWALD:  cpu time    0.0022: real time    0.0023


----------------------------------------- Iteration    1(   1)  ---------------------------------------


    POTLOK:  cpu time    0.0461: real time    0.0463
    SETDIJ:  cpu time    0.0035: real time    0.0036
     EDDAV:  cpu time   33.3427: real time   33.4262
       DOS:  cpu time    0.0031: real time    0.0034
    --------------------------------------------
      LOOP:  cpu time   33.4024: real time   33.4879

 eigenvalue-minimisations  :  8160
 total energy-change (2. order) : 0.1124503E+04  (-0.3585799E+04)
 number of electron     159.0000000 magnetization 
 augmentation part      159.0000000 magnetization 

 Free energy of the ion-electron system (eV)
  ---------------------------------------------------
  alpha Z        PSCENC =        81.65567618
  Ewald energy   TEWEN  =     41891.17179524
  -Hartree energ DENC   =    -47723.81767230
  -exchange      EXHF   =         0.00000000
  -V(xc)+E(xc)   XCENC  =      -242.92463151
  PAW double counting   =      3467.42045192    -2871.19716117
  entropy T*S    EENTRO =        -0.54530377
  eigenvalues    EBANDS =      -238.70298107
  atomic energy  EATOM  =      6761.44252427
  Solvation  Ediel_sol  =         0.00000000
  ---------------------------------------------------
  free energy    TOTEN  =      1124.50269779 eV

  energy without entropy =     1125.04800156  energy(sigma->0) =     1124.77534967


--------------------------------------------------------------------------------------------------------




----------------------------------------- Iteration    1(   2)  ---------------------------------------


     EDDAV:  cpu time   42.1126: real time   42.2143
       DOS:  cpu time    0.0014: real time    0.0014
    --------------------------------------------
      LOOP:  cpu time   42.1152: real time   42.2244

 eigenvalue-minimisations  : 11360
 total energy-change (2. order) :-0.1128788E+04  (-0.1088146E+04)
 number of electron     159.0000000 magnetization 
 augmentation part      159.0000000 magnetization 

 Free energy of the ion-electron system (eV)
  ---------------------------------------------------
  alpha Z        PSCENC =        81.65567618
  Ewald energy   TEWEN  =     41891.17179524
  -Hartree energ DENC   =    -47723.81767230
  -exchange      EXHF   =         0.00000000
  -V(xc)+E(xc)   XCENC  =      -242.92463151
  PAW double counting   =      3467.42045192    -2871.19716117
  entropy T*S    EENTRO =        -0.21348196
  eigenvalues    EBANDS =     -1367.82322769
  atomic energy  EATOM  =      6761.44252427
  Solvation  Ediel_sol  =         0.00000000
  ---------------------------------------------------
  free energy    TOTEN  =        -4.28572702 eV

  energy without entropy =       -4.07224506  energy(sigma->0) =       -4.17898604


--------------------------------------------------------------------------------------------------------




----------------------------------------- Iteration    1(   3)  ---------------------------------------


     EDDAV:  cpu time   39.7612: real time   39.8565
       DOS:  cpu time    0.0019: real time    0.0019
    --------------------------------------------
      LOOP:  cpu time   39.7644: real time   39.8668

 eigenvalue-minimisations  : 10960
 total energy-change (2. order) :-0.1957719E+03  (-0.1884214E+03)
 number of electron     159.0000000 magnetization 
 augmentation part      159.0000000 magnetization 

 Free energy of the ion-electron system (eV)
  ---------------------------------------------------
  alpha Z        PSCENC =        81.65567618
  Ewald energy   TEWEN  =     41891.17179524
  -Hartree energ DENC   =    -47723.81767230
  -exchange      EXHF   =         0.00000000
  -V(xc)+E(xc)   XCENC  =      -242.92463151
  PAW double counting   =      3467.42045192    -2871.19716117
  entropy T*S    EENTRO =        -0.29103290
  eigenvalues    EBANDS =     -1563.51753042
  atomic energy  EATOM  =      6761.44252427
  Solvation  Ediel_sol  =         0.00000000
  ---------------------------------------------------
  free energy    TOTEN  =      -200.05758069 eV

  energy without entropy =     -199.76654779  energy(sigma->0) =     -199.91206424


--------------------------------------------------------------------------------------------------------




----------------------------------------- Iteration    1(   4)  ---------------------------------------


     EDDAV:  cpu time   43.1791: real time   43.2830
       DOS:  cpu time    0.0016: real time    0.0016
    --------------------------------------------
      LOOP:  cpu time   43.1820: real time   43.2941

 eigenvalue-minimisations  : 12240
 total energy-change (2. order) :-0.8880906E+01  (-0.8624565E+01)
 number of electron     159.0000000 magnetization 
 augmentation part      159.0000000 magnetization 

 Free energy of the ion-electron system (eV)
  ---------------------------------------------------
  alpha Z        PSCENC =        81.65567618
  Ewald energy   TEWEN  =     41891.17179524
  -Hartree energ DENC   =    -47723.81767230
  -exchange      EXHF   =         0.00000000
  -V(xc)+E(xc)   XCENC  =      -242.92463151
  PAW double counting   =      3467.42045192    -2871.19716117
  entropy T*S    EENTRO =        -0.32053496
  eigenvalues    EBANDS =     -1572.36893404
  atomic energy  EATOM  =      6761.44252427
  Solvation  Ediel_sol  =         0.00000000
  ---------------------------------------------------
  free energy    TOTEN  =      -208.93848637 eV

  energy without entropy =     -208.61795140  energy(sigma->0) =     -208.77821889


--------------------------------------------------------------------------------------------------------




----------------------------------------- Iteration    1(   5)  ---------------------------------------


     EDDAV:  cpu time   39.8947: real time   39.9915
       DOS:  cpu time    0.0016: real time    0.0016
    CHARGE:  cpu time    0.5276: real time    0.5290
    MIXING:  cpu time    0.0028: real time    0.0029
    --------------------------------------------
      LOOP:  cpu time   40.4278: real time   40.5339

 eigenvalue-minimisations  : 11120
 total energy-change (2. order) :-0.2871670E+00  (-0.2863458E+00)
 number of electron     159.0000110 magnetization 
 augmentation part       -9.8080166 magnetization 

 Broyden mixing:
  rms(total) = 0.27436E+01    rms(broyden)= 0.27432E+01
  rms(prec ) = 0.29281E+01
  weight for this iteration     100.00

 Free energy of the ion-electron system (eV)
  ---------------------------------------------------
  alpha Z        PSCENC =        81.65567618
  Ewald energy   TEWEN  =     41891.17179524
  -Hartree energ DENC   =    -47723.81767230
  -exchange      EXHF   =         0.00000000
  -V(xc)+E(xc)   XCENC  =      -242.92463151
  PAW double counting   =      3467.42045192    -2871.19716117
  entropy T*S    EENTRO =        -0.31748828
  eigenvalues    EBANDS =     -1572.65914771
  atomic energy  EATOM  =      6761.44252427
  Solvation  Ediel_sol  =         0.00000000
  ---------------------------------------------------
  free energy    TOTEN  =      -209.22565336 eV

  energy without entropy =     -208.90816508  energy(sigma->0) =     -209.06690922


--------------------------------------------------------------------------------------------------------




----------------------------------------- Iteration    1(   6)  ---------------------------------------


    POTLOK:  cpu time    0.0426: real time    0.0438
    SETDIJ:  cpu time    0.0032: real time    0.0032
     EDDAV:  cpu time   43.8726: real time   43.9784
       DOS:  cpu time    0.0017: real time    0.0017
    CHARGE:  cpu time    0.5379: real time    0.5392
    MIXING:  cpu time    0.0029: real time    0.0030
    --------------------------------------------
      LOOP:  cpu time   44.4631: real time   44.5791

 eigenvalue-minimisations  : 12400
 total energy-change (2. order) :-0.2749483E+02  (-0.1123242E+02)
 number of electron     159.0000105 magnetization 
 augmentation part        7.0933133 magnetization 

 Broyden mixing:
  rms(total) = 0.59218E+01    rms(broyden)= 0.59211E+01
  rms(prec ) = 0.65291E+01
  weight for this iteration     100.00

 eigenvalues of (default mixing * dielectric matrix)
  average eigenvalue GAMMA=   0.2940
  0.2940

 Free energy of the ion-electron system (eV)
  ---------------------------------------------------
  alpha Z        PSCENC =        81.65567618
  Ewald energy   TEWEN  =     41891.17179524
  -Hartree energ DENC   =    -47701.72035552
  -exchange      EXHF   =         0.00000000
  -V(xc)+E(xc)   XCENC  =      -233.61332756
  PAW double counting   =      3675.77838484    -3081.88314555
  entropy T*S    EENTRO =        -0.25622911
  eigenvalues    EBANDS =     -1629.29580172
  atomic energy  EATOM  =      6761.44252427
  Solvation  Ediel_sol  =         0.00000000
  ---------------------------------------------------
  free energy    TOTEN  =      -236.72047893 eV

  energy without entropy =     -236.46424982  energy(sigma->0) =     -236.59236438


--------------------------------------------------------------------------------------------------------




----------------------------------------- Iteration    1(   7)  ---------------------------------------


    POTLOK:  cpu time    0.0401: real time    0.0401
    SETDIJ:  cpu time    0.0030: real time    0.0030
     EDDAV:  cpu time   47.1170: real time   47.2308
       DOS:  cpu time    0.0019: real time    0.0019
    CHARGE:  cpu time    0.5459: real time    0.5472
    MIXING:  cpu time    0.0015: real time    0.0015
    --------------------------------------------
      LOOP:  cpu time   47.7107: real time   47.8352

 eigenvalue-minimisations  : 13560
 total energy-change (2. order) : 0.3987269E+02  (-0.1768315E+02)
 number of electron     159.0000086 magnetization 
 augmentation part       -6.2257939 magnetization 

 Broyden mixing:
  rms(total) = 0.20359E+01    rms(broyden)= 0.20340E+01
  rms(prec ) = 0.22632E+01
  weight for this iteration     100.00

 eigenvalues of (default mixing * dielectric matrix)
  average eigenvalue GAMMA=   0.5421
  0.8740  0.2102

 Free energy of the ion-electron system (eV)
  ---------------------------------------------------
  alpha Z        PSCENC =        81.65567618
  Ewald energy   TEWEN  =     41891.17179524
  -Hartree energ DENC   =    -47738.99841651
  -exchange      EXHF   =         0.00000000
  -V(xc)+E(xc)   XCENC  =      -234.99276024
  PAW double counting   =      3763.58135255    -3177.61789547
  entropy T*S    EENTRO =        -0.32034496
  eigenvalues    EBANDS =     -1542.76972154
  atomic energy  EATOM  =      6761.44252427
  Solvation  Ediel_sol  =         0.00000000
  ---------------------------------------------------
  free energy    TOTEN  =      -196.84779048 eV

  energy without entropy =     -196.52744552  energy(sigma->0) =     -196.68761800


--------------------------------------------------------------------------------------------------------




----------------------------------------- Iteration    1(   8)  ---------------------------------------


    POTLOK:  cpu time    0.0444: real time    0.0458
    SETDIJ:  cpu time    0.0032: real time    0.0032
     EDDAV:  cpu time   42.8450: real time   42.9495
       DOS:  cpu time    0.0020: real time    0.0020
    CHARGE:  cpu time    0.5513: real time    0.5526
    MIXING:  cpu time    0.0015: real time    0.0015
    --------------------------------------------
      LOOP:  cpu time   43.4507: real time   43.9763

 eigenvalue-minimisations  : 12000
 total energy-change (2. order) : 0.6875513E+01  (-0.1784851E+01)
 number of electron     159.0000095 magnetization 
 augmentation part       -6.4889613 magnetization 

 Broyden mixing:
  rms(total) = 0.13447E+01    rms(broyden)= 0.13443E+01
  rms(prec ) = 0.14640E+01
  weight for this iteration     100.00

 eigenvalues of (default mixing * dielectric matrix)
  average eigenvalue GAMMA=   0.5410
  1.0701  0.2413  0.3115

 Free energy of the ion-electron system (eV)
  ---------------------------------------------------
  alpha Z        PSCENC =        81.65567618
  Ewald energy   TEWEN  =     41891.17179524
  -Hartree energ DENC   =    -47762.23734465
  -exchange      EXHF   =         0.00000000
  -V(xc)+E(xc)   XCENC  =      -235.02964012
  PAW double counting   =      3904.63336330    -3320.29209649
  entropy T*S    EENTRO =        -0.31033018
  eigenvalues    EBANDS =     -1511.00622549
  atomic energy  EATOM  =      6761.44252427
  Solvation  Ediel_sol  =         0.00000000
  ---------------------------------------------------
  free energy    TOTEN  =      -189.97227794 eV

  energy without entropy =     -189.66194776  energy(sigma->0) =     -189.81711285


--------------------------------------------------------------------------------------------------------




----------------------------------------- Iteration    1(   9)  ---------------------------------------


    POTLOK:  cpu time    0.0404: real time    0.0405
    SETDIJ:  cpu time    0.0030: real time    0.0030
     EDDAV:  cpu time   44.2870: real time   44.3947
       DOS:  cpu time    0.0013: real time    0.0013
    CHARGE:  cpu time    0.5736: real time    0.5750
    MIXING:  cpu time    0.0015: real time    0.0015
    --------------------------------------------
      LOOP:  cpu time   44.9082: real time   45.0265

 eigenvalue-minimisations  : 12600
 total energy-change (2. order) : 0.1728999E+01  (-0.3381215E+00)
 number of electron     159.0000091 magnetization 
 augmentation part       -5.7122846 magnetization 

 Broyden mixing:
  rms(total) = 0.95004E+00    rms(broyden)= 0.94979E+00
  rms(prec ) = 0.10238E+01
  weight for this iteration     100.00

 eigenvalues of (default mixing * dielectric matrix)
  average eigenvalue GAMMA=   0.7351
  1.8022  0.6139  0.2201  0.3043

 Free energy of the ion-electron system (eV)
  ---------------------------------------------------
  alpha Z        PSCENC =        81.65567618
  Ewald energy   TEWEN  =     41891.17179524
  -Hartree energ DENC   =    -47766.09780246
  -exchange      EXHF   =         0.00000000
  -V(xc)+E(xc)   XCENC  =      -234.30498476
  PAW double counting   =      3963.40555564    -3379.77367118
  entropy T*S    EENTRO =        -0.34655231
  eigenvalues    EBANDS =     -1505.39581964
  atomic energy  EATOM  =      6761.44252427
  Solvation  Ediel_sol  =         0.00000000
  ---------------------------------------------------
  free energy    TOTEN  =      -188.24327902 eV

  energy without entropy =     -187.89672670  energy(sigma->0) =     -188.07000286


--------------------------------------------------------------------------------------------------------




----------------------------------------- Iteration    1(  10)  ---------------------------------------


    POTLOK:  cpu time    0.0408: real time    0.0409
    SETDIJ:  cpu time    0.0030: real time    0.0030
     EDDAV:  cpu time   46.1839: real time   46.2957
       DOS:  cpu time    0.0014: real time    0.0014
    CHARGE:  cpu time    0.5742: real time    0.5756
    MIXING:  cpu time    0.0017: real time    0.0017
    --------------------------------------------
      LOOP:  cpu time   46.8064: real time   46.9279

 eigenvalue-minimisations  : 13240
 total energy-change (2. order) : 0.1329948E+01  (-0.1714019E+00)
 number of electron     159.0000092 magnetization 
 augmentation part       -4.2717248 magnetization 

 Broyden mixing:
  rms(total) = 0.19920E+00    rms(broyden)= 0.19877E+00
  rms(prec ) = 0.20621E+00
  weight for this iteration     100.00

 eigenvalues of (default mixing * dielectric matrix)
  average eigenvalue GAMMA=   0.9533
  1.8066  1.8066  0.6379  0.2210  0.2944

 Free energy of the ion-electron system (eV)
  ---------------------------------------------------
  alpha Z        PSCENC =        81.65567618
  Ewald energy   TEWEN  =     41891.17179524
  -Hartree energ DENC   =    -47780.45446725
  -exchange      EXHF   =         0.00000000
  -V(xc)+E(xc)   XCENC  =      -232.58144806
  PAW double counting   =      4105.27101478    -3523.41286202
  entropy T*S    EENTRO =        -0.35260133
  eigenvalues    EBANDS =     -1489.65296284
  atomic energy  EATOM  =      6761.44252427
  Solvation  Ediel_sol  =         0.00000000
  ---------------------------------------------------
  free energy    TOTEN  =      -186.91333102 eV

  energy without entropy =     -186.56072969  energy(sigma->0) =     -186.73703036


--------------------------------------------------------------------------------------------------------




----------------------------------------- Iteration    1(  11)  ---------------------------------------


    POTLOK:  cpu time    0.0420: real time    0.0421
    SETDIJ:  cpu time    0.0035: real time    0.0035
     EDDAV:  cpu time   46.7767: real time   46.8897
       DOS:  cpu time    0.0015: real time    0.0015
    CHARGE:  cpu time    0.5899: real time    0.5914
    MIXING:  cpu time    0.0015: real time    0.0015
    --------------------------------------------
      LOOP:  cpu time   47.4165: real time   47.5404

 eigenvalue-minimisations  : 13440
 total energy-change (2. order) :-0.9754990E-02  (-0.4051488E-01)
 number of electron     159.0000087 magnetization 
 augmentation part       -4.6295355 magnetization 

 Broyden mixing:
  rms(total) = 0.30189E+00    rms(broyden)= 0.30183E+00
  rms(prec ) = 0.33423E+00
  weight for this iteration     100.00

 eigenvalues of (default mixing * dielectric matrix)
  average eigenvalue GAMMA=   0.9393
  2.1176  1.7679  0.6161  0.6161  0.2206  0.2975

 Free energy of the ion-electron system (eV)
  ---------------------------------------------------
  alpha Z        PSCENC =        81.65567618
  Ewald energy   TEWEN  =     41891.17179524
  -Hartree energ DENC   =    -47795.11654752
  -exchange      EXHF   =         0.00000000
  -V(xc)+E(xc)   XCENC  =      -232.12036027
  PAW double counting   =      4172.48700515    -3590.74104020
  entropy T*S    EENTRO =        -0.33457901
  eigenvalues    EBANDS =     -1475.36755985
  atomic energy  EATOM  =      6761.44252427
  Solvation  Ediel_sol  =         0.00000000
  ---------------------------------------------------
  free energy    TOTEN  =      -186.92308601 eV

  energy without entropy =     -186.58850700  energy(sigma->0) =     -186.75579651


--------------------------------------------------------------------------------------------------------




----------------------------------------- Iteration    1(  12)  ---------------------------------------


    POTLOK:  cpu time    0.0404: real time    0.0406
    SETDIJ:  cpu time    0.0031: real time    0.0031
     EDDAV:  cpu time   42.5774: real time   42.6792
       DOS:  cpu time    0.0016: real time    0.0016
    CHARGE:  cpu time    0.5743: real time    0.5757
    MIXING:  cpu time    0.0017: real time    0.0018
    --------------------------------------------
      LOOP:  cpu time   43.2000: real time   43.3123

 eigenvalue-minimisations  : 12000
 total energy-change (2. order) :-0.4869779E-02  (-0.3725208E-01)
 number of electron     159.0000089 magnetization 
 augmentation part       -4.2166821 magnetization 

 Broyden mixing:
  rms(total) = 0.37999E+00    rms(broyden)= 0.37980E+00
  rms(prec ) = 0.41856E+00
  weight for this iteration     100.00

 eigenvalues of (default mixing * dielectric matrix)
  average eigenvalue GAMMA=   0.8629
  2.2697  1.6932  0.7883  0.6432  0.2207  0.2968  0.1283

 Free energy of the ion-electron system (eV)
  ---------------------------------------------------
  alpha Z        PSCENC =        81.65567618
  Ewald energy   TEWEN  =     41891.17179524
  -Hartree energ DENC   =    -47800.41583312
  -exchange      EXHF   =         0.00000000
  -V(xc)+E(xc)   XCENC  =      -231.95062470
  PAW double counting   =      4187.27776661    -3605.48324957
  entropy T*S    EENTRO =        -0.34089371
  eigenvalues    EBANDS =     -1470.28511699
  atomic energy  EATOM  =      6761.44252427
  Solvation  Ediel_sol  =         0.00000000
  ---------------------------------------------------
  free energy    TOTEN  =      -186.92795579 eV

  energy without entropy =     -186.58706209  energy(sigma->0) =     -186.75750894


--------------------------------------------------------------------------------------------------------




----------------------------------------- Iteration    1(  13)  ---------------------------------------


    POTLOK:  cpu time    0.0401: real time    0.0412
    SETDIJ:  cpu time    0.0033: real time    0.0033
     EDDAV:  cpu time   44.4077: real time   44.5151
       DOS:  cpu time    0.0019: real time    0.0019
    CHARGE:  cpu time    0.5719: real time    0.5733
    MIXING:  cpu time    0.0017: real time    0.0017
    --------------------------------------------
      LOOP:  cpu time   45.0289: real time   45.1465

 eigenvalue-minimisations  : 12640
 total energy-change (2. order) : 0.1044809E+00  (-0.2538181E-01)
 number of electron     159.0000089 magnetization 
 augmentation part       -4.1129520 magnetization 

 Broyden mixing:
  rms(total) = 0.87865E-01    rms(broyden)= 0.87441E-01
  rms(prec ) = 0.98373E-01
  weight for this iteration     100.00

 eigenvalues of (default mixing * dielectric matrix)
  average eigenvalue GAMMA=   0.8102
  2.2743  1.7173  0.8561  0.6283  0.2206  0.2976  0.3702  0.1175

 Free energy of the ion-electron system (eV)
  ---------------------------------------------------
  alpha Z        PSCENC =        81.65567618
  Ewald energy   TEWEN  =     41891.17179524
  -Hartree energ DENC   =    -47802.87426218
  -exchange      EXHF   =         0.00000000
  -V(xc)+E(xc)   XCENC  =      -231.88324104
  PAW double counting   =      4191.72226621    -3609.89729072
  entropy T*S    EENTRO =        -0.34550399
  eigenvalues    EBANDS =     -1467.81543886
  atomic energy  EATOM  =      6761.44252427
  Solvation  Ediel_sol  =         0.00000000
  ---------------------------------------------------
  free energy    TOTEN  =      -186.82347491 eV

  energy without entropy =     -186.47797092  energy(sigma->0) =     -186.65072291


--------------------------------------------------------------------------------------------------------




----------------------------------------- Iteration    1(  14)  ---------------------------------------


    POTLOK:  cpu time    0.0403: real time    0.0405
    SETDIJ:  cpu time    0.0031: real time    0.0031
     EDDAV:  cpu time   44.6070: real time   44.7145
       DOS:  cpu time    0.0019: real time    0.0019
    CHARGE:  cpu time    0.5902: real time    0.5917
    MIXING:  cpu time    0.0021: real time    0.0021
    --------------------------------------------
      LOOP:  cpu time   45.2459: real time   45.3643

 eigenvalue-minimisations  : 12680
 total energy-change (2. order) : 0.7012375E-02  (-0.1566965E-02)
 number of electron     159.0000089 magnetization 
 augmentation part       -4.1427852 magnetization 

 Broyden mixing:
  rms(total) = 0.48782E-01    rms(broyden)= 0.48737E-01
  rms(prec ) = 0.55274E-01
  weight for this iteration     100.00

 eigenvalues of (default mixing * dielectric matrix)
  average eigenvalue GAMMA=   0.8343
  2.2617  1.8885  1.1496  0.6601  0.6601  0.2968  0.2206  0.2539  0.1177

 Free energy of the ion-electron system (eV)
  ---------------------------------------------------
  alpha Z        PSCENC =        81.65567618
  Ewald energy   TEWEN  =     41891.17179524
  -Hartree energ DENC   =    -47804.86057553
  -exchange      EXHF   =         0.00000000
  -V(xc)+E(xc)   XCENC  =      -231.85700590
  PAW double counting   =      4192.47839484    -3610.62456323
  entropy T*S    EENTRO =        -0.34536191
  eigenvalues    EBANDS =     -1465.87734648
  atomic energy  EATOM  =      6761.44252427
  Solvation  Ediel_sol  =         0.00000000
  ---------------------------------------------------
  free energy    TOTEN  =      -186.81646253 eV

  energy without entropy =     -186.47110062  energy(sigma->0) =     -186.64378158


--------------------------------------------------------------------------------------------------------




----------------------------------------- Iteration    1(  15)  ---------------------------------------


    POTLOK:  cpu time    0.0419: real time    0.0420
    SETDIJ:  cpu time    0.0030: real time    0.0030
     EDDAV:  cpu time   45.4416: real time   45.5503
       DOS:  cpu time    0.0016: real time    0.0016
    CHARGE:  cpu time    0.5715: real time    0.5729
    MIXING:  cpu time    0.0020: real time    0.0020
    --------------------------------------------
      LOOP:  cpu time   46.0630: real time   46.1821

 eigenvalue-minimisations  : 13000
 total energy-change (2. order) : 0.9942369E-03  (-0.1200266E-02)
 number of electron     159.0000089 magnetization 
 augmentation part       -4.2060482 magnetization 

 Broyden mixing:
  rms(total) = 0.54905E-01    rms(broyden)= 0.54876E-01
  rms(prec ) = 0.61193E-01
  weight for this iteration     100.00

 eigenvalues of (default mixing * dielectric matrix)
  average eigenvalue GAMMA=   0.8083
  2.1632  2.1632  1.3012  0.6841  0.6841  0.2206  0.2953  0.2953  0.1175  0.1588

 Free energy of the ion-electron system (eV)
  ---------------------------------------------------
  alpha Z        PSCENC =        81.65567618
  Ewald energy   TEWEN  =     41891.17179524
  -Hartree energ DENC   =    -47809.20022504
  -exchange      EXHF   =         0.00000000
  -V(xc)+E(xc)   XCENC  =      -231.80217060
  PAW double counting   =      4193.58420003    -3611.67278906
  entropy T*S    EENTRO =        -0.34420798
  eigenvalues    EBANDS =     -1461.65027134
  atomic energy  EATOM  =      6761.44252427
  Solvation  Ediel_sol  =         0.00000000
  ---------------------------------------------------
  free energy    TOTEN  =      -186.81546830 eV

  energy without entropy =     -186.47126031  energy(sigma->0) =     -186.64336431


--------------------------------------------------------------------------------------------------------




----------------------------------------- Iteration    1(  16)  ---------------------------------------


    POTLOK:  cpu time    0.0406: real time    0.0407
    SETDIJ:  cpu time    0.0032: real time    0.0032
     EDDAV:  cpu time   45.6306: real time   45.7411
       DOS:  cpu time    0.0019: real time    0.0019
    CHARGE:  cpu time    0.5769: real time    0.5783
    MIXING:  cpu time    0.0021: real time    0.0021
    --------------------------------------------
      LOOP:  cpu time   46.2565: real time   46.3767

 eigenvalue-minimisations  : 13000
 total energy-change (2. order) : 0.1762435E-02  (-0.9301837E-03)
 number of electron     159.0000089 magnetization 
 augmentation part       -4.2199688 magnetization 

 Broyden mixing:
  rms(total) = 0.31456E-01    rms(broyden)= 0.31419E-01
  rms(prec ) = 0.35808E-01
  weight for this iteration     100.00

 eigenvalues of (default mixing * dielectric matrix)
  average eigenvalue GAMMA=   0.8486
  2.3326  2.3326  1.3565  1.0071  0.6450  0.6450  0.2971  0.2206  0.2560  0.1172
  0.1248

 Free energy of the ion-electron system (eV)
  ---------------------------------------------------
  alpha Z        PSCENC =        81.65567618
  Ewald energy   TEWEN  =     41891.17179524
  -Hartree energ DENC   =    -47811.30690619
  -exchange      EXHF   =         0.00000000
  -V(xc)+E(xc)   XCENC  =      -231.77635222
  PAW double counting   =      4194.00965703    -3612.07367303
  entropy T*S    EENTRO =        -0.34399754
  eigenvalues    EBANDS =     -1459.59242960
  atomic energy  EATOM  =      6761.44252427
  Solvation  Ediel_sol  =         0.00000000
  ---------------------------------------------------
  free energy    TOTEN  =      -186.81370586 eV

  energy without entropy =     -186.46970833  energy(sigma->0) =     -186.64170709


--------------------------------------------------------------------------------------------------------




----------------------------------------- Iteration    1(  17)  ---------------------------------------


    POTLOK:  cpu time    0.0403: real time    0.0404
    SETDIJ:  cpu time    0.0029: real time    0.0029
     EDDAV:  cpu time   44.1737: real time   44.2804
       DOS:  cpu time    0.0017: real time    0.0017
    CHARGE:  cpu time    0.5898: real time    0.5912
    MIXING:  cpu time    0.0023: real time    0.0023
    --------------------------------------------
      LOOP:  cpu time   44.8119: real time   44.9287

 eigenvalue-minimisations  : 12600
 total energy-change (2. order) : 0.1259463E-02  (-0.2564323E-03)
 number of electron     159.0000089 magnetization 
 augmentation part       -4.1943332 magnetization 

 Broyden mixing:
  rms(total) = 0.87398E-02    rms(broyden)= 0.87171E-02
  rms(prec ) = 0.11907E-01
  weight for this iteration     100.00

 eigenvalues of (default mixing * dielectric matrix)
  average eigenvalue GAMMA=   0.8368
  2.3656  2.3656  1.3526  1.1305  0.6651  0.6651  0.4836  0.2970  0.2206  0.2540
  0.1173  0.1243

 Free energy of the ion-electron system (eV)
  ---------------------------------------------------
  alpha Z        PSCENC =        81.65567618
  Ewald energy   TEWEN  =     41891.17179524
  -Hartree energ DENC   =    -47815.66218672
  -exchange      EXHF   =         0.00000000
  -V(xc)+E(xc)   XCENC  =      -231.72733254
  PAW double counting   =      4194.43828889    -3612.46220158
  entropy T*S    EENTRO =        -0.34443463
  eigenvalues    EBANDS =     -1455.32457551
  atomic energy  EATOM  =      6761.44252427
  Solvation  Ediel_sol  =         0.00000000
  ---------------------------------------------------
  free energy    TOTEN  =      -186.81244640 eV

  energy without entropy =     -186.46801177  energy(sigma->0) =     -186.64022909


--------------------------------------------------------------------------------------------------------




----------------------------------------- Iteration    1(  18)  ---------------------------------------


    POTLOK:  cpu time    0.0431: real time    0.0432
    SETDIJ:  cpu time    0.0030: real time    0.0030
     EDDAV:  cpu time   39.9061: real time   40.0023
       DOS:  cpu time    0.0018: real time    0.0018
    --------------------------------------------
      LOOP:  cpu time   39.9553: real time   40.0611

 eigenvalue-minimisations  : 11120
 total energy-change (2. order) : 0.2204455E-04  (-0.6467582E-04)
 number of electron     159.0000089 magnetization 
 augmentation part       -4.1943332 magnetization 

 Free energy of the ion-electron system (eV)
  ---------------------------------------------------
  alpha Z        PSCENC =        81.65567618
  Ewald energy   TEWEN  =     41891.17179524
  -Hartree energ DENC   =    -47817.82596711
  -exchange      EXHF   =         0.00000000
  -V(xc)+E(xc)   XCENC  =      -231.70641007
  PAW double counting   =      4194.28387651    -3612.29893649
  entropy T*S    EENTRO =        -0.34446074
  eigenvalues    EBANDS =     -1453.19052215
  atomic energy  EATOM  =      6761.44252427
  Solvation  Ediel_sol  =         0.00000000
  ---------------------------------------------------
  free energy    TOTEN  =      -186.81242436 eV

  energy without entropy =     -186.46796362  energy(sigma->0) =     -186.64019399


--------------------------------------------------------------------------------------------------------




 average (electrostatic) potential at core
  the test charge radii are     1.2064  1.2296  1.1823  0.9698
  (the norm of the test charge is              1.0000)
       1 -50.0901       2 -50.0870       3 -50.0871       4 -47.5679       5 -47.5677
       6 -47.5712       7 -50.0012       8 -49.9839       9 -50.0011      10 -95.2520
      11 -95.0536      12 -95.5663      13 -95.3131      14 -95.2484      15 -95.3172
      16 -94.9007      17 -95.0574      18 -95.2511      19 -95.0522      20 -95.2455
      21 -95.3824      22 -95.2450      23 -95.3823      24 -95.2468      25 -95.3159
      26 -95.2892      27 -95.3814
 
 
 
 E-fermi :  -3.4239     XC(G=0):  -2.4981     alpha+bet : -2.1596


 k-point     1 :       0.0000    0.0000    0.0000
  band No.  band energies     occupation 
      1     -18.3536      2.00000
      2     -17.1887      2.00000
      3     -17.1753      2.00000
      4     -17.1518      2.00000
      5     -16.9515      2.00000
      6     -16.9201      2.00000
      7     -16.9065      2.00000
      8     -16.5847      2.00000
      9     -16.4525      2.00000
     10     -16.4514      2.00000
     11     -16.4177      2.00000
     12     -16.4135      2.00000
     13     -16.4122      2.00000
     14     -16.3528      2.00000
     15     -16.2396      2.00000
     16     -16.0055      2.00000
     17     -16.0044      2.00000
     18     -15.7739      2.00000
     19      -9.7115      2.00000
     20      -9.5568      2.00000
     21      -9.5438      2.00000
     22      -9.3412      2.00000
     23      -9.2796      2.00000
     24      -9.2723      2.00000
     25      -9.2287      2.00000
     26      -8.9483      2.00000
     27      -8.8888      2.00000
     28      -8.8761      2.00000
     29      -8.7466      2.00000
     30      -8.7457      2.00000
     31      -8.6956      2.00000
     32      -8.4413      2.00000
     33      -8.4363      2.00000
     34      -8.4094      2.00000
     35      -8.2901      2.00000
     36      -8.2867      2.00000
     37      -8.2775      2.00000
     38      -8.2689      2.00000
     39      -8.2093      2.00000
     40      -8.0402      2.00000
     41      -7.9505      2.00000
     42      -7.9392      2.00000
     43      -7.9245      2.00000
     44      -7.6422      2.00000
     45      -7.6263      2.00000
     46      -7.4891      2.00000
     47      -7.4837      2.00000
     48      -7.3795      2.00000
     49      -7.3127      2.00000
     50      -7.1381      2.00000
     51      -7.1273      2.00000
     52      -6.7146      2.00000
     53      -6.6679      2.00000
     54      -6.6439      2.00000
     55      -6.5787      2.00000
     56      -6.5754      2.00000
     57      -6.5505      2.00000
     58      -5.8390      2.00000
     59      -5.8042      2.00000
     60      -5.7588      2.00000
     61      -5.6673      2.00000
     62      -5.6205      2.00000
     63      -5.6184      2.00000
     64      -5.5343      2.00000
     65      -5.4462      2.00000
     66      -5.4453      2.00000
     67      -5.4028      2.00000
     68      -5.3369      2.00000
     69      -5.3366      2.00000
     70      -5.2016      2.00000
     71      -4.4132      2.00000
     72      -4.4015      2.00000
     73      -4.3412      2.00000
     74      -4.1862      2.00000
     75      -4.1802      2.00000
     76      -3.9997      1.99995
     77      -3.9997      1.99995
     78      -3.9766      1.99991
     79      -3.9521      1.99981
     80      -3.9313      1.99967
     81      -3.3360      0.53415
     82      -3.3349      0.52872
     83      -2.8993      0.00021
     84      -2.7986      0.00001
     85      -2.7589      0.00000
     86      -2.7533      0.00000
     87      -2.6101      0.00000
     88      -2.6094      0.00000
     89      -2.5998      0.00000
     90      -2.4824      0.00000
     91      -2.4092      0.00000
     92      -2.4044      0.00000
     93      -2.2443      0.00000
     94      -2.1905      0.00000
     95      -2.1893      0.00000
     96      -2.1748      0.00000
     97      -1.9629      0.00000
     98      -1.9428      0.00000
     99      -1.9339      0.00000
    100      -0.7662      0.00000
    101      -0.7293      0.00000
    102      -0.7110      0.00000
    103      -0.6491      0.00000
    104      -0.4269      0.00000
    105      -0.3870      0.00000
    106       0.2547      0.00000
    107       0.2597      0.00000
    108       0.3198      0.00000
    109       0.3642      0.00000
    110       0.5459      0.00000
    111       0.5924      0.00000
    112       0.7113      0.00000
    113       0.8421      0.00000
    114       0.8567      0.00000
    115       0.9529      0.00000
    116       1.0107      0.00000
    117       1.0359      0.00000
    118       1.2830      0.00000
    119       1.3545      0.00000
    120       1.9167      0.00000

 k-point     2 :       0.1250    0.0000    0.0000
  band No.  band energies     occupation 
      1     -18.3321      2.00000
      2     -17.3453      2.00000
      3     -17.1821      2.00000
      4     -17.0929      2.00000
      5     -16.9397      2.00000
      6     -16.8910      2.00000
      7     -16.8743      2.00000
      8     -16.5840      2.00000
      9     -16.4871      2.00000
     10     -16.4633      2.00000
     11     -16.4190      2.00000
     12     -16.4065      2.00000
     13     -16.3693      2.00000
     14     -16.3175      2.00000
     15     -16.2443      2.00000
     16     -16.0113      2.00000
     17     -16.0078      2.00000
     18     -15.7786      2.00000
     19      -9.7862      2.00000
     20      -9.6533      2.00000
     21      -9.5862      2.00000
     22      -9.3718      2.00000
     23      -9.2797      2.00000
     24      -9.2408      2.00000
     25      -9.1639      2.00000
     26      -9.0259      2.00000
     27      -8.9408      2.00000
     28      -8.8936      2.00000
     29      -8.7352      2.00000
     30      -8.6367      2.00000
     31      -8.6023      2.00000
     32      -8.4533      2.00000
     33      -8.4156      2.00000
     34      -8.3827      2.00000
     35      -8.3285      2.00000
     36      -8.2817      2.00000
     37      -8.2576      2.00000
     38      -8.2528      2.00000
     39      -8.1871      2.00000
     40      -8.0360      2.00000
     41      -7.9144      2.00000
     42      -7.8651      2.00000
     43      -7.8350      2.00000
     44      -7.6651      2.00000
     45      -7.6196      2.00000
     46      -7.4721      2.00000
     47      -7.4619      2.00000
     48      -7.3453      2.00000
     49      -7.3340      2.00000
     50      -7.1471      2.00000
     51      -7.1294      2.00000
     52      -6.7974      2.00000
     53      -6.7366      2.00000
     54      -6.6895      2.00000
     55      -6.6058      2.00000
     56      -6.4471      2.00000
     57      -6.4156      2.00000
     58      -5.9423      2.00000
     59      -5.9161      2.00000
     60      -5.8341      2.00000
     61      -5.7661      2.00000
     62      -5.6746      2.00000
     63      -5.6707      2.00000
     64      -5.6126      2.00000
     65      -5.5263      2.00000
     66      -5.5169      2.00000
     67      -5.3512      2.00000
     68      -5.2249      2.00000
     69      -5.2052      2.00000
     70      -5.0483      2.00000
     71      -4.5715      2.00000
     72      -4.4892      2.00000
     73      -4.3095      2.00000
     74      -4.1984      2.00000
     75      -4.1620      2.00000
     76      -4.0437      1.99999
     77      -3.9802      1.99992
     78      -3.9394      1.99973
[...]
    104      -0.5758      0.00000
    105      -0.5118      0.00000
    106      -0.4658      0.00000
    107      -0.2864      0.00000
    108      -0.2615      0.00000
    109      -0.0537      0.00000
    110       0.1612      0.00000
    111       0.5454      0.00000
    112       0.6695      0.00000
    113       0.9088      0.00000
    114       0.9690      0.00000
    115       1.0722      0.00000
    116       1.1893      0.00000
    117       1.3665      0.00000
    118       2.1291      0.00000
    119       2.2802      0.00000
    120       2.3902      0.00000

 k-point    34 :       0.5000    0.5000    0.0000
  band No.  band energies     occupation 
      1     -17.4306      2.00000
      2     -17.3376      2.00000
      3     -16.7291      2.00000
      4     -16.6930      2.00000
      5     -16.5212      2.00000
      6     -16.3493      2.00000
      7     -16.2444      2.00000
      8     -16.1983      2.00000
      9     -16.0333      2.00000
     10     -16.0066      2.00000
     11     -15.9171      2.00000
     12     -15.9052      2.00000
     13     -15.7808      2.00000
     14     -15.7286      2.00000
     15     -15.6023      2.00000
     16     -15.5915      2.00000
     17     -15.5114      2.00000
     18     -15.4828      2.00000
     19      -9.7604      2.00000
     20      -9.2848      2.00000
     21      -9.1408      2.00000
     22      -9.0449      2.00000
     23      -8.8975      2.00000
     24      -8.7767      2.00000
     25      -8.5561      2.00000
     26      -8.5333      2.00000
     27      -8.4016      2.00000
     28      -8.3165      2.00000
     29      -8.2804      2.00000
     30      -8.1796      2.00000
     31      -8.0919      2.00000
     32      -8.0171      2.00000
     33      -7.8891      2.00000
     34      -7.8668      2.00000
     35      -7.7528      2.00000
     36      -7.6203      2.00000
     37      -7.4805      2.00000
     38      -7.4331      2.00000
     39      -7.4295      2.00000
     40      -7.1972      2.00000
     41      -7.1319      2.00000
     42      -7.0845      2.00000
     43      -6.9875      2.00000
     44      -6.9327      2.00000
     45      -6.7634      2.00000
     46      -6.7203      2.00000
     47      -6.6995      2.00000
     48      -6.6254      2.00000
     49      -6.5243      2.00000
     50      -6.4240      2.00000
     51      -6.3863      2.00000
     52      -6.3634      2.00000
     53      -6.3391      2.00000
     54      -6.2688      2.00000
     55      -6.1771      2.00000
     56      -6.0370      2.00000
     57      -6.0323      2.00000
     58      -6.0173      2.00000
     59      -5.9466      2.00000
     60      -5.8769      2.00000
     61      -5.7733      2.00000
     62      -5.6847      2.00000
     63      -5.6402      2.00000
     64      -5.4912      2.00000
     65      -5.3291      2.00000
     66      -5.0810      2.00000
     67      -4.9899      2.00000
     68      -4.9649      2.00000
     69      -4.8142      2.00000
     70      -4.6890      2.00000
     71      -4.6455      2.00000
     72      -4.4026      2.00000
     73      -4.3778      2.00000
     74      -4.2969      2.00000
     75      -4.2877      2.00000
     76      -4.1024      2.00000
     77      -3.6685      1.99987
     78      -3.5295      1.99567
     79      -3.2663      1.67860
     80      -3.0951      0.82636
     81      -2.8729      0.07341
     82      -2.7749      0.01302
     83      -2.7545      0.00859
     84      -2.6929      0.00219
     85      -2.6265      0.00041
     86      -2.5498      0.00005
     87      -2.3919      0.00000
     88      -2.0918      0.00000
     89      -1.9751      0.00000
     90      -1.9636      0.00000
     91      -1.8114      0.00000
     92      -1.7487      0.00000
     93      -1.5976      0.00000
     94      -1.4989      0.00000
     95      -1.1974      0.00000
     96      -1.1308      0.00000
     97      -1.0397      0.00000
     98      -0.9391      0.00000
     99      -0.9353      0.00000
    100      -0.7685      0.00000
    101      -0.7619      0.00000
    102      -0.7502      0.00000
    103      -0.6553      0.00000
    104      -0.5769      0.00000
    105      -0.5715      0.00000
    106      -0.5122      0.00000
    107      -0.2526      0.00000
    108      -0.2013      0.00000
    109      -0.0909      0.00000
    110       0.2826      0.00000
    111       0.4195      0.00000
    112       0.6586      0.00000
    113       0.9190      0.00000
    114       0.9902      0.00000
    115       1.0800      0.00000
    116       1.2074      0.00000
    117       1.3947      0.00000
    118       2.2095      0.00000
    119       2.2414      0.00000
    120       2.3581      0.00000


--------------------------------------------------------------------------------------------------------


 soft charge-density along one line, spin component           1
         0         1         2         3         4         5         6         7         8         9
 total charge-density along one line
 
 pseudopotential strength for first ion, spin component:           1
 -7.285  -0.049   0.000   0.000   0.000   0.694   0.014  -0.000
 -0.049  -7.227   0.000  -0.000  -0.000   0.014   0.676  -0.000
  0.000   0.000  -7.184  -0.024  -0.019  -0.000  -0.000   0.665
  0.000  -0.000  -0.024  -7.204  -0.028  -0.000   0.000   0.007
  0.000  -0.000  -0.019  -0.028  -7.288  -0.000   0.000   0.006
  0.694   0.014  -0.000  -0.000  -0.000   0.327  -0.004   0.000
  0.014   0.676  -0.000   0.000   0.000  -0.004   0.333   0.000
 -0.000  -0.000   0.665   0.007   0.006   0.000   0.000   0.335
 -0.000   0.000   0.007   0.669   0.009   0.000  -0.000  -0.002
 -0.000   0.000   0.006   0.009   0.694   0.000  -0.000  -0.002
  0.000  -0.000  -0.016   0.014  -0.005  -0.000   0.000   0.003
  0.000  -0.000  -0.006   0.004  -0.001  -0.000   0.000   0.001
  0.002   0.002   0.000   0.000   0.000  -0.001  -0.000  -0.000
  0.000  -0.000   0.000  -0.000   0.000  -0.000   0.000   0.000
 -0.000   0.000   0.000   0.003  -0.003   0.000  -0.000   0.000
  0.001   0.000   0.000   0.000   0.000  -0.000   0.000  -0.000
  0.000  -0.000  -0.002  -0.001   0.000  -0.000   0.000   0.001
 -0.000   0.000   0.000   0.001  -0.003   0.000  -0.000  -0.000
 total augmentation occupancy for first ion, spin component:           1
  0.840   0.106   0.001   0.000   0.001   0.418   0.236  -0.000   0.000  -0.000   0.000  -0.000   0.068   0.001   0.000   0.002
  0.106   1.115  -0.000   0.000   0.000   0.233   0.601  -0.000   0.000   0.000  -0.000  -0.000   0.048   0.001   0.001   0.002
  0.001  -0.000   0.724  -0.042  -0.062  -0.000  -0.000   0.263   0.006  -0.015   0.169  -0.001   0.001  -0.019  -0.006  -0.000
  0.000   0.000  -0.042   1.078  -0.194   0.000   0.000   0.002   0.633  -0.270  -0.027  -0.005   0.001   0.003   0.047   0.000
  0.001   0.000  -0.062  -0.194   0.789  -0.000   0.000  -0.018  -0.269   0.407   0.001   0.005   0.000  -0.002  -0.045  -0.000
  0.418   0.233  -0.000   0.000  -0.000   0.374   0.211   0.000   0.000   0.000   0.000   0.000   0.017   0.001   0.000   0.003
  0.236   0.601  -0.000   0.000   0.000   0.211   0.539  -0.000   0.000   0.000  -0.000  -0.000   0.040   0.001   0.001   0.003
 -0.000  -0.000   0.263   0.002  -0.018   0.000  -0.000   0.239   0.007  -0.007   0.006   0.003   0.000  -0.007   0.002   0.000
  0.000   0.000   0.006   0.633  -0.269   0.000   0.000   0.007   0.569  -0.243  -0.014  -0.006   0.000  -0.003   0.057   0.000
 -0.000   0.000  -0.015  -0.270   0.407   0.000   0.000  -0.007  -0.243   0.378   0.034   0.004  -0.000   0.008  -0.025  -0.000
  0.000  -0.000   0.169  -0.027   0.001   0.000  -0.000   0.006  -0.014   0.034   1.377   0.130   0.000   0.070   0.009   0.000
 -0.000  -0.000  -0.001  -0.005   0.005   0.000  -0.000   0.003  -0.006   0.004   0.130   0.025   0.000   0.004  -0.001   0.000
  0.068   0.048   0.001   0.001   0.000   0.017   0.040   0.000   0.000  -0.000   0.000   0.000   0.344  -0.000  -0.000   0.025
  0.001   0.001  -0.019   0.003  -0.002   0.001   0.001  -0.007  -0.003   0.008   0.070   0.004  -0.000   0.404  -0.016  -0.000
  0.000   0.001  -0.006   0.047  -0.045   0.000   0.001   0.002   0.057  -0.025   0.009  -0.001  -0.000  -0.016   0.353  -0.000
  0.002   0.002  -0.000   0.000  -0.000   0.003   0.003   0.000   0.000  -0.000   0.000   0.000   0.025  -0.000  -0.000   0.003
  0.000   0.000  -0.000   0.001   0.000   0.000   0.000  -0.001   0.001   0.000   0.003   0.001  -0.000   0.028  -0.001  -0.000
  0.000   0.000  -0.001   0.002   0.000   0.000   0.000  -0.000   0.004  -0.002   0.000  -0.000  -0.000  -0.001   0.027   0.000


------------------------ aborting loop because EDIFF is reached ----------------------------------------


    CHARGE:  cpu time    0.5438: real time    0.5451
    FORLOC:  cpu time    0.0106: real time    0.0106
    FORNL :  cpu time    8.2014: real time    8.2210
    STRESS:  cpu time   48.4220: real time   48.5379
    FORCOR:  cpu time    0.0483: real time    0.0490
    FORHAR:  cpu time    0.0173: real time    0.0174
    MIXING:  cpu time    0.0013: real time    0.0013
    OFIELD:  cpu time    0.0000: real time    0.0000

  FORCE on cell =-STRESS in cart. coord.  units (eV):
  Direction    XX          YY          ZZ          XY          YZ          ZX
  --------------------------------------------------------------------------------------
  Alpha Z    88.20732    88.20732    88.20732
  Ewald   48750.76412 48750.95932-53688.19370    -0.05922     0.00795    -0.20242
  Hartree 49465.63515 49465.77229-49112.46393    -0.03666     0.00424    -0.04518
  E(xc)    -609.93580  -609.94253  -617.03187     0.00115    -0.00152     0.00932
  Local  ************************100242.45590     0.10633    -0.01792     0.27920
  n-local  1214.89019  1214.73550  1250.43225     0.01116    -0.00653    -0.00207
  augment  -212.56448  -212.50925  -215.35095    -0.00512     0.00342    -0.01099
  Kinetic  2013.01067  2013.19930  2049.63877    -0.02109     0.01374    -0.04444
  Fock        0.00000     0.00000     0.00000     0.00000     0.00000     0.00000
  -------------------------------------------------------------------------------------
  Total       0.08501     0.12569    -2.30622    -0.00347     0.00338    -0.01659
  in kB       0.05612     0.08297    -1.52240    -0.00229     0.00223    -0.01095
  external pressure =       -0.46 kB  Pullay stress =        0.00 kB


 VOLUME and BASIS-vectors are now :
 -----------------------------------------------------------------------------
  energy-cutoff  :      280.00
  volume of cell :     2427.07
      direct lattice vectors                 reciprocal lattice vectors
     8.369391444  4.833081555  0.000000000     0.059742423  0.103452066  0.000000000
    -8.369520262  4.833305336  0.000000000    -0.059739657  0.103450474  0.000000000
     0.000000000  0.000000000 30.000000000     0.000000000  0.000000000  0.033333333

  length of vectors
     9.664646422  9.664869885 30.000000000     0.119463330  0.119460568  0.033333333


 FORCES acting on ions
    electron-ion (+dipol)            ewald-force                    non-local-force                 convergence-correction
 -----------------------------------------------------------------------------------------------
   0.572E+00 0.139E+00 -.879E+01   -.554E-01 -.147E+00 0.913E+01   -.527E+00 0.118E-01 -.335E+00   0.311E-01 0.369E-02 -.314E-02
   -.599E+00 0.159E+00 -.931E+01   0.386E+00 0.290E+00 0.965E+01   0.237E+00 -.494E+00 -.338E+00   -.526E-01 0.387E-01 0.223E-02
   -.714E+00 -.921E-01 -.919E+01   0.506E+00 -.363E+00 0.953E+01   0.225E+00 0.495E+00 -.337E+00   -.536E-01 -.335E-01 0.770E-03
   -.160E+02 -.279E+02 0.141E+01   0.157E+02 0.273E+02 -.159E+01   0.289E+00 0.481E+00 0.169E+00   0.240E-01 0.900E-01 0.423E-02
   -.160E+02 0.278E+02 0.146E+01   0.156E+02 -.272E+02 -.164E+01   0.291E+00 -.490E+00 0.170E+00   0.320E-01 -.916E-01 0.392E-02
   0.324E+02 -.941E-02 0.123E+01   -.318E+02 0.476E-02 -.140E+01   -.529E+00 -.247E-02 0.163E+00   -.476E-01 0.623E-02 0.556E-02
   0.174E+02 -.301E+02 0.830E+01   -.177E+02 0.305E+02 -.867E+01   0.255E+00 -.435E+00 0.365E+00   0.194E-01 0.527E-01 0.227E-02
   -.348E+02 -.154E-01 0.828E+01   0.352E+02 0.234E-01 -.865E+01   -.507E+00 -.178E-02 0.365E+00   0.289E-01 -.667E-02 0.118E-02
   0.174E+02 0.301E+02 0.830E+01   -.177E+02 -.305E+02 -.866E+01   0.257E+00 0.435E+00 0.365E+00   0.244E-01 -.576E-01 0.233E-02
   -.595E+01 -.247E+02 0.571E+03   0.514E+01 0.251E+02 -.574E+03   0.772E+00 -.476E+00 0.375E+01   0.409E-01 0.114E+00 0.596E-01
   -.397E+01 -.741E+01 -.532E+03   0.439E+01 0.794E+01 0.536E+03   -.413E+00 -.664E+00 -.341E+01   -.153E-01 0.123E+00 -.741E-01
   -.108E+00 0.132E-01 0.465E+03   0.736E-01 -.720E-02 -.470E+03   0.194E-02 -.941E-04 0.512E+01   0.332E-01 -.604E-02 -.177E-02
   0.152E+02 0.597E-01 -.530E+03   -.143E+02 -.557E-01 0.534E+03   -.103E+01 0.227E-03 -.449E+01   0.104E+00 -.354E-02 -.693E-01
   -.184E+02 -.175E+02 0.571E+03   0.192E+02 0.170E+02 -.575E+03   -.815E+00 0.403E+00 0.376E+01   0.224E-01 0.602E-01 0.376E-02
   -.779E+01 0.131E+02 -.530E+03   0.727E+01 -.122E+02 0.534E+03   0.525E+00 -.913E+00 -.448E+01   -.545E-02 0.248E-01 -.831E-02
   -.309E+00 0.734E-01 0.521E+03   0.370E+00 -.825E-01 -.525E+03   0.123E-01 -.164E-02 0.404E+01   -.729E-01 0.109E-01 0.108E+00
   0.831E+01 -.439E-01 -.531E+03   -.896E+01 0.259E-01 0.534E+03   0.761E+00 0.593E-02 -.344E+01   -.936E-01 0.128E-01 -.209E-01
   -.584E+01 0.247E+02 0.571E+03   0.503E+01 -.251E+02 -.575E+03   0.764E+00 0.484E+00 0.375E+01   0.466E-01 -.117E+00 0.576E-01
   -.403E+01 0.742E+01 -.533E+03   0.444E+01 -.796E+01 0.536E+03   -.411E+00 0.672E+00 -.340E+01   -.905E-03 -.123E+00 -.834E-01
   0.246E+02 0.697E+01 0.570E+03   -.245E+02 -.786E+01 -.574E+03   0.223E-01 0.920E+00 0.376E+01   -.544E-01 -.224E-01 -.303E-02
   0.959E+01 0.164E+02 -.621E+03   -.102E+02 -.173E+02 0.624E+03   0.581E+00 0.964E+00 -.356E+01   -.549E-02 -.538E-01 0.392E-01
   0.246E+02 -.697E+01 0.570E+03   -.245E+02 0.785E+01 -.574E+03   0.166E-01 -.919E+00 0.376E+01   -.622E-01 0.287E-01 0.754E-02
   0.958E+01 -.164E+02 -.621E+03   -.101E+02 0.173E+02 0.624E+03   0.576E+00 -.964E+00 -.356E+01   -.764E-02 0.570E-01 0.338E-01
   -.184E+02 0.174E+02 0.571E+03   0.192E+02 -.169E+02 -.575E+03   -.814E+00 -.396E+00 0.376E+01   0.315E-01 -.702E-01 0.120E-01
   -.785E+01 -.130E+02 -.530E+03   0.734E+01 0.122E+02 0.534E+03   0.523E+00 0.910E+00 -.448E+01   -.876E-02 -.378E-01 -.192E-01
   0.370E-01 -.129E-01 0.634E+03   -.639E-01 0.138E-01 -.638E+03   0.262E-01 -.545E-02 0.349E+01   0.649E-02 0.324E-02 -.605E-01
   -.188E+02 -.339E-01 -.621E+03   0.199E+02 0.388E-01 0.624E+03   -.113E+01 -.519E-02 -.356E+01   0.274E-01 -.187E-03 0.435E-01
 -----------------------------------------------------------------------------------------------
   0.561E-01 -.178E-01 -.143E+01   0.213E-13 0.178E-13 -.227E-12   -.477E-01 0.138E-01 0.140E+01   -.826E-02 0.298E-02 0.439E-01
 
 
 POSITION                                       TOTAL-FORCE (eV/Angst)
 -----------------------------------------------------------------------------------
     -0.02906      3.22298      0.04791         0.020722      0.008125     -0.003023
      2.80023      1.58241      0.05010        -0.028852     -0.006140      0.004172
      2.79916      4.86147      0.04960        -0.037132      0.007247      0.002332
     -0.09331     -0.16320     -0.00967        -0.003432     -0.013636     -0.002778
     -0.09285      6.60500     -0.00982        -0.001125      0.007665     -0.003634
      5.77102      3.22134     -0.00911         0.034307     -0.000848     -0.001032
      5.74122      6.16350     -0.02995         0.006938     -0.011915     -0.000177
     -5.90290      3.22152     -0.02962        -0.011236     -0.000439      0.001959
     -2.62817      5.11261     -0.02988         0.007018      0.011285      0.000046
     -0.87941      1.61146     28.44933         0.001614     -0.008302      0.011292
      0.93451      1.61982      1.42565        -0.007466     -0.006933     -0.006959
     -3.71969      3.22152     28.77102         0.000707     -0.000070      0.045830
     -1.86020      3.22155      1.43283         0.003606      0.000667     -0.020250
     -6.53317      4.87665     28.44836        -0.004031     -0.003207      0.001485
     -4.64958      4.83181      1.43214        -0.002018      0.000577     -0.014316
      1.85997      3.22147     28.59176         0.000062      0.000180     -0.000804
      3.70978      3.22164      1.42132         0.013029      0.000784     -0.032320
     -0.87959      4.83114     28.44857        -0.000390      0.007341      0.008497
      0.93481      4.82302      1.42687        -0.006285      0.006514     -0.000198
     -3.74565      6.48714     28.45078         0.005790      0.009196      0.012374
     -1.84031      6.47698      1.68842         0.004684      0.005668      0.001090
      4.62385      4.78880     28.45093         0.006062     -0.009803      0.014954
      6.52904      4.79915      1.68848         0.004338     -0.005757      0.000535
      1.83648      6.39939     28.44781        -0.002854      0.004371      0.001394
      3.71979      6.44431      1.43250        -0.002970     -0.000876     -0.016214
     -0.92900      8.05440     28.27535         0.005741     -0.001281     -0.006265
      0.89086      8.05457      1.68834        -0.006826     -0.000414      0.002008
 -----------------------------------------------------------------------------------
    total drift:                                0.000136     -0.001046      0.007706


--------------------------------------------------------------------------------------------------------



  FREE ENERGIE OF THE ION-ELECTRON SYSTEM (eV)
  ---------------------------------------------------
  free  energy   TOTEN  =      -192.21133875 eV

  energy  without entropy=     -191.99880425  energy(sigma->0) =     -192.10507150
 
 d Force = 0.2714149E-03[ 0.265E-03, 0.278E-03]  d Energy = 0.2721885E-03-0.774E-06
 d Force =-0.3474735E+01[-0.347E+01,-0.348E+01]  d Ewald  = 0.1296542E+02-0.164E+02


--------------------------------------------------------------------------------------------------------


    POTLOK:  cpu time    0.0454: real time    0.0455


--------------------------------------------------------------------------------------------------------


 Quasi-Newton relaxation of ions (Broydens 2nd method)
  g(Force)  = 0.506E-03   g(Stress)= 0.412E-04

 retain information from N=  1 steps
 eigenvalues of (default step * inverse Hessian matrix)
  average eigenvalue of G=   0.8899
 eigenvalue spectrum of G is  0.8899


--------------------------------------------------------------------------------------------------------


  
 reached required accuracy - stopping structural energy minimisation
     LOOP+:  cpu time  189.1113: real time  189.5865
    4ORBIT:  cpu time    0.0000: real time    0.0000

 total amount of memory used by VASP on root node   650782. kBytes
========================================================================

   base      :      30000. kBytes
   nonl-proj :     559647. kBytes
   fftplans  :       2414. kBytes
   grid      :      12150. kBytes
   one-center:        419. kBytes
   wavefun   :      46152. kBytes
 
  
  
 General timing and accounting informations for this job:
 ========================================================
  
                  Total CPU time used (sec):     6484.801
                            User time (sec):     6380.007
                          System time (sec):      104.794
                         Elapsed time (sec):     6501.753
  
                   Maximum memory used (kb):      736152.
                   Average memory used (kb):           0.
  
                          Minor page faults:       974128
                          Major page faults:            2
                 Voluntary context switches:         3964
