       N       E                     dE             d eps       ncg     rms          rms(c)
DAV:   1     0.112644892389E+04    0.11264E+04   -0.35977E+04  8160   0.577E+02
DAV:   2     0.599893672046E+00   -0.11258E+04   -0.10825E+04 11000   0.173E+02
DAV:   3    -0.199448059951E+03   -0.20005E+03   -0.19170E+03 10920   0.824E+01
DAV:   4    -0.208933883413E+03   -0.94858E+01   -0.91509E+01 12120   0.263E+01
DAV:   5    -0.209276656285E+03   -0.34277E+00   -0.34163E+00 11440   0.365E+00    0.275E+01
DAV:   6    -0.237165262146E+03   -0.27889E+02   -0.10797E+02 12640   0.605E+01    0.594E+01
DAV:   7    -0.196648623603E+03    0.40517E+02   -0.17779E+02 13160   0.152E+02    0.204E+01
DAV:   8    -0.190116057124E+03    0.65326E+01   -0.20488E+01 11720   0.134E+01    0.138E+01
DAV:   9    -0.188313090219E+03    0.18030E+01   -0.35089E+00 12160   0.623E+00    0.939E+00
DAV:  10    -0.187134035593E+03    0.11791E+01   -0.17833E+00 13400   0.756E+00    0.348E+00
DAV:  11    -0.187009506245E+03    0.12453E+00   -0.67714E-01 12640   0.251E+00    0.234E+00
DAV:  12    -0.187016215200E+03   -0.67090E-02   -0.44649E-01 12760   0.308E+00    0.328E+00
DAV:  13    -0.186929831413E+03    0.86384E-01   -0.25450E-01 13200   0.305E+00    0.192E+00
DAV:  14    -0.186900194855E+03    0.29637E-01   -0.10563E-01 12920   0.174E+00    0.900E-01
DAV:  15    -0.186893918279E+03    0.62766E-02   -0.37395E-02 11960   0.896E-01    0.874E-01
DAV:  16    -0.186889786137E+03    0.41321E-02   -0.13997E-02 12640   0.633E-01    0.502E-01
DAV:  17    -0.186887063874E+03    0.27223E-02   -0.73480E-03 12680   0.396E-01    0.176E-01
DAV:  18    -0.186886523470E+03    0.54040E-03   -0.20263E-03 11800   0.152E-01    0.177E-01
DAV:  19    -0.186886282588E+03    0.24088E-03   -0.79238E-04 11080   0.138E-01    0.456E-02
DAV:  20    -0.186887179562E+03   -0.89697E-03   -0.85065E-04  9120   0.565E-02    0.423E-02
DAV:  21    -0.186888049554E+03   -0.86999E-03   -0.22137E-04  8240   0.524E-02    0.359E-02
DAV:  22    -0.186888854888E+03   -0.80533E-03   -0.10107E-04  6760   0.291E-02    0.337E-02
DAV:  23    -0.186890012742E+03   -0.11579E-02   -0.13885E-04  7480   0.410E-02    0.171E-02
DAV:  24    -0.186890590355E+03   -0.57761E-03   -0.26661E-05  6760   0.187E-02    0.442E-03
DAV:  25    -0.186890960541E+03   -0.37019E-03   -0.17006E-05  5520   0.901E-03    0.490E-03
DAV:  26    -0.186891196712E+03   -0.23617E-03   -0.90796E-06  6800   0.727E-03    0.157E-03
DAV:  27    -0.186891285873E+03   -0.89161E-04   -0.31464E-06  7240   0.380E-03
   1 F= -.18689129E+03 E0= -.18672064E+03  d E =-.186891E+03
       N       E                     dE             d eps       ncg     rms          rms(c)
DAV:   1    -0.187534163902E+03   -0.64297E+00   -0.27110E+02  8160   0.350E+01    0.469E+00
DAV:   2    -0.189603927651E+03   -0.20698E+01   -0.20456E+01 12280   0.159E+01    0.101E+01
DAV:   3    -0.189346118728E+03    0.25781E+00   -0.46026E+00 12400   0.126E+01    0.628E+00
DAV:   4    -0.188788963569E+03    0.55716E+00   -0.54369E-01 12520   0.426E+00    0.170E+00
DAV:   5    -0.188901418620E+03   -0.11246E+00   -0.47575E-01 12000   0.355E+00    0.504E+00
DAV:   6    -0.188751209092E+03    0.15021E+00   -0.64194E-01 12600   0.423E+00    0.197E+00
DAV:   7    -0.188740268034E+03    0.10941E-01   -0.14894E-01 11880   0.206E+00    0.195E+00
DAV:   8    -0.188711784341E+03    0.28484E-01   -0.81414E-02 13600   0.174E+00    0.941E-01
DAV:   9    -0.188702855328E+03    0.89290E-02   -0.16722E-02 10800   0.611E-01    0.247E-01
DAV:  10    -0.188702768731E+03    0.86597E-04   -0.37653E-03 11880   0.206E-01    0.185E-01
DAV:  11    -0.188702228614E+03    0.54012E-03   -0.20497E-03 11600   0.139E-01    0.107E-01
DAV:  12    -0.188702370664E+03   -0.14205E-03   -0.82230E-04 11320   0.875E-02    0.940E-02
DAV:  13    -0.188702276575E+03    0.94089E-04   -0.23848E-04  7960   0.531E-02
   2 F= -.18870228E+03 E0= -.18856405E+03  d E =-.181099E+01
       N       E                     dE             d eps       ncg     rms          rms(c)
DAV:   1    -0.190632725563E+03   -0.19304E+01   -0.31293E+01  9120   0.142E+01    0.445E+00
DAV:   2    -0.190583374740E+03    0.49351E-01   -0.27606E+00 11200   0.948E+00    0.725E+00
DAV:   3    -0.190115596402E+03    0.46778E+00   -0.13191E+00 12360   0.862E+00    0.426E+00
DAV:   4    -0.189902156973E+03    0.21344E+00   -0.70911E-01 12640   0.422E+00    0.251E+00
DAV:   5    -0.189858977849E+03    0.43179E-01   -0.34502E-01 12320   0.277E+00    0.241E+00
DAV:   6    -0.189804185499E+03    0.54792E-01   -0.12385E-01 12720   0.221E+00    0.776E-01
DAV:   7    -0.189797340209E+03    0.68453E-02   -0.14245E-02 11520   0.573E-01    0.212E-01
DAV:   8    -0.189798048840E+03   -0.70863E-03   -0.39880E-03 12440   0.320E-01    0.335E-01
DAV:   9    -0.189797350779E+03    0.69806E-03   -0.22368E-03 10720   0.306E-01    0.149E-01
DAV:  10    -0.189797655095E+03   -0.30432E-03   -0.94723E-04  9800   0.136E-01    0.131E-01
DAV:  11    -0.189797368318E+03    0.28678E-03   -0.47720E-04  9240   0.782E-02    0.209E-02
DAV:  12    -0.189797395290E+03   -0.26972E-04   -0.74977E-05  7280   0.285E-02
   3 F= -.18979740E+03 E0= -.18968093E+03  d E =-.109512E+01
       N       E                     dE             d eps       ncg     rms          rms(c)
DAV:   1    -0.191371862913E+03   -0.15745E+01   -0.75116E+01  8160   0.197E+01    0.457E+00
DAV:   2    -0.191188492152E+03    0.18337E+00   -0.53579E+00 13360   0.760E+00    0.449E+00
DAV:   3    -0.191345024574E+03   -0.15653E+00   -0.15076E+00 12200   0.905E+00    0.675E+00
DAV:   4    -0.190943412912E+03    0.40161E+00   -0.13509E+00 12440   0.765E+00    0.293E+00
DAV:   5    -0.190900923278E+03    0.42490E-01   -0.41532E-01 12320   0.388E+00    0.284E+00
DAV:   6    -0.190814642243E+03    0.86281E-01   -0.19724E-01 12320   0.311E+00    0.119E+00
DAV:   7    -0.190802849965E+03    0.11792E-01   -0.43064E-02 12560   0.110E+00    0.451E-01
DAV:   8    -0.190799471843E+03    0.33781E-02   -0.65840E-03 10320   0.339E-01    0.176E-01
DAV:   9    -0.190800174006E+03   -0.70216E-03   -0.23784E-03 12120   0.323E-01    0.299E-01
DAV:  10    -0.190799705687E+03    0.46832E-03   -0.20436E-03 11240   0.282E-01    0.104E-01
DAV:  11    -0.190799585033E+03    0.12065E-03   -0.54300E-04 10040   0.940E-02    0.478E-02
DAV:  12    -0.190799577568E+03    0.74656E-05   -0.10397E-04  7320   0.397E-02
   4 F= -.19079958E+03 E0= -.19070182E+03  d E =-.100218E+01
       N       E                     dE             d eps       ncg     rms          rms(c)
DAV:   1    -0.192241225953E+03   -0.14416E+01   -0.16126E+02  8160   0.283E+01    0.565E+00
DAV:   2    -0.191971200098E+03    0.27003E+00   -0.94092E+00 11040   0.776E+00    0.355E+00
DAV:   3    -0.192044987153E+03   -0.73787E-01   -0.18018E+00 12240   0.783E+00    0.605E+00
DAV:   4    -0.191850080934E+03    0.19491E+00   -0.14785E+00 12000   0.937E+00    0.458E+00
DAV:   5    -0.191597680836E+03    0.25240E+00   -0.59159E-01 12360   0.457E+00    0.153E+00
DAV:   6    -0.191585121073E+03    0.12560E-01   -0.14911E-01 12600   0.266E+00    0.153E+00
DAV:   7    -0.191567449317E+03    0.17672E-01   -0.81121E-02 12360   0.203E+00    0.717E-01
DAV:   8    -0.191560850753E+03    0.65986E-02   -0.13664E-02 11800   0.739E-01    0.396E-01
DAV:   9    -0.191559693198E+03    0.11576E-02   -0.45494E-03 11800   0.471E-01    0.203E-01
DAV:  10    -0.191559731058E+03   -0.37860E-04   -0.21824E-03 11480   0.192E-01    0.805E-02
DAV:  11    -0.191559681152E+03    0.49906E-04   -0.50835E-04 10760   0.838E-02
   5 F= -.19155968E+03 E0= -.19147336E+03  d E =-.760104E+00
       N       E                     dE             d eps       ncg     rms          rms(c)
DAV:   1    -0.191677174252E+03   -0.11744E+00   -0.86378E+00  8160   0.625E+00    0.738E-01
DAV:   2    -0.191740346463E+03   -0.63172E-01   -0.34717E-01 12880   0.294E+00    0.206E+00
DAV:   3    -0.191694821012E+03    0.45525E-01   -0.98229E-02 12520   0.237E+00    0.484E-01
DAV:   4    -0.191694918653E+03   -0.97640E-04   -0.12409E-02 11640   0.750E-01    0.593E-01
DAV:   5    -0.191691607649E+03    0.33110E-02   -0.83743E-03 11680   0.695E-01    0.269E-01
DAV:   6    -0.191691482620E+03    0.12503E-03   -0.36004E-03 11320   0.310E-01    0.191E-01
DAV:   7    -0.191691037426E+03    0.44519E-03   -0.20131E-03 11640   0.256E-01    0.175E-01
DAV:   8    -0.191690764141E+03    0.27328E-03   -0.72756E-04  9040   0.190E-01    0.498E-02
DAV:   9    -0.191690770255E+03   -0.61147E-05   -0.10247E-04  6160   0.536E-02
   6 F= -.19169077E+03 E0= -.19160599E+03  d E =-.131089E+00
       N       E                     dE             d eps       ncg     rms          rms(c)
DAV:   1    -0.191818087426E+03   -0.12732E+00   -0.10860E+01  8160   0.702E+00    0.741E-01
DAV:   2    -0.191862225975E+03   -0.44139E-01   -0.35205E-01 12520   0.247E+00    0.151E+00
DAV:   3    -0.191839268743E+03    0.22957E-01   -0.70960E-02 12520   0.206E+00    0.620E-01
DAV:   4    -0.191835587048E+03    0.36817E-02   -0.10804E-02 11840   0.706E-01    0.446E-01
DAV:   5    -0.191834699828E+03    0.88722E-03   -0.78855E-03 11760   0.691E-01    0.386E-01
DAV:   6    -0.191833940271E+03    0.75956E-03   -0.52680E-03 11720   0.442E-01    0.204E-01
DAV:   7    -0.191833073933E+03    0.86634E-03   -0.17235E-03 10320   0.171E-01    0.498E-02
DAV:   8    -0.191833153968E+03   -0.80035E-04   -0.32245E-04  8520   0.116E-01
   7 F= -.19183315E+03 E0= -.19175087E+03  d E =-.142384E+00
       N       E                     dE             d eps       ncg     rms          rms(c)
DAV:   1    -0.191961757588E+03   -0.12868E+00   -0.13282E+01  8160   0.781E+00    0.807E-01
DAV:   2    -0.192001109353E+03   -0.39352E-01   -0.45228E-01 12480   0.231E+00    0.108E+00
DAV:   3    -0.191995674313E+03    0.54350E-02   -0.56974E-02 12440   0.194E+00    0.866E-01
DAV:   4    -0.191985074902E+03    0.10599E-01   -0.13058E-02 12160   0.885E-01    0.275E-01
DAV:   5    -0.191988291342E+03   -0.32164E-02   -0.98177E-03 12720   0.723E-01    0.621E-01
DAV:   6    -0.191985006820E+03    0.32845E-02   -0.90945E-03 11800   0.748E-01    0.249E-01
DAV:   7    -0.191984000332E+03    0.10065E-02   -0.19261E-03 11320   0.230E-01    0.505E-02
DAV:   8    -0.191984059142E+03   -0.58810E-04   -0.33692E-04  8840   0.106E-01
   8 F= -.19198406E+03 E0= -.19190322E+03  d E =-.150905E+00
       N       E                     dE             d eps       ncg     rms          rms(c)
DAV:   1    -0.192118498589E+03   -0.13450E+00   -0.64877E+01  8160   0.173E+01    0.176E+00
DAV:   2    -0.192288357486E+03   -0.16986E+00   -0.22992E+00 11480   0.438E+00    0.161E+00
DAV:   3    -0.192330640669E+03   -0.42283E-01   -0.24625E-01 12080   0.415E+00    0.245E+00
DAV:   4    -0.192253115110E+03    0.77526E-01   -0.81267E-02 11760   0.265E+00    0.762E-01
DAV:   5    -0.192258028202E+03   -0.49131E-02   -0.36002E-02 12200   0.162E+00    0.109E+00
DAV:   6    -0.192247107667E+03    0.10921E-01   -0.32703E-02 12400   0.134E+00    0.445E-01
DAV:   7    -0.192245162984E+03    0.19447E-02   -0.95215E-03 11800   0.715E-01    0.370E-01
DAV:   8    -0.192243716103E+03    0.14469E-02   -0.28001E-03 12000   0.427E-01    0.106E-01
DAV:   9    -0.192243544315E+03    0.17179E-03   -0.72919E-04 10200   0.112E-01    0.533E-02
DAV:  10    -0.192243497588E+03    0.46726E-04   -0.23811E-04  8000   0.497E-02
   9 F= -.19224350E+03 E0= -.19216814E+03  d E =-.259438E+00
       N       E                     dE             d eps       ncg     rms          rms(c)
DAV:   1    -0.192293386868E+03   -0.49843E-01   -0.69915E+00  8160   0.568E+00    0.696E-01
DAV:   2    -0.192319961642E+03   -0.26575E-01   -0.31366E-01 12000   0.191E+00    0.100E+00
DAV:   3    -0.192316313365E+03    0.36483E-02   -0.43777E-02 12440   0.179E+00    0.828E-01
DAV:   4    -0.192307837765E+03    0.84756E-02   -0.11529E-02 12440   0.918E-01    0.306E-01
DAV:   5    -0.192308576178E+03   -0.73841E-03   -0.62520E-03 11880   0.674E-01    0.422E-01
DAV:   6    -0.192306614291E+03    0.19619E-02   -0.52372E-03 11840   0.538E-01    0.138E-01
DAV:   7    -0.192306476836E+03    0.13746E-03   -0.11200E-03 10840   0.239E-01    0.132E-01
DAV:   8    -0.192306291258E+03    0.18558E-03   -0.38121E-04  9600   0.165E-01    0.466E-02
DAV:   9    -0.192306267674E+03    0.23584E-04   -0.72601E-05  6680   0.500E-02
  10 F= -.19230627E+03 E0= -.19223317E+03  d E =-.627701E-01
       N       E                     dE             d eps       ncg     rms          rms(c)
DAV:   1    -0.192336289642E+03   -0.29998E-01   -0.30187E+00  8160   0.364E+00    0.426E-01
DAV:   2    -0.192352170619E+03   -0.15881E-01   -0.12687E-01 11200   0.144E+00    0.862E-01
DAV:   3    -0.192345046556E+03    0.71241E-02   -0.19238E-02 12480   0.121E+00    0.384E-01
DAV:   4    -0.192343355937E+03    0.16906E-02   -0.28955E-03 11920   0.414E-01    0.165E-01
DAV:   5    -0.192343485854E+03   -0.12992E-03   -0.17305E-03 12480   0.348E-01    0.202E-01
DAV:   6    -0.192343220746E+03    0.26511E-03   -0.14237E-03 12040   0.290E-01    0.107E-01
DAV:   7    -0.192343005842E+03    0.21490E-03   -0.42562E-04 10160   0.102E-01    0.238E-02
DAV:   8    -0.192343021568E+03   -0.15726E-04   -0.63820E-05  6960   0.578E-02
  11 F= -.19234302E+03 E0= -.19227183E+03  d E =-.367539E-01
       N       E                     dE             d eps       ncg     rms          rms(c)
DAV:   1    -0.192365155001E+03   -0.22149E-01   -0.16883E+00  8160   0.278E+00    0.353E-01
DAV:   2    -0.192372684006E+03   -0.75290E-02   -0.68976E-02 12080   0.107E+00    0.663E-01
DAV:   3    -0.192368862131E+03    0.38219E-02   -0.12572E-02 12480   0.970E-01    0.336E-01
DAV:   4    -0.192367450914E+03    0.14112E-02   -0.22816E-03 12520   0.356E-01    0.135E-01
DAV:   5    -0.192367555766E+03   -0.10485E-03   -0.13949E-03 12040   0.280E-01    0.180E-01
DAV:   6    -0.192367278013E+03    0.27775E-03   -0.11394E-03 10760   0.276E-01    0.916E-02
DAV:   7    -0.192367138281E+03    0.13973E-03   -0.25866E-04  8080   0.105E-01    0.272E-02
DAV:   8    -0.192367141235E+03   -0.29542E-05   -0.59053E-05  7920   0.587E-02
  12 F= -.19236714E+03 E0= -.19229704E+03  d E =-.241197E-01
       N       E                     dE             d eps       ncg     rms          rms(c)
DAV:   1    -0.192392904121E+03   -0.25766E-01   -0.17347E+01  8160   0.881E+00    0.965E-01
DAV:   2    -0.192468339256E+03   -0.75435E-01   -0.63616E-01 11400   0.313E+00    0.183E+00
DAV:   3    -0.192436757439E+03    0.31582E-01   -0.96549E-02 12400   0.268E+00    0.901E-01
DAV:   4    -0.192426498338E+03    0.10259E-01   -0.15502E-02 12480   0.941E-01    0.325E-01
DAV:   5    -0.192426136885E+03    0.36145E-03   -0.81831E-03 12440   0.559E-01    0.339E-01
DAV:   6    -0.192426791057E+03   -0.65417E-03   -0.79486E-03 12200   0.732E-01    0.418E-01
DAV:   7    -0.192424531541E+03    0.22595E-02   -0.34667E-03 11880   0.458E-01    0.106E-01
DAV:   8    -0.192424477504E+03    0.54037E-04   -0.47988E-04  9480   0.163E-01
  13 F= -.19242448E+03 E0= -.19235786E+03  d E =-.573363E-01
       N       E                     dE             d eps       ncg     rms          rms(c)
DAV:   1    -0.192433070443E+03   -0.85389E-02   -0.14381E+00  8160   0.254E+00    0.303E-01
DAV:   2    -0.192441028676E+03   -0.79582E-02   -0.72674E-02 12480   0.101E+00    0.556E-01
DAV:   3    -0.192438470334E+03    0.25583E-02   -0.98430E-03 12480   0.856E-01    0.307E-01
DAV:   4    -0.192437279861E+03    0.11905E-02   -0.16747E-03 11920   0.323E-01    0.108E-01
DAV:   5    -0.192437387164E+03   -0.10730E-03   -0.94841E-04 10560   0.227E-01    0.154E-01
DAV:   6    -0.192437234252E+03    0.15291E-03   -0.90395E-04 10760   0.242E-01    0.946E-02
DAV:   7    -0.192437123768E+03    0.11048E-03   -0.27976E-04  8080   0.125E-01    0.551E-02
DAV:   8    -0.192437093133E+03    0.30635E-04   -0.70029E-05  6840   0.753E-02
  14 F= -.19243709E+03 E0= -.19237102E+03  d E =-.126156E-01
       N       E                     dE             d eps       ncg     rms          rms(c)
DAV:   1    -0.192441453951E+03   -0.43302E-02   -0.39875E+00  8160   0.422E+00    0.462E-01
DAV:   2    -0.192459339774E+03   -0.17886E-01   -0.16445E-01 12040   0.150E+00    0.806E-01
DAV:   3    -0.192454016251E+03    0.53235E-02   -0.21421E-02 12200   0.127E+00    0.480E-01
DAV:   4    -0.192451150030E+03    0.28662E-02   -0.39421E-03 12480   0.501E-01    0.149E-01
DAV:   5    -0.192451030328E+03    0.11970E-03   -0.17373E-03 12320   0.211E-01    0.132E-01
DAV:   6    -0.192451142555E+03   -0.11223E-03   -0.14332E-03 12080   0.291E-01    0.171E-01
DAV:   7    -0.192450763597E+03    0.37896E-03   -0.54734E-04  9480   0.193E-01    0.324E-02
DAV:   8    -0.192450773013E+03   -0.94155E-05   -0.78758E-05  6160   0.662E-02
  15 F= -.19245077E+03 E0= -.19238577E+03  d E =-.136799E-01
       N       E                     dE             d eps       ncg     rms          rms(c)
DAV:   1    -0.192453043837E+03   -0.22802E-02   -0.17523E-01  8160   0.892E-01    0.104E-01
DAV:   2    -0.192453751068E+03   -0.70723E-03   -0.91778E-03 11440   0.308E-01    0.105E-01
DAV:   3    -0.192453748500E+03    0.25685E-05   -0.71584E-04 11160   0.224E-01
  16 F= -.19245375E+03 E0= -.19238892E+03  d E =-.297549E-02
       N       E                     dE             d eps       ncg     rms          rms(c)
DAV:   1    -0.192455338020E+03   -0.15870E-02   -0.94240E-02  8160   0.663E-01    0.924E-02
DAV:   2    -0.192455789687E+03   -0.45167E-03   -0.42990E-03 12240   0.243E-01    0.150E-01
DAV:   3    -0.192455597293E+03    0.19239E-03   -0.70708E-04 11120   0.231E-01    0.935E-02
DAV:   4    -0.192455506527E+03    0.90766E-04   -0.17815E-04  6800   0.107E-01
  17 F= -.19245551E+03 E0= -.19239096E+03  d E =-.175803E-02
       N       E                     dE             d eps       ncg     rms          rms(c)
DAV:   1    -0.192457306459E+03   -0.17092E-02   -0.13502E-01  8160   0.781E-01    0.106E-01
DAV:   2    -0.192458164682E+03   -0.85822E-03   -0.68783E-03 12240   0.336E-01    0.204E-01
DAV:   3    -0.192457727096E+03    0.43759E-03   -0.10954E-03 11080   0.293E-01    0.888E-02
DAV:   4    -0.192457677333E+03    0.49764E-04   -0.21579E-04  7720   0.123E-01
  18 F= -.19245768E+03 E0= -.19239333E+03  d E =-.217081E-02
       N       E                     dE             d eps       ncg     rms          rms(c)
DAV:   1    -0.192459255654E+03   -0.15286E-02   -0.14956E-01  8160   0.826E-01    0.111E-01
DAV:   2    -0.192459854178E+03   -0.59852E-03   -0.69846E-03 11560   0.284E-01    0.147E-01
DAV:   3    -0.192459729764E+03    0.12441E-03   -0.95879E-04 11040   0.262E-01    0.118E-01
DAV:   4    -0.192459581037E+03    0.14873E-03   -0.29513E-04  8240   0.143E-01    0.627E-02
DAV:   5    -0.192459582306E+03   -0.12686E-05   -0.17039E-04  7680   0.122E-01
  19 F= -.19245958E+03 E0= -.19239564E+03  d E =-.190497E-02
       N       E                     dE             d eps       ncg     rms          rms(c)
DAV:   1    -0.192460855841E+03   -0.12748E-02   -0.20130E-01  8160   0.951E-01    0.114E-01
DAV:   2    -0.192461982738E+03   -0.11269E-02   -0.99906E-03 11520   0.399E-01    0.217E-01
DAV:   3    -0.192461551767E+03    0.43097E-03   -0.14133E-03 11480   0.318E-01    0.106E-01
DAV:   4    -0.192461420210E+03    0.13156E-03   -0.20370E-04  7560   0.122E-01    0.502E-02
DAV:   5    -0.192461424259E+03   -0.40491E-05   -0.10241E-04  6680   0.988E-02
  20 F= -.19246142E+03 E0= -.19239779E+03  d E =-.184195E-02
       N       E                     dE             d eps       ncg     rms          rms(c)
DAV:   1    -0.192460230500E+03    0.11897E-02   -0.15093E+00  8160   0.260E+00    0.297E-01
DAV:   2    -0.192466359333E+03   -0.61288E-02   -0.74234E-02 11000   0.833E-01    0.314E-01
DAV:   3    -0.192467204526E+03   -0.84519E-03   -0.70657E-03 12480   0.723E-01    0.431E-01
DAV:   4    -0.192464928965E+03    0.22756E-02   -0.25469E-03 11720   0.457E-01    0.906E-02
DAV:   5    -0.192465014817E+03   -0.85851E-04   -0.92726E-04 10280   0.156E-01
  21 F= -.19246501E+03 E0= -.19240219E+03  d E =-.359056E-02
       N       E                     dE             d eps       ncg     rms          rms(c)
DAV:   1    -0.192465115185E+03   -0.18622E-03   -0.22720E-01  8160   0.103E+00    0.163E-01
DAV:   2    -0.192467864258E+03   -0.27491E-02   -0.12732E-02 12640   0.592E-01    0.442E-01
DAV:   3    -0.192465599122E+03    0.22651E-02   -0.36948E-03 11960   0.545E-01    0.108E-01
DAV:   4    -0.192465592165E+03    0.69569E-05   -0.50226E-04  8680   0.164E-01
  22 F= -.19246559E+03 E0= -.19240301E+03  d E =-.577349E-03
