 vasp.5.4.1 05Feb16 (build Jul 05 2020 17:13:04) complex                        
  
 executed on           IFC91_ompi date 2024.08.12  12:12:18
 running on   40 total cores
 distrk:  each k-point on   40 cores,    1 groups
 distr:  one band on NCORES_PER_BAND=   1 cores,   40 groups


--------------------------------------------------------------------------------------------------------


 INCAR:
 POTCAR:   PAW_PBE V 08Apr2002                    
 POTCAR:   PAW_PBE Mo 08Apr2002                   
 POTCAR:   PAW_PBE W 08Apr2002                    
 POTCAR:    PAW_PBE S 17Jan2003                   

 ----------------------------------------------------------------------------- 
|                                                                             |
|           W    W    AA    RRRRR   N    N  II  N    N   GGGG   !!!           |
|           W    W   A  A   R    R  NN   N  II  NN   N  G    G  !!!           |
|           W    W  A    A  R    R  N N  N  II  N N  N  G       !!!           |
|           W WW W  AAAAAA  RRRRR   N  N N  II  N  N N  G  GGG   !            |
|           WW  WW  A    A  R   R   N   NN  II  N   NN  G    G                |
|           W    W  A    A  R    R  N    N  II  N    N   GGGG   !!!           |
|                                                                             |
|      For optimal performance we recommend to set                            |
|        NCORE= 4 - approx SQRT( number of cores)                             |
|      NCORE specifies how many cores store one orbital (NPAR=cpu/NCORE).     |
|      This setting can  greatly improve the performance of VASP for DFT.     |
|      The default, NPAR=number of cores might be grossly inefficient         |
|      on modern multi-core architectures or massively parallel machines.     |
|      Do your own testing !!!!                                               |
|      Unfortunately you need to use the default for GW and RPA calculations. |
|      (for HF NCORE is supported but not extensively tested yet)             |
|                                                                             |
 ----------------------------------------------------------------------------- 

 POTCAR:   PAW_PBE V 08Apr2002                    
   VRHFIN =V: p6 d4 s1                                                          
   LEXCH  = PE                                                                  
   EATOM  =   170.8679 eV,   12.5584 Ry                                         
                                                                                
   TITEL  = PAW_PBE V 08Apr2002                                                 
   LULTRA =        F    use ultrasoft PP ?                                      
   IUNSCR =        1    unscreen: 0-lin 1-nonlin 2-no                           
   RPACOR =    2.000    partial core radius                                     
   POMASS =   50.941; ZVAL   =    5.000    mass and valenz                      
   RCORE  =    2.700    outmost cutoff radius                                   
   RWIGS  =    2.500; RWIGS  =    1.323    wigner-seitz radius (au A)           
   ENMAX  =  192.543; ENMIN  =  144.408 eV                                      
   RCLOC  =    1.779    cutoff for local pot                                    
   LCOR   =        T    correct aug charges                                     
   LPAW   =        T    paw PP                                                  
   EAUG   =  358.662                                                            
   DEXC   =    -.034                                                            
   RMAX   =    3.323    core radius for proj-oper                               
   RAUG   =    1.300    factor for augmentation sphere                          
   RDEP   =    2.762    radius for radial grids                                 
   QCUT   =   -3.762; QGAM   =    7.524    optimization parameters              
                                                                                
   Description                                                                  
     l     E      TYP  RCUT    TYP  RCUT                                        
     2   .000     23  2.700                                                     
     2   .000     23  2.700                                                     
     0   .000     23  2.700                                                     
     0  2.000     23  2.700                                                     
     1   .000     23  2.700                                                     
     1  2.000     23  2.700                                                     
     3   .000      7   .000                                                     
  local pseudopotential read in
  partial core-charges read in
  atomic valenz-charges read in
  non local Contribution for L=           2  read in
    real space projection operators read in
  non local Contribution for L=           2  read in
    real space projection operators read in
  non local Contribution for L=           0  read in
    real space projection operators read in
  non local Contribution for L=           0  read in
    real space projection operators read in
  non local Contribution for L=           1  read in
    real space projection operators read in
  non local Contribution for L=           1  read in
    real space projection operators read in
    PAW grid and wavefunctions read in
 
   number of l-projection  operators is LMAX  =           6
   number of lm-projection operators is LMMAX =          18
 
 POTCAR:   PAW_PBE Mo 08Apr2002                   
   VRHFIN =Mo: 4p5s4d                                                           
   LEXCH  = PE                                                                  
   EATOM  =   217.5180 eV,   15.9871 Ry                                         
                                                                                
   TITEL  = PAW_PBE Mo 08Apr2002                                                
   LULTRA =        F    use ultrasoft PP ?                                      
   IUNSCR =        1    unscreen: 0-lin 1-nonlin 2-no                           
   RPACOR =    2.200    partial core radius                                     
   POMASS =   95.940; ZVAL   =    6.000    mass and valenz                      
   RCORE  =    2.750    outmost cutoff radius                                   
   RWIGS  =    2.750; RWIGS  =    1.455    wigner-seitz radius (au A)           
   ENMAX  =  224.584; ENMIN  =  168.438 eV                                      
   RCLOC  =    2.111    cutoff for local pot                                    
   LCOR   =        T    correct aug charges                                     
   LPAW   =        T    paw PP                                                  
   EAUG   =  345.278                                                            
   DEXC   =    -.088                                                            
   RMAX   =    3.077    core radius for proj-oper                               
   RAUG   =    1.300    factor for augmentation sphere                          
   RDEP   =    2.815    radius for radial grids                                 
   QCUT   =   -4.063; QGAM   =    8.126    optimization parameters              
                                                                                
   Description                                                                  
     l     E      TYP  RCUT    TYP  RCUT                                        
     2   .000     23  2.500                                                     
     2   .000     23  2.500                                                     
     0   .000     23  2.600                                                     
     0  1.000     23  2.600                                                     
     1   .400     23  2.750                                                     
     1  2.000     23  2.750                                                     
     3   .000      7   .000                                                     
  local pseudopotential read in
  partial core-charges read in
  atomic valenz-charges read in
  non local Contribution for L=           2  read in
    real space projection operators read in
  non local Contribution for L=           2  read in
    real space projection operators read in
  non local Contribution for L=           0  read in
    real space projection operators read in
  non local Contribution for L=           0  read in
    real space projection operators read in
  non local Contribution for L=           1  read in
    real space projection operators read in
  non local Contribution for L=           1  read in
    real space projection operators read in
    PAW grid and wavefunctions read in
 
   number of l-projection  operators is LMAX  =           6
   number of lm-projection operators is LMMAX =          18
 
 POTCAR:   PAW_PBE W 08Apr2002                    
   VRHFIN =W : 6s5d                                                             
   LEXCH  = PE                                                                  
   EATOM  =   204.6100 eV,   15.0384 Ry                                         
                                                                                
   TITEL  = PAW_PBE W 08Apr2002                                                 
   LULTRA =        F    use ultrasoft PP ?                                      
   IUNSCR =        1    unscreen: 0-lin 1-nonlin 2-no                           
   RPACOR =    2.330    partial core radius                                     
   POMASS =  183.850; ZVAL   =    6.000    mass and valenz                      
   RCORE  =    2.750    outmost cutoff radius                                   
   RWIGS  =    2.750; RWIGS  =    1.455    wigner-seitz radius (au A)           
   ENMAX  =  223.057; ENMIN  =  167.293 eV                                      
   RCLOC  =    2.147    cutoff for local pot                                    
   LCOR   =        T    correct aug charges                                     
   LPAW   =        T    paw PP                                                  
   EAUG   =  373.438                                                            
   DEXC   =    -.060                                                            
   RMAX   =    3.087    core radius for proj-oper                               
   RAUG   =    1.300    factor for augmentation sphere                          
   RDEP   =    2.886    radius for radial grids                                 
   QCUT   =   -4.049; QGAM   =    8.098    optimization parameters              
                                                                                
   Description                                                                  
     l     E      TYP  RCUT    TYP  RCUT                                        
     2   .000     23  2.500                                                     
     2   .000     23  2.500                                                     
     0   .000     23  2.500                                                     
     0   .000     23  2.500                                                     
     1   .200     23  2.750                                                     
     1  2.000     23  2.750                                                     
     3   .000      7   .000                                                     
  local pseudopotential read in
  partial core-charges read in
  atomic valenz-charges read in
  non local Contribution for L=           2  read in
    real space projection operators read in
  non local Contribution for L=           2  read in
    real space projection operators read in
  non local Contribution for L=           0  read in
    real space projection operators read in
  non local Contribution for L=           0  read in
    real space projection operators read in
  non local Contribution for L=           1  read in
    real space projection operators read in
  non local Contribution for L=           1  read in
    real space projection operators read in
    PAW grid and wavefunctions read in
 
   number of l-projection  operators is LMAX  =           6
   number of lm-projection operators is LMMAX =          18
 
 POTCAR:    PAW_PBE S 17Jan2003                   
   VRHFIN =S : s2p4                                                             
   LEXCH  = PE                                                                  
   EATOM  =   276.8230 eV,   20.3459 Ry                                         
                                                                                
   TITEL  = PAW_PBE S 17Jan2003                                                 
   LULTRA =        F    use ultrasoft PP ?                                      
   IUNSCR =        1    unscreen: 0-lin 1-nonlin 2-no                           
   RPACOR =    1.500    partial core radius                                     
   POMASS =   32.066; ZVAL   =    6.000    mass and valenz                      
   RCORE  =    1.900    outmost cutoff radius                                   
   RWIGS  =    2.200; RWIGS  =    1.164    wigner-seitz radius (au A)           
   ENMAX  =  280.000; ENMIN  =  194.016 eV                                      
   ICORE  =        2    local potential                                         
   LCOR   =        T    correct aug charges                                     
   LPAW   =        T    paw PP                                                  
   EAUG   =  335.092                                                            
   DEXC   =     .000                                                            
   RMAX   =    2.867    core radius for proj-oper                               
   RAUG   =    1.300    factor for augmentation sphere                          
   RDEP   =    1.954    radius for radial grids                                 
   QCUT   =   -4.360; QGAM   =    8.721    optimization parameters              
                                                                                
   Description                                                                  
     l     E      TYP  RCUT    TYP  RCUT                                        
     0   .000     23  1.900                                                     
     0   .000     23  1.900                                                     
     1   .000     23  1.900                                                     
     1   .000     23  1.900                                                     
     2   .000     23  1.900                                                     
  local pseudopotential read in
  partial core-charges read in
  atomic valenz-charges read in
  non local Contribution for L=           0  read in
    real space projection operators read in
  non local Contribution for L=           0  read in
    real space projection operators read in
  non local Contribution for L=           1  read in
    real space projection operators read in
  non local Contribution for L=           1  read in
    real space projection operators read in
    PAW grid and wavefunctions read in
 
   number of l-projection  operators is LMAX  =           4
   number of lm-projection operators is LMMAX =           8
 

 ----------------------------------------------------------------------------- 
|                                                                             |
|  ADVICE TO THIS USER RUNNING 'VASP/VAMP'   (HEAR YOUR MASTER'S VOICE ...):  |
|                                                                             |
|      You have a (more or less) 'large supercell' and for larger cells       |
|      it might be more efficient to use real space projection operators      |
|      So try LREAL= Auto  in the INCAR   file.                               |
|      Mind: If you want to do a very accurate calculations keep the          |
|      reciprocal projection scheme          (i.e. LREAL=.FALSE.)             |
|                                                                             |
 ----------------------------------------------------------------------------- 

 PAW_PBE V 08Apr2002                    :
 energy of atom  1       EATOM= -170.8679
 kinetic energy error for atom=    0.0047 (will be added to EATOM!!)
 PAW_PBE Mo 08Apr2002                   :
 energy of atom  2       EATOM= -217.5180
 kinetic energy error for atom=    0.0215 (will be added to EATOM!!)
 PAW_PBE W 08Apr2002                    :
 energy of atom  3       EATOM= -204.6100
 kinetic energy error for atom=    0.0205 (will be added to EATOM!!)
  PAW_PBE S 17Jan2003                   :
 energy of atom  4       EATOM= -276.8230
 kinetic energy error for atom=    0.0122 (will be added to EATOM!!)
 
 
 POSCAR: crystal structure from VMoWS2 with Hexag
  positions in cartesian coordinates
  No initial velocities read in
 exchange correlation table for  LEXCH =        8
   RHO(1)=    0.500       N(1)  =     2000
   RHO(2)=  100.500       N(2)  =     4000
 


--------------------------------------------------------------------------------------------------------


 ion  position               nearest neighbor table
   1  0.333  0.333  0.000-  13 2.34  16 2.34  19 2.36  18 2.36  11 2.36  10 2.36
   2  0.000  0.000  0.000-  23 2.34  14 2.34  11 2.36  10 2.36  27 2.36  26 2.36
   3  0.667  0.000  0.000-  17 2.34  26 2.34  23 2.36  22 2.36  21 2.36  20 2.36
   4  0.000  0.667  0.000-  27 2.34  12 2.34  14 2.36  15 2.36  24 2.36  25 2.36   9 3.34   7 3.34
                             8 3.34   5 3.36   6 3.36
   5  0.333  0.000  0.000-  11 2.34  20 2.34  17 2.36  16 2.36  15 2.36  14 2.36   8 3.34   4 3.36
                             6 3.36
   6  0.667  0.333  0.000-  19 2.34  22 2.34  25 2.36  24 2.36  17 2.36  16 2.36   7 3.34   9 3.34
                             4 3.36   5 3.36
   7  1.000  0.333  0.000-  25 2.34  10 2.34  13 2.36  12 2.36  22 2.36  23 2.36   6 3.34   4 3.34
                             8 3.36
   8  0.333  0.667  0.000-  15 2.34  18 2.34  20 2.36  21 2.36  13 2.36  12 2.36   5 3.34   4 3.34
                             9 3.34   7 3.36
   9  0.667  0.667  0.000-  21 2.34  24 2.34  27 2.36  26 2.36  19 2.36  18 2.36   4 3.34   6 3.34
                             8 3.34
  10  0.111  0.222  0.955-   7 2.34   2 2.36   1 2.36
  11  0.222  0.111  0.045-   5 2.34   2 2.36   1 2.36
  12  0.111  0.556  0.955-   4 2.34   7 2.36   8 2.36
  13  0.222  0.444  0.045-   1 2.34   7 2.36   8 2.36
  14  0.111  0.889  0.955-   2 2.34   4 2.36   5 2.36
  15  0.222  0.777  0.045-   8 2.34   4 2.36   5 2.36
  16  0.444  0.222  0.955-   1 2.34   5 2.36   6 2.36
  17  0.556  0.111  0.045-   3 2.34   5 2.36   6 2.36
  18  0.444  0.556  0.955-   8 2.34   1 2.36   9 2.36
  19  0.556  0.444  0.045-   6 2.34   1 2.36   9 2.36
  20  0.444  0.889  0.955-   5 2.34   8 2.36   3 2.36
  21  0.556  0.777  0.045-   9 2.34   8 2.36   3 2.36
  22  0.777  0.222  0.955-   6 2.34   3 2.36   7 2.36
  23  0.889  0.111  0.045-   2 2.34   3 2.36   7 2.36
  24  0.777  0.556  0.955-   9 2.34   6 2.36   4 2.36
  25  0.889  0.444  0.045-   7 2.34   6 2.36   4 2.36
  26  0.777  0.889  0.955-   3 2.34   9 2.36   2 2.36
  27  0.889  0.777  0.045-   4 2.34   9 2.36   2 2.36
 

IMPORTANT INFORMATION: All symmetrisations will be switched off!
NOSYMM: (Re-)initialisation of all symmetry stuff for point group C_1.

 
 
 KPOINTS: K-POINTS 	#supercell of CrS2 in hexagona

Automatic generation of k-mesh.
Space group operators:
 irot       det(A)        alpha          n_x          n_y          n_z        tau_x        tau_y        tau_z
    1     1.000000     0.000000     1.000000     0.000000     0.000000     0.000000     0.000000     0.000000
 
 Subroutine IBZKPT returns following result:
 ===========================================
 
 Found     34 irreducible k-points:
 
 Following reciprocal coordinates:
            Coordinates               Weight
  0.000000  0.000000  0.000000      1.000000
  0.125000  0.000000  0.000000      2.000000
  0.250000  0.000000  0.000000      2.000000
  0.375000  0.000000  0.000000      2.000000
  0.500000  0.000000  0.000000      1.000000
  0.000000  0.125000  0.000000      2.000000
  0.125000  0.125000  0.000000      2.000000
  0.250000  0.125000  0.000000      2.000000
  0.375000  0.125000  0.000000      2.000000
  0.500000  0.125000  0.000000      2.000000
 -0.375000  0.125000  0.000000      2.000000
 -0.250000  0.125000  0.000000      2.000000
 -0.125000  0.125000  0.000000      2.000000
  0.000000  0.250000  0.000000      2.000000
  0.125000  0.250000  0.000000      2.000000
  0.250000  0.250000  0.000000      2.000000
  0.375000  0.250000  0.000000      2.000000
  0.500000  0.250000  0.000000      2.000000
 -0.375000  0.250000  0.000000      2.000000
 -0.250000  0.250000  0.000000      2.000000
 -0.125000  0.250000  0.000000      2.000000
 -0.000000  0.375000  0.000000      2.000000
  0.125000  0.375000  0.000000      2.000000
  0.250000  0.375000  0.000000      2.000000
  0.375000  0.375000  0.000000      2.000000
  0.500000  0.375000  0.000000      2.000000
 -0.375000  0.375000  0.000000      2.000000
 -0.250000  0.375000  0.000000      2.000000
 -0.125000  0.375000  0.000000      2.000000
  0.000000  0.500000  0.000000      1.000000
  0.125000  0.500000  0.000000      2.000000
  0.250000  0.500000  0.000000      2.000000
  0.375000  0.500000  0.000000      2.000000
  0.500000  0.500000  0.000000      1.000000
 
 Following cartesian coordinates:
            Coordinates               Weight
  0.000000  0.000000  0.000000      1.000000
  0.007209  0.012401  0.000000      2.000000
  0.014418  0.024802  0.000000      2.000000
  0.021626  0.037202  0.000000      2.000000
  0.028835  0.049603  0.000000      1.000000
 -0.007209  0.012401  0.000000      2.000000
  0.000000  0.024802  0.000000      2.000000
  0.007209  0.037202  0.000000      2.000000
  0.014418  0.049603  0.000000      2.000000
  0.021626  0.062004  0.000000      2.000000
 -0.028835 -0.024802  0.000000      2.000000
 -0.021626 -0.012401  0.000000      2.000000
 -0.014418  0.000000  0.000000      2.000000
 -0.014418  0.024802  0.000000      2.000000
 -0.007209  0.037202  0.000000      2.000000
  0.000000  0.049603  0.000000      2.000000
  0.007209  0.062004  0.000000      2.000000
  0.014418  0.074405  0.000000      2.000000
 -0.036044 -0.012401  0.000000      2.000000
 -0.028835  0.000000  0.000000      2.000000
 -0.021626  0.012401  0.000000      2.000000
 -0.021626  0.037202  0.000000      2.000000
 -0.014418  0.049603  0.000000      2.000000
 -0.007209  0.062004  0.000000      2.000000
  0.000000  0.074405  0.000000      2.000000
  0.007209  0.086806  0.000000      2.000000
 -0.043253  0.000000  0.000000      2.000000
 -0.036044  0.012401  0.000000      2.000000
 -0.028835  0.024802  0.000000      2.000000
 -0.028835  0.049603  0.000000      1.000000
 -0.021626  0.062004  0.000000      2.000000
 -0.014418  0.074405  0.000000      2.000000
 -0.007209  0.086806  0.000000      2.000000
  0.000000  0.099206  0.000000      1.000000
 


--------------------------------------------------------------------------------------------------------




 Dimension of arrays:
   k-points           NKPTS =     34   k-points in BZ     NKDIM =     34   number of bands    NBANDS=    120
   number of dos      NEDOS =    301   number of ions     NIONS =     27
   non local maximal  LDIM  =      6   non local SUM 2l+1 LMDIM =     18
   total plane-waves  NPLWV = 222264
   max r-space proj   IRMAX =      1   max aug-charges    IRDMAX=   5642
   dimension x,y,z NGX =    42 NGY =   42 NGZ =  126
   dimension x,y,z NGXF=    84 NGYF=   84 NGZF=  252
   support grid    NGXF=    84 NGYF=   84 NGZF=  252
   ions per type =               3   3   3  18
 NGX,Y,Z   is equivalent  to a cutoff of   6.96,  6.96,  6.98 a.u.
 NGXF,Y,Z  is equivalent  to a cutoff of  13.92, 13.92, 13.96 a.u.


 I would recommend the setting:
   dimension x,y,z NGX =    41 NGY =   41 NGZ =  123
 SYSTEM =  unknown system                          
 POSCAR =  crystal structure from VMoWS2 with Hexag

 Startparameter for this run:
   NWRITE =      2    write-flag & timer
   PREC   = normal    normal or accurate (medium, high low for compatibility)
   ISTART =      0    job   : 0-new  1-cont  2-samecut
   ICHARG =      2    charge: 1-file 2-atom 10-const
   ISPIN  =      1    spin polarized calculation?
   LNONCOLLINEAR =      F non collinear calculations
   LSORBIT =      F    spin-orbit coupling
   INIWAV =      1    electr: 0-lowe 1-rand  2-diag
   LASPH  =      F    aspherical Exc in radial PAW
   METAGGA=      F    non-selfconsistent MetaGGA calc.

 Electronic Relaxation 1
   ENCUT  =  280.0 eV  20.58 Ry    4.54 a.u.  13.68 13.68 40.93*2*pi/ulx,y,z
   ENINI  =  280.0     initial cutoff
   ENAUG  =  373.4 eV  augmentation charge cutoff
   NELM   =     60;   NELMIN=  2; NELMDL= -5     # of ELM steps 
   EDIFF  = 0.1E-03   stopping-criterion for ELM
   LREAL  =      F    real-space projection
   NLSPLINE    = F    spline interpolate recip. space projectors
   LCOMPAT=      F    compatible to vasp.4.4
   GGA_COMPAT  = T    GGA compatible to vasp.4.4-vasp.4.6
   LMAXPAW     = -100 max onsite density
   LMAXMIX     =    2 max onsite mixed and CHGCAR
   VOSKOWN=      0    Vosko Wilk Nusair interpolation
   ROPT   =    0.00000   0.00000   0.00000   0.00000
 Ionic relaxation
   EDIFFG = 0.1E-02   stopping-criterion for IOM
   NSW    =    100    number of steps for IOM
   NBLOCK =      1;   KBLOCK =    100    inner block; outer block 
   IBRION =      1    ionic relax: 0-MD 1-quasi-New 2-CG
   NFREE  =      0    steps in history (QN), initial steepest desc. (CG)
   ISIF   =      3    stress and relaxation
   IWAVPR =     11    prediction:  0-non 1-charg 2-wave 3-comb
   ISYM   =      0    0-nonsym 1-usesym 2-fastsym
   LCORR  =      T    Harris-Foulkes like correction to forces

   POTIM  = 0.5000    time-step for ionic-motion
   TEIN   =    0.0    initial temperature
   TEBEG  =    0.0;   TEEND  =   0.0 temperature during run
   SMASS  =  -3.00    Nose mass-parameter (am)
   estimated Nose-frequenzy (Omega)   =  0.10E-29 period in steps =****** mass=  -0.230E-26a.u.
   SCALEE = 1.0000    scale energy and forces
   NPACO  =    256;   APACO  = 16.0  distance and # of slots for P.C.
   PSTRESS=    0.0 pullay stress

  Mass of Ions in am
   POMASS =  50.94 95.94183.85 32.07
  Ionic Valenz
   ZVAL   =   5.00  6.00  6.00  6.00
  Atomic Wigner-Seitz radii
   RWIGS  =  -1.00 -1.00 -1.00 -1.00
  virtual crystal weights 
   VCA    =   1.00  1.00  1.00  1.00
   NELECT =     159.0000    total number of electrons
   NUPDOWN=      -1.0000    fix difference up-down

 DOS related values:
   EMIN   =  10.00;   EMAX   =-10.00  energy-range for DOS
   EFERMI =   0.00
   ISMEAR =     0;   SIGMA  =   0.20  broadening in eV -4-tet -1-fermi 0-gaus

 Electronic relaxation 2 (details)
   IALGO  =     38    algorithm
   LDIAG  =      T    sub-space diagonalisation (order eigenvalues)
   LSUBROT=      F    optimize rotation matrix (better conditioning)
   TURBO    =      0    0=normal 1=particle mesh
   IRESTART =      0    0=no restart 2=restart with 2 vectors
   NREBOOT  =      0    no. of reboots
   NMIN     =      0    reboot dimension
   EREF     =   0.00    reference energy to select bands
   IMIX   =      4    mixing-type and parameters
     AMIX     =   0.40;   BMIX     =  1.00
     AMIX_MAG =   1.60;   BMIX_MAG =  1.00
     AMIN     =   0.10
     WC   =   100.;   INIMIX=   1;  MIXPRE=   1;  MAXMIX= -45

 Intra band minimization:
   WEIMIN = 0.0010     energy-eigenvalue tresh-hold
   EBREAK =  0.21E-06  absolut break condition
   DEPER  =   0.30     relativ break condition  

   TIME   =   0.40     timestep for ELM

  volume/ion in A,a.u.               =      97.10       655.29
  Fermi-wavevector in a.u.,A,eV,Ry     =   0.643191  1.215456  5.628665  0.413695
  Thomas-Fermi vector in A             =   1.710110
 
 Write flags
   LWAVE  =      F    write WAVECAR
   LCHARG =      F    write CHGCAR
   LVTOT  =      F    write LOCPOT, total local potential
   LVHAR  =      F    write LOCPOT, Hartree potential only
   LELF   =      F    write electronic localiz. function (ELF)
   LORBIT =      0    0 simple, 1 ext, 2 COOP (PROOUT)


 Dipole corrections
   LMONO  =      F    monopole corrections only (constant potential shift)
   LDIPOL =      F    correct potential (dipole corrections)
   IDIPOL =      0    1-x, 2-y, 3-z, 4-all directions 
   EPSILON=  1.0000000 bulk dielectric constant

 Exchange correlation treatment:
   GGA     =    --    GGA type
   LEXCH   =     8    internal setting for exchange type
   VOSKOWN=      0    Vosko Wilk Nusair interpolation
   LHFCALC =     F    Hartree Fock is set to
   LHFONE  =     F    Hartree Fock one center treatment
   AEXX    =    0.0000 exact exchange contribution

 Linear response parameters
   LEPSILON=     F    determine dielectric tensor
   LRPA    =     F    only Hartree local field effects (RPA)
   LNABLA  =     F    use nabla operator in PAW spheres
   LVEL    =     F    velocity operator in full k-point grid
   LINTERFAST=   F  fast interpolation
   KINTER  =     0    interpolate to denser k-point grid
   CSHIFT  =0.1000    complex shift for real part using Kramers Kronig
   OMEGAMAX=  -1.0    maximum frequency
   DEG_THRESHOLD= 0.2000000E-02 threshold for treating states as degnerate
   RTIME   =    0.100 relaxation time in fs

 Orbital magnetization related:
   ORBITALMAG=     F  switch on orbital magnetization
   LCHIMAG   =     F  perturbation theory with respect to B field
   DQ        =  0.001000  dq finite difference perturbation B field



--------------------------------------------------------------------------------------------------------


 quasi-Newton-method for relaxation of ions
 charge density and potential will be updated during run
 non-spin polarized calculation
 Variant of blocked Davidson
 Davidson routine will perform the subspace rotation
 perform sub-space diagonalisation
    after iterative eigenvector-optimisation
 modified Broyden-mixing scheme, WC =      100.0
 initial mixing is a Kerker type mixing with AMIX =  0.4000 and BMIX =      1.0000
 Hartree-type preconditioning will be used
 using additional bands           40
 reciprocal scheme for non local part
 use partial core corrections
 calculate Harris-corrections to forces 
   (improved forces if not selfconsistent)
 use gradient corrections 
 use of overlap-Matrix (Vanderbilt PP)
 Gauss-broadening in eV      SIGMA  =   0.20


--------------------------------------------------------------------------------------------------------


  energy-cutoff  :      280.00
  volume of cell :     2621.81
      direct lattice vectors                 reciprocal lattice vectors
     8.669999960  5.039999894  0.000000000     0.057670129  0.099206348  0.000000000
    -8.669999821  5.040000133  0.000000000    -0.057670126  0.099206350  0.000000000
     0.000000000  0.000000000 30.000000000     0.000000000  0.000000000  0.033333333

  length of vectors
    10.028484344 10.028484344 30.000000000     0.114750788  0.114750788  0.033333333


 
 k-points in units of 2pi/SCALE and weight: K-POINTS 	#supercell of CrS2 in hexagona
   0.00000000  0.00000000  0.00000000       0.016
   0.00720877  0.01240079  0.00000000       0.031
   0.01441753  0.02480159  0.00000000       0.031
   0.02162630  0.03720238  0.00000000       0.031
   0.02883506  0.04960317  0.00000000       0.016
  -0.00720877  0.01240079  0.00000000       0.031
   0.00000000  0.02480159  0.00000000       0.031
   0.00720877  0.03720238  0.00000000       0.031
   0.01441753  0.04960317  0.00000000       0.031
   0.02162630  0.06200397  0.00000000       0.031
  -0.02883506 -0.02480159  0.00000000       0.031
  -0.02162630 -0.01240079  0.00000000       0.031
  -0.01441753  0.00000000  0.00000000       0.031
  -0.01441753  0.02480159  0.00000000       0.031
  -0.00720877  0.03720238  0.00000000       0.031
   0.00000000  0.04960317  0.00000000       0.031
   0.00720877  0.06200397  0.00000000       0.031
   0.01441753  0.07440476  0.00000000       0.031
  -0.03604383 -0.01240079  0.00000000       0.031
  -0.02883506  0.00000000  0.00000000       0.031
  -0.02162630  0.01240079  0.00000000       0.031
  -0.02162630  0.03720238  0.00000000       0.031
  -0.01441753  0.04960317  0.00000000       0.031
  -0.00720877  0.06200397  0.00000000       0.031
   0.00000000  0.07440476  0.00000000       0.031
   0.00720877  0.08680556  0.00000000       0.031
  -0.04325260  0.00000000  0.00000000       0.031
  -0.03604383  0.01240079  0.00000000       0.031
  -0.02883506  0.02480159  0.00000000       0.031
  -0.02883506  0.04960317  0.00000000       0.016
  -0.02162630  0.06200397  0.00000000       0.031
  -0.01441753  0.07440476  0.00000000       0.031
  -0.00720876  0.08680556  0.00000000       0.031
   0.00000000  0.09920635  0.00000000       0.016
 
 k-points in reciprocal lattice and weights: K-POINTS 	#supercell of CrS2 in hexagona
   0.00000000  0.00000000  0.00000000       0.016
   0.12500000  0.00000000  0.00000000       0.031
   0.25000000  0.00000000  0.00000000       0.031
   0.37500000  0.00000000  0.00000000       0.031
   0.50000000  0.00000000  0.00000000       0.016
   0.00000000  0.12500000  0.00000000       0.031
   0.12500000  0.12500000  0.00000000       0.031
   0.25000000  0.12500000  0.00000000       0.031
   0.37500000  0.12500000  0.00000000       0.031
   0.50000000  0.12500000  0.00000000       0.031
  -0.37500000  0.12500000  0.00000000       0.031
  -0.25000000  0.12500000  0.00000000       0.031
  -0.12500000  0.12500000  0.00000000       0.031
   0.00000000  0.25000000  0.00000000       0.031
   0.12500000  0.25000000  0.00000000       0.031
   0.25000000  0.25000000  0.00000000       0.031
   0.37500000  0.25000000  0.00000000       0.031
   0.50000000  0.25000000  0.00000000       0.031
  -0.37500000  0.25000000  0.00000000       0.031
  -0.25000000  0.25000000  0.00000000       0.031
  -0.12500000  0.25000000  0.00000000       0.031
  -0.00000000  0.37500000  0.00000000       0.031
   0.12500000  0.37500000  0.00000000       0.031
   0.25000000  0.37500000  0.00000000       0.031
   0.37500000  0.37500000  0.00000000       0.031
   0.50000000  0.37500000  0.00000000       0.031
  -0.37500000  0.37500000  0.00000000       0.031
  -0.25000000  0.37500000  0.00000000       0.031
  -0.12500000  0.37500000  0.00000000       0.031
   0.00000000  0.50000000  0.00000000       0.016
   0.12500000  0.50000000  0.00000000       0.031
   0.25000000  0.50000000  0.00000000       0.031
   0.37500000  0.50000000  0.00000000       0.031
   0.50000000  0.50000000  0.00000000       0.016
 
 position of ions in fractional coordinates (direct lattice) 
   0.33333334  0.33333334  0.00000000
   0.00000000  0.00000000  0.00000000
   0.66666669  0.00000000  0.00000000
   0.00000000  0.66666669  0.00000000
   0.33333334  0.00000000  0.00000000
   0.66666669  0.33333334  0.00000000
   1.00000000  0.33333334  0.00000000
   0.33333334  0.66666669  0.00000000
   0.66666669  0.66666669  0.00000000
   0.11068511  0.22244981  0.95539999
   0.22244981  0.11068511  0.04460000
   0.11068511  0.55578315  0.95539999
   0.22244981  0.44401845  0.04460000
   0.11068511  0.88911647  0.95539999
   0.22244981  0.77735180  0.04460000
   0.44401845  0.22244981  0.95539999
   0.55578315  0.11068511  0.04460000
   0.44401845  0.55578315  0.95539999
   0.55578315  0.44401845  0.04460000
   0.44401845  0.88911647  0.95539999
   0.55578315  0.77735180  0.04460000
   0.77735180  0.22244981  0.95539999
   0.88911647  0.11068511  0.04460000
   0.77735180  0.55578315  0.95539999
   0.88911647  0.44401845  0.04460000
   0.77735180  0.88911647  0.95539999
   0.88911647  0.77735180  0.04460000
 
 position of ions in cartesian coordinates  (Angst):
   0.00000005  3.36000011  0.00000000
   0.00000000  0.00000000  0.00000000
   5.78000015  3.36000003  0.00000000
  -5.78000005  3.36000019  0.00000000
   2.89000007  1.68000002  0.00000000
   2.89000012  5.04000012  0.00000000
   5.77999993  6.71999999  0.00000000
  -2.88999998  5.04000020  0.00000000
   0.00000009  6.72000022  0.00000000
  -0.96899991  1.67900001 28.66199970
   0.96899995  1.67899998  1.33799996
  -3.85899993  3.35900011 28.66199970
  -1.92100007  3.35900008  1.33799996
  -6.74899970  5.03900005 28.66199970
  -4.81100010  5.03900017  1.33799996
   1.92100017  3.35900003 28.66199970
   3.85900003  3.35900000  1.33799996
  -0.96899986  5.03900012 28.66199970
   0.96900000  5.03900009  1.33799996
  -3.85899963  6.71900006 28.66199970
  -1.92100003  6.71900019  1.33799996
   4.81100024  5.03900004 28.66199970
   6.74899984  5.03899987  1.33799996
   1.92100021  6.71900014 28.66199970
   3.85899981  6.71899996  1.33799996
  -0.96899956  8.39900008 28.66199970
   0.96899979  8.39900005  1.33799996
 


--------------------------------------------------------------------------------------------------------


 k-point  1 :   0.0000 0.0000 0.0000  plane waves:   27959
 k-point  2 :   0.1250 0.0000 0.0000  plane waves:   27889
 k-point  3 :   0.2500 0.0000 0.0000  plane waves:   27875
 k-point  4 :   0.3750 0.0000 0.0000  plane waves:   27893
 k-point  5 :   0.5000 0.0000 0.0000  plane waves:   27932
 k-point  6 :   0.0000 0.1250 0.0000  plane waves:   27889
 k-point  7 :   0.1250 0.1250 0.0000  plane waves:   27906
 k-point  8 :   0.2500 0.1250 0.0000  plane waves:   27898
 k-point  9 :   0.3750 0.1250 0.0000  plane waves:   27888
 k-point 10 :   0.5000 0.1250 0.0000  plane waves:   27873
 k-point 11 :  -0.3750 0.1250 0.0000  plane waves:   27874
 k-point 12 :  -0.2500 0.1250 0.0000  plane waves:   27895
 k-point 13 :  -0.1250 0.1250 0.0000  plane waves:   27879
 k-point 14 :   0.0000 0.2500 0.0000  plane waves:   27875
 k-point 15 :   0.1250 0.2500 0.0000  plane waves:   27898
 k-point 16 :   0.2500 0.2500 0.0000  plane waves:   27920
 k-point 17 :   0.3750 0.2500 0.0000  plane waves:   27901
 k-point 18 :   0.5000 0.2500 0.0000  plane waves:   27875
 k-point 19 :  -0.3750 0.2500 0.0000  plane waves:   27894
 k-point 20 :  -0.2500 0.2500 0.0000  plane waves:   27870
 k-point 21 :  -0.1250 0.2500 0.0000  plane waves:   27895
 k-point 22 :  -0.0000 0.3750 0.0000  plane waves:   27893
 k-point 23 :   0.1250 0.3750 0.0000  plane waves:   27888
 k-point 24 :   0.2500 0.3750 0.0000  plane waves:   27901
 k-point 25 :   0.3750 0.3750 0.0000  plane waves:   27860
 k-point 26 :   0.5000 0.3750 0.0000  plane waves:   27895
 k-point 27 :  -0.3750 0.3750 0.0000  plane waves:   27858
 k-point 28 :  -0.2500 0.3750 0.0000  plane waves:   27894
 k-point 29 :  -0.1250 0.3750 0.0000  plane waves:   27874
 k-point 30 :   0.0000 0.5000 0.0000  plane waves:   27932
 k-point 31 :   0.1250 0.5000 0.0000  plane waves:   27873
 k-point 32 :   0.2500 0.5000 0.0000  plane waves:   27875
 k-point 33 :   0.3750 0.5000 0.0000  plane waves:   27895
 k-point 34 :   0.5000 0.5000 0.0000  plane waves:   27910

 maximum and minimum number of plane-waves per node :     27959    27858

 maximum number of plane-waves:     27959
 maximum index in each direction: 
   IXMAX=   14   IYMAX=   13   IZMAX=   40
   IXMIN=  -14   IYMIN=  -14   IZMIN=  -40

 WARNING: aliasing errors must be expected set NGX to  58 to avoid them
 WARNING: aliasing errors must be expected set NGY to  56 to avoid them
 WARNING: aliasing errors must be expected set NGZ to 162 to avoid them
 aliasing errors are usually negligible using standard VASP settings
 and one can safely disregard these warnings

 serial   3D FFT for wavefunctions

 total amount of memory used by VASP on root node   650782. kBytes
========================================================================

   base      :      30000. kBytes
   nonl-proj :     559647. kBytes
   fftplans  :       2414. kBytes
   grid      :      12150. kBytes
   one-center:        419. kBytes
   wavefun   :      46152. kBytes
 
     INWAV:  cpu time    0.0000: real time    0.0000
 Broyden mixing: mesh for mixing (old mesh)
   NGX = 27   NGY = 27   NGZ = 81
  (NGX  = 84   NGY  = 84   NGZ  =252)
  gives a total of  59049 points

 initial charge density was supplied:
 charge density of overlapping atoms calculated
 number of electron     159.0000000 magnetization 
 keeping initial charge density in first step


--------------------------------------------------------------------------------------------------------


 Maximum index for augmentation-charges          146 (set IRDMAX)


--------------------------------------------------------------------------------------------------------


 First call to EWALD:  gamma=   0.129
 Maximum number of real-space cells 4x 4x 2
 Maximum number of reciprocal cells 2x 2x 5

 FEWALD executed in parallel
    FEWALD:  cpu time    0.0016: real time    0.0016


----------------------------------------- Iteration    1(   1)  ---------------------------------------


    POTLOK:  cpu time    0.0372: real time    0.0373
    SETDIJ:  cpu time    0.0032: real time    0.0034
     EDDAV:  cpu time   22.6715: real time   22.7281
       DOS:  cpu time    0.0013: real time    0.0015
    --------------------------------------------
      LOOP:  cpu time   22.7190: real time   22.7778

 eigenvalue-minimisations  :  8160
 total energy-change (2. order) : 0.1126449E+04  (-0.3597671E+04)
 number of electron     159.0000000 magnetization 
 augmentation part      159.0000000 magnetization 

 Free energy of the ion-electron system (eV)
  ---------------------------------------------------
  alpha Z        PSCENC =        81.65567618
  Ewald energy   TEWEN  =     41890.23010383
  -Hartree energ DENC   =    -47722.85862490
  -exchange      EXHF   =         0.00000000
  -V(xc)+E(xc)   XCENC  =      -242.92963151
  PAW double counting   =      3467.42045192    -2871.19716117
  entropy T*S    EENTRO =        -0.53629788
  eigenvalues    EBANDS =      -236.77811686
  atomic energy  EATOM  =      6761.44252427
  Solvation  Ediel_sol  =         0.00000000
  ---------------------------------------------------
  free energy    TOTEN  =      1126.44892389 eV

  energy without entropy =     1126.98522177  energy(sigma->0) =     1126.71707283


--------------------------------------------------------------------------------------------------------




----------------------------------------- Iteration    1(   2)  ---------------------------------------


     EDDAV:  cpu time   28.8262: real time   28.8953
       DOS:  cpu time    0.0009: real time    0.0009
    --------------------------------------------
      LOOP:  cpu time   28.8282: real time   28.9024

 eigenvalue-minimisations  : 11000
 total energy-change (2. order) :-0.1125849E+04  (-0.1082526E+04)
 number of electron     159.0000000 magnetization 
 augmentation part      159.0000000 magnetization 

 Free energy of the ion-electron system (eV)
  ---------------------------------------------------
  alpha Z        PSCENC =        81.65567618
  Ewald energy   TEWEN  =     41890.23010383
  -Hartree energ DENC   =    -47722.85862490
  -exchange      EXHF   =         0.00000000
  -V(xc)+E(xc)   XCENC  =      -242.92963151
  PAW double counting   =      3467.42045192    -2871.19716117
  entropy T*S    EENTRO =        -0.18418372
  eigenvalues    EBANDS =     -1362.97926124
  atomic energy  EATOM  =      6761.44252427
  Solvation  Ediel_sol  =         0.00000000
  ---------------------------------------------------
  free energy    TOTEN  =         0.59989367 eV

  energy without entropy =        0.78407739  energy(sigma->0) =        0.69198553


--------------------------------------------------------------------------------------------------------




----------------------------------------- Iteration    1(   3)  ---------------------------------------


     EDDAV:  cpu time   28.7150: real time   28.7843
       DOS:  cpu time    0.0010: real time    0.0010
    --------------------------------------------
      LOOP:  cpu time   28.7168: real time   28.7912

 eigenvalue-minimisations  : 10920
 total energy-change (2. order) :-0.2000480E+03  (-0.1917035E+03)
 number of electron     159.0000000 magnetization 
 augmentation part      159.0000000 magnetization 

 Free energy of the ion-electron system (eV)
  ---------------------------------------------------
  alpha Z        PSCENC =        81.65567618
  Ewald energy   TEWEN  =     41890.23010383
  -Hartree energ DENC   =    -47722.85862490
  -exchange      EXHF   =         0.00000000
  -V(xc)+E(xc)   XCENC  =      -242.92963151
  PAW double counting   =      3467.42045192    -2871.19716117
  entropy T*S    EENTRO =        -0.26742151
  eigenvalues    EBANDS =     -1562.94397707
  atomic energy  EATOM  =      6761.44252427
  Solvation  Ediel_sol  =         0.00000000
  ---------------------------------------------------
  free energy    TOTEN  =      -199.44805995 eV

  energy without entropy =     -199.18063844  energy(sigma->0) =     -199.31434920


--------------------------------------------------------------------------------------------------------




----------------------------------------- Iteration    1(   4)  ---------------------------------------


     EDDAV:  cpu time   31.1927: real time   31.2674
       DOS:  cpu time    0.0002: real time    0.0010
    --------------------------------------------
      LOOP:  cpu time   31.1946: real time   31.2735

 eigenvalue-minimisations  : 12120
 total energy-change (2. order) :-0.9485823E+01  (-0.9150915E+01)
 number of electron     159.0000000 magnetization 
 augmentation part      159.0000000 magnetization 

 Free energy of the ion-electron system (eV)
  ---------------------------------------------------
  alpha Z        PSCENC =        81.65567618
  Ewald energy   TEWEN  =     41890.23010383
  -Hartree energ DENC   =    -47722.85862490
  -exchange      EXHF   =         0.00000000
  -V(xc)+E(xc)   XCENC  =      -242.92963151
  PAW double counting   =      3467.42045192    -2871.19716117
  entropy T*S    EENTRO =        -0.29826223
  eigenvalues    EBANDS =     -1572.39895981
  atomic energy  EATOM  =      6761.44252427
  Solvation  Ediel_sol  =         0.00000000
  ---------------------------------------------------
  free energy    TOTEN  =      -208.93388341 eV

  energy without entropy =     -208.63562118  energy(sigma->0) =     -208.78475230


--------------------------------------------------------------------------------------------------------




----------------------------------------- Iteration    1(   5)  ---------------------------------------


     EDDAV:  cpu time   29.6671: real time   29.7386
       DOS:  cpu time    0.0010: real time    0.0010
    CHARGE:  cpu time    0.4685: real time    0.4696
    MIXING:  cpu time    0.0018: real time    0.0020
    --------------------------------------------
      LOOP:  cpu time   30.1392: real time   30.2203

 eigenvalue-minimisations  : 11440
 total energy-change (2. order) :-0.3427729E+00  (-0.3416274E+00)
 number of electron     159.0000111 magnetization 
 augmentation part       -9.7968235 magnetization 

 Broyden mixing:
  rms(total) = 0.27469E+01    rms(broyden)= 0.27464E+01
  rms(prec ) = 0.29322E+01
  weight for this iteration     100.00

 Free energy of the ion-electron system (eV)
  ---------------------------------------------------
  alpha Z        PSCENC =        81.65567618
  Ewald energy   TEWEN  =     41890.23010383
  -Hartree energ DENC   =    -47722.85862490
  -exchange      EXHF   =         0.00000000
  -V(xc)+E(xc)   XCENC  =      -242.92963151
  PAW double counting   =      3467.42045192    -2871.19716117
  entropy T*S    EENTRO =        -0.29464069
  eigenvalues    EBANDS =     -1572.74535422
  atomic energy  EATOM  =      6761.44252427
  Solvation  Ediel_sol  =         0.00000000
  ---------------------------------------------------
  free energy    TOTEN  =      -209.27665629 eV

  energy without entropy =     -208.98201560  energy(sigma->0) =     -209.12933594


--------------------------------------------------------------------------------------------------------




----------------------------------------- Iteration    1(   6)  ---------------------------------------


    POTLOK:  cpu time    0.0337: real time    0.0340
    SETDIJ:  cpu time    0.0026: real time    0.0026
     EDDAV:  cpu time   32.1698: real time   32.2474
       DOS:  cpu time    0.0020: real time    0.0020
    CHARGE:  cpu time    0.4604: real time    0.4615
    MIXING:  cpu time    0.0016: real time    0.0017
    --------------------------------------------
      LOOP:  cpu time   32.6713: real time   32.7577

 eigenvalue-minimisations  : 12640
 total energy-change (2. order) :-0.2788861E+02  (-0.1079690E+02)
 number of electron     159.0000106 magnetization 
 augmentation part        7.0906891 magnetization 

 Broyden mixing:
  rms(total) = 0.59393E+01    rms(broyden)= 0.59386E+01
  rms(prec ) = 0.65210E+01
  weight for this iteration     100.00

 eigenvalues of (default mixing * dielectric matrix)
  average eigenvalue GAMMA=   0.2933
  0.2933

 Free energy of the ion-electron system (eV)
  ---------------------------------------------------
  alpha Z        PSCENC =        81.65567618
  Ewald energy   TEWEN  =     41890.23010383
  -Hartree energ DENC   =    -47701.16325521
  -exchange      EXHF   =         0.00000000
  -V(xc)+E(xc)   XCENC  =      -233.63097852
  PAW double counting   =      3676.33630099    -3082.42587347
  entropy T*S    EENTRO =        -0.27131650
  eigenvalues    EBANDS =     -1629.33844372
  atomic energy  EATOM  =      6761.44252427
  Solvation  Ediel_sol  =         0.00000000
  ---------------------------------------------------
  free energy    TOTEN  =      -237.16526215 eV

  energy without entropy =     -236.89394565  energy(sigma->0) =     -237.02960390


--------------------------------------------------------------------------------------------------------




----------------------------------------- Iteration    1(   7)  ---------------------------------------


    POTLOK:  cpu time    0.0320: real time    0.0323
    SETDIJ:  cpu time    0.0024: real time    0.0024
     EDDAV:  cpu time   33.3279: real time   33.4077
       DOS:  cpu time    0.0010: real time    0.0010
    CHARGE:  cpu time    0.4678: real time    0.4689
    MIXING:  cpu time    0.0012: real time    0.0012
    --------------------------------------------
      LOOP:  cpu time   33.8335: real time   33.9219

 eigenvalue-minimisations  : 13160
 total energy-change (2. order) : 0.4051664E+02  (-0.1777928E+02)
 number of electron     159.0000087 magnetization 
 augmentation part       -6.2248948 magnetization 

 Broyden mixing:
  rms(total) = 0.20373E+01    rms(broyden)= 0.20353E+01
  rms(prec ) = 0.22619E+01
  weight for this iteration     100.00

 eigenvalues of (default mixing * dielectric matrix)
  average eigenvalue GAMMA=   0.5398
  0.8683  0.2112

 Free energy of the ion-electron system (eV)
  ---------------------------------------------------
  alpha Z        PSCENC =        81.65567618
  Ewald energy   TEWEN  =     41890.23010383
  -Hartree energ DENC   =    -47738.70386727
  -exchange      EXHF   =         0.00000000
  -V(xc)+E(xc)   XCENC  =      -235.01502913
  PAW double counting   =      3764.17040112    -3178.21388887
  entropy T*S    EENTRO =        -0.33672678
  eigenvalues    EBANDS =     -1541.87781696
  atomic energy  EATOM  =      6761.44252427
  Solvation  Ediel_sol  =         0.00000000
  ---------------------------------------------------
  free energy    TOTEN  =      -196.64862360 eV

  energy without entropy =     -196.31189683  energy(sigma->0) =     -196.48026022


--------------------------------------------------------------------------------------------------------




----------------------------------------- Iteration    1(   8)  ---------------------------------------


    POTLOK:  cpu time    0.0324: real time    0.0328
    SETDIJ:  cpu time    0.0024: real time    0.0024
     EDDAV:  cpu time   30.2529: real time   30.3257
       DOS:  cpu time    0.0010: real time    0.0010
    CHARGE:  cpu time    0.4725: real time    0.4737
    MIXING:  cpu time    0.0011: real time    0.0011
    --------------------------------------------
      LOOP:  cpu time   30.7636: real time   30.8455

 eigenvalue-minimisations  : 11720
 total energy-change (2. order) : 0.6532566E+01  (-0.2048831E+01)
 number of electron     159.0000095 magnetization 
 augmentation part       -6.4030233 magnetization 

 Broyden mixing:
  rms(total) = 0.13757E+01    rms(broyden)= 0.13752E+01
  rms(prec ) = 0.14867E+01
  weight for this iteration     100.00

 eigenvalues of (default mixing * dielectric matrix)
  average eigenvalue GAMMA=   0.5258
  1.0473  0.2651  0.2651

 Free energy of the ion-electron system (eV)
  ---------------------------------------------------
  alpha Z        PSCENC =        81.65567618
  Ewald energy   TEWEN  =     41890.23010383
  -Hartree energ DENC   =    -47761.57492707
  -exchange      EXHF   =         0.00000000
  -V(xc)+E(xc)   XCENC  =      -235.05267243
  PAW double counting   =      3902.74487187    -3318.33803795
  entropy T*S    EENTRO =        -0.26826719
  eigenvalues    EBANDS =     -1510.95532863
  atomic energy  EATOM  =      6761.44252427
  Solvation  Ediel_sol  =         0.00000000
  ---------------------------------------------------
  free energy    TOTEN  =      -190.11605712 eV

  energy without entropy =     -189.84778993  energy(sigma->0) =     -189.98192353


--------------------------------------------------------------------------------------------------------




----------------------------------------- Iteration    1(   9)  ---------------------------------------


    POTLOK:  cpu time    0.0304: real time    0.0306
    SETDIJ:  cpu time    0.0023: real time    0.0023
     EDDAV:  cpu time   31.2480: real time   31.3228
       DOS:  cpu time    0.0001: real time    0.0010
    CHARGE:  cpu time    0.4816: real time    0.4828
    MIXING:  cpu time    0.0012: real time    0.0012
    --------------------------------------------
      LOOP:  cpu time   31.7657: real time   31.8475

 eigenvalue-minimisations  : 12160
 total energy-change (2. order) : 0.1802967E+01  (-0.3508943E+00)
 number of electron     159.0000094 magnetization 
 augmentation part       -5.7280841 magnetization 

 Broyden mixing:
  rms(total) = 0.93949E+00    rms(broyden)= 0.93905E+00
  rms(prec ) = 0.10110E+01
  weight for this iteration     100.00

 eigenvalues of (default mixing * dielectric matrix)
  average eigenvalue GAMMA=   0.6944
  1.7043  0.5732  0.2198  0.2801

 Free energy of the ion-electron system (eV)
  ---------------------------------------------------
  alpha Z        PSCENC =        81.65567618
  Ewald energy   TEWEN  =     41890.23010383
  -Hartree energ DENC   =    -47765.61581187
  -exchange      EXHF   =         0.00000000
  -V(xc)+E(xc)   XCENC  =      -234.37360548
  PAW double counting   =      3960.83194277    -3377.14022025
  entropy T*S    EENTRO =        -0.32724548
  eigenvalues    EBANDS =     -1505.01645419
  atomic energy  EATOM  =      6761.44252427
  Solvation  Ediel_sol  =         0.00000000
  ---------------------------------------------------
  free energy    TOTEN  =      -188.31309022 eV

  energy without entropy =     -187.98584474  energy(sigma->0) =     -188.14946748


--------------------------------------------------------------------------------------------------------




----------------------------------------- Iteration    1(  10)  ---------------------------------------


    POTLOK:  cpu time    0.0316: real time    0.0320
    SETDIJ:  cpu time    0.0025: real time    0.0025
     EDDAV:  cpu time   33.8691: real time   33.9510
       DOS:  cpu time    0.0010: real time    0.0010
    CHARGE:  cpu time    0.4889: real time    0.4901
    MIXING:  cpu time    0.0013: real time    0.0013
    --------------------------------------------
      LOOP:  cpu time   34.3957: real time   34.4867

 eigenvalue-minimisations  : 13400
 total energy-change (2. order) : 0.1179055E+01  (-0.1783250E+00)
 number of electron     159.0000092 magnetization 
 augmentation part       -4.4090553 magnetization 

 Broyden mixing:
  rms(total) = 0.34798E+00    rms(broyden)= 0.34765E+00
  rms(prec ) = 0.38083E+00
  weight for this iteration     100.00

 eigenvalues of (default mixing * dielectric matrix)
  average eigenvalue GAMMA=   0.6928
  1.8686  0.6120  0.5012  0.2243  0.2577

 Free energy of the ion-electron system (eV)
  ---------------------------------------------------
  alpha Z        PSCENC =        81.65567618
  Ewald energy   TEWEN  =     41890.23010383
  -Hartree energ DENC   =    -47777.84045674
  -exchange      EXHF   =         0.00000000
  -V(xc)+E(xc)   XCENC  =      -232.75593846
  PAW double counting   =      4088.73936765    -3506.68764733
  entropy T*S    EENTRO =        -0.34129762
  eigenvalues    EBANDS =     -1491.57636736
  atomic energy  EATOM  =      6761.44252427
  Solvation  Ediel_sol  =         0.00000000
  ---------------------------------------------------
  free energy    TOTEN  =      -187.13403559 eV

  energy without entropy =     -186.79273797  energy(sigma->0) =     -186.96338678


--------------------------------------------------------------------------------------------------------




----------------------------------------- Iteration    1(  11)  ---------------------------------------


    POTLOK:  cpu time    0.0305: real time    0.0308
    SETDIJ:  cpu time    0.0024: real time    0.0024
     EDDAV:  cpu time   32.2132: real time   32.2903
       DOS:  cpu time    0.0009: real time    0.0009
    CHARGE:  cpu time    0.4954: real time    0.4966
    MIXING:  cpu time    0.0012: real time    0.0012
    --------------------------------------------
      LOOP:  cpu time   32.7448: real time   32.8306

 eigenvalue-minimisations  : 12640
 total energy-change (2. order) : 0.1245293E+00  (-0.6771441E-01)
 number of electron     159.0000092 magnetization 
 augmentation part       -4.2814774 magnetization 

 Broyden mixing:
  rms(total) = 0.23445E+00    rms(broyden)= 0.23407E+00
  rms(prec ) = 0.25716E+00
  weight for this iteration     100.00

 eigenvalues of (default mixing * dielectric matrix)
  average eigenvalue GAMMA=   0.8678
  1.9171  1.9171  0.6149  0.2875  0.2219  0.2480

 Free energy of the ion-electron system (eV)
  ---------------------------------------------------
  alpha Z        PSCENC =        81.65567618
  Ewald energy   TEWEN  =     41890.23010383
  -Hartree energ DENC   =    -47783.79937333
  -exchange      EXHF   =         0.00000000
  -V(xc)+E(xc)   XCENC  =      -232.40242739
  PAW double counting   =      4126.11432807    -3544.37224892
  entropy T*S    EENTRO =        -0.34864420
  eigenvalues    EBANDS =     -1485.52944476
  atomic energy  EATOM  =      6761.44252427
  Solvation  Ediel_sol  =         0.00000000
  ---------------------------------------------------
  free energy    TOTEN  =      -187.00950625 eV

  energy without entropy =     -186.66086204  energy(sigma->0) =     -186.83518414


--------------------------------------------------------------------------------------------------------




----------------------------------------- Iteration    1(  12)  ---------------------------------------


    POTLOK:  cpu time    0.0309: real time    0.0310
    SETDIJ:  cpu time    0.0024: real time    0.0024
     EDDAV:  cpu time   32.4867: real time   32.5650
       DOS:  cpu time    0.0010: real time    0.0010
    CHARGE:  cpu time    0.4978: real time    0.4990
    MIXING:  cpu time    0.0016: real time    0.0016
    --------------------------------------------
      LOOP:  cpu time   33.0216: real time   33.1073

 eigenvalue-minimisations  : 12760
 total energy-change (2. order) :-0.6708954E-02  (-0.4464865E-01)
 number of electron     159.0000089 magnetization 
 augmentation part       -4.4703916 magnetization 

 Broyden mixing:
  rms(total) = 0.32841E+00    rms(broyden)= 0.32832E+00
  rms(prec ) = 0.36396E+00
  weight for this iteration     100.00

 eigenvalues of (default mixing * dielectric matrix)
  average eigenvalue GAMMA=   0.7967
  1.9936  1.9936  0.6170  0.2764  0.2764  0.2121  0.2074

 Free energy of the ion-electron system (eV)
  ---------------------------------------------------
  alpha Z        PSCENC =        81.65567618
  Ewald energy   TEWEN  =     41890.23010383
  -Hartree energ DENC   =    -47796.75731364
  -exchange      EXHF   =         0.00000000
  -V(xc)+E(xc)   XCENC  =      -232.07278581
  PAW double counting   =      4179.93812092    -3598.16678686
  entropy T*S    EENTRO =        -0.33401726
  eigenvalues    EBANDS =     -1472.95173684
  atomic energy  EATOM  =      6761.44252427
  Solvation  Ediel_sol  =         0.00000000
  ---------------------------------------------------
  free energy    TOTEN  =      -187.01621520 eV

  energy without entropy =     -186.68219794  energy(sigma->0) =     -186.84920657


--------------------------------------------------------------------------------------------------------




----------------------------------------- Iteration    1(  13)  ---------------------------------------


    POTLOK:  cpu time    0.0304: real time    0.0307
    SETDIJ:  cpu time    0.0024: real time    0.0024
     EDDAV:  cpu time   33.4566: real time   33.5366
       DOS:  cpu time    0.0002: real time    0.0010
    CHARGE:  cpu time    0.4964: real time    0.4976
    MIXING:  cpu time    0.0014: real time    0.0013
    --------------------------------------------
      LOOP:  cpu time   33.9893: real time   34.0774

 eigenvalue-minimisations  : 13200
 total energy-change (2. order) : 0.8638379E-01  (-0.2544998E-01)
 number of electron     159.0000089 magnetization 
 augmentation part       -4.4074955 magnetization 

 Broyden mixing:
  rms(total) = 0.19154E+00    rms(broyden)= 0.19139E+00
  rms(prec ) = 0.21229E+00
  weight for this iteration     100.00

 eigenvalues of (default mixing * dielectric matrix)
  average eigenvalue GAMMA=   0.7797
  2.2854  1.7041  0.7498  0.5900  0.2993  0.2246  0.2409  0.1431

 Free energy of the ion-electron system (eV)
  ---------------------------------------------------
  alpha Z        PSCENC =        81.65567618
  Ewald energy   TEWEN  =     41890.23010383
  -Hartree energ DENC   =    -47799.23344778
  -exchange      EXHF   =         0.00000000
  -V(xc)+E(xc)   XCENC  =      -231.98847825
  PAW double counting   =      4187.66182610    -3605.88022892
  entropy T*S    EENTRO =        -0.33640679
  eigenvalues    EBANDS =     -1470.48140005
  atomic energy  EATOM  =      6761.44252427
  Solvation  Ediel_sol  =         0.00000000
  ---------------------------------------------------
  free energy    TOTEN  =      -186.92983141 eV

  energy without entropy =     -186.59342462  energy(sigma->0) =     -186.76162802


--------------------------------------------------------------------------------------------------------




----------------------------------------- Iteration    1(  14)  ---------------------------------------


    POTLOK:  cpu time    0.0312: real time    0.0313
    SETDIJ:  cpu time    0.0024: real time    0.0024
     EDDAV:  cpu time   32.8047: real time   32.8837
       DOS:  cpu time    0.0010: real time    0.0010
    CHARGE:  cpu time    0.4959: real time    0.4971
    MIXING:  cpu time    0.0015: real time    0.0015
    --------------------------------------------
      LOOP:  cpu time   33.3376: real time   33.4255

 eigenvalue-minimisations  : 12920
 total energy-change (2. order) : 0.2963656E-01  (-0.1056315E-01)
 number of electron     159.0000089 magnetization 
 augmentation part       -4.1697028 magnetization 

 Broyden mixing:
  rms(total) = 0.89989E-01    rms(broyden)= 0.89845E-01
  rms(prec ) = 0.10155E+00
  weight for this iteration     100.00

 eigenvalues of (default mixing * dielectric matrix)
  average eigenvalue GAMMA=   0.7432
  2.2879  1.6426  0.9883  0.5987  0.3004  0.2754  0.2292  0.2292  0.1374

 Free energy of the ion-electron system (eV)
  ---------------------------------------------------
  alpha Z        PSCENC =        81.65567618
  Ewald energy   TEWEN  =     41890.23010383
  -Hartree energ DENC   =    -47802.59420561
  -exchange      EXHF   =         0.00000000
  -V(xc)+E(xc)   XCENC  =      -231.87275357
  PAW double counting   =      4192.46550547    -3610.65747550
  entropy T*S    EENTRO =        -0.34102654
  eigenvalues    EBANDS =     -1467.22854338
  atomic energy  EATOM  =      6761.44252427
  Solvation  Ediel_sol  =         0.00000000
  ---------------------------------------------------
  free energy    TOTEN  =      -186.90019485 eV

  energy without entropy =     -186.55916831  energy(sigma->0) =     -186.72968158


--------------------------------------------------------------------------------------------------------




----------------------------------------- Iteration    1(  15)  ---------------------------------------


    POTLOK:  cpu time    0.0314: real time    0.0315
    SETDIJ:  cpu time    0.0024: real time    0.0024
     EDDAV:  cpu time   30.7611: real time   30.8347
       DOS:  cpu time    0.0010: real time    0.0010
    CHARGE:  cpu time    0.4932: real time    0.4944
    MIXING:  cpu time    0.0016: real time    0.0016
    --------------------------------------------
      LOOP:  cpu time   31.2918: real time   31.3738

 eigenvalue-minimisations  : 11960
 total energy-change (2. order) : 0.6276576E-02  (-0.3739469E-02)
 number of electron     159.0000090 magnetization 
 augmentation part       -4.1168313 magnetization 

 Broyden mixing:
  rms(total) = 0.87427E-01    rms(broyden)= 0.87357E-01
  rms(prec ) = 0.96949E-01
  weight for this iteration     100.00

 eigenvalues of (default mixing * dielectric matrix)
  average eigenvalue GAMMA=   0.7014
  2.2880  1.6394  1.0923  0.5964  0.3511  0.3032  0.2279  0.2337  0.1491  0.1330

 Free energy of the ion-electron system (eV)
  ---------------------------------------------------
  alpha Z        PSCENC =        81.65567618
  Ewald energy   TEWEN  =     41890.23010383
  -Hartree energ DENC   =    -47804.90341173
  -exchange      EXHF   =         0.00000000
  -V(xc)+E(xc)   XCENC  =      -231.83666662
  PAW double counting   =      4192.80040137    -3610.96271711
  entropy T*S    EENTRO =        -0.34325474
  eigenvalues    EBANDS =     -1464.97657372
  atomic energy  EATOM  =      6761.44252427
  Solvation  Ediel_sol  =         0.00000000
  ---------------------------------------------------
  free energy    TOTEN  =      -186.89391828 eV

  energy without entropy =     -186.55066354  energy(sigma->0) =     -186.72229091


--------------------------------------------------------------------------------------------------------




----------------------------------------- Iteration    1(  16)  ---------------------------------------


    POTLOK:  cpu time    0.0302: real time    0.0306
    SETDIJ:  cpu time    0.0024: real time    0.0024
     EDDAV:  cpu time   32.1956: real time   32.2732
       DOS:  cpu time    0.0010: real time    0.0010
    CHARGE:  cpu time    0.4962: real time    0.4974
    MIXING:  cpu time    0.0017: real time    0.0018
    --------------------------------------------
      LOOP:  cpu time   32.7282: real time   32.8146

 eigenvalue-minimisations  : 12640
 total energy-change (2. order) : 0.4132142E-02  (-0.1399694E-02)
 number of electron     159.0000090 magnetization 
 augmentation part       -4.1302566 magnetization 

 Broyden mixing:
  rms(total) = 0.50159E-01    rms(broyden)= 0.50128E-01
  rms(prec ) = 0.56558E-01
  weight for this iteration     100.00

 eigenvalues of (default mixing * dielectric matrix)
  average eigenvalue GAMMA=   0.7658
  2.3704  1.9266  1.5095  0.6984  0.6203  0.3084  0.2677  0.2246  0.2401  0.1391
  0.1184

 Free energy of the ion-electron system (eV)
  ---------------------------------------------------
  alpha Z        PSCENC =        81.65567618
  Ewald energy   TEWEN  =     41890.23010383
  -Hartree energ DENC   =    -47806.21709041
  -exchange      EXHF   =         0.00000000
  -V(xc)+E(xc)   XCENC  =      -231.81959997
  PAW double counting   =      4193.10526556    -3611.25335439
  entropy T*S    EENTRO =        -0.34326341
  eigenvalues    EBANDS =     -1463.69004781
  atomic energy  EATOM  =      6761.44252427
  Solvation  Ediel_sol  =         0.00000000
  ---------------------------------------------------
  free energy    TOTEN  =      -186.88978614 eV

  energy without entropy =     -186.54652273  energy(sigma->0) =     -186.71815443


--------------------------------------------------------------------------------------------------------




----------------------------------------- Iteration    1(  17)  ---------------------------------------


    POTLOK:  cpu time    0.0313: real time    0.0317
    SETDIJ:  cpu time    0.0025: real time    0.0025
     EDDAV:  cpu time   32.2002: real time   32.2772
       DOS:  cpu time    0.0010: real time    0.0010
    CHARGE:  cpu time    0.4945: real time    0.4957
    MIXING:  cpu time    0.0017: real time    0.0017
    --------------------------------------------
      LOOP:  cpu time   32.7324: real time   32.8190

 eigenvalue-minimisations  : 12680
 total energy-change (2. order) : 0.2722263E-02  (-0.7348047E-03)
 number of electron     159.0000090 magnetization 
 augmentation part       -4.1931307 magnetization 

 Broyden mixing:
  rms(total) = 0.17596E-01    rms(broyden)= 0.17532E-01
  rms(prec ) = 0.21546E-01
  weight for this iteration     100.00

 eigenvalues of (default mixing * dielectric matrix)
  average eigenvalue GAMMA=   0.7794
  2.3449  2.3449  1.4391  0.8580  0.6036  0.4729  0.3089  0.2239  0.2559  0.2438
  0.1390  0.1177

 Free energy of the ion-electron system (eV)
  ---------------------------------------------------
  alpha Z        PSCENC =        81.65567618
  Ewald energy   TEWEN  =     41890.23010383
  -Hartree energ DENC   =    -47811.79613050
  -exchange      EXHF   =         0.00000000
  -V(xc)+E(xc)   XCENC  =      -231.74705693
  PAW double counting   =      4194.69483715    -3612.78379574
  entropy T*S    EENTRO =        -0.34133338
  eigenvalues    EBANDS =     -1458.24188876
  atomic energy  EATOM  =      6761.44252427
  Solvation  Ediel_sol  =         0.00000000
  ---------------------------------------------------
  free energy    TOTEN  =      -186.88706387 eV

  energy without entropy =     -186.54573050  energy(sigma->0) =     -186.71639719


--------------------------------------------------------------------------------------------------------




----------------------------------------- Iteration    1(  18)  ---------------------------------------


    POTLOK:  cpu time    0.0299: real time    0.0302
    SETDIJ:  cpu time    0.0024: real time    0.0024
     EDDAV:  cpu time   30.3745: real time   30.4487
       DOS:  cpu time    0.0009: real time    0.0010
    CHARGE:  cpu time    0.4971: real time    0.4983
    MIXING:  cpu time    0.0021: real time    0.0021
    --------------------------------------------
      LOOP:  cpu time   30.9080: real time   30.9906

 eigenvalue-minimisations  : 11800
 total energy-change (2. order) : 0.5404040E-03  (-0.2026327E-03)
 number of electron     159.0000090 magnetization 
 augmentation part       -4.2079703 magnetization 

 Broyden mixing:
  rms(total) = 0.17697E-01    rms(broyden)= 0.17687E-01
  rms(prec ) = 0.20549E-01
  weight for this iteration     100.00

 eigenvalues of (default mixing * dielectric matrix)
  average eigenvalue GAMMA=   0.7860
  2.3663  2.3663  1.2613  1.2613  0.6746  0.6180  0.3822  0.3066  0.2242  0.2576
  0.2422  0.1390  0.1177

 Free energy of the ion-electron system (eV)
  ---------------------------------------------------
  alpha Z        PSCENC =        81.65567618
  Ewald energy   TEWEN  =     41890.23010383
  -Hartree energ DENC   =    -47815.27497279
  -exchange      EXHF   =         0.00000000
  -V(xc)+E(xc)   XCENC  =      -231.71298914
  PAW double counting   =      4194.95982387    -3613.01531598
  entropy T*S    EENTRO =        -0.34105815
  eigenvalues    EBANDS =     -1454.83031555
  atomic energy  EATOM  =      6761.44252427
  Solvation  Ediel_sol  =         0.00000000
  ---------------------------------------------------
  free energy    TOTEN  =      -186.88652347 eV

  energy without entropy =     -186.54546532  energy(sigma->0) =     -186.71599439


--------------------------------------------------------------------------------------------------------




----------------------------------------- Iteration    1(  19)  ---------------------------------------


    POTLOK:  cpu time    0.0341: real time    0.0342
    SETDIJ:  cpu time    0.0024: real time    0.0024
     EDDAV:  cpu time   28.7891: real time   28.8586
       DOS:  cpu time    0.0010: real time    0.0010
    CHARGE:  cpu time    0.4945: real time    0.4957
    MIXING:  cpu time    0.0019: real time    0.0019
    --------------------------------------------
      LOOP:  cpu time   29.3240: real time   29.4026

 eigenvalue-minimisations  : 11080
 total energy-change (2. order) : 0.2408827E-03  (-0.7923795E-04)
 number of electron     159.0000090 magnetization 
 augmentation part       -4.1831575 magnetization 

 Broyden mixing:
  rms(total) = 0.45558E-02    rms(broyden)= 0.45391E-02
  rms(prec ) = 0.75289E-02
  weight for this iteration     100.00

 eigenvalues of (default mixing * dielectric matrix)
  average eigenvalue GAMMA=   0.8838
  2.6895  2.6895  1.5981  1.4815  0.9971  0.6282  0.6282  0.3737  0.3073  0.2242
  0.2577  0.2422  0.1390  0.1177

 Free energy of the ion-electron system (eV)
  ---------------------------------------------------
  alpha Z        PSCENC =        81.65567618
  Ewald energy   TEWEN  =     41890.23010383
  -Hartree energ DENC   =    -47817.69172526
  -exchange      EXHF   =         0.00000000
  -V(xc)+E(xc)   XCENC  =      -231.69274094
  PAW double counting   =      4194.41219997    -3612.45447419
  entropy T*S    EENTRO =        -0.34157920
  eigenvalues    EBANDS =     -1452.44626725
  atomic energy  EATOM  =      6761.44252427
  Solvation  Ediel_sol  =         0.00000000
  ---------------------------------------------------
  free energy    TOTEN  =      -186.88628259 eV

  energy without entropy =     -186.54470338  energy(sigma->0) =     -186.71549299


--------------------------------------------------------------------------------------------------------




----------------------------------------- Iteration    1(  20)  ---------------------------------------


    POTLOK:  cpu time    0.0309: real time    0.0310
    SETDIJ:  cpu time    0.0024: real time    0.0024
     EDDAV:  cpu time   24.6034: real time   24.6623
       DOS:  cpu time    0.0009: real time    0.0009
    CHARGE:  cpu time    0.4969: real time    0.4981
    MIXING:  cpu time    0.0020: real time    0.0020
    --------------------------------------------
      LOOP:  cpu time   25.1376: real time   25.2052

 eigenvalue-minimisations  :  9120
 total energy-change (2. order) :-0.8969746E-03  (-0.8506516E-04)
 number of electron     159.0000090 magnetization 
 augmentation part       -4.1873193 magnetization 

 Broyden mixing:
  rms(total) = 0.42251E-02    rms(broyden)= 0.42241E-02
  rms(prec ) = 0.56605E-02
  weight for this iteration     100.00

 eigenvalues of (default mixing * dielectric matrix)
  average eigenvalue GAMMA=   0.9206
  3.1231  2.5667  1.8793  1.5116  0.9002  0.9002  0.6333  0.6333  0.3737  0.3073
  0.2242  0.2577  0.2422  0.1390  0.1177

 Free energy of the ion-electron system (eV)
  ---------------------------------------------------
  alpha Z        PSCENC =        81.65567618
  Ewald energy   TEWEN  =     41890.23010383
  -Hartree energ DENC   =    -47824.33172753
  -exchange      EXHF   =         0.00000000
  -V(xc)+E(xc)   XCENC  =      -231.63632581
  PAW double counting   =      4193.08680384    -3611.10751501
  entropy T*S    EENTRO =        -0.34126090
  eigenvalues    EBANDS =     -1445.88545843
  atomic energy  EATOM  =      6761.44252427
  Solvation  Ediel_sol  =         0.00000000
  ---------------------------------------------------
  free energy    TOTEN  =      -186.88717956 eV

  energy without entropy =     -186.54591866  energy(sigma->0) =     -186.71654911


--------------------------------------------------------------------------------------------------------




----------------------------------------- Iteration    1(  21)  ---------------------------------------


    POTLOK:  cpu time    0.0321: real time    0.0321
    SETDIJ:  cpu time    0.0023: real time    0.0023
     EDDAV:  cpu time   22.7401: real time   22.7949
       DOS:  cpu time    0.0010: real time    0.0010
    CHARGE:  cpu time    0.4944: real time    0.4956
    MIXING:  cpu time    0.0020: real time    0.0020
    --------------------------------------------
      LOOP:  cpu time   23.2728: real time   23.3362

 eigenvalue-minimisations  :  8240
 total energy-change (2. order) :-0.8699914E-03  (-0.2213706E-04)
 number of electron     159.0000090 magnetization 
 augmentation part       -4.1803826 magnetization 

 Broyden mixing:
  rms(total) = 0.35909E-02    rms(broyden)= 0.35868E-02
  rms(prec ) = 0.45940E-02
  weight for this iteration     100.00

 eigenvalues of (default mixing * dielectric matrix)
  average eigenvalue GAMMA=   0.9533
  3.6109  2.4187  2.1706  1.5966  1.0529  1.0529  0.6359  0.6359  0.4167  0.3739
  0.3073  0.2242  0.2422  0.2577  0.1390  0.1177

 Free energy of the ion-electron system (eV)
  ---------------------------------------------------
  alpha Z        PSCENC =        81.65567618
  Ewald energy   TEWEN  =     41890.23010383
  -Hartree energ DENC   =    -47827.10840403
  -exchange      EXHF   =         0.00000000
  -V(xc)+E(xc)   XCENC  =      -231.61757289
  PAW double counting   =      4192.72972808    -3610.75033599
  entropy T*S    EENTRO =        -0.34139427
  eigenvalues    EBANDS =     -1443.12837474
  atomic energy  EATOM  =      6761.44252427
  Solvation  Ediel_sol  =         0.00000000
  ---------------------------------------------------
  free energy    TOTEN  =      -186.88804955 eV

  energy without entropy =     -186.54665528  energy(sigma->0) =     -186.71735242


--------------------------------------------------------------------------------------------------------




----------------------------------------- Iteration    1(  22)  ---------------------------------------


    POTLOK:  cpu time    0.0332: real time    0.0333
    SETDIJ:  cpu time    0.0024: real time    0.0024
     EDDAV:  cpu time   19.6897: real time   19.7368
       DOS:  cpu time    0.0010: real time    0.0010
    CHARGE:  cpu time    0.4963: real time    0.4976
    MIXING:  cpu time    0.0021: real time    0.0021
    --------------------------------------------
      LOOP:  cpu time   20.2258: real time   20.2814

 eigenvalue-minimisations  :  6760
 total energy-change (2. order) :-0.8053339E-03  (-0.1010732E-04)
 number of electron     159.0000090 magnetization 
 augmentation part       -4.1795206 magnetization 

 Broyden mixing:
  rms(total) = 0.33694E-02    rms(broyden)= 0.33681E-02
  rms(prec ) = 0.39802E-02
  weight for this iteration     100.00

 eigenvalues of (default mixing * dielectric matrix)
  average eigenvalue GAMMA=   1.0841
  4.8899  2.5288  2.5288  1.7170  1.4896  0.9899  0.9899  0.6269  0.6269  0.2242
  0.2422  0.2577  0.3073  0.3722  0.3823  0.1390  0.1177

 Free energy of the ion-electron system (eV)
  ---------------------------------------------------
  alpha Z        PSCENC =        81.65567618
  Ewald energy   TEWEN  =     41890.23010383
  -Hartree energ DENC   =    -47829.21377162
[...]
    104      -0.6178      0.00000
    105      -0.4324      0.00000
    106      -0.2821      0.00000
    107      -0.1528      0.00000
    108      -0.0205      0.00000
    109       0.0260      0.00000
    110       0.1213      0.00000
    111       0.4236      0.00000
    112       0.7162      0.00000
    113       0.8162      0.00000
    114       0.8853      0.00000
    115       1.0821      0.00000
    116       1.2336      0.00000
    117       1.2939      0.00000
    118       2.1299      0.00000
    119       2.3167      0.00000
    120       2.3858      0.00000

 k-point    34 :       0.5000    0.5000    0.0000
  band No.  band energies     occupation 
      1     -17.5049      2.00000
      2     -17.3591      2.00000
      3     -16.7589      2.00000
      4     -16.6788      2.00000
      5     -16.6721      2.00000
      6     -16.4358      2.00000
      7     -16.3301      2.00000
      8     -16.2392      2.00000
      9     -16.0444      2.00000
     10     -15.9950      2.00000
     11     -15.9365      2.00000
     12     -15.8454      2.00000
     13     -15.7222      2.00000
     14     -15.7083      2.00000
     15     -15.6544      2.00000
     16     -15.5562      2.00000
     17     -15.2894      2.00000
     18     -15.2546      2.00000
     19      -9.8371      2.00000
     20      -9.4164      2.00000
     21      -9.1697      2.00000
     22      -9.1064      2.00000
     23      -8.9541      2.00000
     24      -8.8278      2.00000
     25      -8.5374      2.00000
     26      -8.4611      2.00000
     27      -8.4187      2.00000
     28      -8.3028      2.00000
     29      -8.2777      2.00000
     30      -8.1957      2.00000
     31      -8.1468      2.00000
     32      -8.1067      2.00000
     33      -7.9655      2.00000
     34      -7.8813      2.00000
     35      -7.7770      2.00000
     36      -7.7362      2.00000
     37      -7.5234      2.00000
     38      -7.3525      2.00000
     39      -7.3104      2.00000
     40      -7.2371      2.00000
     41      -7.1265      2.00000
     42      -7.0824      2.00000
     43      -7.0551      2.00000
     44      -7.0429      2.00000
     45      -6.8169      2.00000
     46      -6.7465      2.00000
     47      -6.6172      2.00000
     48      -6.5829      2.00000
     49      -6.5607      2.00000
     50      -6.5302      2.00000
     51      -6.4532      2.00000
     52      -6.3386      2.00000
     53      -6.2595      2.00000
     54      -6.2211      2.00000
     55      -6.1681      2.00000
     56      -6.0747      2.00000
     57      -6.0442      2.00000
     58      -5.8810      2.00000
     59      -5.8394      2.00000
     60      -5.7936      2.00000
     61      -5.7036      2.00000
     62      -5.6125      2.00000
     63      -5.5327      2.00000
     64      -5.4020      2.00000
     65      -5.2781      2.00000
     66      -5.1905      2.00000
     67      -4.9556      2.00000
     68      -4.8684      2.00000
     69      -4.7926      2.00000
     70      -4.6594      2.00000
     71      -4.5139      2.00000
     72      -4.4457      2.00000
     73      -4.3566      2.00000
     74      -4.2299      2.00000
     75      -4.1563      2.00000
     76      -4.0492      2.00000
     77      -4.0240      2.00000
     78      -3.7288      1.99967
     79      -3.5524      1.98109
     80      -3.0945      0.37314
     81      -2.9871      0.09899
     82      -2.7688      0.00140
     83      -2.6634      0.00008
     84      -2.5473      0.00000
     85      -2.4515      0.00000
     86      -2.3640      0.00000
     87      -2.0541      0.00000
     88      -2.0209      0.00000
     89      -1.9806      0.00000
     90      -1.8247      0.00000
     91      -1.7005      0.00000
     92      -1.6204      0.00000
     93      -1.5101      0.00000
     94      -1.4350      0.00000
     95      -1.3300      0.00000
     96      -1.2128      0.00000
     97      -1.0685      0.00000
     98      -1.0608      0.00000
     99      -0.9733      0.00000
    100      -0.9085      0.00000
    101      -0.8554      0.00000
    102      -0.6833      0.00000
    103      -0.6455      0.00000
    104      -0.6237      0.00000
    105      -0.4084      0.00000
    106      -0.2800      0.00000
    107      -0.1651      0.00000
    108       0.0153      0.00000
    109       0.0282      0.00000
    110       0.0982      0.00000
    111       0.4355      0.00000
    112       0.7623      0.00000
    113       0.8316      0.00000
    114       0.9140      0.00000
    115       1.0639      0.00000
    116       1.1974      0.00000
    117       1.2664      0.00000
    118       2.1908      0.00000
    119       2.2565      0.00000
    120       2.4093      0.00000


--------------------------------------------------------------------------------------------------------


 soft charge-density along one line, spin component           1
         0         1         2         3         4         5         6         7         8         9
 total charge-density along one line
 
 pseudopotential strength for first ion, spin component:           1
 -7.254  -0.004  -0.004   0.001  -0.000   0.684   0.000   0.001
 -0.004  -7.179   0.001   0.003  -0.001   0.000   0.661  -0.000
 -0.004   0.001  -7.120   0.004  -0.021   0.001  -0.000   0.646
  0.001   0.003   0.004  -7.149   0.012  -0.000  -0.001  -0.001
 -0.000  -0.001  -0.021   0.012  -7.255   0.000   0.000   0.006
  0.684   0.000   0.001  -0.000   0.000   0.330   0.000  -0.000
  0.000   0.661  -0.000  -0.001   0.000   0.000   0.337   0.000
  0.001  -0.000   0.646  -0.001   0.006  -0.000   0.000   0.341
 -0.000  -0.001  -0.001   0.652  -0.003   0.000   0.000   0.000
  0.000   0.000   0.006  -0.003   0.685   0.000  -0.000  -0.002
 -0.001  -0.000  -0.021  -0.001  -0.006   0.000   0.000   0.005
 -0.000  -0.000  -0.007  -0.001  -0.002   0.000   0.000   0.002
  0.006  -0.001  -0.000  -0.000  -0.000   0.001   0.001  -0.000
 -0.000   0.000  -0.005   0.011  -0.004   0.000   0.000   0.001
  0.000  -0.000  -0.001  -0.009   0.006   0.000   0.000  -0.001
  0.003   0.002  -0.001  -0.000  -0.001  -0.000  -0.000   0.000
 -0.000   0.000  -0.002   0.008  -0.004   0.000  -0.000   0.001
  0.001  -0.000   0.001  -0.006   0.004  -0.000   0.000  -0.000
 total augmentation occupancy for first ion, spin component:           1
  0.821   0.147  -0.010   0.006   0.001   0.442   0.193  -0.001  -0.002  -0.002   0.002   0.000  -0.010  -0.007  -0.000  -0.002
  0.147   1.085   0.002  -0.001   0.009   0.191   0.656   0.002   0.003   0.007  -0.008  -0.000   0.071  -0.009  -0.007   0.003
 -0.010   0.002   0.832  -0.044  -0.037  -0.001   0.002   0.336  -0.045   0.003   0.169   0.004   0.001  -0.007   0.085   0.000
  0.006  -0.001  -0.044   1.074  -0.151  -0.002   0.003  -0.044   0.635  -0.229  -0.030  -0.005  -0.004   0.100  -0.112  -0.000
  0.001   0.009  -0.037  -0.151   0.803  -0.002   0.007   0.001  -0.232   0.418   0.036  -0.003   0.010  -0.093  -0.011   0.001
  0.442   0.191  -0.001  -0.002  -0.002   0.354   0.197   0.001  -0.001   0.001   0.001   0.000   0.037  -0.002   0.000   0.000
  0.193   0.656   0.002   0.003   0.007   0.197   0.574   0.001   0.002   0.005  -0.007  -0.001   0.069  -0.002  -0.002   0.006
 -0.001   0.002   0.336  -0.044   0.001   0.001   0.001   0.267  -0.030   0.009   0.046   0.010  -0.000  -0.008   0.018   0.000
 -0.002   0.003  -0.045   0.635  -0.232  -0.001   0.002  -0.030   0.579  -0.228  -0.062  -0.008  -0.003   0.107  -0.102  -0.000
 -0.002   0.007   0.003  -0.229   0.418   0.001   0.005   0.009  -0.228   0.374  -0.022  -0.002   0.003  -0.091   0.035   0.000
  0.002  -0.008   0.169  -0.030   0.036   0.001  -0.007   0.046  -0.062  -0.022   1.398   0.135  -0.013  -0.023   0.063  -0.000
  0.000  -0.000   0.004  -0.005  -0.003   0.000  -0.001   0.010  -0.008  -0.002   0.135   0.026   0.000  -0.002   0.011  -0.000
 -0.010   0.071   0.001  -0.004   0.010   0.037   0.069  -0.000  -0.003   0.003  -0.013   0.000   0.345  -0.002   0.000   0.027
 -0.007  -0.009  -0.007   0.100  -0.093  -0.002  -0.002  -0.008   0.107  -0.091  -0.023  -0.002  -0.002   0.421  -0.016  -0.000
 -0.000  -0.007   0.085  -0.112  -0.011   0.000  -0.002   0.018  -0.102   0.035   0.063   0.011   0.000  -0.016   0.355   0.000
 -0.002   0.003   0.000  -0.000   0.001   0.000   0.006   0.000  -0.000   0.000  -0.000  -0.000   0.027  -0.000   0.000   0.003
 -0.000  -0.001   0.001  -0.001  -0.004  -0.000  -0.000  -0.000   0.006  -0.006  -0.000  -0.000  -0.000   0.028  -0.000  -0.000
 -0.001  -0.000   0.002  -0.003  -0.003  -0.000  -0.000   0.004  -0.008  -0.000   0.003   0.001   0.000  -0.000   0.025   0.000


------------------------ aborting loop because EDIFF is reached ----------------------------------------


    CHARGE:  cpu time    0.4538: real time    0.4549
    FORLOC:  cpu time    0.0063: real time    0.0063
    FORNL :  cpu time    5.2932: real time    5.3059
    STRESS:  cpu time   32.5212: real time   32.5991
    FORCOR:  cpu time    0.0335: real time    0.0338
    FORHAR:  cpu time    0.0124: real time    0.0124
    MIXING:  cpu time    0.0011: real time    0.0011
    OFIELD:  cpu time    0.0000: real time    0.0000

  FORCE on cell =-STRESS in cart. coord.  units (eV):
  Direction    XX          YY          ZZ          XY          YZ          ZX
  --------------------------------------------------------------------------------------
  Alpha Z    89.20538    89.20538    89.20538
  Ewald   49154.92496 49242.54057-54132.48149     1.29445     1.84754   -21.42880
  Hartree 49886.88681 49942.04838-49556.17668     0.84690     0.27753   -13.45419
  E(xc)    -611.42492  -609.03994  -617.69765     0.01815    -0.08608     0.93958
  Local  ************************101126.60210    -1.69943    -2.03328    44.77697
  n-local  1216.71497  1213.28334  1248.60729    -0.13915     0.48730     3.00619
  augment  -212.19966  -213.30670  -214.60144     0.39822     0.36407    -0.78408
  Kinetic  2020.19152  2001.74831  2054.77590    -0.71973    -0.84209   -12.94803
  Fock        0.00000     0.00000     0.00000     0.00000     0.00000     0.00000
  -------------------------------------------------------------------------------------
  Total       0.30499     0.26542    -1.76659    -0.00059     0.01498     0.10764
  in kB       0.20361     0.17720    -1.17937    -0.00040     0.01000     0.07186
  external pressure =       -0.27 kB  Pullay stress =        0.00 kB


 VOLUME and BASIS-vectors are now :
 -----------------------------------------------------------------------------
  energy-cutoff  :      280.00
  volume of cell :     2399.92
      direct lattice vectors                 reciprocal lattice vectors
     8.334318307  4.793103663  0.000000000     0.060031797  0.104248922  0.000000000
    -8.339625016  4.802377505  0.000000000    -0.059915870  0.104182586  0.000000000
     0.000000000  0.000000000 30.000000000     0.000000000  0.000000000  0.033333333

  length of vectors
     9.614296873  9.623521970 30.000000000     0.120298190  0.120182872  0.033333333


 FORCES acting on ions
    electron-ion (+dipol)            ewald-force                    non-local-force                 convergence-correction
 -----------------------------------------------------------------------------------------------
   0.219E+02 -.155E+00 -.241E+02   -.233E+02 -.124E+00 0.240E+02   0.139E+01 0.285E+00 0.122E+00   0.411E-01 -.563E-02 0.676E-01
   0.265E+02 -.199E+01 -.125E+02   -.281E+02 0.240E+01 0.124E+02   0.157E+01 -.375E+00 0.165E+00   0.567E-01 -.341E-01 0.304E-01
   -.224E+02 0.322E+00 0.249E+02   0.239E+02 -.269E+00 -.247E+02   -.146E+01 -.321E-02 -.162E+00   -.661E-01 -.479E-01 -.800E-01
   0.740E+01 -.434E+01 -.209E+01   -.724E+01 0.420E+01 0.215E+01   -.235E+00 0.988E-01 -.562E-01   0.714E-01 0.420E-01 -.630E-02
   0.470E+01 -.196E+02 -.147E+01   -.476E+01 0.197E+02 0.145E+01   -.432E-01 0.160E-01 0.349E-01   0.112E+00 -.729E-01 -.134E-01
   0.564E+00 0.231E+02 -.782E+00   -.626E+00 -.230E+02 0.836E+00   0.567E-02 -.131E+00 -.484E-01   0.678E-01 0.607E-01 -.763E-02
   -.359E+02 0.549E+01 0.138E+02   0.369E+02 -.584E+01 -.135E+02   -.992E+00 0.299E+00 -.255E+00   -.702E-01 0.344E-01 -.185E-01
   -.365E+02 -.626E+01 0.166E+02   0.374E+02 0.656E+01 -.164E+02   -.833E+00 -.295E+00 -.191E+00   -.107E+00 0.884E-02 -.149E-01
   0.346E+02 0.341E+01 -.123E+02   -.357E+02 -.356E+01 0.122E+02   0.111E+01 0.112E+00 0.156E+00   0.995E-02 0.502E-01 0.918E-02
   0.380E+01 -.199E+01 0.484E+03   -.281E+01 0.190E+01 -.488E+03   -.859E+00 0.140E+00 0.473E+01   -.127E+00 -.392E-01 -.129E+00
   0.217E+02 -.643E+01 -.592E+03   -.228E+02 0.664E+01 0.595E+03   0.933E+00 -.143E+00 -.344E+01   0.137E+00 -.601E-01 0.868E-01
   -.251E+02 -.516E+00 0.628E+03   0.259E+02 0.598E+00 -.631E+03   -.780E+00 -.109E+00 0.373E+01   -.485E-01 0.241E-01 0.453E-01
   -.201E+02 -.161E+00 -.507E+03   0.205E+02 0.994E-01 0.512E+03   -.264E+00 0.401E-01 -.503E+01   -.162E+00 0.191E-01 0.533E-01
   0.204E+02 -.449E+01 0.604E+03   -.220E+02 0.507E+01 -.606E+03   0.143E+01 -.596E+00 0.293E+01   0.166E+00 0.136E-01 -.308E-02
   -.142E+02 -.705E+01 -.627E+03   0.152E+02 0.758E+01 0.630E+03   -.979E+00 -.561E+00 -.339E+01   -.270E-01 0.247E-01 -.897E-01
   0.822E+01 0.160E+01 0.564E+03   -.106E+02 -.159E+01 -.567E+03   0.220E+01 0.528E-01 0.295E+01   0.177E+00 -.624E-01 -.112E+00
   -.683E+01 -.134E+00 -.567E+03   0.887E+01 0.122E+00 0.570E+03   -.200E+01 0.897E-01 -.306E+01   -.137E-01 -.755E-01 0.142E-01
   0.495E+01 0.345E+01 0.490E+03   -.424E+01 -.365E+01 -.495E+03   -.584E+00 0.903E-01 0.495E+01   -.114E+00 0.941E-01 -.933E-01
   0.232E+02 0.906E+01 -.605E+03   -.239E+02 -.952E+01 0.608E+03   0.673E+00 0.375E+00 -.378E+01   0.449E-01 0.896E-01 0.999E-01
   -.222E+02 -.965E+01 0.608E+03   0.229E+02 0.999E+01 -.612E+03   -.603E+00 -.301E+00 0.392E+01   -.676E-01 -.351E-01 0.530E-01
   -.777E+01 -.480E+01 -.488E+03   0.728E+01 0.504E+01 0.493E+03   0.515E+00 -.201E+00 -.505E+01   -.368E-01 -.321E-01 0.243E-01
   -.226E+02 0.103E+02 0.604E+03   0.234E+02 -.107E+02 -.607E+03   -.768E+00 0.390E+00 0.377E+01   -.414E-02 0.151E-01 -.109E-01
   -.981E+01 0.542E+01 -.483E+03   0.995E+01 -.554E+01 0.488E+03   -.807E-01 0.971E-01 -.479E+01   -.706E-01 0.172E-01 0.651E-01
   0.197E+02 0.388E+01 0.625E+03   -.209E+02 -.444E+01 -.628E+03   0.107E+01 0.525E+00 0.335E+01   0.549E-01 0.413E-01 -.132E-01
   -.166E+02 0.702E+01 -.629E+03   0.174E+02 -.750E+01 0.633E+03   -.818E+00 0.426E+00 -.342E+01   -.156E-02 0.453E-01 -.190E-01
   0.150E+02 -.200E+01 0.495E+03   -.150E+02 0.222E+01 -.500E+03   -.970E-02 -.166E+00 0.480E+01   -.229E-01 -.584E-01 -.706E-01
   0.266E+02 -.349E+01 -.604E+03   -.277E+02 0.366E+01 0.608E+03   0.106E+01 -.132E+00 -.336E+01   0.702E-01 -.399E-01 0.293E-01
 -----------------------------------------------------------------------------------------------
   -.737E+00 -.390E-01 0.524E+00   -.249E-13 -.160E-13 0.341E-12   0.662E+00 0.223E-01 -.417E+00   0.689E-01 0.171E-01 -.103E+00
 
 
 POSITION                                       TOTAL-FORCE (eV/Angst)
 -----------------------------------------------------------------------------------
      0.33292      3.18981      0.08548         0.014273      0.000176      0.034352
      0.26964     -0.00368      0.05107         0.007498      0.003034      0.005038
      5.23157      3.18921     -0.08815        -0.028677      0.002605     -0.027031
     -5.51671      3.18247      0.00741        -0.004924      0.008344      0.004453
      2.80966      1.41369      0.00306         0.004228      0.010377      0.001087
      2.77236      4.99044      0.00198         0.010909     -0.016416     -0.002390
      5.26318      6.42056     -0.04774        -0.001319     -0.016499     -0.002160
     -3.08565      4.76082     -0.05554        -0.003158      0.011153      0.003278
      0.29405      6.42493      0.04413        -0.003037      0.004435      0.010413
     -0.89682      1.61447     28.73219         0.005686      0.005811      0.021633
      0.93279      1.57036      1.61635        -0.001185      0.002622      0.006544
     -3.73175      3.19830     28.27806        -0.005620     -0.003258     -0.001905
     -1.81917      3.19985      1.34642         0.001992     -0.002805     -0.011300
     -6.52094      4.78027     28.38529        -0.004711     -0.000180      0.007502
     -4.65565      4.77165      1.68996         0.003811      0.001527     -0.013083
      1.88833      3.19485     28.50202        -0.013166      0.000259      0.007230
      3.67366      3.19740      1.50740         0.023571      0.002268     -0.020230
     -0.90971      4.75873     28.71238         0.007960     -0.009841      0.012049
      0.95293      4.78951      1.65789         0.004706      0.000889      0.008126
     -3.73564      6.39757     28.32931        -0.003863      0.004368      0.000794
     -1.87721      6.42638      1.28086        -0.004868      0.009371     -0.021725
      4.60367      4.78603     28.34325        -0.002873     -0.007722     -0.007255
      6.47087      4.76172      1.26555        -0.005021     -0.011764     -0.015262
      1.87630      6.42981     28.31673        -0.002575      0.002443     -0.005779
      3.67787      6.41829      1.69617         0.001751      0.000062     -0.004866
     -0.95264      8.02191     28.68907        -0.002591      0.000991      0.008804
      0.92272      8.03640      1.64942         0.001203     -0.002250      0.001685
 -----------------------------------------------------------------------------------
    total drift:                               -0.005376      0.000387      0.003737


--------------------------------------------------------------------------------------------------------



  FREE ENERGIE OF THE ION-ELECTRON SYSTEM (eV)
  ---------------------------------------------------
  free  energy   TOTEN  =      -192.46559217 eV

  energy  without entropy=     -192.34043672  energy(sigma->0) =     -192.40301444
 
 d Force = 0.9561038E-03[ 0.715E-03, 0.120E-02]  d Energy = 0.5773486E-03 0.379E-03
 d Force = 0.5672307E+00[ 0.585E+00, 0.549E+00]  d Ewald  =-0.3370544E+01 0.394E+01


--------------------------------------------------------------------------------------------------------


    POTLOK:  cpu time    0.0346: real time    0.0347


--------------------------------------------------------------------------------------------------------


 Quasi-Newton relaxation of ions (Broydens 2nd method)
  g(Force)  = 0.394E-03   g(Stress)= 0.292E-03

 retain information from N=  3 steps
 eigenvalues of (default step * inverse Hessian matrix)
  average eigenvalue of G=   2.8877
 eigenvalue spectrum of G is  4.2293  4.2293  0.2047


--------------------------------------------------------------------------------------------------------


  
 reached required accuracy - stopping structural energy minimisation
     LOOP+:  cpu time  147.6820: real time  148.0480
    4ORBIT:  cpu time    0.0000: real time    0.0000

 total amount of memory used by VASP on root node   650782. kBytes
========================================================================

   base      :      30000. kBytes
   nonl-proj :     559647. kBytes
   fftplans  :       2414. kBytes
   grid      :      12150. kBytes
   one-center:        419. kBytes
   wavefun   :      46152. kBytes
 
  
  
 General timing and accounting informations for this job:
 ========================================================
  
                  Total CPU time used (sec):     6295.240
                            User time (sec):     6256.264
                          System time (sec):       38.976
                         Elapsed time (sec):     6311.868
  
                   Maximum memory used (kb):      738448.
                   Average memory used (kb):           0.
  
                          Minor page faults:       926922
                          Major page faults:            2
                 Voluntary context switches:         4466
