<?xml version="1.0" encoding="ISO-8859-1"?>
<modeling>
 <generator>
  <i name="program" type="string">vasp </i>
  <i name="version" type="string">5.4.1  </i>
  <i name="subversion" type="string">05Feb16 (build Jul 05 2020 17:13:04) complex                          parallel </i>
  <i name="platform" type="string">IFC91_ompi </i>
  <i name="date" type="string">2024 07 17 </i>
  <i name="time" type="string">06:38:10 </i>
 </generator>
 <incar>
  <i type="int" name="ISTART">     0</i>
  <i type="string" name="PREC">normal</i>
  <i type="string" name="ALGO"> Normal</i>
  <i type="int" name="ISPIN">     1</i>
  <i type="int" name="ICHARG">     2</i>
  <i type="int" name="IBRION">     1</i>
  <i type="int" name="NSW">   100</i>
  <i type="int" name="ISIF">     3</i>
  <i type="int" name="ISYM">     0</i>
  <i name="SYMPREC">      0.00000001</i>
  <i name="POTIM">      0.50000000</i>
  <i type="logical" name="LREAL"> F  </i>
  <i type="logical" name="LPLANE"> F  </i>
  <i type="int" name="ISMEAR">     0</i>
  <i type="logical" name="LWAVE"> F  </i>
  <i type="logical" name="LCHARG"> F  </i>
  <v type="int" name="KPOINT_BSE">    -1     0     0     0</v>
 </incar>
 <kpoints>
  <generation param="Gamma">
   <v type="int" name="divisions">       8        8        1 </v>
   <v name="usershift">      0.00000000       0.00000000       0.00000000 </v>
   <v name="genvec1">      0.12500000       0.00000000       0.00000000 </v>
   <v name="genvec2">     -0.00000000       0.12500000       0.00000000 </v>
   <v name="genvec3">      0.00000000       0.00000000       1.00000000 </v>
   <v name="shift">      0.00000000       0.00000000       0.00000000 </v>
  </generation>
  <varray name="kpointlist" >
   <v>       0.00000000       0.00000000       0.00000000 </v>
   <v>       0.12500000       0.00000000       0.00000000 </v>
   <v>       0.25000000       0.00000000       0.00000000 </v>
   <v>       0.37500000       0.00000000       0.00000000 </v>
   <v>       0.50000000       0.00000000       0.00000000 </v>
   <v>       0.00000000       0.12500000       0.00000000 </v>
   <v>       0.12500000       0.12500000       0.00000000 </v>
   <v>       0.25000000       0.12500000       0.00000000 </v>
   <v>       0.37500000       0.12500000       0.00000000 </v>
   <v>       0.50000000       0.12500000       0.00000000 </v>
   <v>      -0.37500000       0.12500000       0.00000000 </v>
   <v>      -0.25000000       0.12500000       0.00000000 </v>
   <v>      -0.12500000       0.12500000       0.00000000 </v>
   <v>       0.00000000       0.25000000       0.00000000 </v>
   <v>       0.12500000       0.25000000       0.00000000 </v>
   <v>       0.25000000       0.25000000       0.00000000 </v>
   <v>       0.37500000       0.25000000       0.00000000 </v>
   <v>       0.50000000       0.25000000       0.00000000 </v>
   <v>      -0.37500000       0.25000000       0.00000000 </v>
   <v>      -0.25000000       0.25000000       0.00000000 </v>
   <v>      -0.12500000       0.25000000       0.00000000 </v>
   <v>      -0.00000000       0.37500000       0.00000000 </v>
   <v>       0.12500000       0.37500000       0.00000000 </v>
   <v>       0.25000000       0.37500000       0.00000000 </v>
   <v>       0.37500000       0.37500000       0.00000000 </v>
   <v>       0.50000000       0.37500000       0.00000000 </v>
   <v>      -0.37500000       0.37500000       0.00000000 </v>
   <v>      -0.25000000       0.37500000       0.00000000 </v>
   <v>      -0.12500000       0.37500000       0.00000000 </v>
   <v>       0.00000000       0.50000000       0.00000000 </v>
   <v>       0.12500000       0.50000000       0.00000000 </v>
   <v>       0.25000000       0.50000000       0.00000000 </v>
   <v>       0.37500000       0.50000000       0.00000000 </v>
   <v>       0.50000000       0.50000000       0.00000000 </v>
  </varray>
  <varray name="weights" >
   <v>       0.01562500 </v>
   <v>       0.03125000 </v>
   <v>       0.03125000 </v>
   <v>       0.03125000 </v>
   <v>       0.01562500 </v>
   <v>       0.03125000 </v>
   <v>       0.03125000 </v>
   <v>       0.03125000 </v>
   <v>       0.03125000 </v>
   <v>       0.03125000 </v>
   <v>       0.03125000 </v>
   <v>       0.03125000 </v>
   <v>       0.03125000 </v>
   <v>       0.03125000 </v>
   <v>       0.03125000 </v>
   <v>       0.03125000 </v>
   <v>       0.03125000 </v>
   <v>       0.03125000 </v>
   <v>       0.03125000 </v>
   <v>       0.03125000 </v>
   <v>       0.03125000 </v>
   <v>       0.03125000 </v>
   <v>       0.03125000 </v>
   <v>       0.03125000 </v>
   <v>       0.03125000 </v>
   <v>       0.03125000 </v>
   <v>       0.03125000 </v>
   <v>       0.03125000 </v>
   <v>       0.03125000 </v>
   <v>       0.01562500 </v>
   <v>       0.03125000 </v>
   <v>       0.03125000 </v>
   <v>       0.03125000 </v>
   <v>       0.01562500 </v>
  </varray>
 </kpoints>
 <parameters>
  <separator name="general" >
   <i type="string" name="SYSTEM">unknown system</i>
   <i type="logical" name="LCOMPAT"> F  </i>
  </separator>
  <separator name="electronic" >
   <i type="string" name="PREC">normal</i>
   <i name="ENMAX">    280.00000000</i>
   <i name="ENAUG">    373.43800000</i>
   <i name="EDIFF">      0.00010000</i>
   <i type="int" name="IALGO">    38</i>
   <i type="int" name="IWAVPR">    11</i>
   <i type="int" name="NBANDS">   120</i>
   <i name="NELECT">    159.00000000</i>
   <i type="int" name="TURBO">     0</i>
   <i type="int" name="IRESTART">     0</i>
   <i type="int" name="NREBOOT">     0</i>
   <i type="int" name="NMIN">     0</i>
   <i name="EREF">      0.00000000</i>
   <separator name="electronic smearing" >
    <i type="int" name="ISMEAR">     0</i>
    <i name="SIGMA">      0.20000000</i>
    <i name="KSPACING">      0.50000000</i>
    <i type="logical" name="KGAMMA"> T  </i>
   </separator>
   <separator name="electronic projectors" >
    <i type="logical" name="LREAL"> F  </i>
    <v name="ROPT">      0.00000000      0.00000000      0.00000000      0.00000000</v>
    <i type="int" name="LMAXPAW">  -100</i>
    <i type="int" name="LMAXMIX">     2</i>
    <i type="logical" name="NLSPLINE"> F  </i>
   </separator>
   <separator name="electronic startup" >
    <i type="int" name="ISTART">     0</i>
    <i type="int" name="ICHARG">     2</i>
    <i type="int" name="INIWAV">     1</i>
   </separator>
   <separator name="electronic spin" >
    <i type="int" name="ISPIN">     1</i>
    <i type="logical" name="LNONCOLLINEAR"> F  </i>
    <v name="MAGMOM">      1.00000000      1.00000000      1.00000000      1.00000000      1.00000000      1.00000000      1.00000000      1.00000000      1.00000000      1.00000000      1.00000000      1.00000000      1.00000000      1.00000000      1.00000000      1.00000000      1.00000000      1.00000000      1.00000000      1.00000000
      1.00000000      1.00000000      1.00000000      1.00000000      1.00000000      1.00000000      1.00000000</v>
    <i name="NUPDOWN">     -1.00000000</i>
    <i type="logical" name="LSORBIT"> F  </i>
    <v name="SAXIS">      0.00000000      0.00000000      1.00000000</v>
    <i type="logical" name="LSPIRAL"> F  </i>
    <v name="QSPIRAL">      0.00000000      0.00000000      0.00000000</v>
    <i type="logical" name="LZEROZ"> F  </i>
   </separator>
   <separator name="electronic exchange-correlation" >
    <i type="logical" name="LASPH"> F  </i>
    <i type="logical" name="LMETAGGA"> F  </i>
   </separator>
   <separator name="electronic convergence" >
    <i type="int" name="NELM">    60</i>
    <i type="int" name="NELMDL">    -5</i>
    <i type="int" name="NELMIN">     2</i>
    <i name="ENINI">    280.00000000</i>
    <separator name="electronic convergence detail" >
     <i type="logical" name="LDIAG"> T  </i>
     <i type="logical" name="LSUBROT"> F  </i>
     <i name="WEIMIN">      0.00100000</i>
     <i name="EBREAK">      0.00000021</i>
     <i name="DEPER">      0.30000000</i>
     <i type="int" name="NRMM">     4</i>
     <i name="TIME">      0.40000000</i>
    </separator>
   </separator>
   <separator name="electronic mixer" >
    <i name="AMIX">      0.40000000</i>
    <i name="BMIX">      1.00000000</i>
    <i name="AMIN">      0.10000000</i>
    <i name="AMIX_MAG">      1.60000000</i>
    <i name="BMIX_MAG">      1.00000000</i>
    <separator name="electronic mixer details" >
     <i type="int" name="IMIX">     4</i>
     <i type="logical" name="MIXFIRST"> F  </i>
     <i type="int" name="MAXMIX">   -45</i>
     <i name="WC">    100.00000000</i>
     <i type="int" name="INIMIX">     1</i>
     <i type="int" name="MIXPRE">     1</i>
     <i type="int" name="MREMOVE">     5</i>
    </separator>
   </separator>
   <separator name="electronic dipolcorrection" >
    <i type="logical" name="LDIPOL"> F  </i>
    <i type="logical" name="LMONO"> F  </i>
    <i type="int" name="IDIPOL">     0</i>
    <i name="EPSILON">      1.00000000</i>
    <v name="DIPOL">   -100.00000000   -100.00000000   -100.00000000</v>
    <i name="EFIELD">      0.00000000</i>
   </separator>
  </separator>
  <separator name="grids" >
   <i type="int" name="NGX">    42</i>
   <i type="int" name="NGY">    42</i>
   <i type="int" name="NGZ">   126</i>
   <i type="int" name="NGXF">    84</i>
   <i type="int" name="NGYF">    84</i>
   <i type="int" name="NGZF">   252</i>
   <i type="logical" name="ADDGRID"> F  </i>
  </separator>
  <separator name="ionic" >
   <i type="int" name="NSW">   100</i>
   <i type="int" name="IBRION">     1</i>
   <i type="int" name="ISIF">     3</i>
   <i name="PSTRESS">      0.00000000</i>
   <i name="EDIFFG">      0.00100000</i>
   <i type="int" name="NFREE">     0</i>
   <i name="POTIM">      0.50000000</i>
   <i name="SMASS">     -3.00000000</i>
   <i name="SCALEE">      1.00000000</i>
  </separator>
  <separator name="ionic md" >
   <i name="TEBEG">      0.00010000</i>
   <i name="TEEND">      0.00010000</i>
   <i type="int" name="NBLOCK">     1</i>
   <i type="int" name="KBLOCK">   100</i>
   <i type="int" name="NPACO">   256</i>
   <i name="APACO">     16.00000000</i>
  </separator>
  <separator name="symmetry" >
   <i type="int" name="ISYM">     0</i>
   <i name="SYMPREC">      0.00000001</i>
  </separator>
  <separator name="dos" >
   <i type="logical" name="LORBIT"> F  </i>
   <v name="RWIGS">     -1.00000000     -1.00000000     -1.00000000     -1.00000000</v>
   <i type="int" name="NEDOS">   301</i>
   <i name="EMIN">     10.00000000</i>
   <i name="EMAX">    -10.00000000</i>
   <i name="EFERMI">      0.00000000</i>
  </separator>
  <separator name="writing" >
   <i type="int" name="NWRITE">     2</i>
   <i type="logical" name="LWAVE"> F  </i>
   <i type="logical" name="LCHARG"> F  </i>
   <i type="logical" name="LPARD"> F  </i>
   <i type="logical" name="LVTOT"> F  </i>
   <i type="logical" name="LVHAR"> F  </i>
   <i type="logical" name="LELF"> F  </i>
   <i type="logical" name="LOPTICS"> F  </i>
   <v name="STM">      0.00000000      0.00000000      0.00000000      0.00000000      0.00000000      0.00000000      0.00000000</v>
  </separator>
  <separator name="performance" >
   <i type="int" name="NPAR">    40</i>
   <i type="int" name="NSIM">     4</i>
   <i type="int" name="NBLK">    -1</i>
   <i type="logical" name="LPLANE"> F  </i>
   <i type="logical" name="LSCALAPACK"> T  </i>
   <i type="logical" name="LSCAAWARE"> F  </i>
   <i type="logical" name="LSCALU"> F  </i>
   <i type="logical" name="LASYNC"> F  </i>
   <i type="logical" name="LORBITALREAL"> F  </i>
  </separator>
  <separator name="miscellaneous" >
   <i type="int" name="IDIOT">     3</i>
   <i type="logical" name="LMUSIC"> F  </i>
   <v name="POMASS">     50.94100000     95.94000000    183.85000000     32.06600000</v>
   <v name="DARWINR">      0.00000000      0.00000000      0.00000000      0.00000000</v>
   <v name="DARWINV">      1.00000000      1.00000000      1.00000000      1.00000000</v>
   <i type="logical" name="LCORR"> T  </i>
  </separator>
  <i type="logical" name="GGA_COMPAT"> T  </i>
  <i type="logical" name="LBERRY"> F  </i>
  <i type="int" name="ICORELEVEL">     0</i>
  <i type="logical" name="LDAU"> F  </i>
  <i type="int" name="I_CONSTRAINED_M">     0</i>
  <separator name="electronic exchange-correlation" >
   <i type="string" name="GGA">--</i>
   <i type="int" name="VOSKOWN">     0</i>
   <i type="logical" name="LHFCALC"> F  </i>
   <i type="string" name="PRECFOCK"></i>
   <i type="logical" name="LSYMGRAD"> F  </i>
   <i type="logical" name="LHFONE"> F  </i>
   <i type="logical" name="LRHFCALC"> F  </i>
   <i type="logical" name="LTHOMAS"> F  </i>
   <i type="logical" name="LMODELHF"> F  </i>
   <i name="ENCUT4O">     -1.00000000</i>
   <i type="int" name="EXXOEP">     0</i>
   <i type="int" name="FOURORBIT">     0</i>
   <i name="AEXX">      0.00000000</i>
   <i name="HFALPHA">      0.00000000</i>
   <i name="MCALPHA">      0.00000000</i>
   <i name="ALDAX">      1.00000000</i>
   <i name="AGGAX">      1.00000000</i>
   <i name="ALDAC">      1.00000000</i>
   <i name="AGGAC">      1.00000000</i>
   <i type="int" name="NKREDX">     1</i>
   <i type="int" name="NKREDY">     1</i>
   <i type="int" name="NKREDZ">     1</i>
   <i type="logical" name="SHIFTRED"> F  </i>
   <i type="logical" name="ODDONLY"> F  </i>
   <i type="logical" name="EVENONLY"> F  </i>
   <i type="int" name="LMAXFOCK">     0</i>
   <i type="int" name="NMAXFOCKAE">     0</i>
   <i type="logical" name="LFOCKAEDFT"> F  </i>
   <i name="HFSCREEN">      0.00000000</i>
   <i name="HFSCREENC">      0.00000000</i>
   <i type="int" name="NBANDSGWLOW">     0</i>
  </separator>
  <separator name="vdW DFT" >
   <i type="logical" name="LUSE_VDW"> F  </i>
   <i name="Zab_VDW">     -0.84910000</i>
   <i name="PARAM1">      0.12340000</i>
   <i name="PARAM2">      1.00000000</i>
   <i name="PARAM3">      0.00000000</i>
  </separator>
  <separator name="model GW" >
   <i type="int" name="MODEL_GW">     0</i>
   <i name="MODEL_EPS0">     58.26239943</i>
   <i name="MODEL_ALPHA">      1.00000000</i>
  </separator>
  <separator name="linear response parameters" >
   <i type="logical" name="LEPSILON"> F  </i>
   <i type="logical" name="LRPA"> F  </i>
   <i type="logical" name="LNABLA"> F  </i>
   <i type="logical" name="LVEL"> F  </i>
   <i type="int" name="KINTER">     0</i>
   <i name="CSHIFT">      0.10000000</i>
   <i name="OMEGAMAX">     -1.00000000</i>
   <i name="DEG_THRESHOLD">      0.00200000</i>
  </separator>
  <separator name="orbital magnetization" >
   <i type="logical" name="NUCIND"> F  </i>
   <v name="MAGPOS">      0.00000000      0.00000000      0.00000000</v>
   <i type="logical" name="LNICSALL"> T  </i>
   <i type="logical" name="ORBITALMAG"> F  </i>
   <i type="logical" name="LMAGBLOCH"> F  </i>
   <i type="logical" name="LCHIMAG"> F  </i>
   <i type="logical" name="LGAUGE"> T  </i>
   <i type="int" name="MAGATOM">     0</i>
   <v name="MAGDIPOL">      0.00000000      0.00000000      0.00000000</v>
   <v name="AVECCONST">      0.00000000      0.00000000      0.00000000</v>
  </separator>
  <separator name="response functions" >
   <i type="logical" name="LADDER"> F  </i>
   <i type="logical" name="LFXC"> F  </i>
   <i type="logical" name="LHARTREE"> T  </i>
   <i type="int" name="IBSE">     0</i>
   <v type="int" name="KPOINT">    -1     0     0     0</v>
   <i type="logical" name="LTCTE"> F  </i>
   <i type="logical" name="LTETE"> F  </i>
   <i type="logical" name="LTRIPLET"> F  </i>
   <i type="logical" name="LFXCEPS"> F  </i>
   <i type="logical" name="LFXHEG"> F  </i>
   <i type="int" name="NATURALO">     0</i>
   <i type="logical" name="L2ORDER"> F  </i>
   <i type="logical" name="LUSEW"> F  </i>
   <i name="ENCUTGW">     -2.00000000</i>
   <i name="ENCUTGWSOFT">     -2.00000000</i>
   <i name="ENCUTLF">     -1.00000000</i>
   <i type="int" name="LMAXMP2">    -1</i>
   <i name="SCISSOR">      0.00000000</i>
   <i type="int" name="NOMEGA">     0</i>
   <i type="int" name="NOMEGAR">     0</i>
   <i type="int" name="NBANDSGW">    -1</i>
   <i type="int" name="NBANDSO">    -1</i>
   <i type="int" name="NBANDSV">    -1</i>
   <i type="int" name="NELM">     1</i>
   <i type="int" name="NELMHF">     1</i>
   <i type="int" name="DIM">     3</i>
   <i type="int" name="ANTIRES">     0</i>
   <i name="OMEGAMAX">    -30.00000000</i>
   <i name="OMEGAMIN">    -30.00000000</i>
   <i name="OMEGATL">   -200.00000000</i>
   <i type="int" name="OMEGAGRID">     0</i>
   <i name="CSHIFT">     -0.10000000</i>
   <i type="logical" name="SELFENERGY"> F  </i>
   <i type="logical" name="LSPECTRAL"> F  </i>
   <i type="logical" name="LSPECTRALGW"> F  </i>
   <i type="logical" name="LSINGLES"> F  </i>
   <i type="logical" name="LFERMIGW"> F  </i>
   <i type="logical" name="ODDONLYGW"> F  </i>
   <i type="logical" name="EVENONLYGW"> F  </i>
   <i type="int" name="NKREDLFX">     1</i>
   <i type="int" name="NKREDLFY">     1</i>
   <i type="int" name="NKREDLFZ">     1</i>
   <i type="int" name="MAXMEM">  1800</i>
   <i type="int" name="TELESCOPE">     0</i>
   <i type="int" name="TAUPAR">     1</i>
   <i type="int" name="OMEGAPAR">    -1</i>
   <i name="LAMBDA">      1.00000000</i>
  </separator>
  <separator name="External order field" >
   <i name="OFIELD_KAPPA">      0.00000000</i>
   <v name="OFIELD_K">      0.00000000      0.00000000      0.00000000</v>
   <i name="OFIELD_Q6_NEAR">      0.00000000</i>
   <i name="OFIELD_Q6_FAR">      0.00000000</i>
   <i name="OFIELD_A">      0.00000000</i>
  </separator>
 </parameters>
 <atominfo>
  <atoms>      27 </atoms>
  <types>       4 </types>
  <array name="atoms" >
   <dimension dim="1">ion</dimension>
   <field type="string">element</field>
   <field type="int">atomtype</field>
   <set>
    <rc><c>V </c><c>   1</c></rc>
    <rc><c>V </c><c>   1</c></rc>
    <rc><c>V </c><c>   1</c></rc>
    <rc><c>Mo</c><c>   2</c></rc>
    <rc><c>Mo</c><c>   2</c></rc>
    <rc><c>Mo</c><c>   2</c></rc>
    <rc><c>W </c><c>   3</c></rc>
    <rc><c>W </c><c>   3</c></rc>
    <rc><c>W </c><c>   3</c></rc>
    <rc><c>S </c><c>   4</c></rc>
    <rc><c>S </c><c>   4</c></rc>
    <rc><c>S </c><c>   4</c></rc>
    <rc><c>S </c><c>   4</c></rc>
    <rc><c>S </c><c>   4</c></rc>
    <rc><c>S </c><c>   4</c></rc>
    <rc><c>S </c><c>   4</c></rc>
    <rc><c>S </c><c>   4</c></rc>
    <rc><c>S </c><c>   4</c></rc>
    <rc><c>S </c><c>   4</c></rc>
    <rc><c>S </c><c>   4</c></rc>
    <rc><c>S </c><c>   4</c></rc>
    <rc><c>S </c><c>   4</c></rc>
    <rc><c>S </c><c>   4</c></rc>
    <rc><c>S </c><c>   4</c></rc>
    <rc><c>S </c><c>   4</c></rc>
    <rc><c>S </c><c>   4</c></rc>
    <rc><c>S </c><c>   4</c></rc>
   </set>
  </array>
  <array name="atomtypes" >
   <dimension dim="1">type</dimension>
   <field type="int">atomspertype</field>
   <field type="string">element</field>
   <field>mass</field>
   <field>valence</field>
   <field type="string">pseudopotential</field>
   <set>
    <rc><c>   3</c><c>V </c><c>     50.94100000</c><c>      5.00000000</c><c> PAW_PBE V 08Apr2002                    </c></rc>
    <rc><c>   3</c><c>Mo</c><c>     95.94000000</c><c>      6.00000000</c><c> PAW_PBE Mo 08Apr2002                   </c></rc>
    <rc><c>   3</c><c>W </c><c>    183.85000000</c><c>      6.00000000</c><c> PAW_PBE W 08Apr2002                    </c></rc>
    <rc><c>  18</c><c>S </c><c>     32.06600000</c><c>      6.00000000</c><c>  PAW_PBE S 17Jan2003                   </c></rc>
   </set>
  </array>
 </atominfo>
 <structure name="initialpos" >
  <crystal>
   <varray name="basis" >
    <v>       8.66999996       5.03999989       0.00000000 </v>
    <v>      -8.66999982       5.04000013       0.00000000 </v>
    <v>       0.00000000       0.00000000      30.00000000 </v>
   </varray>
   <i name="volume">   2621.80797419 </i>
   <varray name="rec_basis" >
    <v>       0.05767013       0.09920635       0.00000000 </v>
    <v>      -0.05767013       0.09920635       0.00000000 </v>
    <v>       0.00000000       0.00000000       0.03333333 </v>
   </varray>
  </crystal>
  <varray name="positions" >
   <v>       1.00000000       0.33333334       0.00000000 </v>
   <v>       0.66666669       0.33333334       0.00000000 </v>
   <v>       0.66666669       0.66666669       0.00000000 </v>
   <v>       0.33333334       0.00000000       0.00000000 </v>
   <v>       0.33333334       0.33333334       0.00000000 </v>
   <v>       0.66666669       0.00000000       0.00000000 </v>
   <v>       0.00000000       0.00000000       0.00000000 </v>
   <v>       0.00000000       0.66666669       0.00000000 </v>
   <v>       0.33333334       0.66666669       0.00000000 </v>
   <v>       0.11068511       0.22244981       0.95539999 </v>
   <v>       0.22244981       0.11068511       0.04460000 </v>
   <v>       0.11068511       0.55578315       0.95539999 </v>
   <v>       0.22244981       0.44401845       0.04460000 </v>
   <v>       0.11068511       0.88911647       0.95539999 </v>
   <v>       0.22244981       0.77735180       0.04460000 </v>
   <v>       0.44401845       0.22244981       0.95539999 </v>
   <v>       0.55578315       0.11068511       0.04460000 </v>
   <v>       0.44401845       0.55578315       0.95539999 </v>
   <v>       0.55578315       0.44401845       0.04460000 </v>
   <v>       0.44401845       0.88911647       0.95539999 </v>
   <v>       0.55578315       0.77735180       0.04460000 </v>
   <v>       0.77735180       0.22244981       0.95539999 </v>
   <v>       0.88911647       0.11068511       0.04460000 </v>
   <v>       0.77735180       0.55578315       0.95539999 </v>
   <v>       0.88911647       0.44401845       0.04460000 </v>
   <v>       0.77735180       0.88911647       0.95539999 </v>
   <v>       0.88911647       0.77735180       0.04460000 </v>
  </varray>
 </structure>
 <calculation>
  <scstep>
   <time name="dav">   22.10   22.16</time>
   <time name="total">   22.15   22.21</time>
   <energy>
    <i name="alphaZ">     81.65567618 </i>
    <i name="ewald">  41890.25210247 </i>
    <i name="hartreedc"> -47722.88705931 </i>
    <i name="XCdc">   -242.92852186 </i>
    <i name="pawpsdc">   3467.42045192 </i>
    <i name="pawaedc">  -2871.19716117 </i>
    <i name="eentropy">     -0.53675167 </i>
    <i name="bandstr">   -239.69962434 </i>
    <i name="atom">   6761.44252427 </i>
    <i name="e_fr_energy">   1123.52163649 </i>
    <i name="e_wo_entrp">   1124.05838817 </i>
    <i name="e_0_energy">   1123.79001233 </i>
   </energy>
  </scstep>
  <scstep>
   <time name="dav">   29.09   29.16</time>
   <time name="total">   29.09   29.17</time>
   <energy>
    <i name="e_fr_energy">     -5.68664390 </i>
    <i name="e_wo_entrp">     -5.49017917 </i>
    <i name="e_0_energy">     -5.58841154 </i>
   </energy>
  </scstep>
  <scstep>
   <time name="dav">   27.99   28.06</time>
   <time name="total">   28.00   28.07</time>
   <energy>
    <i name="e_fr_energy">   -200.02901096 </i>
    <i name="e_wo_entrp">   -199.75798957 </i>
    <i name="e_0_energy">   -199.89350027 </i>
   </energy>
  </scstep>
  <scstep>
   <time name="dav">   31.03   31.11</time>
   <time name="total">   31.03   31.11</time>
   <energy>
    <i name="e_fr_energy">   -209.01540592 </i>
    <i name="e_wo_entrp">   -208.70677844 </i>
    <i name="e_0_energy">   -208.86109218 </i>
   </energy>
  </scstep>
  <scstep>
   <time name="dav">   29.09   29.15</time>
   <time name="total">   29.55   29.63</time>
   <energy>
    <i name="e_fr_energy">   -209.30390137 </i>
    <i name="e_wo_entrp">   -208.99775095 </i>
    <i name="e_0_energy">   -209.15082616 </i>
   </energy>
  </scstep>
  <scstep>
   <time name="dav">   32.37   32.45</time>
   <time name="total">   32.87   32.96</time>
   <energy>
    <i name="e_fr_energy">   -236.71269799 </i>
    <i name="e_wo_entrp">   -236.43004117 </i>
    <i name="e_0_energy">   -236.57136958 </i>
   </energy>
  </scstep>
  <scstep>
   <time name="dav">   32.10   32.18</time>
   <time name="total">   32.61   32.70</time>
   <energy>
    <i name="e_fr_energy">   -196.70431291 </i>
    <i name="e_wo_entrp">   -196.38311889 </i>
    <i name="e_0_energy">   -196.54371590 </i>
   </energy>
  </scstep>
  <scstep>
   <time name="dav">   29.71   29.78</time>
   <time name="total">   30.22   30.30</time>
   <energy>
    <i name="e_fr_energy">   -189.93413828 </i>
    <i name="e_wo_entrp">   -189.65762289 </i>
    <i name="e_0_energy">   -189.79588058 </i>
   </energy>
  </scstep>
  <scstep>
   <time name="dav">   29.79   29.86</time>
   <time name="total">   30.31   30.40</time>
   <energy>
    <i name="e_fr_energy">   -188.23737871 </i>
    <i name="e_wo_entrp">   -187.90684440 </i>
    <i name="e_0_energy">   -188.07211155 </i>
   </energy>
  </scstep>
  <scstep>
   <time name="dav">   33.19   33.27</time>
   <time name="total">   33.72   33.81</time>
   <energy>
    <i name="e_fr_energy">   -187.05022661 </i>
    <i name="e_wo_entrp">   -186.70798828 </i>
    <i name="e_0_energy">   -186.87910745 </i>
   </energy>
  </scstep>
  <scstep>
   <time name="dav">   33.46   33.54</time>
   <time name="total">   34.00   34.09</time>
   <energy>
    <i name="e_fr_energy">   -187.02713334 </i>
    <i name="e_wo_entrp">   -186.67502127 </i>
    <i name="e_0_energy">   -186.85107731 </i>
   </energy>
  </scstep>
  <scstep>
   <time name="dav">   32.82   32.90</time>
   <time name="total">   33.35   33.44</time>
   <energy>
    <i name="e_fr_energy">   -187.17370410 </i>
    <i name="e_wo_entrp">   -186.83961298 </i>
    <i name="e_0_energy">   -187.00665854 </i>
   </energy>
  </scstep>
  <scstep>
   <time name="dav">   31.94   32.02</time>
   <time name="total">   32.48   32.56</time>
   <energy>
    <i name="e_fr_energy">   -186.92222417 </i>
    <i name="e_wo_entrp">   -186.58881961 </i>
    <i name="e_0_energy">   -186.75552189 </i>
   </energy>
  </scstep>
  <scstep>
   <time name="dav">   32.16   32.24</time>
   <time name="total">   32.70   32.78</time>
   <energy>
    <i name="e_fr_energy">   -186.87587393 </i>
    <i name="e_wo_entrp">   -186.52983104 </i>
    <i name="e_0_energy">   -186.70285249 </i>
   </energy>
  </scstep>
  <scstep>
   <time name="dav">   31.46   31.53</time>
   <time name="total">   31.99   32.08</time>
   <energy>
    <i name="e_fr_energy">   -186.86952463 </i>
    <i name="e_wo_entrp">   -186.52530162 </i>
    <i name="e_0_energy">   -186.69741312 </i>
   </energy>
  </scstep>
  <scstep>
   <time name="dav">   33.20   33.28</time>
   <time name="total">   33.73   33.82</time>
   <energy>
    <i name="e_fr_energy">   -186.87075096 </i>
    <i name="e_wo_entrp">   -186.52743088 </i>
    <i name="e_0_energy">   -186.69909092 </i>
   </energy>
  </scstep>
  <scstep>
   <time name="dav">   30.70   30.77</time>
   <time name="total">   31.24   31.32</time>
   <energy>
    <i name="e_fr_energy">   -186.86853523 </i>
    <i name="e_wo_entrp">   -186.52562681 </i>
    <i name="e_0_energy">   -186.69708102 </i>
   </energy>
  </scstep>
  <scstep>
   <time name="dav">   29.16   29.23</time>
   <time name="total">   29.70   29.78</time>
   <energy>
    <i name="e_fr_energy">   -186.86795625 </i>
    <i name="e_wo_entrp">   -186.52466491 </i>
    <i name="e_0_energy">   -186.69631058 </i>
   </energy>
  </scstep>
  <scstep>
   <time name="dav">   24.53   24.59</time>
   <time name="total">   25.06   25.13</time>
   <energy>
    <i name="e_fr_energy">   -186.86858028 </i>
    <i name="e_wo_entrp">   -186.52546821 </i>
    <i name="e_0_energy">   -186.69702424 </i>
   </energy>
  </scstep>
  <scstep>
   <time name="dav">   21.93   21.99</time>
   <time name="total">   22.47   22.53</time>
   <energy>
    <i name="e_fr_energy">   -186.86952118 </i>
    <i name="e_wo_entrp">   -186.52634975 </i>
    <i name="e_0_energy">   -186.69793547 </i>
   </energy>
  </scstep>
  <scstep>
   <time name="dav">   18.86   18.91</time>
   <time name="total">   19.39   19.45</time>
   <energy>
    <i name="e_fr_energy">   -186.87012331 </i>
    <i name="e_wo_entrp">   -186.52693883 </i>
    <i name="e_0_energy">   -186.69853107 </i>
   </energy>
  </scstep>
  <scstep>
   <time name="dav">   20.75   20.80</time>
   <time name="total">   21.28   21.34</time>
   <energy>
    <i name="e_fr_energy">   -186.87149096 </i>
    <i name="e_wo_entrp">   -186.52846040 </i>
    <i name="e_0_energy">   -186.69997568 </i>
   </energy>
  </scstep>
  <scstep>
   <time name="dav">   19.27   19.32</time>
   <time name="total">   19.81   19.87</time>
   <energy>
    <i name="e_fr_energy">   -186.87216264 </i>
    <i name="e_wo_entrp">   -186.52906248 </i>
    <i name="e_0_energy">   -186.70061256 </i>
   </energy>
  </scstep>
  <scstep>
   <time name="dav">   17.01   17.05</time>
   <time name="total">   17.54   17.59</time>
   <energy>
    <i name="e_fr_energy">   -186.87244308 </i>
    <i name="e_wo_entrp">   -186.52931784 </i>
    <i name="e_0_energy">   -186.70088046 </i>
   </energy>
  </scstep>
  <scstep>
   <time name="dav">   18.09   18.14</time>
   <time name="total">   18.63   18.69</time>
   <energy>
    <i name="e_fr_energy">   -186.87271724 </i>
    <i name="e_wo_entrp">   -186.52958115 </i>
    <i name="e_0_energy">   -186.70114920 </i>
   </energy>
  </scstep>
  <scstep>
   <time name="dav">   18.99   19.04</time>
   <time name="total">   19.53   19.58</time>
   <energy>
    <i name="e_fr_energy">   -186.87296373 </i>
    <i name="e_wo_entrp">   -186.52984400 </i>
    <i name="e_0_energy">   -186.70140387 </i>
   </energy>
  </scstep>
  <scstep>
   <time name="dav">   20.27   20.32</time>
   <time name="total">   20.31   20.36</time>
   <energy>
    <i name="alphaZ">     81.65567618 </i>
    <i name="ewald">  41890.25210247 </i>
    <i name="hartreedc"> -47833.02572826 </i>
    <i name="XCdc">   -231.60484172 </i>
    <i name="pawpsdc">   4192.12727708 </i>
    <i name="pawaedc">  -3610.14001651 </i>
    <i name="eentropy">     -0.34312068 </i>
    <i name="bandstr">  -1437.23692848 </i>
    <i name="atom">   6761.44252427 </i>
    <i name="e_fr_energy">   -186.87305565 </i>
    <i name="e_wo_entrp">   -186.52993497 </i>
    <i name="e_0_energy">   -186.70149531 </i>
   </energy>
  </scstep>
  <structure>
   <crystal>
    <varray name="basis" >
     <v>       8.66999996       5.03999989       0.00000000 </v>
     <v>      -8.66999982       5.04000013       0.00000000 </v>
     <v>       0.00000000       0.00000000      30.00000000 </v>
    </varray>
    <i name="volume">   2621.80797419 </i>
    <varray name="rec_basis" >
     <v>       0.05767013       0.09920635       0.00000000 </v>
     <v>      -0.05767013       0.09920635       0.00000000 </v>
     <v>       0.00000000       0.00000000       0.03333333 </v>
    </varray>
   </crystal>
   <varray name="positions" >
    <v>       1.00000000       0.33333334       0.00000000 </v>
    <v>       0.66666669       0.33333334       0.00000000 </v>
    <v>       0.66666669       0.66666669       0.00000000 </v>
    <v>       0.33333334       0.00000000       0.00000000 </v>
    <v>       0.33333334       0.33333334       0.00000000 </v>
    <v>       0.66666669       0.00000000       0.00000000 </v>
    <v>       0.00000000       0.00000000       0.00000000 </v>
    <v>       0.00000000       0.66666669       0.00000000 </v>
    <v>       0.33333334       0.66666669       0.00000000 </v>
    <v>       0.11068511       0.22244981       0.95539999 </v>
    <v>       0.22244981       0.11068511       0.04460000 </v>
    <v>       0.11068511       0.55578315       0.95539999 </v>
    <v>       0.22244981       0.44401845       0.04460000 </v>
    <v>       0.11068511       0.88911647       0.95539999 </v>
    <v>       0.22244981       0.77735180       0.04460000 </v>
    <v>       0.44401845       0.22244981       0.95539999 </v>
    <v>       0.55578315       0.11068511       0.04460000 </v>
    <v>       0.44401845       0.55578315       0.95539999 </v>
    <v>       0.55578315       0.44401845       0.04460000 </v>
    <v>       0.44401845       0.88911647       0.95539999 </v>
    <v>       0.55578315       0.77735180       0.04460000 </v>
    <v>       0.77735180       0.22244981       0.95539999 </v>
    <v>       0.88911647       0.11068511       0.04460000 </v>
    <v>       0.77735180       0.55578315       0.95539999 </v>
    <v>       0.88911647       0.44401845       0.04460000 </v>
    <v>       0.77735180       0.88911647       0.95539999 </v>
    <v>       0.88911647       0.77735180       0.04460000 </v>
   </varray>
  </structure>
  <varray name="forces" >
   <v>       0.12956165      -0.15103307      -0.08652652 </v>
   <v>       0.00002511      -0.39218302      -0.00000676 </v>
   <v>      -0.12954524      -0.15098699       0.08651009 </v>
   <v>      -0.00000656       0.27960744      -0.00000410 </v>
   <v>       0.29512368      -0.10469084       0.06291543 </v>
   <v>      -0.29513155      -0.10464111      -0.06293261 </v>
   <v>      -0.05344520       0.29988074      -0.14435517 </v>
   <v>       0.00001235       0.13791936       0.00000103 </v>
   <v>       0.05341010       0.29986343       0.14436530 </v>
   <v>      -0.68254106      -0.17717601      -2.15904302 </v>
   <v>      -0.18533544      -0.14519388       2.89171555 </v>
   <v>       0.47070747      -0.61048760      -2.17278078 </v>
   <v>      -0.61975991      -0.53543363       2.09865938 </v>
   <v>       0.04014787      -0.11925641      -2.91041724 </v>
   <v>      -0.04017277      -0.11924622       2.91043289 </v>
   <v>       0.52179598       0.68895688      -2.18206950 </v>
   <v>      -0.52173284       0.68895095       2.18202678 </v>
   <v>       0.37641622       0.68209973      -2.14875475 </v>
   <v>       0.31074870       0.67616601       1.43033520 </v>
   <v>       0.18534242      -0.14513268      -2.89167605 </v>
   <v>       0.68246931      -0.17709766       2.15903953 </v>
   <v>      -0.31071096       0.67613978      -1.43025337 </v>
   <v>      -0.37641564       0.68207325       2.14867638 </v>
   <v>      -0.23612266      -0.51662108      -1.39133781 </v>
   <v>       0.23615357      -0.51663700       1.39131175 </v>
   <v>       0.61972996      -0.53539169      -2.09861683 </v>
   <v>      -0.47072458      -0.61044870       2.17278521 </v>
  </varray>
  <varray name="stress" >
   <v>       7.30058901       0.00002289      -1.60737697 </v>
   <v>       0.00002282       4.46317784      -0.00002386 </v>
   <v>      -1.60737694      -0.00002389      30.29174602 </v>
  </varray>
  <energy>
   <i name="e_fr_energy">   -186.87305565 </i>
   <i name="e_wo_entrp">   -186.70149531 </i>
   <i name="e_0_energy">     -0.34312068 </i>
  </energy>
  <time name="totalsc">  784.83  786.94</time>
 </calculation>
 <calculation>
  <scstep>
   <time name="dav">   22.22   22.27</time>
   <time name="total">   22.77   22.82</time>
   <energy>
    <i name="alphaZ">     78.91921111 </i>
    <i name="ewald">  39379.09097081 </i>
    <i name="hartreedc"> -45336.55521706 </i>
    <i name="XCdc">   -239.06185733 </i>
    <i name="pawpsdc">   4192.09833980 </i>
    <i name="pawaedc">  -3610.11144833 </i>
    <i name="eentropy">     -0.28492809 </i>
    <i name="bandstr">  -1413.03089128 </i>
    <i name="atom">   6761.44252427 </i>
    <i name="e_fr_energy">   -187.49329610 </i>
    <i name="e_wo_entrp">   -187.20836801 </i>
    <i name="e_0_energy">   -187.35083205 </i>
   </energy>
  </scstep>
  <scstep>
   <time name="dav">   30.80   30.87</time>
   <time name="total">   31.34   31.42</time>
   <energy>
    <i name="e_fr_energy">   -189.29972073 </i>
    <i name="e_wo_entrp">   -188.97773941 </i>
    <i name="e_0_energy">   -189.13873007 </i>
   </energy>
  </scstep>
  <scstep>
   <time name="dav">   30.90   30.97</time>
   <time name="total">   31.44   31.53</time>
   <energy>
    <i name="e_fr_energy">   -189.41361481 </i>
    <i name="e_wo_entrp">   -189.13643836 </i>
    <i name="e_0_energy">   -189.27502658 </i>
   </energy>
  </scstep>
  <scstep>
   <time name="dav">   30.65   30.73</time>
   <time name="total">   31.20   31.29</time>
   <energy>
    <i name="e_fr_energy">   -188.76121824 </i>
    <i name="e_wo_entrp">   -188.47774950 </i>
    <i name="e_0_energy">   -188.61948387 </i>
   </energy>
  </scstep>
  <scstep>
   <time name="dav">   28.50   28.57</time>
   <time name="total">   29.04   29.12</time>
   <energy>
    <i name="e_fr_energy">   -188.87533456 </i>
    <i name="e_wo_entrp">   -188.58339040 </i>
    <i name="e_0_energy">   -188.72936248 </i>
   </energy>
  </scstep>
  <scstep>
   <time name="dav">   31.69   31.76</time>
   <time name="total">   32.23   32.32</time>
   <energy>
    <i name="e_fr_energy">   -188.74423390 </i>
    <i name="e_wo_entrp">   -188.45882015 </i>
    <i name="e_0_energy">   -188.60152703 </i>
   </energy>
  </scstep>
  <scstep>
   <time name="dav">   28.92   28.99</time>
   <time name="total">   29.47   29.55</time>
   <energy>
    <i name="e_fr_energy">   -188.68084105 </i>
    <i name="e_wo_entrp">   -188.39654655 </i>
    <i name="e_0_energy">   -188.53869380 </i>
   </energy>
  </scstep>
  <scstep>
   <time name="dav">   29.21   29.28</time>
   <time name="total">   29.76   29.84</time>
   <energy>
    <i name="e_fr_energy">   -188.66506259 </i>
    <i name="e_wo_entrp">   -188.38175403 </i>
    <i name="e_0_energy">   -188.52340831 </i>
   </energy>
  </scstep>
  <scstep>
   <time name="dav">   30.75   30.82</time>
   <time name="total">   31.30   31.38</time>
   <energy>
    <i name="e_fr_energy">   -188.66024676 </i>
    <i name="e_wo_entrp">   -188.37751320 </i>
    <i name="e_0_energy">   -188.51887998 </i>
   </energy>
  </scstep>
  <scstep>
   <time name="dav">   32.29   32.37</time>
   <time name="total">   32.84   32.93</time>
   <energy>
    <i name="e_fr_energy">   -188.65962701 </i>
    <i name="e_wo_entrp">   -188.37707138 </i>
    <i name="e_0_energy">   -188.51834919 </i>
   </energy>
  </scstep>
  <scstep>
   <time name="dav">   32.56   32.64</time>
   <time name="total">   33.11   33.19</time>
   <energy>
    <i name="e_fr_energy">   -188.65975678 </i>
    <i name="e_wo_entrp">   -188.37782209 </i>
    <i name="e_0_energy">   -188.51878944 </i>
   </energy>
  </scstep>
  <scstep>
   <time name="dav">   29.05   29.12</time>
   <time name="total">   29.61   29.69</time>
   <energy>
    <i name="e_fr_energy">   -188.65941854 </i>
    <i name="e_wo_entrp">   -188.37769012 </i>
    <i name="e_0_energy">   -188.51855433 </i>
   </energy>
  </scstep>
  <scstep>
   <time name="dav">   21.01   21.06</time>
   <time name="total">   21.05   21.11</time>
   <energy>
    <i name="alphaZ">     78.91921111 </i>
    <i name="ewald">  39379.09097081 </i>
    <i name="hartreedc"> -45347.31510454 </i>
    <i name="XCdc">   -237.97730124 </i>
    <i name="pawpsdc">   3950.51892228 </i>
    <i name="pawaedc">  -3365.02947710 </i>
    <i name="eentropy">     -0.28205907 </i>
    <i name="bandstr">  -1408.02705864 </i>
    <i name="atom">   6761.44252427 </i>
    <i name="e_fr_energy">   -188.65937212 </i>
    <i name="e_wo_entrp">   -188.37731305 </i>
    <i name="e_0_energy">   -188.51834258 </i>
   </energy>
  </scstep>
  <structure>
   <crystal>
    <varray name="basis" >
     <v>       8.85506974       5.10577117       0.00000000 </v>
     <v>      -8.85506892       5.10577026       0.00000000 </v>
     <v>       0.00000000       0.00000000      30.00000000 </v>
    </varray>
    <i name="volume">   2712.71721948 </i>
    <varray name="rec_basis" >
     <v>       0.05646483       0.09792840       0.00000000 </v>
     <v>      -0.05646484       0.09792841       0.00000000 </v>
     <v>       0.00000000       0.00000000       0.03333333 </v>
    </varray>
   </crystal>
   <varray name="positions" >
    <v>       0.99963762       0.33225004      -0.00013914 </v>
    <v>       0.66478978       0.33145629      -0.00000001 </v>
    <v>       0.66558365       0.66630448       0.00013912 </v>
    <v>       0.33467152       0.00133821      -0.00000001 </v>
    <v>       0.33365338       0.33201121       0.00010117 </v>
    <v>       0.66534477       0.00032029      -0.00010120 </v>
    <v>       0.00128653       0.00158392      -0.00023214 </v>
    <v>       0.00066011       0.66732673       0.00000000 </v>
    <v>       0.33491708       0.66795323       0.00023215 </v>
    <v>       0.10793821       0.22350079       0.95192806 </v>
    <v>       0.22123928       0.11050585       0.04925013 </v>
    <v>       0.10907291       0.55155179       0.95190597 </v>
    <v>       0.21816296       0.44318015       0.04797483 </v>
    <v>       0.11022605       0.88843401       0.95071978 </v>
    <v>       0.22176733       0.77689285       0.04928023 </v>
    <v>       0.44876751       0.22429542       0.95189103 </v>
    <v>       0.55762891       0.11543396       0.04810889 </v>
    <v>       0.44833022       0.55800042       0.95194460 </v>
    <v>       0.55988382       0.44639002       0.04690010 </v>
    <v>       0.44383950       0.88790621       0.95074992 </v>
    <v>       0.55683431       0.77460547       0.04807193 </v>
    <v>       0.77972334       0.22655025       0.95310002 </v>
    <v>       0.89133360       0.11499675       0.04805526 </v>
    <v>       0.77422233       0.55396755       0.95316260 </v>
    <v>       0.88730087       0.44088882       0.04683735 </v>
    <v>       0.77651361       0.88482991       0.95202523 </v>
    <v>       0.88488524       0.77573983       0.04809403 </v>
   </varray>
  </structure>
  <varray name="forces" >
   <v>       0.17110367      -0.12857559       0.04587881 </v>
   <v>       0.00042201      -0.38792302      -0.00001200 </v>
   <v>      -0.17034603      -0.12860489      -0.04581141 </v>
   <v>       0.00008642       0.08749824      -0.00008700 </v>
   <v>       0.25230625      -0.29177839       0.07188916 </v>
   <v>      -0.25325154      -0.29029160      -0.07185669 </v>
   <v>       0.09297242       0.35165606      -0.04085445 </v>
   <v>       0.00083245       0.35936480      -0.00000285 </v>
   <v>      -0.09397115       0.35045583       0.04083778 </v>
   <v>       0.01233665      -0.10616665      -0.11511415 </v>
   <v>      -0.04827020      -0.12261368       0.13424392 </v>
   <v>      -0.04270502       0.05342079       0.13957455 </v>
   <v>      -0.08501005       0.04963633      -0.12828628 </v>
   <v>      -0.07454561      -0.08298348      -0.04021326 </v>
   <v>       0.07438545      -0.08285664       0.04040625 </v>
   <v>       0.03344418       0.09270125      -0.14703826 </v>
   <v>      -0.03353915       0.09261956       0.14728770 </v>
   <v>      -0.09716243       0.04425442       0.09326437 </v>
   <v>       0.02684515       0.03682038      -0.03363980 </v>
   <v>       0.04831047      -0.12260814      -0.13389656 </v>
   <v>      -0.01324001      -0.10621468       0.11609633 </v>
   <v>      -0.02639434       0.03764984       0.03458271 </v>
   <v>       0.09702667       0.04470116      -0.09465938 </v>
   <v>       0.06657876       0.07312756       0.22122268 </v>
   <v>      -0.06623330       0.07304478      -0.22240360 </v>
   <v>       0.08482547       0.05005983       0.12687379 </v>
   <v>       0.04319283       0.05360595      -0.13828236 </v>
  </varray>
  <varray name="stress" >
   <v>     -19.89134255       0.00052845      -0.01250157 </v>
   <v>       0.00052849     -19.48892974       0.00002741 </v>
   <v>      -0.01250167       0.00002728      -1.72764716 </v>
  </varray>
  <energy>
   <i name="e_fr_energy">   -188.65937212 </i>
   <i name="e_wo_entrp">   -188.51834258 </i>
   <i name="e_0_energy">     -0.28205907 </i>
  </energy>
  <time name="totalsc">  427.37  428.50</time>
 </calculation>
 <calculation>
  <scstep>
   <time name="dav">   24.15   24.20</time>
   <time name="total">   24.69   24.75</time>
   <energy>
    <i name="alphaZ">     82.34116558 </i>
    <i name="ewald">  41301.08792277 </i>
    <i name="hartreedc"> -47299.71854649 </i>
    <i name="XCdc">   -233.85857715 </i>
    <i name="pawpsdc">   3949.31540063 </i>
    <i name="pawaedc">  -3363.81458245 </i>
    <i name="eentropy">     -0.23572172 </i>
    <i name="bandstr">  -1387.13083636 </i>
    <i name="atom">   6761.44252427 </i>
    <i name="e_fr_energy">   -190.57125092 </i>
    <i name="e_wo_entrp">   -190.33552920 </i>
    <i name="e_0_energy">   -190.45339006 </i>
   </energy>
  </scstep>
  <scstep>
   <time name="dav">   28.63   28.70</time>
   <time name="total">   29.15   29.24</time>
   <energy>
    <i name="e_fr_energy">   -190.56418457 </i>
    <i name="e_wo_entrp">   -190.32592479 </i>
    <i name="e_0_energy">   -190.44505468 </i>
   </energy>
  </scstep>
  <scstep>
   <time name="dav">   30.94   31.01</time>
   <time name="total">   31.47   31.55</time>
   <energy>
    <i name="e_fr_energy">   -190.05008042 </i>
    <i name="e_wo_entrp">   -189.80002460 </i>
    <i name="e_0_energy">   -189.92505251 </i>
   </energy>
  </scstep>
  <scstep>
   <time name="dav">   31.62   31.69</time>
   <time name="total">   32.15   32.24</time>
   <energy>
    <i name="e_fr_energy">   -189.85209770 </i>
    <i name="e_wo_entrp">   -189.61625938 </i>
    <i name="e_0_energy">   -189.73417854 </i>
   </energy>
  </scstep>
  <scstep>
   <time name="dav">   31.07   31.14</time>
   <time name="total">   31.60   31.69</time>
   <energy>
    <i name="e_fr_energy">   -189.89848121 </i>
    <i name="e_wo_entrp">   -189.65329860 </i>
    <i name="e_0_energy">   -189.77588991 </i>
   </energy>
  </scstep>
  <scstep>
   <time name="dav">   30.75   30.83</time>
   <time name="total">   31.29   31.37</time>
   <energy>
    <i name="e_fr_energy">   -189.74513931 </i>
    <i name="e_wo_entrp">   -189.50687159 </i>
    <i name="e_0_energy">   -189.62600545 </i>
   </energy>
  </scstep>
  <scstep>
   <time name="dav">   30.08   30.16</time>
   <time name="total">   30.62   30.70</time>
   <energy>
    <i name="e_fr_energy">   -189.73927271 </i>
    <i name="e_wo_entrp">   -189.50130779 </i>
    <i name="e_0_energy">   -189.62029025 </i>
   </energy>
  </scstep>
  <scstep>
   <time name="dav">   26.41   26.47</time>
   <time name="total">   26.94   27.02</time>
   <energy>
    <i name="e_fr_energy">   -189.73928942 </i>
    <i name="e_wo_entrp">   -189.50133418 </i>
    <i name="e_0_energy">   -189.62031180 </i>
   </energy>
  </scstep>
  <scstep>
   <time name="dav">   27.68   27.75</time>
   <time name="total">   28.22   28.30</time>
   <energy>
    <i name="e_fr_energy">   -189.73942249 </i>
    <i name="e_wo_entrp">   -189.50133122 </i>
    <i name="e_0_energy">   -189.62037686 </i>
   </energy>
  </scstep>
  <scstep>
   <time name="dav">   26.81   26.87</time>
   <time name="total">   27.34   27.42</time>
   <energy>
    <i name="e_fr_energy">   -189.73994841 </i>
    <i name="e_wo_entrp">   -189.50183494 </i>
    <i name="e_0_energy">   -189.62089168 </i>
   </energy>
  </scstep>
  <scstep>
   <time name="dav">   25.16   25.22</time>
   <time name="total">   25.70   25.77</time>
   <energy>
    <i name="e_fr_energy">   -189.73932852 </i>
    <i name="e_wo_entrp">   -189.50123965 </i>
    <i name="e_0_energy">   -189.62028408 </i>
   </energy>
  </scstep>
  <scstep>
   <time name="dav">   17.46   17.50</time>
   <time name="total">   17.49   17.54</time>
   <energy>
    <i name="alphaZ">     82.34116558 </i>
    <i name="ewald">  41301.08792277 </i>
    <i name="hartreedc"> -47273.35506238 </i>
    <i name="XCdc">   -235.24987746 </i>
    <i name="pawpsdc">   4038.69162468 </i>
    <i name="pawaedc">  -3454.39312201 </i>
    <i name="eentropy">     -0.23808037 </i>
    <i name="bandstr">  -1410.06644316 </i>
    <i name="atom">   6761.44252427 </i>
    <i name="e_fr_energy">   -189.73934808 </i>
    <i name="e_wo_entrp">   -189.50126771 </i>
    <i name="e_0_energy">   -189.62030790 </i>
   </energy>
  </scstep>
  <structure>
   <crystal>
    <varray name="basis" >
     <v>       8.66721958       4.99965269       0.00000000 </v>
     <v>      -8.66721303       4.99964181       0.00000000 </v>
     <v>       0.00000000       0.00000000      30.00000000 </v>
    </varray>
    <i name="volume">   2599.98144816 </i>
    <varray name="rec_basis" >
     <v>       0.05768859       0.10000702       0.00000000 </v>
     <v>      -0.05768871       0.10000709       0.00000000 </v>
     <v>       0.00000000       0.00000000       0.03333333 </v>
    </varray>
   </crystal>
   <varray name="positions" >
    <v>       0.99958779       0.33187159      -0.00011313 </v>
    <v>       0.66414410       0.33080981      -0.00000002 </v>
    <v>       0.66520588       0.66625388       0.00011315 </v>
    <v>       0.33481733       0.00148386      -0.00000006 </v>
    <v>       0.33340972       0.33128297       0.00014193 </v>
    <v>       0.66461810       0.00008002      -0.00014194 </v>
    <v>       0.00196149       0.00208031      -0.00025530 </v>
    <v>       0.00125943       0.66792445       0.00000000 </v>
    <v>       0.33541052       0.66862715       0.00025530 </v>
    <v>       0.10777324       0.22331212       0.95186280 </v>
    <v>       0.22098872       0.11034799       0.04932624 </v>
    <v>       0.10912088       0.55168177       0.95198509 </v>
    <v>       0.21816400       0.44334446       0.04790210 </v>
    <v>       0.11001625       0.88836739       0.95069698 </v>
    <v>       0.22170077       0.77668342       0.04930314 </v>
    <v>       0.44895401       0.22441770       0.95180767 </v>
    <v>       0.55775096       0.11562042       0.04819239 </v>
    <v>       0.44831062       0.55816743       0.95199747 </v>
    <v>       0.55997092       0.44642556       0.04688103 </v>
    <v>       0.44368169       0.88765562       0.95067401 </v>
    <v>       0.55664469       0.77444129       0.04813774 </v>
    <v>       0.77976070       0.22663830       0.95311962 </v>
    <v>       0.89150123       0.11497802       0.04800160 </v>
    <v>       0.77440806       0.55402540       0.95328801 </v>
    <v>       0.88735892       0.44107408       0.04671127 </v>
    <v>       0.77667844       0.88483182       0.95209715 </v>
    <v>       0.88501600       0.77578764       0.04801564 </v>
   </varray>
  </structure>
  <varray name="forces" >
   <v>       0.20852544      -0.10652151       0.06770081 </v>
   <v>       0.00029098      -0.39111698       0.00000911 </v>
   <v>      -0.20823589      -0.10663378      -0.06758564 </v>
   <v>      -0.00003312       0.00768715      -0.00004217 </v>
   <v>       0.22725426      -0.35590566       0.05024049 </v>
   <v>      -0.22765840      -0.35499027      -0.05029060 </v>
   <v>       0.14946160       0.36817591      -0.00237136 </v>
   <v>       0.00033662       0.42982424       0.00004820 </v>
   <v>      -0.14994637       0.36738403       0.00237547 </v>
   <v>      -0.10039963      -0.01793990      -0.64128121 </v>
   <v>      -0.00229664      -0.06302003       0.69498665 </v>
   <v>       0.04253120      -0.05743996      -0.35943791 </v>
   <v>      -0.08034709      -0.07330816       0.35109730 </v>
   <v>      -0.03332519      -0.00498843      -0.61240436 </v>
   <v>       0.03339724      -0.00505493       0.61250749 </v>
   <v>       0.07273273       0.15524377      -0.64879147 </v>
   <v>      -0.07276050       0.15529159       0.64878599 </v>
   <v>       0.01931465       0.08686420      -0.38319375 </v>
   <v>       0.06944662       0.10146559       0.41760655 </v>
   <v>       0.00223095      -0.06305452      -0.69500027 </v>
   <v>       0.09965461      -0.01809499       0.64123312 </v>
   <v>      -0.06912043       0.10227614      -0.41731524 </v>
   <v>      -0.01978312       0.08759412       0.38324439 </v>
   <v>      -0.00206808      -0.05710027      -0.22187327 </v>
   <v>       0.00300349      -0.05713485       0.22156513 </v>
   <v>       0.07996407      -0.07264478      -0.35110551 </v>
   <v>      -0.04217000      -0.05685770       0.35929206 </v>
  </varray>
  <varray name="stress" >
   <v>     -10.16804075       0.00033277      -0.02462906 </v>
   <v>       0.00033260      -9.83224573       0.00004704 </v>
   <v>      -0.02462910       0.00004729       6.49889104 </v>
  </varray>
  <energy>
   <i name="e_fr_energy">   -189.73934808 </i>
   <i name="e_wo_entrp">   -189.62030790 </i>
   <i name="e_0_energy">     -0.23808037 </i>
  </energy>
  <time name="totalsc">  378.65  379.67</time>
 </calculation>
 <calculation>
  <scstep>
   <time name="dav">   22.13   22.19</time>
   <time name="total">   22.66   22.72</time>
   <energy>
    <i name="alphaZ">     85.82280818 </i>
    <i name="ewald">  42833.27577917 </i>
    <i name="hartreedc"> -48850.27488911 </i>
    <i name="XCdc">   -232.96121353 </i>
    <i name="pawpsdc">   4038.53248167 </i>
    <i name="pawaedc">  -3454.22703649 </i>
    <i name="eentropy">     -0.19699266 </i>
    <i name="bandstr">  -1372.69605468 </i>
    <i name="atom">   6761.44252427 </i>
    <i name="e_fr_energy">   -191.28259318 </i>
    <i name="e_wo_entrp">   -191.08560052 </i>
    <i name="e_0_energy">   -191.18409685 </i>
   </energy>
  </scstep>
  <scstep>
   <time name="dav">   33.21   33.29</time>
   <time name="total">   33.72   33.81</time>
   <energy>
    <i name="e_fr_energy">   -191.15854613 </i>
    <i name="e_wo_entrp">   -190.95681968 </i>
    <i name="e_0_energy">   -191.05768290 </i>
   </energy>
  </scstep>
  <scstep>
   <time name="dav">   30.70   30.77</time>
   <time name="total">   31.22   31.30</time>
   <energy>
    <i name="e_fr_energy">   -191.19570369 </i>
    <i name="e_wo_entrp">   -190.97746964 </i>
    <i name="e_0_energy">   -191.08658666 </i>
   </energy>
  </scstep>
  <scstep>
   <time name="dav">   32.15   32.23</time>
   <time name="total">   32.67   32.76</time>
   <energy>
    <i name="e_fr_energy">   -190.80811403 </i>
    <i name="e_wo_entrp">   -190.60862727 </i>
    <i name="e_0_energy">   -190.70837065 </i>
   </energy>
  </scstep>
  <scstep>
   <time name="dav">   28.63   28.72</time>
   <time name="total">   29.16   29.25</time>
   <energy>
    <i name="e_fr_energy">   -190.71026707 </i>
    <i name="e_wo_entrp">   -190.50699022 </i>
    <i name="e_0_energy">   -190.60862864 </i>
   </energy>
  </scstep>
  <scstep>
   <time name="dav">   31.61   31.70</time>
   <time name="total">   32.13   32.23</time>
   <energy>
    <i name="e_fr_energy">   -190.70731651 </i>
    <i name="e_wo_entrp">   -190.50359262 </i>
    <i name="e_0_energy">   -190.60545456 </i>
   </energy>
  </scstep>
  <scstep>
   <time name="dav">   29.57   29.64</time>
   <time name="total">   30.09   30.17</time>
   <energy>
    <i name="e_fr_energy">   -190.69789212 </i>
    <i name="e_wo_entrp">   -190.49518924 </i>
    <i name="e_0_energy">   -190.59654068 </i>
   </energy>
  </scstep>
  <scstep>
   <time name="dav">   28.18   28.25</time>
   <time name="total">   28.70   28.78</time>
   <energy>
    <i name="e_fr_energy">   -190.69190572 </i>
    <i name="e_wo_entrp">   -190.48918033 </i>
    <i name="e_0_energy">   -190.59054303 </i>
   </energy>
  </scstep>
  <scstep>
   <time name="dav">   27.15   27.22</time>
   <time name="total">   27.68   27.75</time>
   <energy>
    <i name="e_fr_energy">   -190.69214945 </i>
    <i name="e_wo_entrp">   -190.48924212 </i>
    <i name="e_0_energy">   -190.59069579 </i>
   </energy>
  </scstep>
  <scstep>
   <time name="dav">   27.80   27.87</time>
   <time name="total">   28.32   28.40</time>
   <energy>
    <i name="e_fr_energy">   -190.69204481 </i>
    <i name="e_wo_entrp">   -190.48928383 </i>
    <i name="e_0_energy">   -190.59066432 </i>
   </energy>
  </scstep>
  <scstep>
   <time name="dav">   24.22   24.28</time>
   <time name="total">   24.26   24.33</time>
   <energy>
    <i name="alphaZ">     85.82280818 </i>
    <i name="ewald">  42833.27577917 </i>
    <i name="hartreedc"> -48821.41331992 </i>
    <i name="XCdc">   -234.30052229 </i>
    <i name="pawpsdc">   4062.75957820 </i>
    <i name="pawaedc">  -3478.62715258 </i>
    <i name="eentropy">     -0.20271180 </i>
    <i name="bandstr">  -1399.44910266 </i>
    <i name="atom">   6761.44252427 </i>
    <i name="e_fr_energy">   -190.69211942 </i>
    <i name="e_wo_entrp">   -190.48940762 </i>
    <i name="e_0_energy">   -190.59076352 </i>
   </energy>
  </scstep>
  <structure>
   <crystal>
    <varray name="basis" >
     <v>       8.48484490       4.89994165       0.00000000 </v>
     <v>      -8.48482979       4.89991589       0.00000000 </v>
     <v>       0.00000000       0.00000000      30.00000000 </v>
    </varray>
    <i name="volume">   2494.50591849 </i>
    <varray name="rec_basis" >
     <v>       0.05892849       0.10204221       0.00000000 </v>
     <v>      -0.05892880       0.10204239       0.00000000 </v>
     <v>       0.00000000       0.00000000       0.03333333 </v>
    </varray>
   </crystal>
   <varray name="positions" >
    <v>       0.99978331       0.33045098       0.00004569 </v>
    <v>       0.66168540       0.32834938       0.00000002 </v>
    <v>       0.66378473       0.66644812      -0.00004540 </v>
    <v>       0.33466564       0.00133275      -0.00000011 </v>
    <v>       0.33180420       0.32810602       0.00022758 </v>
    <v>       0.66144478      -0.00152051      -0.00022776 </v>
    <v>       0.00493254       0.00380744      -0.00022745 </v>
    <v>       0.00413033       0.67079434       0.00000014 </v>
    <v>       0.33713269       0.67159527       0.00022749 </v>
    <v>       0.10735578       0.22394593       0.95008649 </v>
    <v>       0.22080070       0.11004401       0.05124323 </v>
    <v>       0.10876032       0.55076780       0.95081575 </v>
    <v>       0.21711321       0.44286135       0.04903746 </v>
    <v>       0.11011894       0.88859224       0.94894132 </v>
    <v>       0.22192532       0.77678462       0.05105894 </v>
    <v>       0.45040318       0.22522751       0.95003659 </v>
    <v>       0.55856139       0.11707022       0.04996325 </v>
    <v>       0.44919944       0.55858066       0.95079812 </v>
    <v>       0.56108115       0.44691065       0.04813022 </v>
    <v>       0.44337701       0.88746768       0.94875669 </v>
    <v>       0.55727480       0.77402505       0.04991307 </v>
    <v>       0.78025182       0.22775256       0.95187049 </v>
    <v>       0.89191758       0.11587430       0.04920229 </v>
    <v>       0.77361803       0.55344829       0.95245123 </v>
    <v>       0.88678595       0.44027973       0.04754815 </v>
    <v>       0.77619843       0.88378746       0.95096297 </v>
    <v>       0.88410779       0.77543060       0.04918345 </v>
   </varray>
  </structure>
  <varray name="forces" >
   <v>       0.24850372      -0.09387728       0.07591170 </v>
   <v>      -0.00767648      -0.33591675      -0.00022081 </v>
   <v>      -0.25680577      -0.09456241      -0.07820510 </v>
   <v>      -0.00141913      -0.11131459       0.00108289 </v>
   <v>       0.21284259      -0.41886749      -0.00476858 </v>
   <v>      -0.20144384      -0.43715493       0.00493455 </v>
   <v>       0.23293298       0.40757116       0.03159529 </v>
   <v>      -0.00921962       0.44188642      -0.00011233 </v>
   <v>      -0.21893648       0.42354291      -0.03148395 </v>
   <v>      -0.01268875       0.01558200      -0.49204780 </v>
   <v>       0.04270525      -0.00026330       0.53794460 </v>
   <v>       0.03417750       0.01612659      -0.20609605 </v>
   <v>       0.00268897       0.02034380       0.18936910 </v>
   <v>      -0.01161517       0.07520915      -0.48891690 </v>
   <v>       0.01139449       0.07461616       0.48680510 </v>
   <v>       0.03677341       0.03731590      -0.46099283 </v>
   <v>      -0.03668881       0.03769933       0.45922887 </v>
   <v>       0.02363078      -0.02940126      -0.19123786 </v>
   <v>       0.02561017      -0.00988805       0.30919643 </v>
   <v>      -0.04275398      -0.00020287      -0.53934270 </v>
   <v>       0.02015963       0.01561276       0.48975074 </v>
   <v>      -0.02888788      -0.01640950      -0.31281217 </v>
   <v>      -0.01967488      -0.03626507       0.19604400 </v>
   <v>       0.02540964      -0.00296036      -0.09350259 </v>
   <v>      -0.03259589      -0.00268584       0.09938331 </v>
   <v>       0.00143385       0.01386587      -0.18469170 </v>
   <v>      -0.03785629       0.01039764       0.20318477 </v>
  </varray>
  <varray name="stress" >
   <v>      -5.88384386      -0.01295076      -0.04004201 </v>
   <v>      -0.01295075      -5.83980938      -0.00098140 </v>
   <v>      -0.04004206      -0.00098139       4.50122276 </v>
  </varray>
  <energy>
   <i name="e_fr_energy">   -190.69211942 </i>
   <i name="e_wo_entrp">   -190.59076352 </i>
   <i name="e_0_energy">     -0.20271180 </i>
  </energy>
  <time name="totalsc">  363.06  364.04</time>
 </calculation>
 <calculation>
  <scstep>
   <time name="dav">   22.18   22.23</time>
   <time name="total">   22.69   22.75</time>
   <energy>
    <i name="alphaZ">     90.36558696 </i>
    <i name="ewald">  44751.92402075 </i>
    <i name="hartreedc"> -50797.45801331 </i>
    <i name="XCdc">   -231.70819816 </i>
    <i name="pawpsdc">   4062.90451437 </i>
    <i name="pawaedc">  -3478.77074282 </i>
    <i name="eentropy">     -0.18271751 </i>
    <i name="bandstr">  -1350.66507832 </i>
    <i name="atom">   6761.44252427 </i>
    <i name="e_fr_energy">   -192.14810378 </i>
    <i name="e_wo_entrp">   -191.96538627 </i>
    <i name="e_0_energy">   -192.05674503 </i>
   </energy>
  </scstep>
  <scstep>
   <time name="dav">   30.98   31.05</time>
   <time name="total">   31.49   31.57</time>
   <energy>
    <i name="e_fr_energy">   -191.83114310 </i>
    <i name="e_wo_entrp">   -191.64162512 </i>
    <i name="e_0_energy">   -191.73638411 </i>
   </energy>
  </scstep>
  <scstep>
   <time name="dav">   30.55   30.63</time>
   <time name="total">   31.06   31.14</time>
   <energy>
    <i name="e_fr_energy">   -191.91726241 </i>
    <i name="e_wo_entrp">   -191.71761535 </i>
    <i name="e_0_energy">   -191.81743888 </i>
   </energy>
  </scstep>
  <scstep>
   <time name="dav">   30.86   30.94</time>
   <time name="total">   31.37   31.46</time>
   <energy>
    <i name="e_fr_energy">   -191.62906045 </i>
    <i name="e_wo_entrp">   -191.44592424 </i>
    <i name="e_0_energy">   -191.53749234 </i>
   </energy>
  </scstep>
  <scstep>
   <time name="dav">   30.55   30.62</time>
   <time name="total">   31.05   31.14</time>
   <energy>
    <i name="e_fr_energy">   -191.38230665 </i>
    <i name="e_wo_entrp">   -191.19052172 </i>
    <i name="e_0_energy">   -191.28641418 </i>
   </energy>
  </scstep>
  <scstep>
   <time name="dav">   31.81   31.89</time>
   <time name="total">   32.33   32.41</time>
   <energy>
    <i name="e_fr_energy">   -191.39706907 </i>
    <i name="e_wo_entrp">   -191.20422099 </i>
    <i name="e_0_energy">   -191.30064503 </i>
   </energy>
  </scstep>
  <scstep>
   <time name="dav">   30.31   30.39</time>
   <time name="total">   30.82   30.90</time>
   <energy>
    <i name="e_fr_energy">   -191.36876288 </i>
    <i name="e_wo_entrp">   -191.17754982 </i>
    <i name="e_0_energy">   -191.27315635 </i>
   </energy>
  </scstep>
  <scstep>
   <time name="dav">   26.43   26.50</time>
   <time name="total">   26.95   27.02</time>
   <energy>
    <i name="e_fr_energy">   -191.36176106 </i>
    <i name="e_wo_entrp">   -191.17035667 </i>
    <i name="e_0_energy">   -191.26605887 </i>
   </energy>
  </scstep>
  <scstep>
   <time name="dav">   32.11   32.19</time>
   <time name="total">   32.62   32.71</time>
   <energy>
    <i name="e_fr_energy">   -191.36290400 </i>
    <i name="e_wo_entrp">   -191.17127195 </i>
    <i name="e_0_energy">   -191.26708798 </i>
   </energy>
  </scstep>
  <scstep>
   <time name="dav">   28.37   28.44</time>
   <time name="total">   28.89   28.96</time>
   <energy>
    <i name="e_fr_energy">   -191.36185017 </i>
    <i name="e_wo_entrp">   -191.17029708 </i>
    <i name="e_0_energy">   -191.26607363 </i>
   </energy>
  </scstep>
  <scstep>
   <time name="dav">   26.97   27.03</time>
   <time name="total">   27.00   27.08</time>
   <energy>
    <i name="alphaZ">     90.36558696 </i>
    <i name="ewald">  44751.92402075 </i>
    <i name="hartreedc"> -50761.73155817 </i>
    <i name="XCdc">   -233.32072660 </i>
    <i name="pawpsdc">   4085.07410534 </i>
    <i name="pawaedc">  -3501.01791867 </i>
    <i name="eentropy">     -0.19154876 </i>
    <i name="bandstr">  -1383.90633435 </i>
    <i name="atom">   6761.44252427 </i>
    <i name="e_fr_energy">   -191.36184924 </i>
    <i name="e_wo_entrp">   -191.17030048 </i>
    <i name="e_0_energy">   -191.26607486 </i>
   </energy>
  </scstep>
  <structure>
   <crystal>
    <varray name="basis" >
     <v>       8.26669845       4.77552017       0.00000000 </v>
     <v>      -8.26746169       4.77684221       0.00000000 </v>
     <v>       0.00000000       0.00000000      30.00000000 </v>
    </varray>
    <i name="volume">   2369.10432552 </i>
    <varray name="rec_basis" >
     <v>       0.06048922       0.10469098       0.00000000 </v>
     <v>      -0.06047248       0.10468131       0.00000000 </v>
     <v>       0.00000000       0.00000000       0.03333333 </v>
    </varray>
   </crystal>
   <varray name="positions" >
    <v>       1.00047576       0.32748844       0.00037419 </v>
    <v>       0.65731235       0.32407221      -0.00000074 </v>
    <v>       0.66076190       0.66718515      -0.00038190 </v>
    <v>       0.33322480      -0.00008986       0.00000375 </v>
    <v>       0.32797397       0.32124560       0.00021653 </v>
    <v>       0.65445801      -0.00562075      -0.00021624 </v>
    <v>       0.01173795       0.00720479      -0.00007769 </v>
    <v>       0.00981381       0.67659420      -0.00000018 </v>
    <v>       0.34079081       0.67848558       0.00007814 </v>
    <v>       0.10738339       0.22472318       0.94745165 </v>
    <v>       0.22121185       0.10976648       0.05410562 </v>
    <v>       0.10890657       0.55010651       0.94937703 </v>
    <v>       0.21678216       0.44264122       0.05039232 </v>
    <v>       0.11112422       0.88966682       0.94628661 </v>
    <v>       0.22299187       0.77778368       0.05370615 </v>
    <v>       0.45163461       0.22571754       0.94753238 </v>
    <v>       0.55905666       0.11830566       0.05246095 </v>
    <v>       0.44952799       0.55817194       0.94942179 </v>
    <v>       0.56164714       0.44686997       0.04991725 </v>
    <v>       0.44309940       0.88787986       0.94588897 </v>
    <v>       0.55809804       0.77400615       0.05253870 </v>
    <v>       0.78012148       0.22826966       0.95007016 </v>
    <v>       0.89146033       0.11610693       0.05059713 </v>
    <v>       0.77313435       0.55288846       0.95154446 </v>
    <v>       0.88618618       0.43984209       0.04847645 </v>
    <v>       0.77593507       0.88336306       0.94962609 </v>
    <v>       0.88336380       0.77553987       0.05061033 </v>
   </varray>
  </structure>
  <varray name="forces" >
   <v>       0.27700102      -0.12732501      -0.00199340 </v>
   <v>       0.00302986      -0.25784409       0.00087118 </v>
   <v>      -0.27216724      -0.12829200       0.00717790 </v>
   <v>      -0.00599196      -0.18747012       0.00104925 </v>
   <v>       0.15907503      -0.34516756      -0.02440509 </v>
   <v>      -0.16679957      -0.32852332       0.02510372 </v>
   <v>       0.28884305       0.38009224      -0.00767302 </v>
   <v>       0.00874452       0.40996264      -0.00005158 </v>
   <v>      -0.29563326       0.35845754       0.00556829 </v>
   <v>       0.06287256      -0.00434457      -0.16073318 </v>
   <v>       0.11935856       0.04522880       0.27558328 </v>
   <v>       0.00916523       0.11880817       0.07978696 </v>
   <v>       0.08214625       0.17985525      -0.16612149 </v>
   <v>      -0.02970935       0.09838686      -0.24326612 </v>
   <v>       0.03238386       0.09815608       0.23715199 </v>
   <v>      -0.01036944      -0.10569293      -0.11223857 </v>
   <v>       0.01136152      -0.10457342       0.11011706 </v>
   <v>      -0.06419657      -0.19093496       0.09102570 </v>
   <v>      -0.03824402      -0.12149921      -0.00708958 </v>
   <v>      -0.12120539       0.04050495      -0.27856964 </v>
   <v>      -0.06404259      -0.00304876       0.18235575 </v>
   <v>       0.04136089      -0.11872607       0.01964160 </v>
   <v>       0.06172969      -0.18092373      -0.10792859 </v>
   <v>       0.04500614       0.08409070       0.17277556 </v>
   <v>      -0.04116030       0.08561495      -0.18461991 </v>
   <v>      -0.08415414       0.18430071       0.15204068 </v>
   <v>      -0.00840431       0.12090688      -0.06555875 </v>
  </varray>
  <varray name="stress" >
   <v>      -0.24026700       0.03755393       0.34375210 </v>
   <v>       0.03755390       0.26102903       0.01542471 </v>
   <v>       0.34375223       0.01542451      -0.48514544 </v>
  </varray>
  <energy>
   <i name="e_fr_energy">   -191.36184924 </i>
   <i name="e_wo_entrp">   -191.26607486 </i>
   <i name="e_0_energy">     -0.19154876 </i>
  </energy>
  <time name="totalsc">  368.40  369.38</time>
 </calculation>
 <calculation>
  <scstep>
   <time name="dav">   22.12   22.17</time>
   <time name="total">   22.63   22.69</time>
   <energy>
    <i name="alphaZ">     90.37705270 </i>
    <i name="ewald">  44737.52398200 </i>
    <i name="hartreedc"> -50748.10044417 </i>
    <i name="XCdc">   -233.39714848 </i>
    <i name="pawpsdc">   4085.25478551 </i>
    <i name="pawaedc">  -3501.19601390 </i>
    <i name="eentropy">     -0.19512452 </i>
    <i name="bandstr">  -1383.16180166 </i>
    <i name="atom">   6761.44252427 </i>
    <i name="e_fr_energy">   -191.45218822 </i>
    <i name="e_wo_entrp">   -191.25706371 </i>
    <i name="e_0_energy">   -191.35462597 </i>
   </energy>
  </scstep>
  <scstep>
   <time name="dav">   31.92   32.00</time>
   <time name="total">   32.43   32.51</time>
   <energy>
    <i name="e_fr_energy">   -191.53473213 </i>
    <i name="e_wo_entrp">   -191.32911706 </i>
    <i name="e_0_energy">   -191.43192460 </i>
   </energy>
  </scstep>
  <scstep>
   <time name="dav">   31.15   31.23</time>
   <time name="total">   31.66   31.75</time>
   <energy>
    <i name="e_fr_energy">   -191.46494427 </i>
    <i name="e_wo_entrp">   -191.26839044 </i>
    <i name="e_0_energy">   -191.36666735 </i>
   </energy>
  </scstep>
  <scstep>
   <time name="dav">   28.27   28.34</time>
   <time name="total">   28.78   28.86</time>
   <energy>
    <i name="e_fr_energy">   -191.46376368 </i>
    <i name="e_wo_entrp">   -191.26680582 </i>
    <i name="e_0_energy">   -191.36528475 </i>
   </energy>
  </scstep>
  <scstep>
   <time name="dav">   29.40   29.47</time>
   <time name="total">   29.91   29.99</time>
   <energy>
    <i name="e_fr_energy">   -191.46304014 </i>
    <i name="e_wo_entrp">   -191.26536098 </i>
    <i name="e_0_energy">   -191.36420056 </i>
   </energy>
  </scstep>
  <scstep>
   <time name="dav">   29.76   29.84</time>
   <time name="total">   30.27   30.35</time>
   <energy>
    <i name="e_fr_energy">   -191.46202929 </i>
    <i name="e_wo_entrp">   -191.26452595 </i>
    <i name="e_0_energy">   -191.36327762 </i>
   </energy>
  </scstep>
  <scstep>
   <time name="dav">   29.14   29.21</time>
   <time name="total">   29.65   29.73</time>
   <energy>
    <i name="e_fr_energy">   -191.46170129 </i>
    <i name="e_wo_entrp">   -191.26409077 </i>
    <i name="e_0_energy">   -191.36289603 </i>
   </energy>
  </scstep>
  <scstep>
   <time name="dav">   24.80   24.86</time>
   <time name="total">   24.84   24.90</time>
   <energy>
    <i name="alphaZ">     90.37705270 </i>
    <i name="ewald">  44737.52398200 </i>
    <i name="hartreedc"> -50749.03192015 </i>
    <i name="XCdc">   -233.37844135 </i>
    <i name="pawpsdc">   4083.69174486 </i>
    <i name="pawaedc">  -3499.59756426 </i>
    <i name="eentropy">     -0.19755162 </i>
    <i name="bandstr">  -1382.29152984 </i>
    <i name="atom">   6761.44252427 </i>
    <i name="e_fr_energy">   -191.46170338 </i>
    <i name="e_wo_entrp">   -191.26415177 </i>
    <i name="e_0_energy">   -191.36292757 </i>
   </energy>
  </scstep>
  <structure>
   <crystal>
    <varray name="basis" >
     <v>       8.26111294       4.77924284       0.00000000 </v>
     <v>      -8.26092286       4.77891653       0.00000000 </v>
     <v>       0.00000000       0.00000000      30.00000000 </v>
    </varray>
    <i name="volume">   2368.80376743 </i>
    <varray name="rec_basis" >
     <v>       0.06052316       0.10462145       0.00000000 </v>
     <v>      -0.06052730       0.10462386       0.00000000 </v>
     <v>       0.00000000       0.00000000       0.03333333 </v>
    </varray>
   </crystal>
   <varray name="positions" >
    <v>       1.00064696       0.32600592       0.00037295 </v>
    <v>       0.65598031       0.32272294       0.00000068 </v>
    <v>       0.65928808       0.66733726      -0.00037228 </v>
    <v>       0.33224255      -0.00103662       0.00000547 </v>
    <v>       0.32665953       0.31897644       0.00017688 </v>
    <v>       0.65225001      -0.00682896      -0.00017545 </v>
    <v>       0.01456729       0.00831193      -0.00008919 </v>
    <v>       0.01196437       0.67869366      -0.00000026 </v>
    <v>       0.34176894       0.68122465       0.00008622 </v>
    <v>       0.10754636       0.22452226       0.94717284 </v>
    <v>       0.22179699       0.10964402       0.05457241 </v>
    <v>       0.10953913       0.55067909       0.94949586 </v>
    <v>       0.21793711       0.44331331       0.05013276 </v>
    <v>       0.11154487       0.89026250       0.94587355 </v>
    <v>       0.22359428       0.77819522       0.05410924 </v>
    <v>       0.45107421       0.22521313       0.94733308 </v>
    <v>       0.55856088       0.11774813       0.05265677 </v>
    <v>       0.44836911       0.55738556       0.94955924 </v>
    <v>       0.56092012       0.44636389       0.04991822 </v>
    <v>       0.44294733       0.88844623       0.94541731 </v>
    <v>       0.55790046       0.77417888       0.05285258 </v>
    <v>       0.77963822       0.22754744       0.95008950 </v>
    <v>       0.89071744       0.11500602       0.05043234 </v>
    <v>       0.77369054       0.55318009       0.95181767 </v>
    <v>       0.88649672       0.44039488       0.04818413 </v>
    <v>       0.77662370       0.88454596       0.94986289 </v>
    <v>       0.88394894       0.77618065       0.05051453 </v>
   </varray>
  </structure>
  <varray name="forces" >
   <v>       0.26766543      -0.17760949       0.03958753 </v>
   <v>      -0.00269330      -0.28676834      -0.00071142 </v>
   <v>      -0.28405429      -0.17962360      -0.04003823 </v>
   <v>      -0.00173506      -0.16830640      -0.00353707 </v>
   <v>       0.22291743      -0.33207617       0.00074275 </v>
   <v>      -0.21313690      -0.34661750      -0.00370491 </v>
   <v>       0.31439537       0.38449981       0.02607114 </v>
   <v>      -0.00482837       0.45025508       0.00060147 </v>
   <v>      -0.29876451       0.39740095      -0.02531048 </v>
   <v>       0.05115400      -0.00516837      -0.16962956 </v>
   <v>       0.10285315       0.03091484       0.23438036 </v>
   <v>       0.00523412       0.10089789       0.09656385 </v>
   <v>       0.04777815       0.15143933      -0.21311006 </v>
   <v>      -0.01837375       0.06585740      -0.22644048 </v>
   <v>       0.01807089       0.06455654       0.22620127 </v>
   <v>       0.00147720      -0.07604219      -0.09403973 </v>
   <v>      -0.00107222      -0.07641259       0.09294047 </v>
   <v>      -0.07159186      -0.13790071       0.13675733 </v>
   <v>      -0.03326833      -0.07432362      -0.03865452 </v>
   <v>      -0.10272908       0.03301120      -0.22782159 </v>
   <v>      -0.04972666      -0.00684244       0.16441368 </v>
   <v>       0.03229360      -0.07622210       0.03798765 </v>
   <v>       0.07389911      -0.14300824      -0.13414005 </v>
   <v>       0.02717365       0.07987920       0.24528391 </v>
   <v>      -0.03081625       0.07869847      -0.24176543 </v>
   <v>      -0.04599116       0.14921007       0.21779047 </v>
   <v>      -0.00613038       0.10030100      -0.10041836 </v>
  </varray>
  <varray name="stress" >
   <v>      -0.01450514      -0.02074909       0.26475039 </v>
   <v>      -0.02074897       0.21275993      -0.01166655 </v>
   <v>       0.26475048      -0.01166672      -1.18142083 </v>
  </varray>
  <energy>
   <i name="e_fr_energy">   -191.46170338 </i>
   <i name="e_wo_entrp">   -191.36292757 </i>
   <i name="e_0_energy">     -0.19755162 </i>
  </energy>
  <time name="totalsc">  272.50  273.22</time>
 </calculation>
 <calculation>
  <scstep>
   <time name="dav">   23.82   23.87</time>
   <time name="total">   24.33   24.39</time>
   <energy>
    <i name="alphaZ">     90.37505697 </i>
    <i name="ewald">  44736.62520213 </i>
    <i name="hartreedc"> -50748.14837522 </i>
    <i name="XCdc">   -233.37797388 </i>
    <i name="pawpsdc">   4083.64929571 </i>
    <i name="pawaedc">  -3499.55501208 </i>
    <i name="eentropy">     -0.19752191 </i>
    <i name="bandstr">  -1382.27741350 </i>
    <i name="atom">   6761.44252427 </i>
    <i name="e_fr_energy">   -191.46421749 </i>
    <i name="e_wo_entrp">   -191.26669558 </i>
    <i name="e_0_energy">   -191.36545654 </i>
   </energy>
  </scstep>
  <scstep>
   <time name="dav">   23.96   24.02</time>
   <time name="total">   24.47   24.54</time>
   <energy>
    <i name="e_fr_energy">   -191.46441086 </i>
    <i name="e_wo_entrp">   -191.26650428 </i>
    <i name="e_0_energy">   -191.36545757 </i>
   </energy>
  </scstep>
  <scstep>
   <time name="dav">   22.61   22.67</time>
   <time name="total">   23.13   23.19</time>
   <energy>
    <i name="e_fr_energy">   -191.46423975 </i>
    <i name="e_wo_entrp">   -191.26661656 </i>
    <i name="e_0_energy">   -191.36542815 </i>
   </energy>
  </scstep>
  <scstep>
   <time name="dav">   17.66   17.71</time>
   <time name="total">   17.70   17.75</time>
   <energy>
    <i name="alphaZ">     90.37505697 </i>
    <i name="ewald">  44736.62520213 </i>
    <i name="hartreedc"> -50748.37135740 </i>
    <i name="XCdc">   -233.37616046 </i>
    <i name="pawpsdc">   4083.65527596 </i>
    <i name="pawaedc">  -3499.56188266 </i>
    <i name="eentropy">     -0.19753008 </i>
    <i name="bandstr">  -1382.05538462 </i>
    <i name="atom">   6761.44252427 </i>
    <i name="e_fr_energy">   -191.46425586 </i>
    <i name="e_wo_entrp">   -191.26672579 </i>
    <i name="e_0_energy">   -191.36549082 </i>
   </energy>
  </scstep>
  <structure>
   <crystal>
    <varray name="basis" >
     <v>       8.26113400       4.77931984       0.00000000 </v>
     <v>      -8.26095809       4.77901803       0.00000000 </v>
     <v>       0.00000000       0.00000000      30.00000000 </v>
    </varray>
    <i name="volume">   2368.85607720 </i>
    <varray name="rec_basis" >
     <v>       0.06052311       0.10461959       0.00000000 </v>
     <v>      -0.06052693       0.10462181       0.00000000 </v>
     <v>       0.00000000       0.00000000       0.03333333 </v>
    </varray>
   </crystal>
   <varray name="positions" >
    <v>       1.00064364       0.32596267       0.00037455 </v>
    <v>       0.65594331       0.32268635       0.00000064 </v>
    <v>       0.65924329       0.66733493      -0.00037391 </v>
    <v>       0.33222061      -0.00105831       0.00000532 </v>
    <v>       0.32663383       0.31891728       0.00017693 </v>
    <v>       0.65218967      -0.00685735      -0.00017563 </v>
    <v>       0.01464038       0.00833779      -0.00008811 </v>
    <v>       0.01202203       0.67875207      -0.00000023 </v>
    <v>       0.34179774       0.68129828       0.00008518 </v>
    <v>       0.10754957       0.22451739       0.94716649 </v>
    <v>       0.22180876       0.10964030       0.05458138 </v>
[...]
      <set comment="kpoint 31">
       <r>  -17.5554    1.0000 </r>
       <r>  -17.2601    1.0000 </r>
       <r>  -16.9114    1.0000 </r>
       <r>  -16.7324    1.0000 </r>
       <r>  -16.5172    1.0000 </r>
       <r>  -16.4635    1.0000 </r>
       <r>  -16.3267    1.0000 </r>
       <r>  -16.1720    1.0000 </r>
       <r>  -16.0652    1.0000 </r>
       <r>  -16.0258    1.0000 </r>
       <r>  -15.9557    1.0000 </r>
       <r>  -15.8763    1.0000 </r>
       <r>  -15.7622    1.0000 </r>
       <r>  -15.6797    1.0000 </r>
       <r>  -15.6014    1.0000 </r>
       <r>  -15.4812    1.0000 </r>
       <r>  -15.3952    1.0000 </r>
       <r>  -15.2315    1.0000 </r>
       <r>   -9.7647    1.0000 </r>
       <r>   -9.4814    1.0000 </r>
       <r>   -9.3538    1.0000 </r>
       <r>   -9.0720    1.0000 </r>
       <r>   -8.8442    1.0000 </r>
       <r>   -8.7315    1.0000 </r>
       <r>   -8.5483    1.0000 </r>
       <r>   -8.5211    1.0000 </r>
       <r>   -8.4234    1.0000 </r>
       <r>   -8.3343    1.0000 </r>
       <r>   -8.2680    1.0000 </r>
       <r>   -8.1983    1.0000 </r>
       <r>   -8.1099    1.0000 </r>
       <r>   -8.0508    1.0000 </r>
       <r>   -8.0197    1.0000 </r>
       <r>   -7.8934    1.0000 </r>
       <r>   -7.8288    1.0000 </r>
       <r>   -7.7637    1.0000 </r>
       <r>   -7.6146    1.0000 </r>
       <r>   -7.3987    1.0000 </r>
       <r>   -7.2979    1.0000 </r>
       <r>   -7.2160    1.0000 </r>
       <r>   -7.1420    1.0000 </r>
       <r>   -7.1037    1.0000 </r>
       <r>   -7.0209    1.0000 </r>
       <r>   -6.9014    1.0000 </r>
       <r>   -6.8378    1.0000 </r>
       <r>   -6.7798    1.0000 </r>
       <r>   -6.7136    1.0000 </r>
       <r>   -6.6022    1.0000 </r>
       <r>   -6.5278    1.0000 </r>
       <r>   -6.4811    1.0000 </r>
       <r>   -6.4146    1.0000 </r>
       <r>   -6.3471    1.0000 </r>
       <r>   -6.2977    1.0000 </r>
       <r>   -6.2501    1.0000 </r>
       <r>   -6.1491    1.0000 </r>
       <r>   -6.0395    1.0000 </r>
       <r>   -5.9618    1.0000 </r>
       <r>   -5.9094    1.0000 </r>
       <r>   -5.8593    1.0000 </r>
       <r>   -5.7870    1.0000 </r>
       <r>   -5.6892    1.0000 </r>
       <r>   -5.6070    1.0000 </r>
       <r>   -5.4785    1.0000 </r>
       <r>   -5.3162    1.0000 </r>
       <r>   -5.2678    1.0000 </r>
       <r>   -5.1046    1.0000 </r>
       <r>   -5.0897    1.0000 </r>
       <r>   -4.9039    1.0000 </r>
       <r>   -4.8106    1.0000 </r>
       <r>   -4.6850    1.0000 </r>
       <r>   -4.6080    1.0000 </r>
       <r>   -4.5549    1.0000 </r>
       <r>   -4.3915    1.0000 </r>
       <r>   -4.2829    1.0000 </r>
       <r>   -4.1060    1.0000 </r>
       <r>   -4.0108    1.0000 </r>
       <r>   -3.8107    0.9994 </r>
       <r>   -3.7333    0.9967 </r>
       <r>   -3.4989    0.8548 </r>
       <r>   -3.4345    0.7264 </r>
       <r>   -2.9638    0.0032 </r>
       <r>   -2.8594    0.0003 </r>
       <r>   -2.7421    0.0000 </r>
       <r>   -2.6274    0.0000 </r>
       <r>   -2.5070    0.0000 </r>
       <r>   -2.4189    0.0000 </r>
       <r>   -2.2849    0.0000 </r>
       <r>   -2.2281    0.0000 </r>
       <r>   -2.1168    0.0000 </r>
       <r>   -1.9102    0.0000 </r>
       <r>   -1.8141    0.0000 </r>
       <r>   -1.5204    0.0000 </r>
       <r>   -1.3979    0.0000 </r>
       <r>   -1.3025    0.0000 </r>
       <r>   -1.2334    0.0000 </r>
       <r>   -1.1637    0.0000 </r>
       <r>   -1.0778    0.0000 </r>
       <r>   -1.0117    0.0000 </r>
       <r>   -0.9527    0.0000 </r>
       <r>   -0.8892    0.0000 </r>
       <r>   -0.7775    0.0000 </r>
       <r>   -0.7355    0.0000 </r>
       <r>   -0.6818    0.0000 </r>
       <r>   -0.5875    0.0000 </r>
       <r>   -0.4629    0.0000 </r>
       <r>   -0.3739    0.0000 </r>
       <r>   -0.1821    0.0000 </r>
       <r>   -0.1068    0.0000 </r>
       <r>   -0.0630    0.0000 </r>
       <r>    0.2685    0.0000 </r>
       <r>    0.3950    0.0000 </r>
       <r>    0.5543    0.0000 </r>
       <r>    0.6741    0.0000 </r>
       <r>    0.9047    0.0000 </r>
       <r>    1.0445    0.0000 </r>
       <r>    1.2730    0.0000 </r>
       <r>    1.5405    0.0000 </r>
       <r>    2.1313    0.0000 </r>
       <r>    2.3058    0.0000 </r>
       <r>    2.3895    0.0000 </r>
      </set>
      <set comment="kpoint 32">
       <r>  -17.5531    1.0000 </r>
       <r>  -17.2243    1.0000 </r>
       <r>  -17.0020    1.0000 </r>
       <r>  -16.7310    1.0000 </r>
       <r>  -16.4848    1.0000 </r>
       <r>  -16.3840    1.0000 </r>
       <r>  -16.3024    1.0000 </r>
       <r>  -16.2167    1.0000 </r>
       <r>  -16.1221    1.0000 </r>
       <r>  -16.0562    1.0000 </r>
       <r>  -15.9448    1.0000 </r>
       <r>  -15.8519    1.0000 </r>
       <r>  -15.7657    1.0000 </r>
       <r>  -15.6795    1.0000 </r>
       <r>  -15.5842    1.0000 </r>
       <r>  -15.4831    1.0000 </r>
       <r>  -15.3917    1.0000 </r>
       <r>  -15.2332    1.0000 </r>
       <r>   -9.6989    1.0000 </r>
       <r>   -9.5880    1.0000 </r>
       <r>   -9.4374    1.0000 </r>
       <r>   -9.0212    1.0000 </r>
       <r>   -8.7045    1.0000 </r>
       <r>   -8.6817    1.0000 </r>
       <r>   -8.5619    1.0000 </r>
       <r>   -8.4452    1.0000 </r>
       <r>   -8.4384    1.0000 </r>
       <r>   -8.3505    1.0000 </r>
       <r>   -8.2727    1.0000 </r>
       <r>   -8.2545    1.0000 </r>
       <r>   -8.1444    1.0000 </r>
       <r>   -8.1001    1.0000 </r>
       <r>   -8.0226    1.0000 </r>
       <r>   -7.9328    1.0000 </r>
       <r>   -7.8320    1.0000 </r>
       <r>   -7.7946    1.0000 </r>
       <r>   -7.5791    1.0000 </r>
       <r>   -7.4050    1.0000 </r>
       <r>   -7.3143    1.0000 </r>
       <r>   -7.2472    1.0000 </r>
       <r>   -7.1882    1.0000 </r>
       <r>   -7.0846    1.0000 </r>
       <r>   -7.0054    1.0000 </r>
       <r>   -6.9053    1.0000 </r>
       <r>   -6.8488    1.0000 </r>
       <r>   -6.7654    1.0000 </r>
       <r>   -6.6982    1.0000 </r>
       <r>   -6.5633    1.0000 </r>
       <r>   -6.5344    1.0000 </r>
       <r>   -6.4579    1.0000 </r>
       <r>   -6.4072    1.0000 </r>
       <r>   -6.3604    1.0000 </r>
       <r>   -6.2998    1.0000 </r>
       <r>   -6.2316    1.0000 </r>
       <r>   -6.1002    1.0000 </r>
       <r>   -6.0564    1.0000 </r>
       <r>   -5.9456    1.0000 </r>
       <r>   -5.8993    1.0000 </r>
       <r>   -5.8460    1.0000 </r>
       <r>   -5.7106    1.0000 </r>
       <r>   -5.6865    1.0000 </r>
       <r>   -5.5526    1.0000 </r>
       <r>   -5.4652    1.0000 </r>
       <r>   -5.3941    1.0000 </r>
       <r>   -5.2683    1.0000 </r>
       <r>   -5.2037    1.0000 </r>
       <r>   -5.0345    1.0000 </r>
       <r>   -4.9514    1.0000 </r>
       <r>   -4.8331    1.0000 </r>
       <r>   -4.6923    1.0000 </r>
       <r>   -4.6326    1.0000 </r>
       <r>   -4.5189    1.0000 </r>
       <r>   -4.3813    1.0000 </r>
       <r>   -4.3502    1.0000 </r>
       <r>   -4.1077    1.0000 </r>
       <r>   -4.0287    1.0000 </r>
       <r>   -3.8258    0.9996 </r>
       <r>   -3.6536    0.9843 </r>
       <r>   -3.4789    0.8203 </r>
       <r>   -3.3802    0.5864 </r>
       <r>   -3.0236    0.0106 </r>
       <r>   -2.8903    0.0006 </r>
       <r>   -2.7700    0.0000 </r>
       <r>   -2.6164    0.0000 </r>
       <r>   -2.5228    0.0000 </r>
       <r>   -2.4468    0.0000 </r>
       <r>   -2.2536    0.0000 </r>
       <r>   -2.2163    0.0000 </r>
       <r>   -2.0975    0.0000 </r>
       <r>   -1.9329    0.0000 </r>
       <r>   -1.8284    0.0000 </r>
       <r>   -1.5558    0.0000 </r>
       <r>   -1.3826    0.0000 </r>
       <r>   -1.2825    0.0000 </r>
       <r>   -1.1810    0.0000 </r>
       <r>   -1.1426    0.0000 </r>
       <r>   -1.0443    0.0000 </r>
       <r>   -0.9896    0.0000 </r>
       <r>   -0.9409    0.0000 </r>
       <r>   -0.9069    0.0000 </r>
       <r>   -0.8045    0.0000 </r>
       <r>   -0.7307    0.0000 </r>
       <r>   -0.6765    0.0000 </r>
       <r>   -0.5752    0.0000 </r>
       <r>   -0.5161    0.0000 </r>
       <r>   -0.3866    0.0000 </r>
       <r>   -0.2524    0.0000 </r>
       <r>   -0.0835    0.0000 </r>
       <r>    0.0408    0.0000 </r>
       <r>    0.2767    0.0000 </r>
       <r>    0.4042    0.0000 </r>
       <r>    0.5006    0.0000 </r>
       <r>    0.6824    0.0000 </r>
       <r>    0.8765    0.0000 </r>
       <r>    1.0384    0.0000 </r>
       <r>    1.2717    0.0000 </r>
       <r>    1.5349    0.0000 </r>
       <r>    2.1064    0.0000 </r>
       <r>    2.2706    0.0000 </r>
       <r>    2.5695    0.0000 </r>
      </set>
      <set comment="kpoint 33">
       <r>  -17.5234    1.0000 </r>
       <r>  -17.3129    1.0000 </r>
       <r>  -16.8922    1.0000 </r>
       <r>  -16.7288    1.0000 </r>
       <r>  -16.5083    1.0000 </r>
       <r>  -16.4554    1.0000 </r>
       <r>  -16.3373    1.0000 </r>
       <r>  -16.1831    1.0000 </r>
       <r>  -16.1517    1.0000 </r>
       <r>  -16.0331    1.0000 </r>
       <r>  -15.8961    1.0000 </r>
       <r>  -15.8152    1.0000 </r>
       <r>  -15.7643    1.0000 </r>
       <r>  -15.6887    1.0000 </r>
       <r>  -15.5853    1.0000 </r>
       <r>  -15.5031    1.0000 </r>
       <r>  -15.3931    1.0000 </r>
       <r>  -15.2370    1.0000 </r>
       <r>   -9.7705    1.0000 </r>
       <r>   -9.4780    1.0000 </r>
       <r>   -9.4121    1.0000 </r>
       <r>   -8.9744    1.0000 </r>
       <r>   -8.7979    1.0000 </r>
       <r>   -8.7590    1.0000 </r>
       <r>   -8.6592    1.0000 </r>
       <r>   -8.6077    1.0000 </r>
       <r>   -8.3781    1.0000 </r>
       <r>   -8.2887    1.0000 </r>
       <r>   -8.2400    1.0000 </r>
       <r>   -8.1608    1.0000 </r>
       <r>   -8.0997    1.0000 </r>
       <r>   -8.0783    1.0000 </r>
       <r>   -7.9685    1.0000 </r>
       <r>   -7.9020    1.0000 </r>
       <r>   -7.8534    1.0000 </r>
       <r>   -7.7845    1.0000 </r>
       <r>   -7.5137    1.0000 </r>
       <r>   -7.4759    1.0000 </r>
       <r>   -7.3957    1.0000 </r>
       <r>   -7.3400    1.0000 </r>
       <r>   -7.1449    1.0000 </r>
       <r>   -7.0446    1.0000 </r>
       <r>   -6.9628    1.0000 </r>
       <r>   -6.9064    1.0000 </r>
       <r>   -6.8657    1.0000 </r>
       <r>   -6.7750    1.0000 </r>
       <r>   -6.6553    1.0000 </r>
       <r>   -6.6067    1.0000 </r>
       <r>   -6.5404    1.0000 </r>
       <r>   -6.4610    1.0000 </r>
       <r>   -6.4143    1.0000 </r>
       <r>   -6.3505    1.0000 </r>
       <r>   -6.2839    1.0000 </r>
       <r>   -6.1470    1.0000 </r>
       <r>   -6.0735    1.0000 </r>
       <r>   -6.0459    1.0000 </r>
       <r>   -5.9584    1.0000 </r>
       <r>   -5.9211    1.0000 </r>
       <r>   -5.8754    1.0000 </r>
       <r>   -5.7582    1.0000 </r>
       <r>   -5.6564    1.0000 </r>
       <r>   -5.5850    1.0000 </r>
       <r>   -5.5144    1.0000 </r>
       <r>   -5.4194    1.0000 </r>
       <r>   -5.3005    1.0000 </r>
       <r>   -5.1699    1.0000 </r>
       <r>   -5.0941    1.0000 </r>
       <r>   -4.8500    1.0000 </r>
       <r>   -4.7528    1.0000 </r>
       <r>   -4.6952    1.0000 </r>
       <r>   -4.6188    1.0000 </r>
       <r>   -4.4663    1.0000 </r>
       <r>   -4.4135    1.0000 </r>
       <r>   -4.3543    1.0000 </r>
       <r>   -4.1525    1.0000 </r>
       <r>   -4.0428    1.0000 </r>
       <r>   -3.9071    1.0000 </r>
       <r>   -3.5826    0.9504 </r>
       <r>   -3.4626    0.7884 </r>
       <r>   -3.3421    0.4796 </r>
       <r>   -3.0568    0.0193 </r>
       <r>   -2.9395    0.0019 </r>
       <r>   -2.8149    0.0001 </r>
       <r>   -2.6085    0.0000 </r>
       <r>   -2.5387    0.0000 </r>
       <r>   -2.4727    0.0000 </r>
       <r>   -2.2158    0.0000 </r>
       <r>   -2.1888    0.0000 </r>
       <r>   -2.1080    0.0000 </r>
       <r>   -1.9060    0.0000 </r>
       <r>   -1.8284    0.0000 </r>
       <r>   -1.5750    0.0000 </r>
       <r>   -1.3620    0.0000 </r>
       <r>   -1.2852    0.0000 </r>
       <r>   -1.1458    0.0000 </r>
       <r>   -1.1124    0.0000 </r>
       <r>   -1.0455    0.0000 </r>
       <r>   -0.9711    0.0000 </r>
       <r>   -0.9433    0.0000 </r>
       <r>   -0.8867    0.0000 </r>
       <r>   -0.8212    0.0000 </r>
       <r>   -0.7305    0.0000 </r>
       <r>   -0.6634    0.0000 </r>
       <r>   -0.5839    0.0000 </r>
       <r>   -0.5121    0.0000 </r>
       <r>   -0.4764    0.0000 </r>
       <r>   -0.3628    0.0000 </r>
       <r>   -0.0114    0.0000 </r>
       <r>    0.1049    0.0000 </r>
       <r>    0.2420    0.0000 </r>
       <r>    0.4232    0.0000 </r>
       <r>    0.5134    0.0000 </r>
       <r>    0.6905    0.0000 </r>
       <r>    0.8598    0.0000 </r>
       <r>    1.0592    0.0000 </r>
       <r>    1.2676    0.0000 </r>
       <r>    1.5508    0.0000 </r>
       <r>    2.1426    0.0000 </r>
       <r>    2.3007    0.0000 </r>
       <r>    2.4054    0.0000 </r>
      </set>
      <set comment="kpoint 34">
       <r>  -17.4883    1.0000 </r>
       <r>  -17.3805    1.0000 </r>
       <r>  -16.7519    1.0000 </r>
       <r>  -16.7248    1.0000 </r>
       <r>  -16.6425    1.0000 </r>
       <r>  -16.4837    1.0000 </r>
       <r>  -16.3281    1.0000 </r>
       <r>  -16.1755    1.0000 </r>
       <r>  -16.1597    1.0000 </r>
       <r>  -16.0195    1.0000 </r>
       <r>  -15.8575    1.0000 </r>
       <r>  -15.8052    1.0000 </r>
       <r>  -15.7454    1.0000 </r>
       <r>  -15.6930    1.0000 </r>
       <r>  -15.6020    1.0000 </r>
       <r>  -15.5158    1.0000 </r>
       <r>  -15.3965    1.0000 </r>
       <r>  -15.2387    1.0000 </r>
       <r>   -9.8082    1.0000 </r>
       <r>   -9.3991    1.0000 </r>
       <r>   -9.3509    1.0000 </r>
       <r>   -8.9393    1.0000 </r>
       <r>   -8.9047    1.0000 </r>
       <r>   -8.8777    1.0000 </r>
       <r>   -8.7082    1.0000 </r>
       <r>   -8.6257    1.0000 </r>
       <r>   -8.3577    1.0000 </r>
       <r>   -8.2976    1.0000 </r>
       <r>   -8.2246    1.0000 </r>
       <r>   -8.1434    1.0000 </r>
       <r>   -8.0731    1.0000 </r>
       <r>   -8.0297    1.0000 </r>
       <r>   -7.9071    1.0000 </r>
       <r>   -7.8888    1.0000 </r>
       <r>   -7.7678    1.0000 </r>
       <r>   -7.7507    1.0000 </r>
       <r>   -7.6665    1.0000 </r>
       <r>   -7.4600    1.0000 </r>
       <r>   -7.4293    1.0000 </r>
       <r>   -7.3479    1.0000 </r>
       <r>   -7.0989    1.0000 </r>
       <r>   -7.0467    1.0000 </r>
       <r>   -6.9828    1.0000 </r>
       <r>   -6.9020    1.0000 </r>
       <r>   -6.8177    1.0000 </r>
       <r>   -6.7817    1.0000 </r>
       <r>   -6.6748    1.0000 </r>
       <r>   -6.5978    1.0000 </r>
       <r>   -6.5394    1.0000 </r>
       <r>   -6.4547    1.0000 </r>
       <r>   -6.4448    1.0000 </r>
       <r>   -6.3174    1.0000 </r>
       <r>   -6.2898    1.0000 </r>
       <r>   -6.1873    1.0000 </r>
       <r>   -6.1202    1.0000 </r>
       <r>   -6.0210    1.0000 </r>
       <r>   -5.9578    1.0000 </r>
       <r>   -5.9161    1.0000 </r>
       <r>   -5.7880    1.0000 </r>
       <r>   -5.7617    1.0000 </r>
       <r>   -5.7316    1.0000 </r>
       <r>   -5.5834    1.0000 </r>
       <r>   -5.5331    1.0000 </r>
       <r>   -5.4800    1.0000 </r>
       <r>   -5.3192    1.0000 </r>
       <r>   -5.1238    1.0000 </r>
       <r>   -5.1187    1.0000 </r>
       <r>   -4.8112    1.0000 </r>
       <r>   -4.7429    1.0000 </r>
       <r>   -4.6629    1.0000 </r>
       <r>   -4.5103    1.0000 </r>
       <r>   -4.4522    1.0000 </r>
       <r>   -4.4336    1.0000 </r>
       <r>   -4.3507    1.0000 </r>
       <r>   -4.2229    1.0000 </r>
       <r>   -4.0529    1.0000 </r>
       <r>   -3.9546    1.0000 </r>
       <r>   -3.5477    0.9196 </r>
       <r>   -3.4566    0.7760 </r>
       <r>   -3.3415    0.4780 </r>
       <r>   -3.0522    0.0178 </r>
       <r>   -2.9679    0.0035 </r>
       <r>   -2.8408    0.0002 </r>
       <r>   -2.6007    0.0000 </r>
       <r>   -2.5528    0.0000 </r>
       <r>   -2.4795    0.0000 </r>
       <r>   -2.2033    0.0000 </r>
       <r>   -2.1635    0.0000 </r>
       <r>   -2.1234    0.0000 </r>
       <r>   -1.8863    0.0000 </r>
       <r>   -1.8251    0.0000 </r>
       <r>   -1.5765    0.0000 </r>
       <r>   -1.3498    0.0000 </r>
       <r>   -1.2861    0.0000 </r>
       <r>   -1.1313    0.0000 </r>
       <r>   -1.1128    0.0000 </r>
       <r>   -1.0565    0.0000 </r>
       <r>   -0.9912    0.0000 </r>
       <r>   -0.9259    0.0000 </r>
       <r>   -0.8589    0.0000 </r>
       <r>   -0.8221    0.0000 </r>
       <r>   -0.7159    0.0000 </r>
       <r>   -0.6364    0.0000 </r>
       <r>   -0.6056    0.0000 </r>
       <r>   -0.5843    0.0000 </r>
       <r>   -0.4856    0.0000 </r>
       <r>   -0.3867    0.0000 </r>
       <r>    0.0083    0.0000 </r>
       <r>    0.1148    0.0000 </r>
       <r>    0.2196    0.0000 </r>
       <r>    0.4456    0.0000 </r>
       <r>    0.5320    0.0000 </r>
       <r>    0.6870    0.0000 </r>
       <r>    0.8656    0.0000 </r>
       <r>    1.0743    0.0000 </r>
       <r>    1.2627    0.0000 </r>
       <r>    1.5634    0.0000 </r>
       <r>    2.2260    0.0000 </r>
       <r>    2.2598    0.0000 </r>
       <r>    2.3918    0.0000 </r>
      </set>
     </set>
    </set>
   </array>
  </eigenvalues>
  <separator name="orbital magnetization" >
   <v name="MAGDIPOLOUT">      0.00000000      0.00000000      0.00000000</v>
  </separator>
 </calculation>
 <structure name="finalpos" >
  <crystal>
   <varray name="basis" >
    <v>       8.32638455       4.82629423       0.00000000 </v>
    <v>      -8.32163986       4.81823214       0.00000000 </v>
    <v>       0.00000000       0.00000000      30.00000000 </v>
   </varray>
   <i name="volume">   2408.43408377 </i>
   <varray name="rec_basis" >
    <v>       0.06001699       0.10365623       0.00000000 </v>
    <v>      -0.06011741       0.10371533       0.00000000 </v>
    <v>       0.00000000       0.00000000       0.03333333 </v>
   </varray>
  </crystal>
  <varray name="positions" >
   <v>       0.99622348       0.30083077      -0.00120451 </v>
   <v>       0.63904941       0.31268023       0.00062197 </v>
   <v>       0.62866107       0.65062965       0.00243776 </v>
   <v>       0.33613257       0.00242318      -0.00020544 </v>
   <v>       0.32520474       0.30832858      -0.00050880 </v>
   <v>       0.64010123      -0.00837579       0.00055729 </v>
   <v>       0.03445573       0.01444517      -0.00077984 </v>
   <v>       0.03539009       0.69948304      -0.00060061 </v>
   <v>       0.34851454       0.70110347       0.00008416 </v>
   <v>       0.10978327       0.22012089       0.94425289 </v>
   <v>       0.22757790       0.11015075       0.05635809 </v>
   <v>       0.11291731       0.55397154       0.95105617 </v>
   <v>       0.21863718       0.44738277       0.04425523 </v>
   <v>       0.11944096       0.89706742       0.94289780 </v>
   <v>       0.23031016       0.78552557       0.05638069 </v>
   <v>       0.45063643       0.22659434       0.94528611 </v>
   <v>       0.55970236       0.11819763       0.05458738 </v>
   <v>       0.43780938       0.55549030       0.95028447 </v>
   <v>       0.55307641       0.44019261       0.05185700 </v>
   <v>       0.44474489       0.89582125       0.94318251 </v>
   <v>       0.55331676       0.77646121       0.05540164 </v>
   <v>       0.77609605       0.22480131       0.95103433 </v>
   <v>       0.88992279       0.10445335       0.04921296 </v>
   <v>       0.77648485       0.55802569       0.95817239 </v>
   <v>       0.89054872       0.44327190       0.04132008 </v>
   <v>       0.77849235       0.88267714       0.95697290 </v>
   <v>       0.88498383       0.77646048       0.04708529 </v>
  </varray>
 </structure>
</modeling>
