       N       E                     dE             d eps       ncg     rms          rms(c)
DAV:   1     0.112344232545E+04    0.11234E+04   -0.35867E+04  8160   0.577E+02
DAV:   2    -0.297892354147E+01   -0.11264E+04   -0.10853E+04 11120   0.173E+02
DAV:   3    -0.199674943717E+03   -0.19670E+03   -0.18865E+03 10880   0.819E+01
DAV:   4    -0.209087262504E+03   -0.94123E+01   -0.90955E+01 12280   0.262E+01
DAV:   5    -0.209403385133E+03   -0.31612E+00   -0.31520E+00 11400   0.351E+00    0.278E+01
DAV:   6    -0.241505143642E+03   -0.32102E+02   -0.11412E+02 12560   0.600E+01    0.607E+01
DAV:   7    -0.196119986106E+03    0.45385E+02   -0.18035E+02 13080   0.151E+02    0.198E+01
DAV:   8    -0.189336544574E+03    0.67834E+01   -0.18438E+01 12080   0.126E+01    0.122E+01
DAV:   9    -0.188072517386E+03    0.12640E+01   -0.30390E+00 13120   0.616E+00    0.886E+00
DAV:  10    -0.186953501733E+03    0.11190E+01   -0.15843E+00 13480   0.719E+00    0.207E+00
DAV:  11    -0.187076085541E+03   -0.12258E+00   -0.61203E-01 13520   0.351E+00    0.442E+00
DAV:  12    -0.186953419544E+03    0.12267E+00   -0.65683E-01 13000   0.432E+00    0.292E+00
DAV:  13    -0.186877017652E+03    0.76402E-01   -0.19504E-01 12760   0.232E+00    0.134E+00
DAV:  14    -0.186856768526E+03    0.20249E-01   -0.78307E-02 12320   0.133E+00    0.947E-01
DAV:  15    -0.186853050442E+03    0.37181E-02   -0.26004E-02 12440   0.814E-01    0.720E-01
DAV:  16    -0.186848591418E+03    0.44590E-02   -0.10511E-02 13200   0.440E-01    0.298E-01
DAV:  17    -0.186847441824E+03    0.11496E-02   -0.55375E-03 12680   0.335E-01    0.236E-01
DAV:  18    -0.186846842303E+03    0.59952E-03   -0.17952E-03 12440   0.200E-01    0.776E-02
DAV:  19    -0.186847022631E+03   -0.18033E-03   -0.55151E-04  8880   0.654E-02    0.789E-02
DAV:  20    -0.186847714737E+03   -0.69211E-03   -0.72198E-04  9120   0.836E-02    0.577E-02
DAV:  21    -0.186848701432E+03   -0.98670E-03   -0.26237E-04  8200   0.492E-02    0.322E-02
DAV:  22    -0.186849481242E+03   -0.77981E-03   -0.11608E-04  6720   0.368E-02    0.247E-02
DAV:  23    -0.186850560893E+03   -0.10797E-02   -0.95363E-05  7480   0.237E-02    0.102E-02
DAV:  24    -0.186851188209E+03   -0.62732E-03   -0.25042E-05  6400   0.151E-02    0.662E-03
DAV:  25    -0.186851569787E+03   -0.38158E-03   -0.15331E-05  5920   0.112E-02    0.252E-03
DAV:  26    -0.186851773496E+03   -0.20371E-03   -0.74939E-06  6880   0.621E-03    0.141E-03
DAV:  27    -0.186851857567E+03   -0.84071E-04   -0.36851E-06  6840   0.429E-03
   1 F= -.18685186E+03 E0= -.18667875E+03  d E =-.186852E+03
       N       E                     dE             d eps       ncg     rms          rms(c)
DAV:   1    -0.187531966087E+03   -0.68019E+00   -0.27384E+02  8160   0.351E+01    0.466E+00
DAV:   2    -0.189600929281E+03   -0.20690E+01   -0.20308E+01 12200   0.156E+01    0.104E+01
DAV:   3    -0.189338541011E+03    0.26239E+00   -0.49719E+00 12440   0.127E+01    0.623E+00
DAV:   4    -0.188803519732E+03    0.53502E+00   -0.63390E-01 12520   0.444E+00    0.240E+00
DAV:   5    -0.188904925762E+03   -0.10141E+00   -0.49055E-01 11200   0.389E+00    0.540E+00
DAV:   6    -0.188771033536E+03    0.13389E+00   -0.76923E-01 12680   0.407E+00    0.237E+00
DAV:   7    -0.188729930803E+03    0.41103E-01   -0.23645E-01 11840   0.208E+00    0.206E+00
DAV:   8    -0.188721061101E+03    0.88697E-02   -0.16123E-01 12200   0.214E+00    0.202E+00
DAV:   9    -0.188690133741E+03    0.30927E-01   -0.73351E-02 12600   0.126E+00    0.595E-01
DAV:  10    -0.188687531715E+03    0.26020E-02   -0.72094E-03 10840   0.292E-01    0.309E-01
DAV:  11    -0.188686765378E+03    0.76634E-03   -0.27878E-03 13160   0.227E-01    0.117E-01
DAV:  12    -0.188686753199E+03    0.12178E-04   -0.10671E-03 11800   0.103E-01    0.905E-02
DAV:  13    -0.188686780873E+03   -0.27674E-04   -0.33004E-04  8560   0.608E-02
   2 F= -.18868678E+03 E0= -.18854476E+03  d E =-.183492E+01
       N       E                     dE             d eps       ncg     rms          rms(c)
DAV:   1    -0.190621413152E+03   -0.19347E+01   -0.31436E+01  9000   0.143E+01    0.444E+00
DAV:   2    -0.190552063841E+03    0.69349E-01   -0.27785E+00 11480   0.912E+00    0.722E+00
DAV:   3    -0.190117727944E+03    0.43434E+00   -0.15137E+00 12280   0.841E+00    0.435E+00
DAV:   4    -0.189889712253E+03    0.22802E+00   -0.71847E-01 12680   0.435E+00    0.247E+00
DAV:   5    -0.189867021220E+03    0.22691E-01   -0.37215E-01 12240   0.306E+00    0.288E+00
DAV:   6    -0.189792310767E+03    0.74710E-01   -0.15808E-01 12560   0.245E+00    0.707E-01
DAV:   7    -0.189787450076E+03    0.48607E-02   -0.15025E-02 11680   0.600E-01    0.421E-01
DAV:   8    -0.189787205141E+03    0.24494E-03   -0.66634E-03 12720   0.481E-01    0.358E-01
DAV:   9    -0.189786248255E+03    0.95689E-03   -0.23415E-03 11400   0.247E-01    0.121E-01
DAV:  10    -0.189786682065E+03   -0.43381E-03   -0.96734E-04 10480   0.107E-01    0.127E-01
DAV:  11    -0.189786383100E+03    0.29897E-03   -0.49272E-04  9080   0.776E-02    0.203E-02
DAV:  12    -0.189786403420E+03   -0.20320E-04   -0.65946E-05  6960   0.265E-02
   3 F= -.18978640E+03 E0= -.18966599E+03  d E =-.109962E+01
       N       E                     dE             d eps       ncg     rms          rms(c)
DAV:   1    -0.191399402183E+03   -0.16130E+01   -0.80894E+01  8160   0.205E+01    0.463E+00
DAV:   2    -0.191136380576E+03    0.26302E+00   -0.53839E+00 13280   0.676E+00    0.378E+00
DAV:   3    -0.191450198617E+03   -0.31382E+00   -0.15350E+00 12120   0.863E+00    0.810E+00
DAV:   4    -0.191004636174E+03    0.44556E+00   -0.21473E+00 11240   0.930E+00    0.370E+00
DAV:   5    -0.190994858404E+03    0.97778E-02   -0.73544E-01 11920   0.542E+00    0.368E+00
DAV:   6    -0.190814909346E+03    0.17995E+00   -0.23387E-01 12120   0.326E+00    0.724E-01
DAV:   7    -0.190814750493E+03    0.15885E-03   -0.36650E-02 12440   0.840E-01    0.659E-01
DAV:   8    -0.190812954104E+03    0.17964E-02   -0.18235E-02 11760   0.854E-01    0.619E-01
DAV:   9    -0.190809309705E+03    0.36444E-02   -0.65079E-03 11480   0.519E-01    0.179E-01
DAV:  10    -0.190809608871E+03   -0.29917E-03   -0.16325E-03 11160   0.153E-01    0.124E-01
DAV:  11    -0.190809391599E+03    0.21727E-03   -0.66812E-04 10640   0.100E-01    0.433E-02
DAV:  12    -0.190809399260E+03   -0.76609E-05   -0.96909E-05  7240   0.345E-02
   4 F= -.19080940E+03 E0= -.19070614E+03  d E =-.102300E+01
       N       E                     dE             d eps       ncg     rms          rms(c)
DAV:   1    -0.192260019177E+03   -0.14506E+01   -0.18550E+02  8160   0.303E+01    0.591E+00
DAV:   2    -0.192011203776E+03    0.24882E+00   -0.10212E+01 11080   0.789E+00    0.409E+00
DAV:   3    -0.192461104935E+03   -0.44990E+00   -0.32340E+00 12080   0.113E+01    0.737E+00
DAV:   4    -0.191700941612E+03    0.76016E+00   -0.11258E+00 12240   0.841E+00    0.287E+00
DAV:   5    -0.191751041219E+03   -0.50100E-01   -0.61248E-01 11880   0.554E+00    0.487E+00
DAV:   6    -0.191549216859E+03    0.20182E+00   -0.59773E-01 12200   0.499E+00    0.109E+00
DAV:   7    -0.191542090883E+03    0.71260E-02   -0.59566E-02 11880   0.124E+00    0.759E-01
DAV:   8    -0.191539297775E+03    0.27931E-02   -0.29981E-02 12240   0.107E+00    0.694E-01
DAV:   9    -0.191534648476E+03    0.46493E-02   -0.10985E-02 11520   0.634E-01    0.175E-01
DAV:  10    -0.191534656537E+03   -0.80609E-05   -0.25234E-03 11480   0.164E-01    0.811E-02
DAV:  11    -0.191534676049E+03   -0.19512E-04   -0.40262E-04  9040   0.878E-02
   5 F= -.19153468E+03 E0= -.19143695E+03  d E =-.725277E+00
       N       E                     dE             d eps       ncg     rms          rms(c)
DAV:   1    -0.191602886861E+03   -0.68230E-01   -0.58679E+00  8160   0.513E+00    0.781E-01
DAV:   2    -0.191701080614E+03   -0.98194E-01   -0.36998E-01 12720   0.361E+00    0.283E+00
DAV:   3    -0.191615895347E+03    0.85185E-01   -0.14798E-01 12440   0.286E+00    0.425E-01
DAV:   4    -0.191620077961E+03   -0.41826E-02   -0.21314E-02 11600   0.897E-01    0.838E-01
DAV:   5    -0.191613465447E+03    0.66125E-02   -0.14792E-02 11600   0.777E-01    0.208E-01
DAV:   6    -0.191614801618E+03   -0.13362E-02   -0.57047E-03 11520   0.417E-01    0.419E-01
DAV:   7    -0.191613291258E+03    0.15104E-02   -0.50154E-03 11320   0.443E-01    0.163E-01
DAV:   8    -0.191612981654E+03    0.30960E-03   -0.73168E-04  9600   0.138E-01    0.378E-02
DAV:   9    -0.191612995410E+03   -0.13755E-04   -0.10701E-04  6280   0.382E-02
   6 F= -.19161300E+03 E0= -.19151309E+03  d E =-.783194E-01
       N       E                     dE             d eps       ncg     rms          rms(c)
DAV:   1    -0.191681604389E+03   -0.68623E-01   -0.65594E+00  8160   0.539E+00    0.704E-01
DAV:   2    -0.191750864482E+03   -0.69260E-01   -0.25415E-01 13360   0.278E+00    0.241E+00
DAV:   3    -0.191689555429E+03    0.61309E-01   -0.12066E-01 12440   0.253E+00    0.510E-01
DAV:   4    -0.191692921785E+03   -0.33664E-02   -0.22962E-02 11520   0.903E-01    0.802E-01
DAV:   5    -0.191686748479E+03    0.61733E-02   -0.14052E-02 11640   0.741E-01    0.194E-01
DAV:   6    -0.191687078987E+03   -0.33051E-03   -0.31324E-03 11560   0.278E-01    0.252E-01
DAV:   7    -0.191686912226E+03    0.16676E-03   -0.35641E-03 11400   0.380E-01    0.238E-01
DAV:   8    -0.191686366315E+03    0.54591E-03   -0.12612E-03 10000   0.212E-01    0.463E-02
DAV:   9    -0.191686350538E+03    0.15777E-04   -0.10738E-04  6000   0.431E-02
   7 F= -.19168635E+03 E0= -.19158577E+03  d E =-.733551E-01
       N       E                     dE             d eps       ncg     rms          rms(c)
DAV:   1    -0.191727322931E+03   -0.40957E-01   -0.18557E+00  8160   0.292E+00    0.410E-01
DAV:   2    -0.191749724629E+03   -0.22402E-01   -0.88585E-02 13240   0.174E+00    0.141E+00
DAV:   3    -0.191729553993E+03    0.20171E-01   -0.38063E-02 12280   0.140E+00    0.294E-01
DAV:   4    -0.191731128773E+03   -0.15748E-02   -0.94026E-03 11360   0.586E-01    0.509E-01
DAV:   5    -0.191728504332E+03    0.26244E-02   -0.53990E-03 11280   0.459E-01    0.101E-01
DAV:   6    -0.191728577665E+03   -0.73333E-04   -0.10878E-03 10080   0.122E-01    0.937E-02
DAV:   7    -0.191728474303E+03    0.10336E-03   -0.56281E-04  9800   0.133E-01    0.937E-02
DAV:   8    -0.191728396789E+03    0.77514E-04   -0.22107E-04  6320   0.101E-01
   8 F= -.19172840E+03 E0= -.19162792E+03  d E =-.420463E-01
       N       E                     dE             d eps       ncg     rms          rms(c)
DAV:   1    -0.191785117596E+03   -0.56643E-01   -0.34186E+00  8160   0.397E+00    0.506E-01
DAV:   2    -0.191814803639E+03   -0.29686E-01   -0.13734E-01 13400   0.198E+00    0.163E+00
DAV:   3    -0.191790072041E+03    0.24732E-01   -0.56199E-02 12360   0.164E+00    0.431E-01
DAV:   4    -0.191792082428E+03   -0.20104E-02   -0.15112E-02 11240   0.776E-01    0.626E-01
DAV:   5    -0.191787859732E+03    0.42227E-02   -0.77691E-03 11160   0.593E-01    0.130E-01
DAV:   6    -0.191787945522E+03   -0.85790E-04   -0.17235E-03 10960   0.159E-01    0.118E-01
DAV:   7    -0.191787800289E+03    0.14523E-03   -0.85677E-04 11560   0.174E-01    0.123E-01
DAV:   8    -0.191787661540E+03    0.13875E-03   -0.35403E-04  7840   0.124E-01    0.345E-02
DAV:   9    -0.191787654980E+03    0.65599E-05   -0.45513E-05  6040   0.341E-02
   9 F= -.19178765E+03 E0= -.19168859E+03  d E =-.592582E-01
       N       E                     dE             d eps       ncg     rms          rms(c)
DAV:   1    -0.191775524165E+03    0.12137E-01   -0.12865E-01  8160   0.776E-01    0.945E-02
DAV:   2    -0.191776132689E+03   -0.60852E-03   -0.44048E-03 12680   0.288E-01    0.235E-01
DAV:   3    -0.191775650613E+03    0.48208E-03   -0.15351E-03 10240   0.252E-01    0.901E-02
DAV:   4    -0.191775674827E+03   -0.24214E-04   -0.42515E-04  8000   0.130E-01
  10 F= -.19177567E+03 E0= -.19167571E+03  d E =0.119802E-01
       N       E                     dE             d eps       ncg     rms          rms(c)
DAV:   1    -0.191760513857E+03    0.15137E-01   -0.29072E-01  8160   0.117E+00    0.156E-01
DAV:   2    -0.191760906232E+03   -0.39238E-03   -0.82791E-03 11520   0.331E-01    0.203E-01
DAV:   3    -0.191760874947E+03    0.31286E-04   -0.25954E-03 11800   0.345E-01    0.209E-01
DAV:   4    -0.191760547300E+03    0.32765E-03   -0.15416E-03 10280   0.235E-01    0.144E-01
DAV:   5    -0.191760509424E+03    0.37877E-04   -0.98457E-04  9160   0.207E-01
  11 F= -.19176051E+03 E0= -.19165935E+03  d E =0.151654E-01
       N       E                     dE             d eps       ncg     rms          rms(c)
DAV:   1    -0.191704363553E+03    0.56184E-01   -0.93998E+00  8160   0.670E+00    0.825E-01
DAV:   2    -0.191733776743E+03   -0.29413E-01   -0.28651E-01 12280   0.207E+00    0.172E+00
DAV:   3    -0.191716351355E+03    0.17425E-01   -0.12741E-01 11960   0.202E+00    0.947E-01
DAV:   4    -0.191715577633E+03    0.77372E-03   -0.43817E-02 12200   0.125E+00    0.968E-01
DAV:   5    -0.191705969015E+03    0.96086E-02   -0.22633E-02 10960   0.108E+00    0.346E-01
DAV:   6    -0.191704814528E+03    0.11545E-02   -0.59156E-03 11840   0.353E-01    0.140E-01
DAV:   7    -0.191704630137E+03    0.18439E-03   -0.14923E-03 12960   0.203E-01    0.156E-01
DAV:   8    -0.191704431706E+03    0.19843E-03   -0.75627E-04  8920   0.173E-01    0.733E-02
DAV:   9    -0.191704378961E+03    0.52745E-04   -0.14953E-04  6120   0.694E-02
  12 F= -.19170438E+03 E0= -.19160029E+03  d E =0.561305E-01
       N       E                     dE             d eps       ncg     rms          rms(c)
DAV:   1    -0.191789235940E+03   -0.84804E-01   -0.11824E+01  8160   0.742E+00    0.906E-01
DAV:   2    -0.191848913401E+03   -0.59677E-01   -0.39370E-01 12360   0.252E+00    0.255E+00
DAV:   3    -0.191804802149E+03    0.44111E-01   -0.21407E-01 12040   0.263E+00    0.983E-01
DAV:   4    -0.191802711336E+03    0.20908E-02   -0.37455E-02 11480   0.116E+00    0.906E-01
DAV:   5    -0.191793691797E+03    0.90195E-02   -0.18763E-02 11600   0.105E+00    0.368E-01
DAV:   6    -0.191792696383E+03    0.99541E-03   -0.72064E-03 12200   0.409E-01    0.227E-01
DAV:   7    -0.191793020444E+03   -0.32406E-03   -0.51918E-03 12080   0.443E-01    0.348E-01
DAV:   8    -0.191791893716E+03    0.11267E-02   -0.26189E-03 10160   0.333E-01    0.715E-02
DAV:   9    -0.191791845351E+03    0.48365E-04   -0.18817E-04  5800   0.649E-02
  13 F= -.19179185E+03 E0= -.19169050E+03  d E =-.874664E-01
       N       E                     dE             d eps       ncg     rms          rms(c)
DAV:   1    -0.191803308850E+03   -0.11415E-01   -0.84089E-01  8160   0.199E+00    0.281E-01
DAV:   2    -0.191810760129E+03   -0.74513E-02   -0.33942E-02 12360   0.103E+00    0.830E-01
DAV:   3    -0.191803789373E+03    0.69708E-02   -0.14724E-02 11880   0.857E-01    0.210E-01
DAV:   4    -0.191804784479E+03   -0.99511E-03   -0.54983E-03 11320   0.430E-01    0.399E-01
DAV:   5    -0.191803251054E+03    0.15334E-02   -0.38054E-03 10560   0.371E-01    0.922E-02
DAV:   6    -0.191803247085E+03    0.39686E-05   -0.67062E-04  9800   0.103E-01
  14 F= -.19180325E+03 E0= -.19170101E+03  d E =-.114017E-01
       N       E                     dE             d eps       ncg     rms          rms(c)
DAV:   1    -0.191836764725E+03   -0.33514E-01   -0.23509E+00  8160   0.330E+00    0.398E-01
DAV:   2    -0.191850894443E+03   -0.14130E-01   -0.85137E-02 12400   0.130E+00    0.111E+00
DAV:   3    -0.191840447066E+03    0.10447E-01   -0.35061E-02 12120   0.116E+00    0.386E-01
DAV:   4    -0.191841581548E+03   -0.11345E-02   -0.11069E-02 11360   0.636E-01    0.513E-01
DAV:   5    -0.191838720265E+03    0.28613E-02   -0.59340E-03 11000   0.513E-01    0.121E-01
DAV:   6    -0.191838845868E+03   -0.12560E-03   -0.14582E-03 10440   0.166E-01    0.131E-01
DAV:   7    -0.191838768620E+03    0.77248E-04   -0.11323E-03 10560   0.212E-01    0.145E-01
DAV:   8    -0.191838555096E+03    0.21352E-03   -0.39994E-04  7680   0.129E-01    0.216E-02
DAV:   9    -0.191838559160E+03   -0.40642E-05   -0.32476E-05  5880   0.224E-02
  15 F= -.19183856E+03 E0= -.19173660E+03  d E =-.353121E-01
       N       E                     dE             d eps       ncg     rms          rms(c)
DAV:   1    -0.191877036070E+03   -0.38481E-01   -0.21959E+00  8160   0.319E+00    0.391E-01
DAV:   2    -0.191891692396E+03   -0.14656E-01   -0.86819E-02 12320   0.135E+00    0.115E+00
DAV:   3    -0.191880484567E+03    0.11208E-01   -0.35236E-02 12400   0.116E+00    0.354E-01
DAV:   4    -0.191881416675E+03   -0.93211E-03   -0.94205E-03 11480   0.603E-01    0.473E-01
DAV:   5    -0.191878976305E+03    0.24404E-02   -0.52295E-03 10480   0.500E-01    0.137E-01
DAV:   6    -0.191879403855E+03   -0.42755E-03   -0.21092E-03 11600   0.267E-01    0.244E-01
DAV:   7    -0.191878917371E+03    0.48648E-03   -0.18380E-03  9920   0.289E-01    0.114E-01
DAV:   8    -0.191878758740E+03    0.15863E-03   -0.32509E-04  7200   0.998E-02    0.210E-02
DAV:   9    -0.191878755770E+03    0.29699E-05   -0.43926E-05  7480   0.241E-02
  16 F= -.19187876E+03 E0= -.19177796E+03  d E =-.401966E-01
       N       E                     dE             d eps       ncg     rms          rms(c)
DAV:   1    -0.191949598507E+03   -0.70840E-01   -0.76102E+00  8160   0.600E+00    0.768E-01
DAV:   2    -0.192017046323E+03   -0.67448E-01   -0.33853E-01 11680   0.264E+00    0.278E+00
DAV:   3    -0.191960806668E+03    0.56240E-01   -0.17734E-01 12360   0.246E+00    0.617E-01
DAV:   4    -0.191961755033E+03   -0.94837E-03   -0.18394E-02 11400   0.913E-01    0.798E-01
DAV:   5    -0.191955702326E+03    0.60527E-02   -0.17191E-02 12200   0.930E-01    0.319E-01
DAV:   6    -0.191956598377E+03   -0.89605E-03   -0.66306E-03 11080   0.535E-01    0.408E-01
DAV:   7    -0.191954956554E+03    0.16418E-02   -0.41107E-03 10640   0.510E-01    0.183E-01
DAV:   8    -0.191954477185E+03    0.47937E-03   -0.88198E-04 10160   0.191E-01    0.394E-02
DAV:   9    -0.191954462665E+03    0.14520E-04   -0.12347E-04  7280   0.431E-02
  17 F= -.19195446E+03 E0= -.19185688E+03  d E =-.757069E-01
       N       E                     dE             d eps       ncg     rms          rms(c)
DAV:   1    -0.192034518746E+03   -0.80042E-01   -0.11536E+01  8160   0.737E+00    0.923E-01
DAV:   2    -0.192119568125E+03   -0.85049E-01   -0.47771E-01 12080   0.308E+00    0.296E+00
DAV:   3    -0.192055045016E+03    0.64523E-01   -0.20634E-01 12360   0.285E+00    0.823E-01
DAV:   4    -0.192055373062E+03   -0.32805E-03   -0.27310E-02 11400   0.124E+00    0.937E-01
DAV:   5    -0.192045477836E+03    0.98952E-02   -0.21165E-02 12200   0.114E+00    0.339E-01
DAV:   6    -0.192046464204E+03   -0.98637E-03   -0.82150E-03 11960   0.606E-01    0.463E-01
DAV:   7    -0.192044975818E+03    0.14884E-02   -0.68046E-03 11960   0.652E-01    0.293E-01
DAV:   8    -0.192043865816E+03    0.11100E-02   -0.19151E-03 10560   0.300E-01    0.529E-02
DAV:   9    -0.192043842417E+03    0.23399E-04   -0.23418E-04  8000   0.578E-02
  18 F= -.19204384E+03 E0= -.19194936E+03  d E =-.893798E-01
       N       E                     dE             d eps       ncg     rms          rms(c)
DAV:   1    -0.192059036179E+03   -0.15170E-01   -0.24300E+00  8160   0.331E+00    0.362E-01
DAV:   2    -0.192069651605E+03   -0.10615E-01   -0.89091E-02 12200   0.121E+00    0.701E-01
DAV:   3    -0.192064779468E+03    0.48721E-02   -0.16659E-02 11880   0.959E-01    0.355E-01
DAV:   4    -0.192064210200E+03    0.56927E-03   -0.52394E-03 12160   0.479E-01    0.317E-01
DAV:   5    -0.192063587766E+03    0.62243E-03   -0.29709E-03 11240   0.398E-01    0.215E-01
DAV:   6    -0.192063302132E+03    0.28563E-03   -0.15902E-03 10640   0.257E-01    0.135E-01
DAV:   7    -0.192063536746E+03   -0.23461E-03   -0.15419E-03 10800   0.278E-01    0.200E-01
DAV:   8    -0.192063101655E+03    0.43509E-03   -0.70116E-04  8840   0.194E-01    0.277E-02
DAV:   9    -0.192063103468E+03   -0.18130E-05   -0.51481E-05  5760   0.300E-02
  19 F= -.19206310E+03 E0= -.19196869E+03  d E =-.192611E-01
       N       E                     dE             d eps       ncg     rms          rms(c)
DAV:   1    -0.192084213571E+03   -0.21112E-01   -0.15451E+00  8160   0.274E+00    0.363E-01
DAV:   2    -0.192093960280E+03   -0.97467E-02   -0.47887E-02 12360   0.109E+00    0.107E+00
DAV:   3    -0.192084563318E+03    0.93970E-02   -0.23659E-02 12480   0.104E+00    0.294E-01
DAV:   4    -0.192084525931E+03    0.37387E-04   -0.34859E-03 11400   0.397E-01    0.324E-01
DAV:   5    -0.192083709899E+03    0.81603E-03   -0.36485E-03 12240   0.482E-01    0.213E-01
DAV:   6    -0.192083312883E+03    0.39702E-03   -0.13820E-03  9760   0.241E-01    0.959E-02
DAV:   7    -0.192083265197E+03    0.47686E-04   -0.48170E-04  9240   0.165E-01
  20 F= -.19208327E+03 E0= -.19198918E+03  d E =-.201617E-01
       N       E                     dE             d eps       ncg     rms          rms(c)
DAV:   1    -0.192115375232E+03   -0.32062E-01   -0.26803E+00  8160   0.352E+00    0.440E-01
DAV:   2    -0.192129372229E+03   -0.13997E-01   -0.10238E-01 11520   0.131E+00    0.105E+00
DAV:   3    -0.192120624025E+03    0.87482E-02   -0.31492E-02 12360   0.124E+00    0.451E-01
DAV:   4    -0.192119933529E+03    0.69050E-03   -0.60899E-03 11680   0.556E-01    0.396E-01
DAV:   5    -0.192118146341E+03    0.17872E-02   -0.35977E-03 12480   0.503E-01    0.154E-01
DAV:   6    -0.192118074336E+03    0.72006E-04   -0.13254E-03 12000   0.198E-01    0.100E-01
DAV:   7    -0.192117924061E+03    0.15028E-03   -0.60599E-04 10400   0.134E-01    0.757E-02
DAV:   8    -0.192117872707E+03    0.51354E-04   -0.15374E-04  6960   0.104E-01
  21 F= -.19211787E+03 E0= -.19202465E+03  d E =-.346075E-01
       N       E                     dE             d eps       ncg     rms          rms(c)
DAV:   1    -0.192149112058E+03   -0.31188E-01   -0.44922E+00  8160   0.450E+00    0.496E-01
DAV:   2    -0.192167604407E+03   -0.18492E-01   -0.16095E-01 11480   0.152E+00    0.978E-01
DAV:   3    -0.192160334436E+03    0.72700E-02   -0.35121E-02 12360   0.138E+00    0.574E-01
DAV:   4    -0.192158631674E+03    0.17028E-02   -0.86499E-03 11400   0.688E-01    0.439E-01
DAV:   5    -0.192156771500E+03    0.18602E-02   -0.42054E-03 12080   0.549E-01    0.203E-01
DAV:   6    -0.192156576546E+03    0.19495E-03   -0.19356E-03 12680   0.251E-01    0.119E-01
DAV:   7    -0.192156504336E+03    0.72209E-04   -0.10062E-03 10120   0.197E-01    0.129E-01
DAV:   8    -0.192156327749E+03    0.17659E-03   -0.36190E-04  8880   0.156E-01    0.382E-02
DAV:   9    -0.192156316522E+03    0.11227E-04   -0.54981E-05  5840   0.437E-02
  22 F= -.19215632E+03 E0= -.19206389E+03  d E =-.384438E-01
       N       E                     dE             d eps       ncg     rms          rms(c)
DAV:   1    -0.192156494673E+03   -0.16692E-03   -0.12342E-01  8160   0.777E-01    0.124E-01
DAV:   2    -0.192156728217E+03   -0.23354E-03   -0.51655E-03 11520   0.307E-01    0.175E-01
DAV:   3    -0.192156492078E+03    0.23614E-03   -0.12586E-03 10320   0.286E-01    0.114E-01
DAV:   4    -0.192156327286E+03    0.16479E-03   -0.49822E-04  8480   0.161E-01    0.752E-02
DAV:   5    -0.192156353502E+03   -0.26216E-04   -0.35583E-04  7640   0.139E-01
  23 F= -.19215635E+03 E0= -.19206325E+03  d E =-.369797E-04
       N       E                     dE             d eps       ncg     rms          rms(c)
DAV:   1    -0.192179906130E+03   -0.23579E-01   -0.15227E+00  8160   0.267E+00    0.333E-01
DAV:   2    -0.192182971218E+03   -0.30651E-02   -0.48519E-02 11920   0.680E-01    0.425E-01
DAV:   3    -0.192183619360E+03   -0.64814E-03   -0.11144E-02 12360   0.799E-01    0.511E-01
DAV:   4    -0.192180931741E+03    0.26876E-02   -0.41237E-03 12320   0.473E-01    0.152E-01
DAV:   5    -0.192180992848E+03   -0.61107E-04   -0.16550E-03 10760   0.295E-01    0.194E-01
DAV:   6    -0.192180710331E+03    0.28252E-03   -0.11493E-03 10640   0.281E-01    0.105E-01
DAV:   7    -0.192180573584E+03    0.13675E-03   -0.40044E-04  8920   0.139E-01    0.574E-02
DAV:   8    -0.192180544080E+03    0.29504E-04   -0.99558E-05  6240   0.855E-02
  24 F= -.19218054E+03 E0= -.19208811E+03  d E =-.241906E-01
       N       E                     dE             d eps       ncg     rms          rms(c)
DAV:   1    -0.192198469159E+03   -0.17896E-01   -0.98859E-01  8160   0.213E+00    0.250E-01
DAV:   2    -0.192201797543E+03   -0.33284E-02   -0.34208E-02 11480   0.733E-01    0.402E-01
DAV:   3    -0.192200544394E+03    0.12531E-02   -0.62773E-03 12400   0.637E-01    0.254E-01
DAV:   4    -0.192200209313E+03    0.33508E-03   -0.20245E-03 11360   0.344E-01    0.223E-01
DAV:   5    -0.192199854905E+03    0.35441E-03   -0.11454E-03 10120   0.280E-01    0.124E-01
DAV:   6    -0.192199753733E+03    0.10117E-03   -0.53369E-04 10120   0.133E-01    0.514E-02
DAV:   7    -0.192199714304E+03    0.39429E-04   -0.15500E-04  6720   0.706E-02
  25 F= -.19219971E+03 E0= -.19210779E+03  d E =-.191702E-01
       N       E                     dE             d eps       ncg     rms          rms(c)
DAV:   1    -0.192212521770E+03   -0.12768E-01   -0.35715E-01  8160   0.129E+00    0.160E-01
DAV:   2    -0.192213179369E+03   -0.65760E-03   -0.96863E-03 11000   0.326E-01    0.207E-01
DAV:   3    -0.192213204922E+03   -0.25553E-04   -0.20083E-03 12000   0.366E-01    0.222E-01
DAV:   4    -0.192212800418E+03    0.40450E-03   -0.90792E-04  9880   0.234E-01    0.109E-01
DAV:   5    -0.192212743067E+03    0.57351E-04   -0.46615E-04  8480   0.186E-01
  26 F= -.19221274E+03 E0= -.19212121E+03  d E =-.130288E-01
       N       E                     dE             d eps       ncg     rms          rms(c)
DAV:   1    -0.192191145967E+03    0.21654E-01   -0.11056E+00  8160   0.227E+00    0.288E-01
DAV:   2    -0.192195631061E+03   -0.44851E-02   -0.31000E-02 11440   0.778E-01    0.656E-01
DAV:   3    -0.192192187516E+03    0.34435E-02   -0.10464E-02 12160   0.768E-01    0.279E-01
DAV:   4    -0.192191633146E+03    0.55437E-03   -0.20408E-03 11240   0.281E-01    0.168E-01
DAV:   5    -0.192191594492E+03    0.38654E-04   -0.17292E-03 10760   0.325E-01    0.197E-01
DAV:   6    -0.192191277900E+03    0.31659E-03   -0.98457E-04 10320   0.254E-01    0.850E-02
DAV:   7    -0.192191163136E+03    0.11476E-03   -0.21885E-04  7440   0.799E-02    0.181E-02
DAV:   8    -0.192191160484E+03    0.26527E-05   -0.33995E-05  8000   0.258E-02
  27 F= -.19219116E+03 E0= -.19209890E+03  d E =0.215826E-01
       N       E                     dE             d eps       ncg     rms          rms(c)
DAV:   1    -0.192169032531E+03    0.22131E-01   -0.31792E+00  8160   0.387E+00    0.489E-01
DAV:   2    -0.192178469144E+03   -0.94366E-02   -0.81950E-02 11800   0.117E+00    0.996E-01
DAV:   3    -0.192171933304E+03    0.65358E-02   -0.30520E-02 12400   0.122E+00    0.515E-01
DAV:   4    -0.192169527844E+03    0.24055E-02   -0.54567E-03 11320   0.451E-01    0.241E-01
DAV:   5    -0.192169600679E+03   -0.72835E-04   -0.44281E-03 12800   0.495E-01    0.298E-01
DAV:   6    -0.192168826136E+03    0.77454E-03   -0.24375E-03 11560   0.409E-01    0.140E-01
DAV:   7    -0.192168542933E+03    0.28320E-03   -0.73360E-04 10400   0.177E-01    0.793E-02
DAV:   8    -0.192168491782E+03    0.51150E-04   -0.18859E-04  7920   0.111E-01
  28 F= -.19216849E+03 E0= -.19207522E+03  d E =0.226687E-01
       N       E                     dE             d eps       ncg     rms          rms(c)
DAV:   1    -0.192174354909E+03   -0.58120E-02   -0.14135E+00  8160   0.254E+00    0.289E-01
DAV:   2    -0.192179441948E+03   -0.50870E-02   -0.50556E-02 11960   0.868E-01    0.477E-01
DAV:   3    -0.192177660984E+03    0.17810E-02   -0.98234E-03 12480   0.749E-01    0.313E-01
DAV:   4    -0.192177132534E+03    0.52845E-03   -0.33269E-03 11800   0.403E-01    0.256E-01
DAV:   5    -0.192176679466E+03    0.45307E-03   -0.18758E-03 10160   0.331E-01    0.160E-01
DAV:   6    -0.192176488135E+03    0.19133E-03   -0.89963E-04 11440   0.179E-01    0.673E-02
DAV:   7    -0.192176415151E+03    0.72984E-04   -0.25421E-04  6440   0.765E-02
  29 F= -.19217642E+03 E0= -.19208353E+03  d E =-.792337E-02
       N       E                     dE             d eps       ncg     rms          rms(c)
DAV:   1    -0.192184025262E+03   -0.75371E-02   -0.52593E-01  8160   0.161E+00    0.231E-01
DAV:   2    -0.192185064722E+03   -0.10395E-02   -0.17207E-02 12000   0.533E-01    0.345E-01
DAV:   3    -0.192184504243E+03    0.56048E-03   -0.44636E-03 12320   0.535E-01    0.264E-01
DAV:   4    -0.192184058036E+03    0.44621E-03   -0.21377E-03 10480   0.340E-01    0.211E-01
DAV:   5    -0.192183759366E+03    0.29867E-03   -0.15907E-03 10200   0.312E-01    0.140E-01
DAV:   6    -0.192183593663E+03    0.16570E-03   -0.69031E-04  9280   0.175E-01    0.782E-02
DAV:   7    -0.192183562274E+03    0.31388E-04   -0.25232E-04  8240   0.135E-01
  30 F= -.19218356E+03 E0= -.19209038E+03  d E =-.714712E-02
       N       E                     dE             d eps       ncg     rms          rms(c)
DAV:   1    -0.192190692946E+03   -0.70993E-02   -0.46823E-01  8160   0.145E+00    0.155E-01
DAV:   2    -0.192192224768E+03   -0.15318E-02   -0.15773E-02 11640   0.445E-01    0.253E-01
DAV:   3    -0.192191865388E+03    0.35938E-03   -0.29668E-03 12640   0.407E-01    0.193E-01
DAV:   4    -0.192191618509E+03    0.24688E-03   -0.92141E-04  9800   0.220E-01    0.129E-01
DAV:   5    -0.192191480335E+03    0.13817E-03   -0.40412E-04  8600   0.167E-01    0.695E-02
DAV:   6    -0.192191466003E+03    0.14332E-04   -0.19954E-04  7160   0.892E-02
  31 F= -.19219147E+03 E0= -.19209810E+03  d E =-.790373E-02
       N       E                     dE             d eps       ncg     rms          rms(c)
DAV:   1    -0.192197247622E+03   -0.57673E-02   -0.21184E-01  8160   0.996E-01    0.118E-01
DAV:   2    -0.192197627652E+03   -0.38003E-03   -0.64223E-03 10440   0.233E-01    0.119E-01
DAV:   3    -0.192197826378E+03   -0.19873E-03   -0.12576E-03 11640   0.278E-01    0.187E-01
DAV:   4    -0.192197471232E+03    0.35515E-03   -0.54542E-04  8800   0.187E-01    0.619E-02
DAV:   5    -0.192197509080E+03   -0.37849E-04   -0.22352E-04  7840   0.123E-01
  32 F= -.19219751E+03 E0= -.19210459E+03  d E =-.604308E-02
       N       E                     dE             d eps       ncg     rms          rms(c)
DAV:   1    -0.192203090015E+03   -0.56188E-02   -0.20776E-01  8160   0.100E+00    0.129E-01
DAV:   2    -0.192203495225E+03   -0.40521E-03   -0.77749E-03 12160   0.276E-01    0.133E-01
DAV:   3    -0.192203576072E+03   -0.80847E-04   -0.11411E-03 11000   0.274E-01    0.165E-01
DAV:   4    -0.192203281641E+03    0.29443E-03   -0.58100E-04  8960   0.200E-01    0.782E-02
DAV:   5    -0.192203304316E+03   -0.22674E-04   -0.38984E-04  7920   0.147E-01
  33 F= -.19220330E+03 E0= -.19210998E+03  d E =-.579524E-02
       N       E                     dE             d eps       ncg     rms          rms(c)
DAV:   1    -0.192201971931E+03    0.13097E-02   -0.55916E-02  8160   0.556E-01    0.109E-01
DAV:   2    -0.192202584569E+03   -0.61264E-03   -0.37158E-03 11520   0.329E-01    0.270E-01
DAV:   3    -0.192201887000E+03    0.69757E-03   -0.17880E-03 10520   0.324E-01    0.104E-01
DAV:   4    -0.192201830193E+03    0.56807E-04   -0.39653E-04  7440   0.126E-01
  34 F= -.19220183E+03 E0= -.19210899E+03  d E =0.147412E-02
       N       E                     dE             d eps       ncg     rms          rms(c)
DAV:   1    -0.192200718337E+03    0.11687E-02   -0.85101E-02  8160   0.662E-01    0.192E-01
DAV:   2    -0.192201149832E+03   -0.43149E-03   -0.65676E-03 11400   0.482E-01    0.368E-01
DAV:   3    -0.192199973296E+03    0.11765E-02   -0.33541E-03 11560   0.474E-01    0.184E-01
DAV:   4    -0.192199905753E+03    0.67543E-04   -0.16834E-03 10120   0.293E-01    0.195E-01
DAV:   5    -0.192199610531E+03    0.29522E-03   -0.11937E-03 10000   0.275E-01    0.109E-01
DAV:   6    -0.192199435065E+03    0.17547E-03   -0.36999E-04  7760   0.121E-01    0.256E-02
DAV:   7    -0.192199446455E+03   -0.11390E-04   -0.61347E-05  6640   0.547E-02
  35 F= -.19219945E+03 E0= -.19210675E+03  d E =0.238374E-02
       N       E                     dE             d eps       ncg     rms          rms(c)
DAV:   1    -0.192212698375E+03   -0.13263E-01   -0.89940E-01  8160   0.206E+00    0.260E-01
DAV:   2    -0.192214049047E+03   -0.13507E-02   -0.28959E-02 11320   0.479E-01    0.255E-01
DAV:   3    -0.192215126512E+03   -0.10775E-02   -0.62856E-03 12360   0.602E-01    0.430E-01
DAV:   4    -0.192213201579E+03    0.19249E-02   -0.31199E-03 12280   0.433E-01    0.135E-01
DAV:   5    -0.192213320993E+03   -0.11941E-03   -0.11720E-03 10120   0.277E-01    0.175E-01
DAV:   6    -0.192213005764E+03    0.31523E-03   -0.67655E-04  9640   0.209E-01    0.541E-02
DAV:   7    -0.192212978187E+03    0.27578E-04   -0.12580E-04  6600   0.843E-02
  36 F= -.19221298E+03 E0= -.19212001E+03  d E =-.135317E-01
       N       E                     dE             d eps       ncg     rms          rms(c)
DAV:   1    -0.192233384491E+03   -0.20379E-01   -0.16103E+00  8160   0.278E+00    0.362E-01
DAV:   2    -0.192234892221E+03   -0.15077E-02   -0.50606E-02 11160   0.642E-01    0.253E-01
DAV:   3    -0.192236028521E+03   -0.11363E-02   -0.61877E-03 11640   0.627E-01    0.415E-01
DAV:   4    -0.192233894693E+03    0.21338E-02   -0.41539E-03 12320   0.565E-01    0.164E-01
DAV:   5    -0.192233727570E+03    0.16712E-03   -0.17301E-03 10880   0.224E-01    0.121E-01
DAV:   6    -0.192233771314E+03   -0.43744E-04   -0.93091E-04 10640   0.232E-01
  37 F= -.19223377E+03 E0= -.19214114E+03  d E =-.207931E-01
       N       E                     dE             d eps       ncg     rms          rms(c)
DAV:   1    -0.192236342599E+03   -0.26150E-02   -0.40555E-02  8160   0.458E-01    0.750E-02
DAV:   2    -0.192236553734E+03   -0.21114E-03   -0.16767E-03 12760   0.192E-01    0.153E-01
DAV:   3    -0.192236347653E+03    0.20608E-03   -0.60705E-04  8920   0.203E-01    0.767E-02
DAV:   4    -0.192236306824E+03    0.40829E-04   -0.15532E-04  5720   0.909E-02
  38 F= -.19223631E+03 E0= -.19214334E+03  d E =-.253551E-02
       N       E                     dE             d eps       ncg     rms          rms(c)
DAV:   1    -0.192253591328E+03   -0.17244E-01   -0.85420E-01  8160   0.200E+00    0.263E-01
DAV:   2    -0.192256114078E+03   -0.25228E-02   -0.25096E-02 11080   0.633E-01    0.451E-01
DAV:   3    -0.192254700323E+03    0.14138E-02   -0.61847E-03 12320   0.639E-01    0.286E-01
DAV:   4    -0.192254039250E+03    0.66107E-03   -0.18796E-03 11080   0.321E-01    0.160E-01
DAV:   5    -0.192254066019E+03   -0.26769E-04   -0.14246E-03 10360   0.315E-01    0.174E-01
DAV:   6    -0.192253780927E+03    0.28509E-03   -0.76265E-04 10320   0.214E-01    0.728E-02
DAV:   7    -0.192253745546E+03    0.35380E-04   -0.21578E-04  7600   0.121E-01
  39 F= -.19225375E+03 E0= -.19216105E+03  d E =-.174387E-01
       N       E                     dE             d eps       ncg     rms          rms(c)
DAV:   1    -0.192251635947E+03    0.21450E-02   -0.20085E-02  8160   0.319E-01    0.396E-02
DAV:   2    -0.192251740508E+03   -0.10456E-03   -0.86179E-04 12080   0.119E-01    0.817E-02
DAV:   3    -0.192251674339E+03    0.66169E-04   -0.15852E-04  6440   0.108E-01
  40 F= -.19225167E+03 E0= -.19215909E+03  d E =0.207121E-02
       N       E                     dE             d eps       ncg     rms          rms(c)
DAV:   1    -0.192267993422E+03   -0.16253E-01   -0.69375E-01  8160   0.180E+00    0.252E-01
DAV:   2    -0.192272459090E+03   -0.44657E-02   -0.23034E-02 11600   0.790E-01    0.639E-01
DAV:   3    -0.192268300387E+03    0.41587E-02   -0.78233E-03 12360   0.738E-01    0.182E-01
DAV:   4    -0.192268056465E+03    0.24392E-03   -0.11670E-03 10200   0.195E-01    0.121E-01
DAV:   5    -0.192268070508E+03   -0.14043E-04   -0.98703E-04 10560   0.243E-01
  41 F= -.19226807E+03 E0= -.19217607E+03  d E =-.163962E-01
       N       E                     dE             d eps       ncg     rms          rms(c)
DAV:   1    -0.192242748757E+03    0.25308E-01   -0.23261E+00  8160   0.330E+00    0.499E-01
DAV:   2    -0.192269752397E+03   -0.27004E-01   -0.95276E-02 11640   0.181E+00    0.173E+00
DAV:   3    -0.192243542023E+03    0.26210E-01   -0.51865E-02 12200   0.169E+00    0.344E-01
DAV:   4    -0.192243280297E+03    0.26173E-03   -0.54781E-03 11480   0.474E-01    0.349E-01
DAV:   5    -0.192242437885E+03    0.84241E-03   -0.44540E-03 12400   0.580E-01    0.280E-01
DAV:   6    -0.192241628089E+03    0.80980E-03   -0.24658E-03 11640   0.350E-01    0.104E-01
DAV:   7    -0.192241477396E+03    0.15069E-03   -0.63562E-04 10360   0.120E-01    0.521E-02
DAV:   8    -0.192241454008E+03    0.23388E-04   -0.11413E-04  8280   0.938E-02
  42 F= -.19224145E+03 E0= -.19214827E+03  d E =0.266165E-01
       N       E                     dE             d eps       ncg     rms          rms(c)
DAV:   1    -0.192228663789E+03    0.12814E-01   -0.15271E+00  8160   0.267E+00    0.341E-01
DAV:   2    -0.192236501132E+03   -0.78373E-02   -0.51044E-02 12200   0.996E-01    0.821E-01
DAV:   3    -0.192230845509E+03    0.56556E-02   -0.16971E-02 12400   0.953E-01    0.306E-01
DAV:   4    -0.192230150276E+03    0.69523E-03   -0.23524E-03 11040   0.317E-01    0.192E-01
DAV:   5    -0.192229987154E+03    0.16312E-03   -0.18417E-03 11840   0.359E-01    0.184E-01
DAV:   6    -0.192229741033E+03    0.24612E-03   -0.11581E-03 10640   0.251E-01    0.926E-02
DAV:   7    -0.192229627170E+03    0.11386E-03   -0.38992E-04  8400   0.131E-01    0.652E-02
DAV:   8    -0.192229579640E+03    0.47530E-04   -0.90140E-05  6600   0.848E-02
  43 F= -.19222958E+03 E0= -.19213574E+03  d E =0.118744E-01
       N       E                     dE             d eps       ncg     rms          rms(c)
DAV:   1    -0.192245137979E+03   -0.15511E-01   -0.10189E+00  8160   0.223E+00    0.315E-01
DAV:   2    -0.192246941687E+03   -0.18037E-02   -0.33051E-02 11600   0.720E-01    0.429E-01
DAV:   3    -0.192246211781E+03    0.72991E-03   -0.83366E-03 12160   0.736E-01    0.361E-01
DAV:   4    -0.192245139850E+03    0.10719E-02   -0.36740E-03 11600   0.466E-01    0.248E-01
DAV:   5    -0.192244897678E+03    0.24217E-03   -0.21983E-03 10240   0.393E-01    0.218E-01
DAV:   6    -0.192244433162E+03    0.46452E-03   -0.14274E-03 11440   0.257E-01    0.868E-02
DAV:   7    -0.192244399156E+03    0.34006E-04   -0.39997E-04  8880   0.153E-01
  44 F= -.19224440E+03 E0= -.19215025E+03  d E =-.148195E-01
       N       E                     dE             d eps       ncg     rms          rms(c)
DAV:   1    -0.192249670438E+03   -0.52373E-02   -0.10205E-01  8160   0.702E-01    0.118E-01
DAV:   2    -0.192249994266E+03   -0.32383E-03   -0.43969E-03 11040   0.308E-01    0.196E-01
DAV:   3    -0.192249723600E+03    0.27067E-03   -0.11941E-03 11080   0.286E-01    0.125E-01
DAV:   4    -0.192249617064E+03    0.10654E-03   -0.50765E-04  8880   0.169E-01    0.947E-02
DAV:   5    -0.192249588609E+03    0.28455E-04   -0.34558E-04  8120   0.157E-01
  45 F= -.19224959E+03 E0= -.19215572E+03  d E =-.518945E-02
       N       E                     dE             d eps       ncg     rms          rms(c)
DAV:   1    -0.192269936460E+03   -0.20319E-01   -0.11536E+00  8160   0.232E+00    0.315E-01
DAV:   2    -0.192273315518E+03   -0.33791E-02   -0.32262E-02 11480   0.772E-01    0.562E-01
DAV:   3    -0.192270843235E+03    0.24723E-02   -0.88428E-03 12120   0.770E-01    0.314E-01
DAV:   4    -0.192269898715E+03    0.94452E-03   -0.23163E-03 11640   0.347E-01    0.160E-01
DAV:   5    -0.192270121898E+03   -0.22318E-03   -0.17106E-03 10400   0.358E-01    0.215E-01
DAV:   6    -0.192269594767E+03    0.52713E-03   -0.10180E-03 10400   0.260E-01    0.628E-02
DAV:   7    -0.192269597774E+03   -0.30071E-05   -0.21978E-04  7600   0.118E-01
  46 F= -.19226960E+03 E0= -.19217642E+03  d E =-.200092E-01
       N       E                     dE             d eps       ncg     rms          rms(c)
DAV:   1    -0.192270445541E+03   -0.85077E-03   -0.21716E-03  8400   0.122E-01    0.260E-02
DAV:   2    -0.192270460047E+03   -0.14507E-04   -0.11768E-04  6360   0.583E-02
  47 F= -.19227046E+03 E0= -.19217741E+03  d E =-.862273E-03
       N       E                     dE             d eps       ncg     rms          rms(c)
DAV:   1    -0.192302958838E+03   -0.32513E-01   -0.21631E+00  8160   0.321E+00    0.431E-01
DAV:   2    -0.192309595748E+03   -0.66369E-02   -0.55292E-02 11720   0.118E+00    0.820E-01
DAV:   3    -0.192303461215E+03    0.61345E-02   -0.17368E-02 12360   0.110E+00    0.369E-01
DAV:   4    -0.192302703750E+03    0.75747E-03   -0.41485E-03 11240   0.488E-01    0.310E-01
DAV:   5    -0.192302010470E+03    0.69328E-03   -0.31346E-03 11360   0.515E-01    0.231E-01
DAV:   6    -0.192301525967E+03    0.48450E-03   -0.17173E-03 11920   0.286E-01    0.102E-01
DAV:   7    -0.192301443964E+03    0.82003E-04   -0.44316E-04  8920   0.172E-01
  48 F= -.19230144E+03 E0= -.19220896E+03  d E =-.309839E-01
       N       E                     dE             d eps       ncg     rms          rms(c)
DAV:   1    -0.192306017351E+03   -0.44914E-02   -0.12574E-01  8160   0.764E-01    0.101E-01
DAV:   2    -0.192306902590E+03   -0.88524E-03   -0.64707E-03 12440   0.336E-01    0.217E-01
DAV:   3    -0.192306380901E+03    0.52169E-03   -0.13488E-03 11560   0.302E-01    0.919E-02
DAV:   4    -0.192306309139E+03    0.71763E-04   -0.22578E-04  7160   0.113E-01
  49 F= -.19230631E+03 E0= -.19221383E+03  d E =-.486517E-02
       N       E                     dE             d eps       ncg     rms          rms(c)
DAV:   1    -0.192305028925E+03    0.13520E-02   -0.33596E-03  8160   0.157E-01    0.502E-02
DAV:   2    -0.192305511042E+03   -0.48212E-03   -0.92274E-04 10560   0.258E-01    0.205E-01
DAV:   3    -0.192305002684E+03    0.50836E-03   -0.55468E-04  8560   0.217E-01    0.230E-02
DAV:   4    -0.192305018634E+03   -0.15950E-04   -0.33182E-05  5840   0.450E-02
  50 F= -.19230502E+03 E0= -.19221254E+03  d E =0.129050E-02
       N       E                     dE             d eps       ncg     rms          rms(c)
DAV:   1    -0.192248405344E+03    0.56597E-01   -0.80979E+00  8160   0.618E+00    0.888E-01
DAV:   2    -0.192288729611E+03   -0.40324E-01   -0.26913E-01 11360   0.241E+00    0.212E+00
DAV:   3    -0.192256281688E+03    0.32448E-01   -0.12510E-01 12080   0.250E+00    0.876E-01
DAV:   4    -0.192249402925E+03    0.68788E-02   -0.19756E-02 11680   0.835E-01    0.471E-01
DAV:   5    -0.192247727587E+03    0.16753E-02   -0.14222E-02 11840   0.894E-01    0.485E-01
DAV:   6    -0.192245727563E+03    0.20000E-02   -0.76469E-03 12480   0.709E-01    0.239E-01
DAV:   7    -0.192244824390E+03    0.90317E-03   -0.19500E-03 11680   0.249E-01    0.610E-02
DAV:   8    -0.192244814865E+03    0.95242E-05   -0.24394E-04  8200   0.997E-02
  51 F= -.19224481E+03 E0= -.19215142E+03  d E =0.602038E-01
       N       E                     dE             d eps       ncg     rms          rms(c)
DAV:   1    -0.192300315552E+03   -0.55491E-01   -0.68241E+00  8160   0.572E+00    0.729E-01
DAV:   2    -0.192307491557E+03   -0.71760E-02   -0.18716E-01 10840   0.123E+00    0.638E-01
DAV:   3    -0.192314448602E+03   -0.69570E-02   -0.36264E-02 11600   0.145E+00    0.115E+00
DAV:   4    -0.192303099653E+03    0.11349E-01   -0.26334E-02 11800   0.131E+00    0.433E-01
DAV:   5    -0.192300471856E+03    0.26278E-02   -0.93303E-03 10920   0.517E-01    0.242E-01
DAV:   6    -0.192301062816E+03   -0.59096E-03   -0.44384E-03 10960   0.555E-01    0.340E-01
DAV:   7    -0.192299634812E+03    0.14280E-02   -0.19257E-03 10480   0.384E-01    0.642E-02
DAV:   8    -0.192299633669E+03    0.11425E-05   -0.20942E-04  8000   0.113E-01
  52 F= -.19229963E+03 E0= -.19220718E+03  d E =-.548188E-01
       N       E                     dE             d eps       ncg     rms          rms(c)
DAV:   1    -0.192298068652E+03    0.15662E-02   -0.10589E-02  8320   0.235E-01    0.451E-02
DAV:   2    -0.192298200513E+03   -0.13186E-03   -0.62694E-04 10880   0.144E-01    0.108E-01
DAV:   3    -0.192298049448E+03    0.15106E-03   -0.24052E-04  8080   0.137E-01    0.313E-02
DAV:   4    -0.192298047002E+03    0.24463E-05   -0.44113E-05  6040   0.462E-02
  53 F= -.19229805E+03 E0= -.19220546E+03  d E =0.158667E-02
       N       E                     dE             d eps       ncg     rms          rms(c)
DAV:   1    -0.192326379550E+03   -0.28330E-01   -0.14164E+00  8160   0.257E+00    0.335E-01
DAV:   2    -0.192332055924E+03   -0.56764E-02   -0.39258E-02 11200   0.927E-01    0.684E-01
DAV:   3    -0.192327453474E+03    0.46025E-02   -0.10823E-02 12040   0.882E-01    0.277E-01
DAV:   4    -0.192326721294E+03    0.73218E-03   -0.19444E-03 11560   0.298E-01    0.149E-01
DAV:   5    -0.192326817064E+03   -0.95770E-04   -0.15625E-03 11400   0.325E-01    0.188E-01
DAV:   6    -0.192326464902E+03    0.35216E-03   -0.91913E-04 10200   0.257E-01    0.751E-02
DAV:   7    -0.192326370508E+03    0.94394E-04   -0.18632E-04  6600   0.871E-02
  54 F= -.19232637E+03 E0= -.19223447E+03  d E =-.283235E-01
       N       E                     dE             d eps       ncg     rms          rms(c)
DAV:   1    -0.192292617598E+03    0.33847E-01   -0.20451E+00  8160   0.309E+00    0.442E-01
DAV:   2    -0.192305830258E+03   -0.13213E-01   -0.70012E-02 11520   0.139E+00    0.114E+00
DAV:   3    -0.192294143805E+03    0.11686E-01   -0.27711E-02 12240   0.132E+00    0.354E-01
DAV:   4    -0.192292642060E+03    0.15017E-02   -0.29968E-03 11160   0.301E-01    0.140E-01
DAV:   5    -0.192292558051E+03    0.84009E-04   -0.21699E-03 11400   0.242E-01    0.162E-01
DAV:   6    -0.192292536913E+03    0.21137E-04   -0.12800E-03 10760   0.317E-01    0.165E-01
DAV:   7    -0.192292192002E+03    0.34491E-03   -0.43137E-04  8800   0.181E-01    0.248E-02
DAV:   8    -0.192292193733E+03   -0.17312E-05   -0.47379E-05  6320   0.294E-02
  55 F= -.19229219E+03 E0= -.19219991E+03  d E =0.341768E-01
       N       E                     dE             d eps       ncg     rms          rms(c)
DAV:   1    -0.192350390340E+03   -0.58198E-01   -0.57992E+00  8160   0.526E+00    0.677E-01
DAV:   2    -0.192366275825E+03   -0.15885E-01   -0.16754E-01 11520   0.168E+00    0.109E+00
DAV:   3    -0.192357411114E+03    0.88647E-02   -0.38622E-02 12360   0.166E+00    0.695E-01
DAV:   4    -0.192351841389E+03    0.55697E-02   -0.10351E-02 12160   0.721E-01    0.240E-01
DAV:   5    -0.192351096063E+03    0.74533E-03   -0.51159E-03 10560   0.295E-01    0.166E-01
DAV:   6    -0.192350955122E+03    0.14094E-03   -0.19139E-03 12680   0.309E-01    0.177E-01
DAV:   7    -0.192350542376E+03    0.41275E-03   -0.65748E-04  9320   0.220E-01    0.441E-02
DAV:   8    -0.192350518924E+03    0.23451E-04   -0.86956E-05  6480   0.571E-02
  56 F= -.19235052E+03 E0= -.19225888E+03  d E =-.583252E-01
       N       E                     dE             d eps       ncg     rms          rms(c)
DAV:   1    -0.192357274059E+03   -0.67317E-02   -0.77617E-02  8160   0.601E-01    0.916E-02
DAV:   2    -0.192357893201E+03   -0.61914E-03   -0.29553E-03 10920   0.316E-01    0.232E-01
DAV:   3    -0.192357296109E+03    0.59709E-03   -0.10105E-03 10400   0.279E-01    0.594E-02
DAV:   4    -0.192357297231E+03   -0.11222E-05   -0.13136E-04  6360   0.912E-02
  57 F= -.19235730E+03 E0= -.19226589E+03  d E =-.677831E-02
       N       E                     dE             d eps       ncg     rms          rms(c)
DAV:   1    -0.192387426964E+03   -0.30131E-01   -0.15664E+00  8160   0.270E+00    0.377E-01
DAV:   2    -0.192396340083E+03   -0.89131E-02   -0.50197E-02 11040   0.115E+00    0.845E-01
DAV:   3    -0.192388419349E+03    0.79207E-02   -0.14800E-02 12080   0.106E+00    0.264E-01
DAV:   4    -0.192387882819E+03    0.53653E-03   -0.22440E-03 11320   0.334E-01    0.192E-01
DAV:   5    -0.192387818232E+03    0.64587E-04   -0.19350E-03 11840   0.385E-01    0.195E-01
DAV:   6    -0.192387411740E+03    0.40649E-03   -0.10542E-03 10320   0.252E-01    0.660E-02
DAV:   7    -0.192387328068E+03    0.83671E-04   -0.17395E-04  6520   0.685E-02
  58 F= -.19238733E+03 E0= -.19229641E+03  d E =-.300308E-01
       N       E                     dE             d eps       ncg     rms          rms(c)
DAV:   1    -0.192417577004E+03   -0.30165E-01   -0.19583E+00  8160   0.303E+00    0.406E-01
DAV:   2    -0.192426519117E+03   -0.89421E-02   -0.66653E-02 11440   0.122E+00    0.802E-01
DAV:   3    -0.192419988481E+03    0.65306E-02   -0.16411E-02 12320   0.111E+00    0.331E-01
DAV:   4    -0.192418631719E+03    0.13568E-02   -0.26639E-03 11520   0.340E-01    0.142E-01
DAV:   5    -0.192418859906E+03   -0.22819E-03   -0.20045E-03 12040   0.318E-01    0.212E-01
DAV:   6    -0.192418384141E+03    0.47577E-03   -0.12301E-03 10120   0.308E-01    0.913E-02
DAV:   7    -0.192418248598E+03    0.13554E-03   -0.24238E-04  8360   0.111E-01    0.233E-02
DAV:   8    -0.192418250491E+03   -0.18934E-05   -0.48912E-05  8040   0.500E-02
  59 F= -.19241825E+03 E0= -.19232754E+03  d E =-.309224E-01
       N       E                     dE             d eps       ncg     rms          rms(c)
DAV:   1    -0.192438689084E+03   -0.20440E-01   -0.11337E+00  8160   0.229E+00    0.335E-01
DAV:   2    -0.192446275953E+03   -0.75869E-02   -0.46018E-02 10720   0.114E+00    0.748E-01
DAV:   3    -0.192439702456E+03    0.65735E-02   -0.11979E-02 11320   0.953E-01    0.210E-01
DAV:   4    -0.192439413013E+03    0.28944E-03   -0.18064E-03 11320   0.322E-01    0.192E-01
DAV:   5    -0.192439269874E+03    0.14314E-03   -0.15261E-03 10320   0.355E-01    0.169E-01
DAV:   6    -0.192438925905E+03    0.34397E-03   -0.86297E-04 10200   0.202E-01    0.416E-02
DAV:   7    -0.192438901387E+03    0.24518E-04   -0.11125E-04  6240   0.438E-02
  60 F= -.19243890E+03 E0= -.19234889E+03  d E =-.206509E-01
       N       E                     dE             d eps       ncg     rms          rms(c)
DAV:   1    -0.192451116069E+03   -0.12190E-01   -0.51325E-01  8160   0.156E+00    0.224E-01
DAV:   2    -0.192453113504E+03   -0.19974E-02   -0.20985E-02 11440   0.605E-01    0.371E-01
DAV:   3    -0.192452001509E+03    0.11120E-02   -0.47378E-03 12400   0.593E-01    0.222E-01
DAV:   4    -0.192451344909E+03    0.65660E-03   -0.10140E-03  9920   0.237E-01    0.671E-02
DAV:   5    -0.192451287789E+03    0.57120E-04   -0.43847E-04  9160   0.738E-02
  61 F= -.19245129E+03 E0= -.19236146E+03  d E =-.123864E-01
       N       E                     dE             d eps       ncg     rms          rms(c)
DAV:   1    -0.192464875974E+03   -0.13531E-01   -0.90598E-01  8160   0.203E+00    0.290E-01
DAV:   2    -0.192471645926E+03   -0.67700E-02   -0.38224E-02 10800   0.104E+00    0.676E-01
DAV:   3    -0.192466109286E+03    0.55366E-02   -0.98966E-03 11560   0.865E-01    0.169E-01
DAV:   4    -0.192465932117E+03    0.17717E-03   -0.11465E-03 10600   0.252E-01    0.154E-01
DAV:   5    -0.192465830432E+03    0.10169E-03   -0.92347E-04 10760   0.277E-01    0.131E-01
DAV:   6    -0.192465635823E+03    0.19461E-03   -0.49517E-04  9000   0.154E-01    0.327E-02
DAV:   7    -0.192465617628E+03    0.18195E-04   -0.76121E-05  6440   0.374E-02
  62 F= -.19246562E+03 E0= -.19237639E+03  d E =-.143298E-01
       N       E                     dE             d eps       ncg     rms          rms(c)
DAV:   1    -0.192475896979E+03   -0.10261E-01   -0.92768E-01  8160   0.207E+00    0.267E-01
DAV:   2    -0.192479605634E+03   -0.37087E-02   -0.39249E-02 11440   0.743E-01    0.414E-01
DAV:   3    -0.192478391516E+03    0.12141E-02   -0.68556E-03 12320   0.706E-01    0.282E-01
DAV:   4    -0.192477369159E+03    0.10224E-02   -0.14584E-03 11280   0.302E-01    0.849E-02
DAV:   5    -0.192477453354E+03   -0.84195E-04   -0.80327E-04 10240   0.174E-01
  63 F= -.19247745E+03 E0= -.19238892E+03  d E =-.118357E-01
       N       E                     dE             d eps       ncg     rms          rms(c)
DAV:   1    -0.192481091666E+03   -0.37225E-02   -0.13262E-01  8160   0.788E-01    0.184E-01
DAV:   2    -0.192483471940E+03   -0.23803E-02   -0.10955E-02 10640   0.745E-01    0.462E-01
DAV:   3    -0.192480821730E+03    0.26502E-02   -0.40844E-03 11400   0.576E-01    0.923E-02
DAV:   4    -0.192480708817E+03    0.11291E-03   -0.52615E-04  8760   0.121E-01    0.702E-02
DAV:   5    -0.192480698778E+03    0.10040E-04   -0.30249E-04  8320   0.128E-01
  64 F= -.19248070E+03 E0= -.19239255E+03  d E =-.324542E-02
       N       E                     dE             d eps       ncg     rms          rms(c)
DAV:   1    -0.192485200651E+03   -0.44918E-02   -0.32008E-01  8160   0.121E+00    0.145E-01
DAV:   2    -0.192486436710E+03   -0.12361E-02   -0.13136E-02 11280   0.393E-01    0.205E-01
DAV:   3    -0.192486156481E+03    0.28023E-03   -0.20640E-03 12240   0.373E-01    0.156E-01
DAV:   4    -0.192485882687E+03    0.27379E-03   -0.45789E-04  9160   0.182E-01    0.616E-02
DAV:   5    -0.192485882383E+03    0.30401E-06   -0.22324E-04  7800   0.111E-01
  65 F= -.19248588E+03 E0= -.19239829E+03  d E =-.518361E-02
       N       E                     dE             d eps       ncg     rms          rms(c)
DAV:   1    -0.192490508281E+03   -0.46256E-02   -0.21019E+00  8160   0.309E+00    0.350E-01
DAV:   2    -0.192497943279E+03   -0.74350E-02   -0.84796E-02 12200   0.942E-01    0.446E-01
DAV:   3    -0.192497381160E+03    0.56212E-03   -0.10490E-02 12000   0.878E-01    0.411E-01
DAV:   4    -0.192495247234E+03    0.21339E-02   -0.28300E-03 11680   0.459E-01    0.121E-01
DAV:   5    -0.192495701086E+03   -0.45385E-03   -0.16124E-03 11480   0.323E-01    0.224E-01
DAV:   6    -0.192495112919E+03    0.58817E-03   -0.11592E-03 10120   0.284E-01    0.650E-02
DAV:   7    -0.192495037635E+03    0.75284E-04   -0.19208E-04  7240   0.736E-02
  66 F= -.19249504E+03 E0= -.19240886E+03  d E =-.915525E-02
       N       E                     dE             d eps       ncg     rms          rms(c)
DAV:   1    -0.192496061036E+03   -0.94812E-03   -0.98777E-01  8160   0.210E+00    0.237E-01
DAV:   2    -0.192500380964E+03   -0.43199E-02   -0.41726E-02 11840   0.734E-01    0.373E-01
DAV:   3    -0.192499208368E+03    0.11726E-02   -0.55218E-03 11240   0.628E-01    0.224E-01
DAV:   4    -0.192498597753E+03    0.61062E-03   -0.98790E-04 10240   0.260E-01    0.918E-02
DAV:   5    -0.192498709916E+03   -0.11216E-03   -0.58284E-04 10280   0.210E-01    0.134E-01
DAV:   6    -0.192498525206E+03    0.18471E-03   -0.45877E-04  8400   0.168E-01    0.397E-02
DAV:   7    -0.192498496055E+03    0.29151E-04   -0.91554E-05  6520   0.471E-02
  67 F= -.19249850E+03 E0= -.19241360E+03  d E =-.345842E-02
       N       E                     dE             d eps       ncg     rms          rms(c)
DAV:   1    -0.192499100274E+03   -0.57507E-03   -0.71041E-02  8160   0.562E-01    0.564E-02
DAV:   2    -0.192499296596E+03   -0.19632E-03   -0.26207E-03 11680   0.154E-01    0.429E-02
DAV:   3    -0.192499332929E+03   -0.36334E-04   -0.17471E-04  7960   0.114E-01
  68 F= -.19249933E+03 E0= -.19241491E+03  d E =-.836874E-03
