       N       E                     dE             d eps       ncg     rms          rms(c)
DAV:   1     0.112376337979E+04    0.11238E+04   -0.35870E+04  8160   0.577E+02
DAV:   2    -0.506056670021E+01   -0.11288E+04   -0.10874E+04 11400   0.173E+02
DAV:   3    -0.200019806919E+03   -0.19496E+03   -0.18758E+03 10880   0.818E+01
DAV:   4    -0.208942983559E+03   -0.89232E+01   -0.86643E+01 11960   0.260E+01
DAV:   5    -0.209277214684E+03   -0.33423E+00   -0.33340E+00 11520   0.375E+00    0.275E+01
DAV:   6    -0.237208728480E+03   -0.27932E+02   -0.10748E+02 12680   0.605E+01    0.594E+01
DAV:   7    -0.196638229786E+03    0.40570E+02   -0.17734E+02 13200   0.152E+02    0.203E+01
DAV:   8    -0.190085954947E+03    0.65523E+01   -0.20337E+01 11600   0.134E+01    0.137E+01
DAV:   9    -0.188310958892E+03    0.17750E+01   -0.35033E+00 12080   0.623E+00    0.938E+00
DAV:  10    -0.187124832573E+03    0.11861E+01   -0.17696E+00 13440   0.759E+00    0.337E+00
DAV:  11    -0.187014570514E+03    0.11026E+00   -0.65510E-01 12560   0.248E+00    0.238E+00
DAV:  12    -0.187035300784E+03   -0.20730E-01   -0.48712E-01 12840   0.333E+00    0.352E+00
DAV:  13    -0.186933042731E+03    0.10226E+00   -0.28584E-01 13280   0.316E+00    0.189E+00
DAV:  14    -0.186904084836E+03    0.28958E-01   -0.10557E-01 12840   0.174E+00    0.998E-01
DAV:  15    -0.186898854921E+03    0.52299E-02   -0.43495E-02 12400   0.108E+00    0.991E-01
DAV:  16    -0.186892673594E+03    0.61813E-02   -0.16096E-02 12720   0.676E-01    0.482E-01
DAV:  17    -0.186890027817E+03    0.26458E-02   -0.73415E-03 12880   0.386E-01    0.176E-01
DAV:  18    -0.186889497477E+03    0.53034E-03   -0.19143E-03 11720   0.141E-01    0.166E-01
DAV:  19    -0.186889287712E+03    0.20976E-03   -0.77282E-04 11200   0.134E-01    0.464E-02
DAV:  20    -0.186890170160E+03   -0.88245E-03   -0.82245E-04  9240   0.578E-02    0.445E-02
DAV:  21    -0.186891039700E+03   -0.86954E-03   -0.22879E-04  8320   0.525E-02    0.353E-02
DAV:  22    -0.186891849880E+03   -0.81018E-03   -0.10657E-04  6800   0.298E-02    0.340E-02
DAV:  23    -0.186893007726E+03   -0.11578E-02   -0.13756E-04  7440   0.409E-02    0.169E-02
DAV:  24    -0.186893590460E+03   -0.58273E-03   -0.26678E-05  6760   0.182E-02    0.435E-03
DAV:  25    -0.186893956965E+03   -0.36651E-03   -0.16594E-05  5520   0.889E-03    0.464E-03
DAV:  26    -0.186894195072E+03   -0.23811E-03   -0.90664E-06  6760   0.706E-03    0.151E-03
DAV:  27    -0.186894286395E+03   -0.91323E-04   -0.32107E-06  7280   0.386E-03
   1 F= -.18689429E+03 E0= -.18672351E+03  d E =-.186894E+03
       N       E                     dE             d eps       ncg     rms          rms(c)
DAV:   1    -0.187531717320E+03   -0.63752E+00   -0.27010E+02  8160   0.349E+01    0.466E+00
DAV:   2    -0.189592738589E+03   -0.20610E+01   -0.20359E+01 12280   0.159E+01    0.101E+01
DAV:   3    -0.189330222181E+03    0.26252E+00   -0.43073E+00 12400   0.125E+01    0.629E+00
DAV:   4    -0.188789821404E+03    0.54040E+00   -0.56421E-01 12600   0.425E+00    0.178E+00
DAV:   5    -0.188887206519E+03   -0.97385E-01   -0.43260E-01 12200   0.314E+00    0.484E+00
DAV:   6    -0.188779201162E+03    0.10801E+00   -0.72746E-01 12680   0.430E+00    0.259E+00
DAV:   7    -0.188719933885E+03    0.59267E-01   -0.18621E-01 12080   0.189E+00    0.105E+00
DAV:   8    -0.188709852336E+03    0.10082E-01   -0.61393E-02 12920   0.122E+00    0.119E+00
DAV:   9    -0.188699800510E+03    0.10052E-01   -0.23702E-02 12000   0.882E-01    0.387E-01
DAV:  10    -0.188698887788E+03    0.91272E-03   -0.40537E-03 12040   0.258E-01    0.221E-01
DAV:  11    -0.188698247687E+03    0.64010E-03   -0.24903E-03 12440   0.169E-01    0.101E-01
DAV:  12    -0.188698342240E+03   -0.94554E-04   -0.92540E-04 11800   0.894E-02
   2 F= -.18869834E+03 E0= -.18856017E+03  d E =-.180406E+01
       N       E                     dE             d eps       ncg     rms          rms(c)
DAV:   1    -0.190618465275E+03   -0.19202E+01   -0.30962E+01  9120   0.142E+01    0.443E+00
DAV:   2    -0.190568765360E+03    0.49700E-01   -0.27325E+00 11240   0.942E+00    0.722E+00
DAV:   3    -0.190106455363E+03    0.46231E+00   -0.13077E+00 12360   0.858E+00    0.424E+00
DAV:   4    -0.189894018195E+03    0.21244E+00   -0.70203E-01 12560   0.420E+00    0.250E+00
DAV:   5    -0.189846489036E+03    0.47529E-01   -0.33552E-01 12320   0.268E+00    0.229E+00
DAV:   6    -0.189797101887E+03    0.49387E-01   -0.11506E-01 12720   0.212E+00    0.780E-01
DAV:   7    -0.189790341954E+03    0.67599E-02   -0.14156E-02 11600   0.574E-01    0.203E-01
DAV:   8    -0.189790677356E+03   -0.33540E-03   -0.32814E-03 12040   0.248E-01    0.248E-01
DAV:   9    -0.189790505212E+03    0.17214E-03   -0.17468E-03 10800   0.272E-01    0.181E-01
DAV:  10    -0.189790706406E+03   -0.20119E-03   -0.10391E-03  9920   0.164E-01    0.130E-01
DAV:  11    -0.189790428107E+03    0.27830E-03   -0.47164E-04  8920   0.800E-02    0.218E-02
DAV:  12    -0.189790451601E+03   -0.23495E-04   -0.73763E-05  7040   0.290E-02
   3 F= -.18979045E+03 E0= -.18967393E+03  d E =-.109211E+01
       N       E                     dE             d eps       ncg     rms          rms(c)
DAV:   1    -0.191366179350E+03   -0.15758E+01   -0.74519E+01  8160   0.197E+01    0.457E+00
DAV:   2    -0.191184628016E+03    0.18155E+00   -0.53248E+00 13360   0.764E+00    0.453E+00
DAV:   3    -0.191332733214E+03   -0.14811E+00   -0.15067E+00 12200   0.906E+00    0.670E+00
DAV:   4    -0.190934941463E+03    0.39779E+00   -0.13345E+00 12480   0.758E+00    0.292E+00
DAV:   5    -0.190890961224E+03    0.43980E-01   -0.40912E-01 12320   0.384E+00    0.282E+00
DAV:   6    -0.190807164849E+03    0.83796E-01   -0.19588E-01 12320   0.310E+00    0.121E+00
DAV:   7    -0.190794932676E+03    0.12232E-01   -0.43132E-02 12600   0.112E+00    0.459E-01
DAV:   8    -0.190792341805E+03    0.25909E-02   -0.81364E-03 11320   0.467E-01    0.342E-01
DAV:   9    -0.190791587198E+03    0.75461E-03   -0.27556E-03 11320   0.356E-01    0.177E-01
DAV:  10    -0.190791722967E+03   -0.13577E-03   -0.13007E-03 11400   0.158E-01    0.826E-02
DAV:  11    -0.190791636858E+03    0.86109E-04   -0.46122E-04  9400   0.791E-02
   4 F= -.19079164E+03 E0= -.19069371E+03  d E =-.100119E+01
       N       E                     dE             d eps       ncg     rms          rms(c)
DAV:   1    -0.192267243733E+03   -0.14755E+01   -0.17049E+02  8160   0.291E+01    0.578E+00
DAV:   2    -0.191994877623E+03    0.27237E+00   -0.99832E+00 11000   0.798E+00    0.362E+00
DAV:   3    -0.192046949239E+03   -0.52072E-01   -0.18440E+00 12200   0.782E+00    0.600E+00
DAV:   4    -0.191879060686E+03    0.16789E+00   -0.15321E+00 12000   0.956E+00    0.481E+00
DAV:   5    -0.191611958355E+03    0.26710E+00   -0.66262E-01 12320   0.491E+00    0.175E+00
DAV:   6    -0.191589184082E+03    0.22774E-01   -0.16002E-01 12560   0.287E+00    0.150E+00
DAV:   7    -0.191571559415E+03    0.17625E-01   -0.80347E-02 12320   0.199E+00    0.695E-01
DAV:   8    -0.191565104328E+03    0.64551E-02   -0.13763E-02 12000   0.719E-01    0.391E-01
DAV:   9    -0.191564052012E+03    0.10523E-02   -0.46728E-03 11760   0.477E-01    0.216E-01
DAV:  10    -0.191564038597E+03    0.13416E-04   -0.22924E-03 11480   0.206E-01    0.841E-02
DAV:  11    -0.191563978327E+03    0.60270E-04   -0.56246E-04 10800   0.881E-02
   5 F= -.19156398E+03 E0= -.19147800E+03  d E =-.772341E+00
       N       E                     dE             d eps       ncg     rms          rms(c)
DAV:   1    -0.191683124582E+03   -0.11909E+00   -0.90002E+00  8160   0.638E+00    0.748E-01
DAV:   2    -0.191746761157E+03   -0.63637E-01   -0.35997E-01 12760   0.295E+00    0.204E+00
DAV:   3    -0.191701949658E+03    0.44811E-01   -0.98821E-02 12560   0.238E+00    0.501E-01
DAV:   4    -0.191701838146E+03    0.11151E-03   -0.12757E-02 11640   0.762E-01    0.597E-01
DAV:   5    -0.191698504634E+03    0.33335E-02   -0.86517E-03 11760   0.708E-01    0.279E-01
DAV:   6    -0.191698360112E+03    0.14452E-03   -0.38543E-03 11440   0.323E-01    0.197E-01
DAV:   7    -0.191697850609E+03    0.50950E-03   -0.20633E-03 11560   0.255E-01    0.170E-01
DAV:   8    -0.191697599222E+03    0.25139E-03   -0.71592E-04  9200   0.189E-01    0.526E-02
DAV:   9    -0.191697603063E+03   -0.38409E-05   -0.10777E-04  6200   0.564E-02
   6 F= -.19169760E+03 E0= -.19161321E+03  d E =-.133625E+00
       N       E                     dE             d eps       ncg     rms          rms(c)
DAV:   1    -0.191819027971E+03   -0.12143E+00   -0.97288E+00  8160   0.665E+00    0.705E-01
DAV:   2    -0.191859876956E+03   -0.40849E-01   -0.32131E-01 12680   0.240E+00    0.147E+00
DAV:   3    -0.191837999874E+03    0.21877E-01   -0.64377E-02 12520   0.197E+00    0.570E-01
DAV:   4    -0.191834898750E+03    0.31011E-02   -0.96139E-03 11720   0.660E-01    0.426E-01
DAV:   5    -0.191834078258E+03    0.82049E-03   -0.72460E-03 12160   0.660E-01    0.367E-01
DAV:   6    -0.191833415308E+03    0.66295E-03   -0.48759E-03 11680   0.420E-01    0.195E-01
DAV:   7    -0.191832600600E+03    0.81471E-03   -0.15637E-03 10440   0.159E-01    0.382E-02
DAV:   8    -0.191832652918E+03   -0.52319E-04   -0.21519E-04  7880   0.804E-02
   7 F= -.19183265E+03 E0= -.19175060E+03  d E =-.135050E+00
       N       E                     dE             d eps       ncg     rms          rms(c)
DAV:   1    -0.191990920829E+03   -0.15832E+00   -0.23865E+01  8160   0.105E+01    0.108E+00
DAV:   2    -0.192060673759E+03   -0.69753E-01   -0.81040E-01 12320   0.308E+00    0.141E+00
DAV:   3    -0.192051979890E+03    0.86939E-02   -0.99500E-02 12440   0.258E+00    0.115E+00
DAV:   4    -0.192032559992E+03    0.19420E-01   -0.22385E-02 12520   0.117E+00    0.328E-01
DAV:   5    -0.192036327588E+03   -0.37676E-02   -0.15443E-02 12680   0.746E-01    0.670E-01
DAV:   6    -0.192033067167E+03    0.32604E-02   -0.13786E-02 12320   0.940E-01    0.418E-01
DAV:   7    -0.192030756115E+03    0.23111E-02   -0.37267E-03 11440   0.395E-01    0.633E-02
DAV:   8    -0.192030756719E+03   -0.60441E-06   -0.50326E-04  9400   0.737E-02
   8 F= -.19203076E+03 E0= -.19195036E+03  d E =-.198104E+00
       N       E                     dE             d eps       ncg     rms          rms(c)
DAV:   1    -0.192145501926E+03   -0.11475E+00   -0.59704E+01  8160   0.166E+01    0.171E+00
DAV:   2    -0.192314307966E+03   -0.16881E+00   -0.21791E+00 11360   0.435E+00    0.178E+00
DAV:   3    -0.192347468710E+03   -0.33161E-01   -0.25111E-01 12160   0.423E+00    0.242E+00
DAV:   4    -0.192274971145E+03    0.72498E-01   -0.80681E-02 11880   0.258E+00    0.756E-01
DAV:   5    -0.192277743467E+03   -0.27723E-02   -0.32736E-02 12360   0.157E+00    0.979E-01
DAV:   6    -0.192269127086E+03    0.86164E-02   -0.29727E-02 12560   0.124E+00    0.470E-01
DAV:   7    -0.192267140124E+03    0.19870E-02   -0.98174E-03 11920   0.765E-01    0.365E-01
DAV:   8    -0.192265635953E+03    0.15042E-02   -0.26052E-03 11480   0.403E-01    0.946E-02
DAV:   9    -0.192265494260E+03    0.14169E-03   -0.72432E-04 10360   0.101E-01    0.524E-02
DAV:  10    -0.192265448684E+03    0.45577E-04   -0.22582E-04  7960   0.485E-02
   9 F= -.19226545E+03 E0= -.19219080E+03  d E =-.234692E+00
       N       E                     dE             d eps       ncg     rms          rms(c)
DAV:   1    -0.192294911106E+03   -0.29417E-01   -0.15872E+00  8160   0.272E+00    0.405E-01
DAV:   2    -0.192301506395E+03   -0.65953E-02   -0.77563E-02 12200   0.112E+00    0.673E-01
DAV:   3    -0.192298251659E+03    0.32547E-02   -0.15080E-02 12440   0.106E+00    0.426E-01
DAV:   4    -0.192296135167E+03    0.21165E-02   -0.39562E-03 12640   0.511E-01    0.209E-01
DAV:   5    -0.192296248151E+03   -0.11298E-03   -0.25730E-03 11600   0.432E-01    0.254E-01
DAV:   6    -0.192295494637E+03    0.75351E-03   -0.18385E-03 12200   0.318E-01    0.716E-02
DAV:   7    -0.192295454860E+03    0.39777E-04   -0.32328E-04  8200   0.112E-01
  10 F= -.19229545E+03 E0= -.19222177E+03  d E =-.300062E-01
       N       E                     dE             d eps       ncg     rms          rms(c)
DAV:   1    -0.192337009539E+03   -0.41515E-01   -0.13222E+01  8160   0.770E+00    0.840E-01
DAV:   2    -0.192384006006E+03   -0.46996E-01   -0.50102E-01 11880   0.238E+00    0.124E+00
DAV:   3    -0.192377262064E+03    0.67439E-02   -0.64023E-02 12120   0.218E+00    0.102E+00
DAV:   4    -0.192364675057E+03    0.12587E-01   -0.15561E-02 12480   0.105E+00    0.260E-01
DAV:   5    -0.192365283857E+03   -0.60880E-03   -0.61989E-03 12360   0.510E-01    0.352E-01
DAV:   6    -0.192364683755E+03    0.60010E-03   -0.50395E-03 11920   0.614E-01    0.292E-01
DAV:   7    -0.192363580810E+03    0.11029E-02   -0.19505E-03 11280   0.331E-01    0.902E-02
DAV:   8    -0.192363549523E+03    0.31286E-04   -0.38174E-04  8720   0.151E-01
  11 F= -.19236355E+03 E0= -.19229348E+03  d E =-.680947E-01
       N       E                     dE             d eps       ncg     rms          rms(c)
DAV:   1    -0.192376494441E+03   -0.12914E-01   -0.79369E-01  8160   0.193E+00    0.256E-01
DAV:   2    -0.192379726367E+03   -0.32319E-02   -0.33058E-02 12240   0.761E-01    0.459E-01
DAV:   3    -0.192377938450E+03    0.17879E-02   -0.63312E-03 12440   0.687E-01    0.244E-01
DAV:   4    -0.192377242300E+03    0.69615E-03   -0.13537E-03 11520   0.298E-01    0.131E-01
DAV:   5    -0.192377262418E+03   -0.20119E-04   -0.95766E-04 10640   0.266E-01
  12 F= -.19237726E+03 E0= -.19230769E+03  d E =-.137129E-01
       N       E                     dE             d eps       ncg     rms          rms(c)
DAV:   1    -0.192395834540E+03   -0.18592E-01   -0.17403E+00  8160   0.281E+00    0.370E-01
DAV:   2    -0.192403299864E+03   -0.74653E-02   -0.66538E-02 12200   0.112E+00    0.708E-01
DAV:   3    -0.192398688882E+03    0.46110E-02   -0.12912E-02 12520   0.999E-01    0.323E-01
DAV:   4    -0.192397395912E+03    0.12930E-02   -0.23982E-03 12480   0.366E-01    0.161E-01
DAV:   5    -0.192397496495E+03   -0.10058E-03   -0.17209E-03 12040   0.339E-01    0.198E-01
DAV:   6    -0.192397093270E+03    0.40323E-03   -0.11845E-03 10920   0.274E-01    0.709E-02
DAV:   7    -0.192397003134E+03    0.90136E-04   -0.19446E-04  7200   0.923E-02
  13 F= -.19239700E+03 E0= -.19232827E+03  d E =-.197407E-01
       N       E                     dE             d eps       ncg     rms          rms(c)
DAV:   1    -0.192404203771E+03   -0.71105E-02   -0.24659E-01  8160   0.111E+00    0.229E-01
DAV:   2    -0.192404957731E+03   -0.75396E-03   -0.15154E-02 11400   0.603E-01    0.355E-01
DAV:   3    -0.192403840421E+03    0.11173E-02   -0.41602E-03 11600   0.560E-01    0.199E-01
DAV:   4    -0.192403443116E+03    0.39730E-03   -0.13914E-03 10400   0.301E-01    0.151E-01
DAV:   5    -0.192403416907E+03    0.26209E-04   -0.10492E-03 10040   0.281E-01    0.152E-01
DAV:   6    -0.192403125784E+03    0.29112E-03   -0.55305E-04  9960   0.179E-01    0.302E-02
DAV:   7    -0.192403123941E+03    0.18426E-05   -0.74857E-05  6000   0.421E-02
  14 F= -.19240312E+03 E0= -.19233517E+03  d E =-.612081E-02
       N       E                     dE             d eps       ncg     rms          rms(c)
DAV:   1    -0.192413710955E+03   -0.10585E-01   -0.72852E-01  8160   0.182E+00    0.225E-01
DAV:   2    -0.192417725299E+03   -0.40143E-02   -0.30322E-02 12360   0.769E-01    0.488E-01
DAV:   3    -0.192415321383E+03    0.24039E-02   -0.57525E-03 12640   0.661E-01    0.186E-01
DAV:   4    -0.192414906738E+03    0.41465E-03   -0.82872E-04 10400   0.199E-01    0.894E-02
DAV:   5    -0.192414914305E+03   -0.75670E-05   -0.54731E-04 10200   0.171E-01
  15 F= -.19241491E+03 E0= -.19234761E+03  d E =-.117904E-01
       N       E                     dE             d eps       ncg     rms          rms(c)
DAV:   1    -0.192433178594E+03   -0.18272E-01   -0.68258E+00  8160   0.559E+00    0.726E-01
DAV:   2    -0.192464758887E+03   -0.31580E-01   -0.28953E-01 12400   0.226E+00    0.137E+00
DAV:   3    -0.192447771371E+03    0.16988E-01   -0.51360E-02 12400   0.197E+00    0.635E-01
DAV:   4    -0.192442416015E+03    0.53554E-02   -0.93140E-03 12360   0.740E-01    0.327E-01
DAV:   5    -0.192442836078E+03   -0.42006E-03   -0.69495E-03 12280   0.701E-01    0.409E-01
DAV:   6    -0.192440959060E+03    0.18770E-02   -0.52075E-03 11960   0.543E-01    0.130E-01
DAV:   7    -0.192440726820E+03    0.23224E-03   -0.94562E-04 10600   0.192E-01    0.955E-02
DAV:   8    -0.192440646194E+03    0.80627E-04   -0.27385E-04 10080   0.138E-01
  16 F= -.19244065E+03 E0= -.19237448E+03  d E =-.257319E-01
       N       E                     dE             d eps       ncg     rms          rms(c)
DAV:   1    -0.192446631797E+03   -0.59050E-02   -0.91633E-01  8160   0.202E+00    0.241E-01
DAV:   2    -0.192451181772E+03   -0.45500E-02   -0.40802E-02 11000   0.845E-01    0.444E-01
DAV:   3    -0.192449347088E+03    0.18347E-02   -0.58449E-03 11920   0.654E-01    0.222E-01
DAV:   4    -0.192448837223E+03    0.50987E-03   -0.11759E-03 10240   0.285E-01    0.125E-01
DAV:   5    -0.192448801939E+03    0.35283E-04   -0.66660E-04 10880   0.232E-01
  17 F= -.19244880E+03 E0= -.19238344E+03  d E =-.815575E-02
       N       E                     dE             d eps       ncg     rms          rms(c)
DAV:   1    -0.192451549262E+03   -0.27120E-02   -0.28731E+00  8160   0.359E+00    0.439E-01
DAV:   2    -0.192462988516E+03   -0.11439E-01   -0.13384E-01 11320   0.130E+00    0.593E-01
DAV:   3    -0.192461618876E+03    0.13696E-02   -0.15640E-02 11840   0.107E+00    0.511E-01
DAV:   4    -0.192458347963E+03    0.32709E-02   -0.47564E-03 12120   0.596E-01    0.186E-01
DAV:   5    -0.192458750599E+03   -0.40264E-03   -0.25511E-03 11600   0.426E-01    0.267E-01
DAV:   6    -0.192457903386E+03    0.84721E-03   -0.19248E-03 12120   0.347E-01    0.680E-02
DAV:   7    -0.192457883922E+03    0.19464E-04   -0.26620E-04  7200   0.111E-01
  18 F= -.19245788E+03 E0= -.19239393E+03  d E =-.908198E-02
       N       E                     dE             d eps       ncg     rms          rms(c)
DAV:   1    -0.192457616426E+03    0.28696E-03   -0.22493E-01  8160   0.103E+00    0.151E-01
DAV:   2    -0.192458994162E+03   -0.13777E-02   -0.96918E-03 11480   0.513E-01    0.344E-01
DAV:   3    -0.192457750055E+03    0.12441E-02   -0.26715E-03 11880   0.440E-01    0.113E-01
DAV:   4    -0.192457558703E+03    0.19135E-03   -0.41142E-04  8840   0.147E-01    0.661E-02
DAV:   5    -0.192457591376E+03   -0.32673E-04   -0.34538E-04  9520   0.157E-01
  19 F= -.19245759E+03 E0= -.19239318E+03  d E =0.292546E-03
       N       E                     dE             d eps       ncg     rms          rms(c)
DAV:   1    -0.192458317510E+03   -0.75881E-03   -0.71301E-02  8160   0.583E-01    0.108E-01
DAV:   2    -0.192458720687E+03   -0.40318E-03   -0.41884E-03 11560   0.306E-01    0.198E-01
DAV:   3    -0.192458344472E+03    0.37621E-03   -0.11166E-03 11000   0.281E-01    0.926E-02
DAV:   4    -0.192458251258E+03    0.93214E-04   -0.28519E-04  8760   0.130E-01
  20 F= -.19245825E+03 E0= -.19239383E+03  d E =-.659882E-03
       N       E                     dE             d eps       ncg     rms          rms(c)
DAV:   1    -0.192459270622E+03   -0.92615E-03   -0.54477E-02  8160   0.499E-01    0.817E-02
DAV:   2    -0.192460021250E+03   -0.75063E-03   -0.36339E-03 11800   0.357E-01    0.222E-01
DAV:   3    -0.192459375258E+03    0.64599E-03   -0.96094E-04 10280   0.270E-01    0.357E-02
DAV:   4    -0.192459381414E+03   -0.61562E-05   -0.62620E-05  5680   0.648E-02
  21 F= -.19245938E+03 E0= -.19239513E+03  d E =-.113016E-02
       N       E                     dE             d eps       ncg     rms          rms(c)
DAV:   1    -0.192460085984E+03   -0.71073E-03   -0.21579E-02  8160   0.348E-01    0.765E-02
DAV:   2    -0.192460113411E+03   -0.27427E-04   -0.14697E-03 10360   0.172E-01    0.104E-01
DAV:   3    -0.192460061238E+03    0.52173E-04   -0.43768E-04  8960   0.182E-01
  22 F= -.19246006E+03 E0= -.19239608E+03  d E =-.679823E-03
       N       E                     dE             d eps       ncg     rms          rms(c)
DAV:   1    -0.192461145652E+03   -0.10322E-02   -0.10143E-01  8160   0.687E-01    0.108E-01
DAV:   2    -0.192461660055E+03   -0.51440E-03   -0.51886E-03 11760   0.321E-01    0.184E-01
DAV:   3    -0.192461281421E+03    0.37863E-03   -0.10025E-03 10720   0.270E-01    0.752E-02
DAV:   4    -0.192461216365E+03    0.65056E-04   -0.18366E-04  6160   0.101E-01
  23 F= -.19246122E+03 E0= -.19239747E+03  d E =-.115513E-02
       N       E                     dE             d eps       ncg     rms          rms(c)
DAV:   1    -0.192461980893E+03   -0.69947E-03   -0.46591E-02  8160   0.469E-01    0.811E-02
DAV:   2    -0.192462701214E+03   -0.72032E-03   -0.30061E-03 12520   0.312E-01    0.231E-01
DAV:   3    -0.192462077119E+03    0.62409E-03   -0.91034E-04 10240   0.277E-01    0.478E-02
DAV:   4    -0.192462085808E+03   -0.86885E-05   -0.75546E-05  5680   0.777E-02
  24 F= -.19246209E+03 E0= -.19239850E+03  d E =-.869443E-03
