       N       E                     dE             d eps       ncg     rms          rms(c)
DAV:   1     0.112435204948E+04    0.11244E+04   -0.35871E+04  8160   0.577E+02
DAV:   2    -0.327804292609E+01   -0.11276E+04   -0.10857E+04 11160   0.173E+02
DAV:   3    -0.199748353741E+03   -0.19647E+03   -0.18869E+03 10920   0.819E+01
DAV:   4    -0.208923365519E+03   -0.91750E+01   -0.88687E+01 12080   0.260E+01
DAV:   5    -0.209245730200E+03   -0.32236E+00   -0.32135E+00 11440   0.362E+00    0.274E+01
DAV:   6    -0.236608202592E+03   -0.27362E+02   -0.10833E+02 12880   0.603E+01    0.592E+01
DAV:   7    -0.196788163400E+03    0.39820E+02   -0.17635E+02 13240   0.152E+02    0.205E+01
DAV:   8    -0.190231551290E+03    0.65566E+01   -0.21408E+01 11560   0.135E+01    0.139E+01
DAV:   9    -0.188313345156E+03    0.19182E+01   -0.36023E+00 11960   0.636E+00    0.940E+00
DAV:  10    -0.187164037986E+03    0.11493E+01   -0.18164E+00 13400   0.749E+00    0.373E+00
DAV:  11    -0.187002955509E+03    0.16108E+00   -0.73041E-01 12600   0.269E+00    0.226E+00
DAV:  12    -0.187100216670E+03   -0.97261E-01   -0.54475E-01 13320   0.384E+00    0.470E+00
DAV:  13    -0.186940521551E+03    0.15970E+00   -0.53661E-01 13200   0.388E+00    0.199E+00
DAV:  14    -0.186900837213E+03    0.39684E-01   -0.97268E-02 13160   0.161E+00    0.836E-01
DAV:  15    -0.186898243285E+03    0.25939E-02   -0.42240E-02 12880   0.110E+00    0.997E-01
DAV:  16    -0.186891830331E+03    0.64130E-02   -0.18588E-02 12880   0.762E-01    0.517E-01
DAV:  17    -0.186889377182E+03    0.24531E-02   -0.67479E-03 12920   0.317E-01    0.235E-01
DAV:  18    -0.186888409929E+03    0.96725E-03   -0.38100E-03 12760   0.280E-01    0.208E-01
DAV:  19    -0.186888055423E+03    0.35451E-03   -0.10742E-03 11520   0.163E-01    0.480E-02
DAV:  20    -0.186888807548E+03   -0.75212E-03   -0.72506E-04  9040   0.592E-02    0.528E-02
DAV:  21    -0.186889364104E+03   -0.55656E-03   -0.23640E-04  8320   0.456E-02    0.287E-02
DAV:  22    -0.186890526542E+03   -0.11624E-02   -0.17752E-04  7480   0.392E-02    0.337E-02
DAV:  23    -0.186891750416E+03   -0.12239E-02   -0.13006E-04  7480   0.409E-02    0.125E-02
DAV:  24    -0.186892343711E+03   -0.59329E-03   -0.26184E-05  6760   0.132E-02    0.643E-03
DAV:  25    -0.186892729287E+03   -0.38558E-03   -0.15118E-05  5520   0.973E-03    0.419E-03
DAV:  26    -0.186892969626E+03   -0.24034E-03   -0.91034E-06  6800   0.694E-03    0.157E-03
DAV:  27    -0.186893069270E+03   -0.99643E-04   -0.35226E-06  7240   0.414E-03
   1 F= -.18689307E+03 E0= -.18672237E+03  d E =-.186893E+03
       N       E                     dE             d eps       ncg     rms          rms(c)
DAV:   1    -0.187533444354E+03   -0.64047E+00   -0.27208E+02  8160   0.351E+01    0.463E+00
DAV:   2    -0.189427910189E+03   -0.18945E+01   -0.20152E+01 12280   0.153E+01    0.879E+00
DAV:   3    -0.189395195147E+03    0.32715E-01   -0.40302E+00 12400   0.120E+01    0.665E+00
DAV:   4    -0.188788015864E+03    0.60718E+00   -0.61024E-01 12480   0.466E+00    0.174E+00
DAV:   5    -0.188895451534E+03   -0.10744E+00   -0.46315E-01 12040   0.334E+00    0.529E+00
DAV:   6    -0.188752750662E+03    0.14270E+00   -0.73613E-01 12800   0.427E+00    0.200E+00
DAV:   7    -0.188722631785E+03    0.30119E-01   -0.11714E-01 11800   0.145E+00    0.119E+00
DAV:   8    -0.188711799837E+03    0.10832E-01   -0.57810E-02 13240   0.131E+00    0.116E+00
DAV:   9    -0.188701946537E+03    0.98533E-02   -0.19240E-02 11840   0.778E-01    0.326E-01
DAV:  10    -0.188701312386E+03    0.63415E-03   -0.35412E-03 11720   0.207E-01    0.213E-01
DAV:  11    -0.188700735071E+03    0.57731E-03   -0.24343E-03 12400   0.180E-01    0.107E-01
DAV:  12    -0.188700853968E+03   -0.11890E-03   -0.90546E-04 11360   0.953E-02    0.853E-02
DAV:  13    -0.188700786159E+03    0.67809E-04   -0.23746E-04  7960   0.558E-02
   2 F= -.18870079E+03 E0= -.18856175E+03  d E =-.180772E+01
       N       E                     dE             d eps       ncg     rms          rms(c)
DAV:   1    -0.190619750342E+03   -0.19189E+01   -0.31250E+01  8960   0.142E+01    0.442E+00
DAV:   2    -0.190566065528E+03    0.53685E-01   -0.27483E+00 11200   0.942E+00    0.719E+00
DAV:   3    -0.190105936096E+03    0.46013E+00   -0.13295E+00 12360   0.857E+00    0.420E+00
DAV:   4    -0.189897282656E+03    0.20865E+00   -0.72168E-01 12800   0.424E+00    0.252E+00
DAV:   5    -0.189876442107E+03    0.20841E-01   -0.38039E-01 12280   0.315E+00    0.283E+00
DAV:   6    -0.189799596031E+03    0.76846E-01   -0.15020E-01 12640   0.248E+00    0.711E-01
DAV:   7    -0.189793163680E+03    0.64324E-02   -0.13819E-02 11520   0.518E-01    0.207E-01
DAV:   8    -0.189793592502E+03   -0.42882E-03   -0.35013E-03 12040   0.275E-01    0.283E-01
DAV:   9    -0.189793208037E+03    0.38446E-03   -0.18035E-03 10720   0.280E-01    0.159E-01
DAV:  10    -0.189793400612E+03   -0.19257E-03   -0.77959E-04  9680   0.133E-01    0.107E-01
DAV:  11    -0.189793200261E+03    0.20035E-03   -0.35336E-04  8760   0.686E-02    0.218E-02
DAV:  12    -0.189793217412E+03   -0.17151E-04   -0.59150E-05  7120   0.249E-02
   3 F= -.18979322E+03 E0= -.18967478E+03  d E =-.109243E+01
       N       E                     dE             d eps       ncg     rms          rms(c)
DAV:   1    -0.191372488557E+03   -0.15793E+01   -0.78062E+01  8160   0.201E+01    0.460E+00
DAV:   2    -0.191206268774E+03    0.16622E+00   -0.54114E+00 13200   0.783E+00    0.472E+00
DAV:   3    -0.191316008690E+03   -0.10974E+00   -0.16077E+00 12200   0.911E+00    0.653E+00
DAV:   4    -0.190941964750E+03    0.37404E+00   -0.13737E+00 12440   0.753E+00    0.301E+00
DAV:   5    -0.190897828923E+03    0.44136E-01   -0.45589E-01 12560   0.405E+00    0.295E+00
DAV:   6    -0.190806364268E+03    0.91465E-01   -0.21432E-01 12240   0.321E+00    0.123E+00
DAV:   7    -0.190792324908E+03    0.14039E-01   -0.47019E-02 12720   0.112E+00    0.438E-01
DAV:   8    -0.190791604736E+03    0.72017E-03   -0.10603E-02 11440   0.594E-01    0.506E-01
DAV:   9    -0.190789425195E+03    0.21795E-02   -0.43102E-03 11320   0.449E-01    0.149E-01
DAV:  10    -0.190789691843E+03   -0.26665E-03   -0.12514E-03 11360   0.134E-01    0.921E-02
DAV:  11    -0.190789570725E+03    0.12112E-03   -0.48200E-04  9720   0.803E-02    0.450E-02
DAV:  12    -0.190789567790E+03    0.29357E-05   -0.10349E-04  7000   0.395E-02
   4 F= -.19078957E+03 E0= -.19068462E+03  d E =-.996350E+00
       N       E                     dE             d eps       ncg     rms          rms(c)
DAV:   1    -0.192094994484E+03   -0.13054E+01   -0.16084E+02  8160   0.283E+01    0.557E+00
DAV:   2    -0.191862251980E+03    0.23274E+00   -0.92174E+00 11480   0.806E+00    0.388E+00
DAV:   3    -0.192062132116E+03   -0.19988E+00   -0.20597E+00 11200   0.869E+00    0.805E+00
DAV:   4    -0.191747427876E+03    0.31470E+00   -0.28793E+00 11480   0.107E+01    0.445E+00
DAV:   5    -0.191572577272E+03    0.17485E+00   -0.74170E-01 12360   0.548E+00    0.321E+00
DAV:   6    -0.191447383341E+03    0.12519E+00   -0.27404E-01 12280   0.376E+00    0.126E+00
DAV:   7    -0.191433136796E+03    0.14247E-01   -0.61888E-02 12280   0.131E+00    0.511E-01
DAV:   8    -0.191428981819E+03    0.41550E-02   -0.10441E-02 10720   0.482E-01    0.239E-01
DAV:   9    -0.191430387483E+03   -0.14057E-02   -0.51573E-03 12720   0.490E-01    0.424E-01
DAV:  10    -0.191428892466E+03    0.14950E-02   -0.37378E-03 11200   0.379E-01    0.641E-02
DAV:  11    -0.191428961574E+03   -0.69108E-04   -0.37845E-04  9600   0.723E-02
   5 F= -.19142896E+03 E0= -.19132354E+03  d E =-.639394E+00
       N       E                     dE             d eps       ncg     rms          rms(c)
DAV:   1    -0.191477970375E+03   -0.49078E-01   -0.40540E+00  8160   0.426E+00    0.591E-01
DAV:   2    -0.191530821509E+03   -0.52851E-01   -0.24774E-01 13280   0.268E+00    0.199E+00
DAV:   3    -0.191489042974E+03    0.41779E-01   -0.88717E-02 12440   0.209E+00    0.383E-01
DAV:   4    -0.191490624759E+03   -0.15818E-02   -0.12331E-02 11400   0.698E-01    0.588E-01
DAV:   5    -0.191487176340E+03    0.34484E-02   -0.74184E-03 10280   0.570E-01    0.176E-01
DAV:   6    -0.191487159339E+03    0.17001E-04   -0.17295E-03 10440   0.171E-01    0.126E-01
DAV:   7    -0.191486864748E+03    0.29459E-03   -0.92149E-04 10200   0.126E-01    0.717E-02
DAV:   8    -0.191486862998E+03    0.17497E-05   -0.29209E-04  7840   0.111E-01
   6 F= -.19148686E+03 E0= -.19137910E+03  d E =-.579014E-01
       N       E                     dE             d eps       ncg     rms          rms(c)
DAV:   1    -0.191539969176E+03   -0.53104E-01   -0.47651E+00  8160   0.462E+00    0.579E-01
DAV:   2    -0.191575028744E+03   -0.35060E-01   -0.17873E-01 13600   0.204E+00    0.161E+00
DAV:   3    -0.191546890847E+03    0.28138E-01   -0.68934E-02 12440   0.187E+00    0.436E-01
DAV:   4    -0.191546556046E+03    0.33480E-03   -0.90461E-03 11080   0.549E-01    0.451E-01
DAV:   5    -0.191545107587E+03    0.14485E-02   -0.71850E-03 10680   0.554E-01    0.286E-01
DAV:   6    -0.191544473533E+03    0.63405E-03   -0.24949E-03 10000   0.269E-01    0.115E-01
DAV:   7    -0.191544305490E+03    0.16804E-03   -0.78271E-04 10440   0.116E-01    0.631E-02
DAV:   8    -0.191544318168E+03   -0.12678E-04   -0.29991E-04  8320   0.114E-01
   7 F= -.19154432E+03 E0= -.19143467E+03  d E =-.574552E-01
       N       E                     dE             d eps       ncg     rms          rms(c)
DAV:   1    -0.191550130619E+03   -0.58251E-02   -0.66039E-02  8160   0.566E-01    0.979E-02
DAV:   2    -0.191550518226E+03   -0.38761E-03   -0.35438E-03 11520   0.264E-01    0.195E-01
DAV:   3    -0.191550153209E+03    0.36502E-03   -0.11695E-03 10240   0.246E-01    0.801E-02
DAV:   4    -0.191550124364E+03    0.28845E-04   -0.27889E-04  6200   0.106E-01
   8 F= -.19155012E+03 E0= -.19144051E+03  d E =-.580620E-02
       N       E                     dE             d eps       ncg     rms          rms(c)
DAV:   1    -0.191529779297E+03    0.20374E-01   -0.66464E+00  8160   0.575E+00    0.119E+00
DAV:   2    -0.191560836935E+03   -0.31058E-01   -0.43812E-01 12720   0.306E+00    0.209E+00
DAV:   3    -0.191518532652E+03    0.42304E-01   -0.15390E-01 12280   0.284E+00    0.107E+00
DAV:   4    -0.191515460474E+03    0.30722E-02   -0.72153E-02 11560   0.159E+00    0.122E+00
DAV:   5    -0.191506707986E+03    0.87525E-02   -0.62797E-02 10760   0.154E+00    0.767E-01
DAV:   6    -0.191499120716E+03    0.75873E-02   -0.17172E-02 10280   0.722E-01    0.144E-01
DAV:   7    -0.191499212145E+03   -0.91429E-04   -0.31969E-03 11920   0.249E-01    0.168E-01
DAV:   8    -0.191499119886E+03    0.92259E-04   -0.15477E-03 10520   0.262E-01    0.158E-01
DAV:   9    -0.191498860657E+03    0.25923E-03   -0.44655E-04  8520   0.140E-01    0.302E-02
DAV:  10    -0.191498897292E+03   -0.36635E-04   -0.80545E-05  6200   0.328E-02
   9 F= -.19149890E+03 E0= -.19139035E+03  d E =0.512271E-01
       N       E                     dE             d eps       ncg     rms          rms(c)
DAV:   1    -0.191474224351E+03    0.24636E-01   -0.95332E-01  8160   0.209E+00    0.315E-01
DAV:   2    -0.191479642808E+03   -0.54185E-02   -0.43813E-02 13560   0.975E-01    0.666E-01
DAV:   3    -0.191474929771E+03    0.47130E-02   -0.13482E-02 12360   0.834E-01    0.245E-01
DAV:   4    -0.191474771455E+03    0.15832E-03   -0.34002E-03 11200   0.346E-01    0.270E-01
DAV:   5    -0.191474303275E+03    0.46818E-03   -0.31213E-03  9920   0.363E-01    0.188E-01
DAV:   6    -0.191473959698E+03    0.34358E-03   -0.12229E-03  9680   0.193E-01    0.632E-02
DAV:   7    -0.191473997195E+03   -0.37497E-04   -0.38858E-04  7600   0.116E-01
  10 F= -.19147400E+03 E0= -.19136611E+03  d E =0.249001E-01
       N       E                     dE             d eps       ncg     rms          rms(c)
DAV:   1    -0.191713013521E+03   -0.23905E+00   -0.39663E+01  8160   0.138E+01    0.224E+00
DAV:   2    -0.192042498990E+03   -0.32949E+00   -0.18059E+00 13600   0.728E+00    0.603E+00
DAV:   3    -0.191703135739E+03    0.33936E+00   -0.93943E-01 12240   0.687E+00    0.151E+00
DAV:   4    -0.191715733045E+03   -0.12597E-01   -0.18253E-01 12320   0.270E+00    0.239E+00
DAV:   5    -0.191669238710E+03    0.46494E-01   -0.17787E-01 11320   0.279E+00    0.127E+00
DAV:   6    -0.191652257463E+03    0.16981E-01   -0.59484E-02 11680   0.128E+00    0.507E-01
DAV:   7    -0.191654682291E+03   -0.24248E-02   -0.24733E-02 11960   0.984E-01    0.768E-01
DAV:   8    -0.191649161639E+03    0.55207E-02   -0.13440E-02 11600   0.763E-01    0.185E-01
DAV:   9    -0.191648615378E+03    0.54626E-03   -0.12244E-03 10200   0.160E-01    0.678E-02
DAV:  10    -0.191648609058E+03    0.63208E-05   -0.42956E-04  9680   0.651E-02
  11 F= -.19164861E+03 E0= -.19154039E+03  d E =-.174612E+00
       N       E                     dE             d eps       ncg     rms          rms(c)
DAV:   1    -0.191612134678E+03    0.36481E-01   -0.58354E+00  8160   0.527E+00    0.932E-01
DAV:   2    -0.191648121975E+03   -0.35987E-01   -0.28229E-01 12720   0.276E+00    0.197E+00
DAV:   3    -0.191604112246E+03    0.44010E-01   -0.10225E-01 12240   0.237E+00    0.665E-01
DAV:   4    -0.191603599165E+03    0.51308E-03   -0.33820E-02 11400   0.104E+00    0.805E-01
DAV:   5    -0.191600651321E+03    0.29478E-02   -0.28876E-02 12240   0.115E+00    0.683E-01
DAV:   6    -0.191595512988E+03    0.51383E-02   -0.12888E-02 11080   0.674E-01    0.167E-01
DAV:   7    -0.191595776944E+03   -0.26396E-03   -0.32087E-03 12680   0.311E-01    0.240E-01
DAV:   8    -0.191595292767E+03    0.48418E-03   -0.16800E-03 10200   0.268E-01    0.904E-02
DAV:   9    -0.191595213278E+03    0.79489E-04   -0.19284E-04  5920   0.800E-02
  12 F= -.19159521E+03 E0= -.19148476E+03  d E =0.533958E-01
       N       E                     dE             d eps       ncg     rms          rms(c)
DAV:   1    -0.191682605541E+03   -0.87313E-01   -0.89953E+00  8160   0.640E+00    0.828E-01
DAV:   2    -0.191736357521E+03   -0.53752E-01   -0.32024E-01 13600   0.283E+00    0.210E+00
DAV:   3    -0.191691447986E+03    0.44910E-01   -0.11398E-01 12240   0.245E+00    0.590E-01
DAV:   4    -0.191691875095E+03   -0.42711E-03   -0.24493E-02 12320   0.914E-01    0.769E-01
DAV:   5    -0.191687232640E+03    0.46425E-02   -0.20230E-02 11880   0.965E-01    0.438E-01
DAV:   6    -0.191685537246E+03    0.16954E-02   -0.67931E-03 11560   0.467E-01    0.211E-01
DAV:   7    -0.191686212724E+03   -0.67548E-03   -0.46288E-03 11560   0.441E-01    0.361E-01
DAV:   8    -0.191684925233E+03    0.12875E-02   -0.24113E-03  9760   0.330E-01    0.542E-02
DAV:   9    -0.191684907389E+03    0.17844E-04   -0.12855E-04  5680   0.509E-02
  13 F= -.19168491E+03 E0= -.19157829E+03  d E =-.896941E-01
       N       E                     dE             d eps       ncg     rms          rms(c)
DAV:   1    -0.191708612271E+03   -0.23687E-01   -0.58530E-01  8160   0.166E+00    0.240E-01
DAV:   2    -0.191714001061E+03   -0.53888E-02   -0.28255E-02 13080   0.882E-01    0.698E-01
DAV:   3    -0.191709370793E+03    0.46303E-02   -0.11231E-02 11160   0.735E-01    0.202E-01
DAV:   4    -0.191709677252E+03   -0.30646E-03   -0.28892E-03 10080   0.359E-01    0.278E-01
DAV:   5    -0.191708862112E+03    0.81514E-03   -0.16120E-03  9600   0.291E-01    0.797E-02
DAV:   6    -0.191708819503E+03    0.42609E-04   -0.42262E-04  8120   0.860E-02
  14 F= -.19170882E+03 E0= -.19160340E+03  d E =-.239121E-01
       N       E                     dE             d eps       ncg     rms          rms(c)
DAV:   1    -0.191701202771E+03    0.76593E-02   -0.35305E-01  8160   0.128E+00    0.177E-01
DAV:   2    -0.191702922819E+03   -0.17200E-02   -0.12335E-02 12720   0.543E-01    0.410E-01
DAV:   3    -0.191701284297E+03    0.16385E-02   -0.51286E-03 11440   0.496E-01    0.174E-01
DAV:   4    -0.191701254203E+03    0.30095E-04   -0.15408E-03  9520   0.249E-01    0.179E-01
DAV:   5    -0.191701056066E+03    0.19814E-03   -0.11256E-03  9560   0.230E-01    0.115E-01
DAV:   6    -0.191700889129E+03    0.16694E-03   -0.40415E-04  7760   0.119E-01    0.252E-02
DAV:   7    -0.191700895680E+03   -0.65505E-05   -0.81368E-05  6920   0.369E-02
  15 F= -.19170090E+03 E0= -.19159477E+03  d E =0.792382E-02
       N       E                     dE             d eps       ncg     rms          rms(c)
DAV:   1    -0.191776175320E+03   -0.75286E-01   -0.64524E+00  8160   0.540E+00    0.626E-01
DAV:   2    -0.191806993657E+03   -0.30818E-01   -0.20189E-01 13440   0.207E+00    0.155E+00
DAV:   3    -0.191785499164E+03    0.21494E-01   -0.68795E-02 12040   0.183E+00    0.598E-01
DAV:   4    -0.191786015427E+03   -0.51626E-03   -0.20009E-02 12240   0.928E-01    0.690E-01
DAV:   5    -0.191781251898E+03    0.47635E-02   -0.10870E-02 12120   0.777E-01    0.252E-01
DAV:   6    -0.191780670874E+03    0.58102E-03   -0.33334E-03 10760   0.291E-01    0.147E-01
DAV:   7    -0.191781067636E+03   -0.39676E-03   -0.24159E-03 12360   0.333E-01    0.261E-01
DAV:   8    -0.191780351813E+03    0.71582E-03   -0.11633E-03  9520   0.254E-01    0.410E-02
DAV:   9    -0.191780345518E+03    0.62945E-05   -0.77955E-05  5880   0.404E-02
  16 F= -.19178035E+03 E0= -.19167981E+03  d E =-.794498E-01
       N       E                     dE             d eps       ncg     rms          rms(c)
DAV:   1    -0.191833346070E+03   -0.52994E-01   -0.31109E+00  8160   0.376E+00    0.436E-01
DAV:   2    -0.191849749762E+03   -0.16404E-01   -0.10683E-01 12320   0.146E+00    0.113E+00
DAV:   3    -0.191838895348E+03    0.10854E-01   -0.35734E-02 11880   0.129E+00    0.431E-01
DAV:   4    -0.191838661488E+03    0.23386E-03   -0.86107E-03 11320   0.626E-01    0.426E-01
DAV:   5    -0.191836738645E+03    0.19228E-02   -0.40438E-03 11080   0.508E-01    0.164E-01
DAV:   6    -0.191836517975E+03    0.22067E-03   -0.14334E-03 11560   0.189E-01    0.847E-02
DAV:   7    -0.191836415071E+03    0.10290E-03   -0.50369E-04  9920   0.890E-02    0.458E-02
DAV:   8    -0.191836405244E+03    0.98269E-05   -0.11180E-04  7560   0.783E-02
  17 F= -.19183641E+03 E0= -.19173960E+03  d E =-.560597E-01
       N       E                     dE             d eps       ncg     rms          rms(c)
DAV:   1    -0.191952692346E+03   -0.11628E+00   -0.83112E+01  8160   0.196E+01    0.209E+00
DAV:   2    -0.192294728538E+03   -0.34204E+00   -0.27435E+00 11520   0.658E+00    0.502E+00
DAV:   3    -0.192139321163E+03    0.15541E+00   -0.89593E-01 12040   0.636E+00    0.215E+00
DAV:   4    -0.192104737530E+03    0.34584E-01   -0.14100E-01 12520   0.281E+00    0.164E+00
DAV:   5    -0.192073791500E+03    0.30946E-01   -0.65422E-02 11520   0.227E+00    0.870E-01
DAV:   6    -0.192067553843E+03    0.62377E-02   -0.37746E-02 12720   0.109E+00    0.486E-01
DAV:   7    -0.192065263876E+03    0.22900E-02   -0.15325E-02 12720   0.767E-01    0.479E-01
DAV:   8    -0.192063013018E+03    0.22509E-02   -0.54374E-03 12680   0.611E-01    0.177E-01
DAV:   9    -0.192062630658E+03    0.38236E-03   -0.11058E-03 11400   0.196E-01    0.776E-02
DAV:  10    -0.192062488266E+03    0.14239E-03   -0.49957E-04  9880   0.790E-02    0.438E-02
DAV:  11    -0.192062496805E+03   -0.85388E-05   -0.15649E-04  7080   0.459E-02
  18 F= -.19206250E+03 E0= -.19197748E+03  d E =-.226092E+00
       N       E                     dE             d eps       ncg     rms          rms(c)
DAV:   1    -0.192031274950E+03    0.31213E-01   -0.69757E+00  8160   0.556E+00    0.539E-01
DAV:   2    -0.192045636107E+03   -0.14361E-01   -0.13543E-01 12760   0.138E+00    0.999E-01
DAV:   3    -0.192038134292E+03    0.75018E-02   -0.33933E-02 12360   0.139E+00    0.635E-01
DAV:   4    -0.192034041023E+03    0.40933E-02   -0.10798E-02 12280   0.640E-01    0.241E-01
DAV:   5    -0.192033818589E+03    0.22243E-03   -0.43599E-03 12640   0.438E-01    0.269E-01
DAV:   6    -0.192033444558E+03    0.37403E-03   -0.30198E-03 11400   0.476E-01    0.207E-01
DAV:   7    -0.192032978844E+03    0.46571E-03   -0.10243E-03 10680   0.242E-01    0.933E-02
DAV:   8    -0.192032918223E+03    0.60621E-04   -0.30231E-04  8880   0.142E-01
  19 F= -.19203292E+03 E0= -.19194505E+03  d E =0.295786E-01
       N       E                     dE             d eps       ncg     rms          rms(c)
DAV:   1    -0.192058882740E+03   -0.25904E-01   -0.52608E+01  8160   0.155E+01    0.159E+00
DAV:   2    -0.192232619543E+03   -0.17374E+00   -0.16671E+00 11120   0.467E+00    0.305E+00
DAV:   3    -0.192182279029E+03    0.50341E-01   -0.39678E-01 12000   0.449E+00    0.180E+00
DAV:   4    -0.192145737339E+03    0.36542E-01   -0.71935E-02 12600   0.190E+00    0.843E-01
DAV:   5    -0.192141805057E+03    0.39323E-02   -0.32014E-02 12080   0.156E+00    0.813E-01
DAV:   6    -0.192136347719E+03    0.54573E-02   -0.23994E-02 12640   0.113E+00    0.399E-01
DAV:   7    -0.192134059480E+03    0.22882E-02   -0.79446E-03 12640   0.537E-01    0.284E-01
DAV:   8    -0.192133393075E+03    0.66641E-03   -0.26396E-03 12600   0.413E-01    0.150E-01
DAV:   9    -0.192133111839E+03    0.28124E-03   -0.66274E-04 10240   0.171E-01    0.588E-02
DAV:  10    -0.192133030522E+03    0.81318E-04   -0.31616E-04  9320   0.607E-02
  20 F= -.19213303E+03 E0= -.19204985E+03  d E =-.100112E+00
       N       E                     dE             d eps       ncg     rms          rms(c)
DAV:   1    -0.192127304813E+03    0.58070E-02   -0.40164E+00  8160   0.425E+00    0.431E-01
DAV:   2    -0.192136039385E+03   -0.87346E-02   -0.96427E-02 11080   0.111E+00    0.694E-01
DAV:   3    -0.192133626440E+03    0.24129E-02   -0.21403E-02 12640   0.111E+00    0.550E-01
DAV:   4    -0.192130426634E+03    0.31998E-02   -0.70128E-03 12400   0.560E-01    0.169E-01
DAV:   5    -0.192130317298E+03    0.10934E-03   -0.21131E-03 11840   0.263E-01    0.189E-01
DAV:   6    -0.192130347670E+03   -0.30372E-04   -0.17775E-03 11680   0.363E-01    0.196E-01
DAV:   7    -0.192129935990E+03    0.41168E-03   -0.74605E-04  9360   0.226E-01    0.639E-02
DAV:   8    -0.192129898022E+03    0.37968E-04   -0.12412E-04  6600   0.974E-02
  21 F= -.19212990E+03 E0= -.19204501E+03  d E =0.313250E-02
       N       E                     dE             d eps       ncg     rms          rms(c)
DAV:   1    -0.192141490218E+03   -0.11554E-01   -0.10117E+00  8160   0.215E+00    0.236E-01
DAV:   2    -0.192144152512E+03   -0.26623E-02   -0.35476E-02 11720   0.568E-01    0.271E-01
DAV:   3    -0.192144610607E+03   -0.45809E-03   -0.48836E-03 12400   0.568E-01    0.358E-01
DAV:   4    -0.192143223932E+03    0.13867E-02   -0.20991E-03 10160   0.365E-01    0.102E-01
DAV:   5    -0.192143302237E+03   -0.78305E-04   -0.83650E-04  9920   0.220E-01
  22 F= -.19214330E+03 E0= -.19205866E+03  d E =-.134042E-01
       N       E                     dE             d eps       ncg     rms          rms(c)
DAV:   1    -0.192146710195E+03   -0.34863E-02   -0.86022E-02  8160   0.655E-01    0.117E-01
DAV:   2    -0.192147942681E+03   -0.12325E-02   -0.50137E-03 12760   0.403E-01    0.323E-01
DAV:   3    -0.192146772426E+03    0.11703E-02   -0.22016E-03 11000   0.388E-01    0.895E-02
DAV:   4    -0.192146731855E+03    0.40571E-04   -0.35635E-04  8520   0.113E-01
  23 F= -.19214673E+03 E0= -.19206245E+03  d E =-.342962E-02
       N       E                     dE             d eps       ncg     rms          rms(c)
DAV:   1    -0.192156067589E+03   -0.92952E-02   -0.69065E-01  8160   0.178E+00    0.218E-01
DAV:   2    -0.192158960098E+03   -0.28925E-02   -0.26704E-02 11400   0.644E-01    0.367E-01
DAV:   3    -0.192157815035E+03    0.11451E-02   -0.45752E-03 12000   0.556E-01    0.215E-01
DAV:   4    -0.192157615891E+03    0.19914E-03   -0.15264E-03 10080   0.297E-01    0.183E-01
DAV:   5    -0.192157297003E+03    0.31889E-03   -0.79480E-04  9400   0.246E-01    0.823E-02
DAV:   6    -0.192157318363E+03   -0.21360E-04   -0.36554E-04  8880   0.118E-01
  24 F= -.19215732E+03 E0= -.19207311E+03  d E =-.105865E-01
       N       E                     dE             d eps       ncg     rms          rms(c)
DAV:   1    -0.192161794785E+03   -0.44978E-02   -0.14844E-01  8160   0.847E-01    0.121E-01
DAV:   2    -0.192162067872E+03   -0.27309E-03   -0.63457E-03 10280   0.238E-01    0.105E-01
DAV:   3    -0.192162227095E+03   -0.15922E-03   -0.10436E-03 11360   0.253E-01    0.177E-01
DAV:   4    -0.192161909229E+03    0.31787E-03   -0.52937E-04  8480   0.206E-01    0.594E-02
DAV:   5    -0.192161896011E+03    0.13217E-04   -0.15621E-04  5680   0.953E-02
  25 F= -.19216190E+03 E0= -.19207772E+03  d E =-.457765E-02
       N       E                     dE             d eps       ncg     rms          rms(c)
DAV:   1    -0.192169568557E+03   -0.76593E-02   -0.53844E-01  8160   0.157E+00    0.180E-01
DAV:   2    -0.192171003152E+03   -0.14346E-02   -0.19460E-02 10480   0.403E-01    0.174E-01
DAV:   3    -0.192171180072E+03   -0.17692E-03   -0.19756E-03 12840   0.395E-01    0.215E-01
DAV:   4    -0.192170577214E+03    0.60286E-03   -0.70792E-04 10120   0.246E-01    0.563E-02
DAV:   5    -0.192170731023E+03   -0.15381E-03   -0.39450E-04  9040   0.154E-01    0.124E-01
DAV:   6    -0.192170589575E+03    0.14145E-03   -0.34910E-04  8240   0.163E-01    0.449E-02
DAV:   7    -0.192170563301E+03    0.26274E-04   -0.61823E-05  5640   0.491E-02
  26 F= -.19217056E+03 E0= -.19208659E+03  d E =-.866729E-02
       N       E                     dE             d eps       ncg     rms          rms(c)
DAV:   1    -0.192178964861E+03   -0.83753E-02   -0.79891E-01  8160   0.192E+00    0.225E-01
DAV:   2    -0.192180912074E+03   -0.19472E-02   -0.29989E-02 11160   0.447E-01    0.173E-01
DAV:   3    -0.192181733375E+03   -0.82130E-03   -0.33080E-03 12120   0.471E-01    0.334E-01
DAV:   4    -0.192180452324E+03    0.12811E-02   -0.16375E-03 10040   0.358E-01    0.903E-02
DAV:   5    -0.192180607821E+03   -0.15550E-03   -0.59773E-04  9240   0.210E-01    0.145E-01
DAV:   6    -0.192180417810E+03    0.19001E-03   -0.46803E-04  8840   0.189E-01    0.592E-02
DAV:   7    -0.192180389821E+03    0.27989E-04   -0.14655E-04  6840   0.886E-02
  27 F= -.19218039E+03 E0= -.19209659E+03  d E =-.982652E-02
       N       E                     dE             d eps       ncg     rms          rms(c)
DAV:   1    -0.192185183022E+03   -0.47652E-02   -0.12651E+01  8160   0.763E+00    0.852E-01
DAV:   2    -0.192220119968E+03   -0.34937E-01   -0.45864E-01 11720   0.195E+00    0.832E-01
DAV:   3    -0.192227481335E+03   -0.73614E-02   -0.52230E-02 11520   0.192E+00    0.123E+00
DAV:   4    -0.192211344081E+03    0.16137E-01   -0.25822E-02 11120   0.135E+00    0.438E-01
DAV:   5    -0.192211736203E+03   -0.39212E-03   -0.89119E-03 10800   0.852E-01    0.485E-01
DAV:   6    -0.192209840008E+03    0.18962E-02   -0.61359E-03 11920   0.596E-01    0.240E-01
DAV:   7    -0.192209338426E+03    0.50158E-03   -0.24896E-03 12440   0.379E-01    0.188E-01
DAV:   8    -0.192208940253E+03    0.39817E-03   -0.83166E-04  9320   0.212E-01    0.413E-02
DAV:   9    -0.192208914815E+03    0.25439E-04   -0.13654E-04  6360   0.440E-02
  28 F= -.19220891E+03 E0= -.19212540E+03  d E =-.285250E-01
       N       E                     dE             d eps       ncg     rms          rms(c)
DAV:   1    -0.192209935937E+03   -0.99568E-03   -0.80514E-02  8160   0.613E-01    0.997E-02
DAV:   2    -0.192211034120E+03   -0.10982E-02   -0.54212E-03 11840   0.431E-01    0.296E-01
DAV:   3    -0.192210063284E+03    0.97084E-03   -0.16935E-03 10000   0.341E-01    0.670E-02
DAV:   4    -0.192210059788E+03    0.34963E-05   -0.22096E-04  8320   0.115E-01
  29 F= -.19221006E+03 E0= -.19212648E+03  d E =-.114497E-02
       N       E                     dE             d eps       ncg     rms          rms(c)
DAV:   1    -0.192211676447E+03   -0.16132E-02   -0.10535E-01  8160   0.697E-01    0.951E-02
DAV:   2    -0.192212376799E+03   -0.70035E-03   -0.48715E-03 12080   0.322E-01    0.193E-01
DAV:   3    -0.192211924442E+03    0.45236E-03   -0.89165E-04 11200   0.269E-01    0.671E-02
DAV:   4    -0.192211911616E+03    0.12826E-04   -0.15410E-04  7000   0.941E-02
  30 F= -.19221191E+03 E0= -.19212822E+03  d E =-.185183E-02
       N       E                     dE             d eps       ncg     rms          rms(c)
DAV:   1    -0.192213362695E+03   -0.14383E-02   -0.92616E-02  8160   0.657E-01    0.949E-02
DAV:   2    -0.192214046781E+03   -0.68409E-03   -0.42290E-03 11600   0.295E-01    0.222E-01
DAV:   3    -0.192213528329E+03    0.51845E-03   -0.11482E-03 10280   0.272E-01    0.756E-02
DAV:   4    -0.192213523533E+03    0.47957E-05   -0.20513E-04  7000   0.103E-01
  31 F= -.19221352E+03 E0= -.19212975E+03  d E =-.161192E-02
       N       E                     dE             d eps       ncg     rms          rms(c)
DAV:   1    -0.192214974901E+03   -0.14466E-02   -0.11206E-01  8160   0.719E-01    0.988E-02
DAV:   2    -0.192215405238E+03   -0.43034E-03   -0.43806E-03 11480   0.242E-01    0.161E-01
DAV:   3    -0.192215217647E+03    0.18759E-03   -0.94391E-04 10280   0.247E-01    0.107E-01
DAV:   4    -0.192215141544E+03    0.76103E-04   -0.30285E-04  8440   0.131E-01
  32 F= -.19221514E+03 E0= -.19213153E+03  d E =-.161801E-02
       N       E                     dE             d eps       ncg     rms          rms(c)
DAV:   1    -0.192215553259E+03   -0.33561E-03   -0.31245E+00  8160   0.378E+00    0.460E-01
DAV:   2    -0.192229258832E+03   -0.13706E-01   -0.12507E-01 11680   0.136E+00    0.773E-01
DAV:   3    -0.192223521022E+03    0.57378E-02   -0.20735E-02 11880   0.119E+00    0.421E-01
DAV:   4    -0.192222320617E+03    0.12004E-02   -0.59109E-03 11680   0.574E-01    0.322E-01
DAV:   5    -0.192221424985E+03    0.89563E-03   -0.31197E-03 12280   0.483E-01    0.191E-01
DAV:   6    -0.192221334294E+03    0.90691E-04   -0.16817E-03 11920   0.267E-01    0.131E-01
DAV:   7    -0.192221184606E+03    0.14969E-03   -0.75409E-04  9960   0.205E-01    0.119E-01
DAV:   8    -0.192221034974E+03    0.14963E-03   -0.26263E-04  9360   0.132E-01    0.266E-02
DAV:   9    -0.192221032760E+03    0.22143E-05   -0.41153E-05  6080   0.287E-02
  33 F= -.19222103E+03 E0= -.19213725E+03  d E =-.589122E-02
       N       E                     dE             d eps       ncg     rms          rms(c)
DAV:   1    -0.192221401783E+03   -0.36681E-03   -0.59397E-02  8160   0.513E-01    0.641E-02
DAV:   2    -0.192221741362E+03   -0.33958E-03   -0.33137E-03 10120   0.214E-01    0.115E-01
DAV:   3    -0.192221639084E+03    0.10228E-03   -0.46531E-04  9160   0.171E-01    0.698E-02
DAV:   4    -0.192221592404E+03    0.46680E-04   -0.79336E-05  5880   0.801E-02
  34 F= -.19222159E+03 E0= -.19213781E+03  d E =-.559644E-03
