       N       E                     dE             d eps       ncg     rms          rms(c)
DAV:   1     0.112433543743E+04    0.11243E+04   -0.35857E+04  8160   0.577E+02
DAV:   2    -0.439887184104E+01   -0.11287E+04   -0.10887E+04 11240   0.173E+02
DAV:   3    -0.199723839582E+03   -0.19532E+03   -0.18773E+03 10880   0.818E+01
DAV:   4    -0.208907391809E+03   -0.91836E+01   -0.88830E+01 12040   0.262E+01
DAV:   5    -0.209247691881E+03   -0.34030E+00   -0.33933E+00 11520   0.376E+00    0.274E+01
DAV:   6    -0.236667192620E+03   -0.27420E+02   -0.10817E+02 12920   0.604E+01    0.592E+01
DAV:   7    -0.196772565680E+03    0.39895E+02   -0.17599E+02 12960   0.152E+02    0.205E+01
DAV:   8    -0.190259744338E+03    0.65128E+01   -0.21710E+01 11720   0.135E+01    0.140E+01
DAV:   9    -0.188309111582E+03    0.19506E+01   -0.36027E+00 11800   0.637E+00    0.939E+00
DAV:  10    -0.187167276972E+03    0.11418E+01   -0.17970E+00 13280   0.745E+00    0.376E+00
DAV:  11    -0.187002396462E+03    0.16488E+00   -0.72506E-01 12680   0.271E+00    0.226E+00
DAV:  12    -0.187088635532E+03   -0.86239E-01   -0.53325E-01 13320   0.377E+00    0.449E+00
DAV:  13    -0.186939237412E+03    0.14940E+00   -0.50026E-01 13160   0.380E+00    0.199E+00
DAV:  14    -0.186905450617E+03    0.33787E-01   -0.10701E-01 13440   0.173E+00    0.116E+00
DAV:  15    -0.186898442907E+03    0.70077E-02   -0.54242E-02 13080   0.136E+00    0.998E-01
DAV:  16    -0.186890850548E+03    0.75924E-02   -0.19650E-02 13120   0.732E-01    0.480E-01
DAV:  17    -0.186888657238E+03    0.21933E-02   -0.67147E-03 13120   0.284E-01    0.229E-01
DAV:  18    -0.186887644991E+03    0.10122E-02   -0.36737E-03 13000   0.270E-01    0.200E-01
DAV:  19    -0.186887331731E+03    0.31326E-03   -0.10233E-03 11720   0.157E-01    0.477E-02
DAV:  20    -0.186888092434E+03   -0.76070E-03   -0.70696E-04  9080   0.593E-02    0.536E-02
DAV:  21    -0.186888658146E+03   -0.56571E-03   -0.23925E-04  8360   0.461E-02    0.290E-02
DAV:  22    -0.186889792279E+03   -0.11341E-02   -0.17575E-04  7520   0.406E-02    0.354E-02
DAV:  23    -0.186891042451E+03   -0.12502E-02   -0.14001E-04  7440   0.442E-02    0.144E-02
DAV:  24    -0.186891611912E+03   -0.56946E-03   -0.25882E-05  6840   0.143E-02    0.604E-03
DAV:  25    -0.186892000052E+03   -0.38814E-03   -0.16284E-05  5440   0.956E-03    0.444E-03
DAV:  26    -0.186892242507E+03   -0.24246E-03   -0.90453E-06  6800   0.721E-03    0.153E-03
DAV:  27    -0.186892341986E+03   -0.99479E-04   -0.34697E-06  7280   0.414E-03
   1 F= -.18689234E+03 E0= -.18672149E+03  d E =-.186892E+03
       N       E                     dE             d eps       ncg     rms          rms(c)
DAV:   1    -0.187532387483E+03   -0.64014E+00   -0.27203E+02  8160   0.350E+01    0.466E+00
DAV:   2    -0.189535219447E+03   -0.20028E+01   -0.20341E+01 12320   0.157E+01    0.961E+00
DAV:   3    -0.189353655703E+03    0.18156E+00   -0.41878E+00 12400   0.123E+01    0.641E+00
DAV:   4    -0.188788439891E+03    0.56522E+00   -0.58127E-01 12600   0.442E+00    0.173E+00
DAV:   5    -0.188857956007E+03   -0.69516E-01   -0.40877E-01 11360   0.295E+00    0.428E+00
DAV:   6    -0.188772137125E+03    0.85819E-01   -0.60922E-01 12920   0.410E+00    0.255E+00
DAV:   7    -0.188728230831E+03    0.43906E-01   -0.17465E-01 12400   0.195E+00    0.132E+00
DAV:   8    -0.188711677073E+03    0.16554E-01   -0.69365E-02 12960   0.133E+00    0.121E+00
DAV:   9    -0.188701665371E+03    0.10012E-01   -0.25149E-02 11960   0.882E-01    0.372E-01
DAV:  10    -0.188700567190E+03    0.10982E-02   -0.38918E-03 11840   0.242E-01    0.183E-01
DAV:  11    -0.188700128967E+03    0.43822E-03   -0.23454E-03 12200   0.157E-01    0.101E-01
DAV:  12    -0.188700229242E+03   -0.10028E-03   -0.90143E-04 11560   0.939E-02    0.824E-02
DAV:  13    -0.188700176906E+03    0.52336E-04   -0.22368E-04  7720   0.540E-02
   2 F= -.18870018E+03 E0= -.18856118E+03  d E =-.180783E+01
       N       E                     dE             d eps       ncg     rms          rms(c)
DAV:   1    -0.190622929025E+03   -0.19227E+01   -0.31339E+01  8960   0.142E+01    0.443E+00
DAV:   2    -0.190571818029E+03    0.51111E-01   -0.27610E+00 11280   0.946E+00    0.720E+00
DAV:   3    -0.190106623301E+03    0.46519E+00   -0.13332E+00 12360   0.859E+00    0.420E+00
DAV:   4    -0.189898476752E+03    0.20815E+00   -0.72270E-01 12800   0.424E+00    0.253E+00
DAV:   5    -0.189876690743E+03    0.21786E-01   -0.38277E-01 12280   0.312E+00    0.282E+00
DAV:   6    -0.189800530789E+03    0.76160E-01   -0.14984E-01 12520   0.248E+00    0.744E-01
DAV:   7    -0.189793637361E+03    0.68934E-02   -0.14752E-02 11640   0.544E-01    0.206E-01
DAV:   8    -0.189793740726E+03   -0.10336E-03   -0.31085E-03 11200   0.186E-01    0.174E-01
DAV:   9    -0.189793927526E+03   -0.18680E-03   -0.14538E-03 10680   0.230E-01    0.215E-01
DAV:  10    -0.189794055118E+03   -0.12759E-03   -0.15005E-03  9960   0.249E-01    0.184E-01
DAV:  11    -0.189793686630E+03    0.36849E-03   -0.61012E-04  9400   0.129E-01    0.190E-02
DAV:  12    -0.189793715257E+03   -0.28627E-04   -0.85037E-05  6600   0.311E-02
   3 F= -.18979372E+03 E0= -.18967533E+03  d E =-.109354E+01
       N       E                     dE             d eps       ncg     rms          rms(c)
DAV:   1    -0.191366973282E+03   -0.15733E+01   -0.77750E+01  8160   0.201E+01    0.459E+00
DAV:   2    -0.191204161589E+03    0.16281E+00   -0.53933E+00 13200   0.783E+00    0.473E+00
DAV:   3    -0.191309668888E+03   -0.10551E+00   -0.15981E+00 12200   0.909E+00    0.648E+00
DAV:   4    -0.190936146083E+03    0.37352E+00   -0.13445E+00 12480   0.746E+00    0.296E+00
DAV:   5    -0.190886697110E+03    0.49449E-01   -0.43254E-01 12480   0.388E+00    0.284E+00
DAV:   6    -0.190805176913E+03    0.81520E-01   -0.20823E-01 12280   0.315E+00    0.127E+00
DAV:   7    -0.190790115821E+03    0.15061E-01   -0.47842E-02 12720   0.116E+00    0.407E-01
DAV:   8    -0.190787526530E+03    0.25893E-02   -0.65913E-03 10160   0.348E-01    0.199E-01
DAV:   9    -0.190787914632E+03   -0.38810E-03   -0.22639E-03 11680   0.314E-01    0.266E-01
DAV:  10    -0.190787647599E+03    0.26703E-03   -0.17761E-03 11000   0.238E-01    0.917E-02
DAV:  11    -0.190787542372E+03    0.10523E-03   -0.45390E-04  9160   0.823E-02    0.447E-02
DAV:  12    -0.190787539756E+03    0.26160E-05   -0.99069E-05  7280   0.385E-02
   4 F= -.19078754E+03 E0= -.19068266E+03  d E =-.993824E+00
       N       E                     dE             d eps       ncg     rms          rms(c)
DAV:   1    -0.192100745185E+03   -0.13132E+01   -0.16173E+02  8160   0.283E+01    0.559E+00
DAV:   2    -0.191864996810E+03    0.23575E+00   -0.92755E+00 11480   0.808E+00    0.389E+00
DAV:   3    -0.192062359568E+03   -0.19736E+00   -0.20644E+00 11200   0.871E+00    0.803E+00
DAV:   4    -0.191749905174E+03    0.31245E+00   -0.28821E+00 11440   0.108E+01    0.447E+00
DAV:   5    -0.191573048815E+03    0.17686E+00   -0.74864E-01 12360   0.550E+00    0.321E+00
DAV:   6    -0.191447383221E+03    0.12567E+00   -0.27453E-01 12280   0.376E+00    0.126E+00
DAV:   7    -0.191433145192E+03    0.14238E-01   -0.62151E-02 12280   0.132E+00    0.512E-01
DAV:   8    -0.191429016293E+03    0.41289E-02   -0.10598E-02 10720   0.491E-01    0.249E-01
DAV:   9    -0.191430230573E+03   -0.12143E-02   -0.51036E-03 12600   0.488E-01    0.407E-01
DAV:  10    -0.191428877119E+03    0.13535E-02   -0.35700E-03 11320   0.364E-01    0.623E-02
DAV:  11    -0.191428944028E+03   -0.66909E-04   -0.35634E-04  9040   0.709E-02
   5 F= -.19142894E+03 E0= -.19132369E+03  d E =-.641404E+00
       N       E                     dE             d eps       ncg     rms          rms(c)
DAV:   1    -0.191478049194E+03   -0.49172E-01   -0.39873E+00  8160   0.422E+00    0.591E-01
DAV:   2    -0.191530963765E+03   -0.52915E-01   -0.24653E-01 13040   0.270E+00    0.200E+00
DAV:   3    -0.191488787301E+03    0.42176E-01   -0.88038E-02 12440   0.209E+00    0.370E-01
DAV:   4    -0.191490382069E+03   -0.15948E-02   -0.11955E-02 11360   0.687E-01    0.585E-01
DAV:   5    -0.191487000597E+03    0.33815E-02   -0.74379E-03 10200   0.568E-01    0.179E-01
DAV:   6    -0.191486970355E+03    0.30242E-04   -0.17799E-03 10480   0.174E-01    0.126E-01
DAV:   7    -0.191486661715E+03    0.30864E-03   -0.91214E-04 10160   0.123E-01    0.650E-02
DAV:   8    -0.191486672519E+03   -0.10804E-04   -0.27332E-04  7640   0.108E-01
   6 F= -.19148667E+03 E0= -.19137910E+03  d E =-.577285E-01
       N       E                     dE             d eps       ncg     rms          rms(c)
DAV:   1    -0.191540036913E+03   -0.53375E-01   -0.46896E+00  8160   0.458E+00    0.572E-01
DAV:   2    -0.191574573410E+03   -0.34536E-01   -0.17486E-01 13600   0.202E+00    0.159E+00
DAV:   3    -0.191546780904E+03    0.27793E-01   -0.67204E-02 12440   0.185E+00    0.426E-01
DAV:   4    -0.191546377311E+03    0.40359E-03   -0.85018E-03 11160   0.528E-01    0.432E-01
DAV:   5    -0.191545118286E+03    0.12590E-02   -0.68842E-03 10640   0.541E-01    0.290E-01
DAV:   6    -0.191544473951E+03    0.64434E-03   -0.25213E-03 10000   0.273E-01    0.116E-01
DAV:   7    -0.191544308712E+03    0.16524E-03   -0.78205E-04 10520   0.118E-01    0.656E-02
DAV:   8    -0.191544317240E+03   -0.85280E-05   -0.30769E-04  8120   0.116E-01
   7 F= -.19154432E+03 E0= -.19143491E+03  d E =-.576447E-01
       N       E                     dE             d eps       ncg     rms          rms(c)
DAV:   1    -0.191546707796E+03   -0.23991E-02   -0.22024E-02  8160   0.336E-01    0.639E-02
DAV:   2    -0.191546813720E+03   -0.10592E-03   -0.13582E-03 11280   0.139E-01    0.107E-01
DAV:   3    -0.191546733841E+03    0.79880E-04   -0.45223E-04  9120   0.153E-01
   8 F= -.19154673E+03 E0= -.19143737E+03  d E =-.241660E-02
       N       E                     dE             d eps       ncg     rms          rms(c)
DAV:   1    -0.191527396688E+03    0.19417E-01   -0.12215E+00  8160   0.239E+00    0.460E-01
DAV:   2    -0.191552963748E+03   -0.25567E-01   -0.95367E-02 12760   0.192E+00    0.155E+00
DAV:   3    -0.191526746863E+03    0.26217E-01   -0.42489E-02 12120   0.152E+00    0.304E-01
DAV:   4    -0.191527810201E+03   -0.10633E-02   -0.81704E-03  9920   0.612E-01    0.475E-01
DAV:   5    -0.191525675604E+03    0.21346E-02   -0.61167E-03 10120   0.518E-01    0.203E-01
DAV:   6    -0.191525536696E+03    0.13891E-03   -0.24997E-03 11240   0.290E-01    0.206E-01
DAV:   7    -0.191525242533E+03    0.29416E-03   -0.16062E-03 10120   0.252E-01    0.110E-01
DAV:   8    -0.191525119207E+03    0.12333E-03   -0.33280E-04  7720   0.102E-01    0.248E-02
DAV:   9    -0.191525118091E+03    0.11163E-05   -0.38812E-05  6800   0.259E-02
   9 F= -.19152512E+03 E0= -.19141633E+03  d E =0.216157E-01
       N       E                     dE             d eps       ncg     rms          rms(c)
DAV:   1    -0.191573443701E+03   -0.48324E-01   -0.36760E+00  8160   0.408E+00    0.554E-01
DAV:   2    -0.191611113201E+03   -0.37670E-01   -0.16756E-01 13600   0.230E+00    0.175E+00
DAV:   3    -0.191578295108E+03    0.32818E-01   -0.69923E-02 12280   0.188E+00    0.331E-01
DAV:   4    -0.191579690611E+03   -0.13955E-02   -0.95734E-03 11480   0.629E-01    0.546E-01
DAV:   5    -0.191576785799E+03    0.29048E-02   -0.64257E-03 10800   0.564E-01    0.176E-01
DAV:   6    -0.191576731346E+03    0.54453E-04   -0.17763E-03 11280   0.201E-01    0.140E-01
DAV:   7    -0.191576841613E+03   -0.11027E-03   -0.18124E-03 10480   0.260E-01    0.216E-01
DAV:   8    -0.191576385986E+03    0.45563E-03   -0.92097E-04  8400   0.193E-01    0.316E-02
DAV:   9    -0.191576396551E+03   -0.10565E-04   -0.61046E-05  5680   0.330E-02
  10 F= -.19157640E+03 E0= -.19146664E+03  d E =-.512785E-01
       N       E                     dE             d eps       ncg     rms          rms(c)
DAV:   1    -0.191622133311E+03   -0.45747E-01   -0.27540E+00  8160   0.353E+00    0.478E-01
DAV:   2    -0.191647702448E+03   -0.25569E-01   -0.11438E-01 13600   0.190E+00    0.148E+00
DAV:   3    -0.191624833208E+03    0.22869E-01   -0.46095E-02 12160   0.158E+00    0.310E-01
DAV:   4    -0.191626176753E+03   -0.13435E-02   -0.85191E-03 11280   0.597E-01    0.516E-01
DAV:   5    -0.191623525287E+03    0.26515E-02   -0.59592E-03 10840   0.530E-01    0.161E-01
DAV:   6    -0.191623371850E+03    0.15344E-03   -0.16031E-03 10080   0.183E-01    0.101E-01
DAV:   7    -0.191623277111E+03    0.94740E-04   -0.70172E-04 10720   0.137E-01
  11 F= -.19162328E+03 E0= -.19151399E+03  d E =-.468806E-01
       N       E                     dE             d eps       ncg     rms          rms(c)
DAV:   1    -0.191639372850E+03   -0.16001E-01   -0.32201E-01  8160   0.121E+00    0.147E-01
DAV:   2    -0.191640860640E+03   -0.14878E-02   -0.10262E-02 13520   0.406E-01    0.322E-01
DAV:   3    -0.191639846635E+03    0.10140E-02   -0.35620E-03 11360   0.421E-01    0.157E-01
DAV:   4    -0.191639827869E+03    0.18766E-04   -0.96621E-04  8680   0.192E-01
  12 F= -.19163983E+03 E0= -.19153138E+03  d E =-.165508E-01
       N       E                     dE             d eps       ncg     rms          rms(c)
DAV:   1    -0.191552847865E+03    0.86999E-01   -0.84894E+00  8160   0.619E+00    0.703E-01
DAV:   2    -0.191596507948E+03   -0.43660E-01   -0.26640E-01 13600   0.216E+00    0.167E+00
DAV:   3    -0.191564822854E+03    0.31685E-01   -0.76797E-02 12080   0.202E+00    0.605E-01
DAV:   4    -0.191564195930E+03    0.62692E-03   -0.18237E-02 12080   0.772E-01    0.629E-01
DAV:   5    -0.191561187737E+03    0.30082E-02   -0.12990E-02 11080   0.722E-01    0.332E-01
DAV:   6    -0.191560231136E+03    0.95660E-03   -0.37774E-03 11480   0.330E-01    0.144E-01
DAV:   7    -0.191560286451E+03   -0.55314E-04   -0.19083E-03 12040   0.239E-01    0.198E-01
DAV:   8    -0.191559927526E+03    0.35892E-03   -0.11298E-03  8880   0.227E-01    0.794E-02
DAV:   9    -0.191559868456E+03    0.59070E-04   -0.16446E-04  6040   0.755E-02
  13 F= -.19155987E+03 E0= -.19144935E+03  d E =0.799594E-01
       N       E                     dE             d eps       ncg     rms          rms(c)
DAV:   1    -0.191451969813E+03    0.10796E+00   -0.16476E+01  8160   0.862E+00    0.960E-01
DAV:   2    -0.191521549453E+03   -0.69580E-01   -0.49235E-01 13600   0.266E+00    0.199E+00
DAV:   3    -0.191478129835E+03    0.43420E-01   -0.12967E-01 12000   0.257E+00    0.942E-01
DAV:   4    -0.191473906805E+03    0.42230E-02   -0.34063E-02 12240   0.108E+00    0.786E-01
DAV:   5    -0.191470092492E+03    0.38143E-02   -0.24166E-02 11280   0.986E-01    0.547E-01
DAV:   6    -0.191467451147E+03    0.26413E-02   -0.87885E-03 11920   0.555E-01    0.223E-01
DAV:   7    -0.191467365630E+03    0.85516E-04   -0.36391E-03 11960   0.313E-01    0.244E-01
DAV:   8    -0.191466867062E+03    0.49857E-03   -0.19908E-03 10160   0.298E-01    0.131E-01
DAV:   9    -0.191466691579E+03    0.17548E-03   -0.41522E-04  8800   0.120E-01    0.342E-02
DAV:  10    -0.191466678186E+03    0.13392E-04   -0.95065E-05  7520   0.355E-02
  14 F= -.19146668E+03 E0= -.19135767E+03  d E =0.931903E-01
       N       E                     dE             d eps       ncg     rms          rms(c)
DAV:   1    -0.191468124464E+03   -0.14329E-02   -0.19390E+00  8160   0.294E+00    0.339E-01
DAV:   2    -0.191475959555E+03   -0.78351E-02   -0.62276E-02 12520   0.981E-01    0.761E-01
DAV:   3    -0.191471732508E+03    0.42270E-02   -0.21967E-02 12200   0.938E-01    0.439E-01
DAV:   4    -0.191470076411E+03    0.16561E-02   -0.52552E-03 10880   0.399E-01    0.170E-01
DAV:   5    -0.191470016382E+03    0.60029E-04   -0.21407E-03 11520   0.288E-01    0.202E-01
DAV:   6    -0.191469709687E+03    0.30670E-03   -0.14833E-03  9960   0.274E-01    0.104E-01
DAV:   7    -0.191469600002E+03    0.10968E-03   -0.33858E-04  8120   0.107E-01    0.392E-02
DAV:   8    -0.191469608151E+03   -0.81493E-05   -0.12813E-04  6960   0.760E-02
  15 F= -.19146961E+03 E0= -.19135991E+03  d E =-.292996E-02
       N       E                     dE             d eps       ncg     rms          rms(c)
DAV:   1    -0.191446716838E+03    0.22883E-01   -0.90020E+00  8160   0.630E+00    0.664E-01
DAV:   2    -0.191478268477E+03   -0.31552E-01   -0.22565E-01 13400   0.180E+00    0.152E+00
DAV:   3    -0.191461147517E+03    0.17121E-01   -0.78983E-02 12400   0.186E+00    0.838E-01
DAV:   4    -0.191456092934E+03    0.50546E-02   -0.19028E-02 11920   0.781E-01    0.467E-01
DAV:   5    -0.191454652405E+03    0.14405E-02   -0.93917E-03 11560   0.677E-01    0.378E-01
DAV:   6    -0.191453685948E+03    0.96646E-03   -0.55950E-03 11680   0.491E-01    0.252E-01
DAV:   7    -0.191454294398E+03   -0.60845E-03   -0.48626E-03 10960   0.452E-01    0.359E-01
DAV:   8    -0.191453016833E+03    0.12776E-02   -0.24358E-03  9840   0.329E-01    0.565E-02
DAV:   9    -0.191452994596E+03    0.22238E-04   -0.13115E-04  5680   0.505E-02
  16 F= -.19145299E+03 E0= -.19134422E+03  d E =0.166136E-01
       N       E                     dE             d eps       ncg     rms          rms(c)
DAV:   1    -0.191480002735E+03   -0.26986E-01   -0.27495E+00  8160   0.354E+00    0.417E-01
DAV:   2    -0.191493226415E+03   -0.13224E-01   -0.91482E-02 13240   0.123E+00    0.956E-01
DAV:   3    -0.191484781992E+03    0.84444E-02   -0.32534E-02 12040   0.122E+00    0.456E-01
DAV:   4    -0.191484352601E+03    0.42939E-03   -0.85335E-03 11120   0.567E-01    0.430E-01
DAV:   5    -0.191482565490E+03    0.17871E-02   -0.46799E-03 10520   0.461E-01    0.182E-01
DAV:   6    -0.191482289713E+03    0.27578E-03   -0.14158E-03 10160   0.185E-01    0.103E-01
DAV:   7    -0.191482529941E+03   -0.24023E-03   -0.11995E-03 10840   0.218E-01    0.200E-01
DAV:   8    -0.191482139717E+03    0.39022E-03   -0.66942E-04  8560   0.178E-01    0.268E-02
DAV:   9    -0.191482151679E+03   -0.11962E-04   -0.41034E-05  5840   0.294E-02
  17 F= -.19148215E+03 E0= -.19137132E+03  d E =-.291571E-01
       N       E                     dE             d eps       ncg     rms          rms(c)
DAV:   1    -0.191495314473E+03   -0.13175E-01   -0.61828E-01  8160   0.168E+00    0.195E-01
DAV:   2    -0.191498643503E+03   -0.33290E-02   -0.21846E-02 13240   0.642E-01    0.514E-01
DAV:   3    -0.191496371998E+03    0.22715E-02   -0.77869E-03 11560   0.567E-01    0.206E-01
DAV:   4    -0.191496316425E+03    0.55572E-04   -0.17708E-03  9800   0.268E-01    0.194E-01
DAV:   5    -0.191495956950E+03    0.35948E-03   -0.10136E-03 10000   0.226E-01    0.897E-02
DAV:   6    -0.191495897571E+03    0.59379E-04   -0.35302E-04  7280   0.979E-02
  18 F= -.19149590E+03 E0= -.19138440E+03  d E =-.137459E-01
       N       E                     dE             d eps       ncg     rms          rms(c)
DAV:   1    -0.191474829481E+03    0.21127E-01   -0.10905E+00  8160   0.223E+00    0.252E-01
DAV:   2    -0.191480304815E+03   -0.54753E-02   -0.36573E-02 12920   0.780E-01    0.639E-01
DAV:   3    -0.191476712998E+03    0.35918E-02   -0.11526E-02 11680   0.726E-01    0.264E-01
DAV:   4    -0.191476287412E+03    0.42559E-03   -0.22707E-03 10960   0.285E-01    0.175E-01
DAV:   5    -0.191476033696E+03    0.25372E-03   -0.11596E-03 10280   0.246E-01    0.129E-01
DAV:   6    -0.191475890755E+03    0.14294E-03   -0.63727E-04  8520   0.160E-01    0.645E-02
DAV:   7    -0.191475880665E+03    0.10090E-04   -0.29167E-04  7520   0.937E-02
  19 F= -.19147588E+03 E0= -.19136514E+03  d E =0.200169E-01
       N       E                     dE             d eps       ncg     rms          rms(c)
DAV:   1    -0.191449602862E+03    0.26288E-01   -0.38305E+00  8160   0.417E+00    0.436E-01
DAV:   2    -0.191461243119E+03   -0.11640E-01   -0.10602E-01 13480   0.115E+00    0.854E-01
DAV:   3    -0.191457213298E+03    0.40298E-02   -0.30206E-02 12560   0.113E+00    0.613E-01
DAV:   4    -0.191454147663E+03    0.30656E-02   -0.87528E-03 11800   0.535E-01    0.223E-01
DAV:   5    -0.191453522734E+03    0.62493E-03   -0.26813E-03 10800   0.285E-01    0.185E-01
DAV:   6    -0.191453974057E+03   -0.45132E-03   -0.28973E-03 11760   0.371E-01    0.264E-01
DAV:   7    -0.191453331087E+03    0.64297E-03   -0.17031E-03  9960   0.269E-01    0.124E-01
DAV:   8    -0.191453200758E+03    0.13033E-03   -0.41068E-04  8440   0.139E-01    0.450E-02
DAV:   9    -0.191453186375E+03    0.14383E-04   -0.56980E-05  6320   0.434E-02
  20 F= -.19145319E+03 E0= -.19134331E+03  d E =0.226943E-01
       N       E                     dE             d eps       ncg     rms          rms(c)
DAV:   1    -0.191452088364E+03    0.11124E-02   -0.11768E-02  8160   0.227E-01    0.269E-02
DAV:   2    -0.191452160391E+03   -0.72027E-04   -0.35200E-04 10280   0.977E-02
  21 F= -.19145216E+03 E0= -.19134249E+03  d E =0.102598E-02
       N       E                     dE             d eps       ncg     rms          rms(c)
DAV:   1    -0.191450122744E+03    0.19656E-02   -0.10215E-01  8160   0.705E-01    0.993E-02
DAV:   2    -0.191451063936E+03   -0.94119E-03   -0.46640E-03 12600   0.344E-01    0.318E-01
DAV:   3    -0.191450138507E+03    0.92543E-03   -0.23467E-03  9760   0.308E-01    0.844E-02
DAV:   4    -0.191450128069E+03    0.10438E-04   -0.34687E-04  8280   0.114E-01
  22 F= -.19145013E+03 E0= -.19134039E+03  d E =0.203232E-02
       N       E                     dE             d eps       ncg     rms          rms(c)
DAV:   1    -0.191473815471E+03   -0.23677E-01   -0.19600E+00  8160   0.298E+00    0.366E-01
DAV:   2    -0.191489787722E+03   -0.15972E-01   -0.86117E-02 13560   0.133E+00    0.116E+00
DAV:   3    -0.191477771699E+03    0.12016E-01   -0.36521E-02 12360   0.121E+00    0.349E-01
DAV:   4    -0.191477666620E+03    0.10508E-03   -0.51688E-03 11200   0.431E-01    0.336E-01
DAV:   5    -0.191476443824E+03    0.12228E-02   -0.24830E-03  9960   0.357E-01    0.120E-01
DAV:   6    -0.191476498838E+03   -0.55014E-04   -0.98247E-04 10480   0.171E-01
  23 F= -.19147650E+03 E0= -.19136499E+03  d E =-.263708E-01
       N       E                     dE             d eps       ncg     rms          rms(c)
DAV:   1    -0.191485727678E+03   -0.92839E-02   -0.29165E-01  8160   0.117E+00    0.252E-01
DAV:   2    -0.191499238326E+03   -0.13511E-01   -0.34659E-02 11560   0.118E+00    0.120E+00
DAV:   3    -0.191485592593E+03    0.13646E-01   -0.25865E-02 10560   0.105E+00    0.176E-01
DAV:   4    -0.191485705343E+03   -0.11275E-03   -0.17282E-03 10280   0.276E-01    0.174E-01
DAV:   5    -0.191485390435E+03    0.31491E-03   -0.65247E-04  9920   0.165E-01    0.668E-02
DAV:   6    -0.191485482287E+03   -0.91853E-04   -0.47925E-04  8600   0.142E-01
  24 F= -.19148548E+03 E0= -.19137302E+03  d E =-.898345E-02
       N       E                     dE             d eps       ncg     rms          rms(c)
DAV:   1    -0.191499304965E+03   -0.13915E-01   -0.56857E-01  8160   0.162E+00    0.228E-01
DAV:   2    -0.191505657428E+03   -0.63525E-02   -0.27759E-02 13400   0.829E-01    0.760E-01
DAV:   3    -0.191500070634E+03    0.55868E-02   -0.14103E-02 11440   0.775E-01    0.201E-01
DAV:   4    -0.191500237477E+03   -0.16684E-03   -0.23677E-03  9840   0.300E-01    0.231E-01
DAV:   5    -0.191499683785E+03    0.55369E-03   -0.12512E-03 10040   0.243E-01    0.831E-02
DAV:   6    -0.191499636134E+03    0.47651E-04   -0.33088E-04  7480   0.973E-02
  25 F= -.19149964E+03 E0= -.19138634E+03  d E =-.141538E-01
       N       E                     dE             d eps       ncg     rms          rms(c)
DAV:   1    -0.191497011839E+03    0.26719E-02   -0.20535E-02  8600   0.336E-01    0.124E-01
DAV:   2    -0.191501676320E+03   -0.46645E-02   -0.10332E-02 11680   0.679E-01    0.704E-01
DAV:   3    -0.191496848684E+03    0.48276E-02   -0.76364E-03 10160   0.587E-01    0.403E-02
DAV:   4    -0.191496899823E+03   -0.51139E-04   -0.14372E-04  5960   0.642E-02
  26 F= -.19149690E+03 E0= -.19138370E+03  d E =0.273631E-02
       N       E                     dE             d eps       ncg     rms          rms(c)
DAV:   1    -0.191495009009E+03    0.18397E-02   -0.65829E-01  8160   0.171E+00    0.254E-01
DAV:   2    -0.191507743187E+03   -0.12734E-01   -0.40980E-02 13160   0.119E+00    0.114E+00
DAV:   3    -0.191495465994E+03    0.12277E-01   -0.24488E-02 10680   0.101E+00    0.151E-01
DAV:   4    -0.191495669571E+03   -0.20358E-03   -0.16349E-03  9760   0.245E-01    0.215E-01
DAV:   5    -0.191495324737E+03    0.34483E-03   -0.14364E-03  9520   0.251E-01    0.119E-01
DAV:   6    -0.191495301829E+03    0.22908E-04   -0.66190E-04  9160   0.151E-01
  27 F= -.19149530E+03 E0= -.19138233E+03  d E =0.159799E-02
       N       E                     dE             d eps       ncg     rms          rms(c)
DAV:   1    -0.191469154865E+03    0.26170E-01   -0.41813E+00  8160   0.439E+00    0.614E-01
DAV:   2    -0.191527307931E+03   -0.58153E-01   -0.21204E-01 13480   0.247E+00    0.242E+00
DAV:   3    -0.191473761035E+03    0.53547E-01   -0.11990E-01 12120   0.223E+00    0.498E-01
DAV:   4    -0.191475414506E+03   -0.16535E-02   -0.15467E-02 10520   0.833E-01    0.684E-01
DAV:   5    -0.191471211734E+03    0.42028E-02   -0.10901E-02 11520   0.701E-01    0.295E-01
DAV:   6    -0.191471292042E+03   -0.80308E-04   -0.47905E-03 10400   0.452E-01    0.311E-01
DAV:   7    -0.191470495567E+03    0.79647E-03   -0.25962E-03 11120   0.337E-01    0.109E-01
DAV:   8    -0.191470253077E+03    0.24249E-03   -0.46904E-04  9320   0.107E-01    0.241E-02
DAV:   9    -0.191470257628E+03   -0.45504E-05   -0.73278E-05  8080   0.318E-02
  28 F= -.19147026E+03 E0= -.19135842E+03  d E =0.250442E-01
       N       E                     dE             d eps       ncg     rms          rms(c)
DAV:   1    -0.191522149118E+03   -0.51896E-01   -0.10151E+01  8160   0.686E+00    0.974E-01
DAV:   2    -0.191667191206E+03   -0.14504E+00   -0.53124E-01 13120   0.396E+00    0.391E+00
DAV:   3    -0.191532762079E+03    0.13443E+00   -0.34698E-01 12280   0.368E+00    0.656E-01
DAV:   4    -0.191531759331E+03    0.10027E-02   -0.22763E-02 12280   0.859E-01    0.687E-01
DAV:   5    -0.191527124184E+03    0.46351E-02   -0.15466E-02 11840   0.862E-01    0.375E-01
DAV:   6    -0.191526197935E+03    0.92625E-03   -0.68511E-03 11600   0.456E-01    0.232E-01
DAV:   7    -0.191526554311E+03   -0.35638E-03   -0.50047E-03 11920   0.446E-01    0.370E-01
DAV:   8    -0.191525245767E+03    0.13085E-02   -0.25748E-03 10080   0.322E-01    0.502E-02
DAV:   9    -0.191525257008E+03   -0.11241E-04   -0.13978E-04  5960   0.501E-02
  29 F= -.19152526E+03 E0= -.19141040E+03  d E =-.549994E-01
       N       E                     dE             d eps       ncg     rms          rms(c)
DAV:   1    -0.191534352056E+03   -0.91063E-02   -0.85020E-01  8160   0.194E+00    0.230E-01
DAV:   2    -0.191540620147E+03   -0.62681E-02   -0.29358E-02 13600   0.920E-01    0.736E-01
DAV:   3    -0.191535260226E+03    0.53599E-02   -0.13385E-02 11520   0.750E-01    0.183E-01
DAV:   4    -0.191535679005E+03   -0.41878E-03   -0.26304E-03 10000   0.330E-01    0.270E-01
DAV:   5    -0.191534939874E+03    0.73913E-03   -0.14800E-03  9560   0.264E-01    0.726E-02
DAV:   6    -0.191535044370E+03   -0.10450E-03   -0.50134E-04  8280   0.128E-01    0.117E-01
DAV:   7    -0.191534986890E+03    0.57481E-04   -0.58461E-04  8120   0.159E-01
  30 F= -.19153499E+03 E0= -.19141973E+03  d E =-.972988E-02
       N       E                     dE             d eps       ncg     rms          rms(c)
DAV:   1    -0.191524646411E+03    0.10398E-01   -0.44959E-01  8160   0.141E+00    0.152E-01
DAV:   2    -0.191526819668E+03   -0.21733E-02   -0.12351E-02 13600   0.503E-01    0.390E-01
DAV:   3    -0.191525133364E+03    0.16863E-02   -0.41056E-03 11360   0.447E-01    0.118E-01
DAV:   4    -0.191525192795E+03   -0.59431E-04   -0.85125E-04  8320   0.165E-01
  31 F= -.19152519E+03 E0= -.19140999E+03  d E =0.979410E-02
       N       E                     dE             d eps       ncg     rms          rms(c)
DAV:   1    -0.191517403865E+03    0.77295E-02   -0.73550E+00  8160   0.568E+00    0.618E-01
DAV:   2    -0.191547882008E+03   -0.30478E-01   -0.18404E-01 13160   0.188E+00    0.143E+00
DAV:   3    -0.191525960852E+03    0.21921E-01   -0.57235E-02 11640   0.168E+00    0.588E-01
DAV:   4    -0.191527082133E+03   -0.11213E-02   -0.20112E-02 11800   0.820E-01    0.690E-01
DAV:   5    -0.191523204170E+03    0.38780E-02   -0.14261E-02 11000   0.767E-01    0.317E-01
DAV:   6    -0.191522315869E+03    0.88830E-03   -0.34480E-03 11000   0.312E-01    0.131E-01
DAV:   7    -0.191522392454E+03   -0.76585E-04   -0.15086E-03 12040   0.220E-01    0.183E-01
DAV:   8    -0.191522067342E+03    0.32511E-03   -0.75313E-04  8560   0.184E-01    0.488E-02
DAV:   9    -0.191522055484E+03    0.11858E-04   -0.88867E-05  5840   0.504E-02
  32 F= -.19152206E+03 E0= -.19140799E+03  d E =0.313731E-02
       N       E                     dE             d eps       ncg     rms          rms(c)
DAV:   1    -0.191517826587E+03    0.42408E-02   -0.10818E-01  8160   0.700E-01    0.736E-02
DAV:   2    -0.191518164250E+03   -0.33766E-03   -0.28063E-03 13240   0.197E-01    0.159E-01
DAV:   3    -0.191517980827E+03    0.18342E-03   -0.97898E-04  8840   0.196E-01    0.942E-02
DAV:   4    -0.191517919478E+03    0.61350E-04   -0.23405E-04  5720   0.939E-02
  33 F= -.19151792E+03 E0= -.19140406E+03  d E =0.413601E-02
       N       E                     dE             d eps       ncg     rms          rms(c)
DAV:   1    -0.191518493418E+03   -0.51259E-03   -0.25689E-01  8160   0.108E+00    0.187E-01
DAV:   2    -0.191521298597E+03   -0.28052E-02   -0.13337E-02 11840   0.696E-01    0.534E-01
DAV:   3    -0.191518216158E+03    0.30824E-02   -0.59869E-03 11360   0.550E-01    0.123E-01
DAV:   4    -0.191518531611E+03   -0.31545E-03   -0.16932E-03  9560   0.259E-01    0.233E-01
DAV:   5    -0.191518047144E+03    0.48447E-03   -0.14475E-03  9080   0.247E-01    0.837E-02
DAV:   6    -0.191517977344E+03    0.69800E-04   -0.29158E-04  6040   0.854E-02
  34 F= -.19151798E+03 E0= -.19140443E+03  d E =-.578664E-04
       N       E                     dE             d eps       ncg     rms          rms(c)
DAV:   1    -0.191544655859E+03   -0.26609E-01   -0.19591E+00  8160   0.300E+00    0.380E-01
DAV:   2    -0.191554681593E+03   -0.10026E-01   -0.71511E-02 13520   0.119E+00    0.887E-01
DAV:   3    -0.191547454687E+03    0.72269E-02   -0.24520E-02 12160   0.107E+00    0.362E-01
DAV:   4    -0.191547781682E+03   -0.32700E-03   -0.75141E-03 11080   0.550E-01    0.441E-01
DAV:   5    -0.191545859242E+03    0.19224E-02   -0.47675E-03  9880   0.452E-01    0.149E-01
DAV:   6    -0.191545729308E+03    0.12993E-03   -0.13029E-03  9640   0.172E-01    0.104E-01
DAV:   7    -0.191545844771E+03   -0.11546E-03   -0.10596E-03 10520   0.207E-01    0.168E-01
DAV:   8    -0.191545561470E+03    0.28330E-03   -0.52162E-04  8040   0.154E-01    0.253E-02
DAV:   9    -0.191545564193E+03   -0.27229E-05   -0.36357E-05  5680   0.261E-02
  35 F= -.19154556E+03 E0= -.19143064E+03  d E =-.275868E-01
       N       E                     dE             d eps       ncg     rms          rms(c)
DAV:   1    -0.191537102009E+03    0.84595E-02   -0.15803E-01  8160   0.852E-01    0.100E-01
DAV:   2    -0.191537568579E+03   -0.46657E-03   -0.46576E-03 12760   0.261E-01    0.178E-01
DAV:   3    -0.191537320388E+03    0.24819E-03   -0.12896E-03 10880   0.252E-01    0.112E-01
DAV:   4    -0.191537263126E+03    0.57262E-04   -0.45966E-04  7720   0.138E-01
  36 F= -.19153726E+03 E0= -.19142262E+03  d E =0.830107E-02
       N       E                     dE             d eps       ncg     rms          rms(c)
DAV:   1    -0.191538323655E+03   -0.10033E-02   -0.30150E-01  8160   0.119E+00    0.210E-01
DAV:   2    -0.191542186460E+03   -0.38628E-02   -0.17737E-02 12520   0.752E-01    0.666E-01
DAV:   3    -0.191538064139E+03    0.41223E-02   -0.99350E-03 11360   0.661E-01    0.165E-01
DAV:   4    -0.191538099439E+03   -0.35300E-04   -0.18711E-03 10040   0.271E-01    0.194E-01
DAV:   5    -0.191537821399E+03    0.27804E-03   -0.13643E-03  9880   0.254E-01    0.126E-01
DAV:   6    -0.191537635999E+03    0.18540E-03   -0.56684E-04  8200   0.135E-01    0.600E-02
DAV:   7    -0.191537651234E+03   -0.15236E-04   -0.27950E-04  6040   0.110E-01
  37 F= -.19153765E+03 E0= -.19142289E+03  d E =-.388108E-03
       N       E                     dE             d eps       ncg     rms          rms(c)
DAV:   1    -0.191565796718E+03   -0.28161E-01   -0.18675E+00  8160   0.292E+00    0.321E-01
DAV:   2    -0.191568820776E+03   -0.30241E-02   -0.48480E-02 12240   0.648E-01    0.346E-01
DAV:   3    -0.191569621232E+03   -0.80046E-03   -0.11221E-02 12400   0.700E-01    0.476E-01
DAV:   4    -0.191567442589E+03    0.21786E-02   -0.54960E-03 11680   0.491E-01    0.209E-01
DAV:   5    -0.191567368595E+03    0.73994E-04   -0.24329E-03  9680   0.327E-01    0.225E-01
DAV:   6    -0.191566998477E+03    0.37012E-03   -0.16965E-03 10040   0.271E-01    0.101E-01
DAV:   7    -0.191566900844E+03    0.97633E-04   -0.45142E-04  8760   0.119E-01
  38 F= -.19156690E+03 E0= -.19145153E+03  d E =-.292496E-01
       N       E                     dE             d eps       ncg     rms          rms(c)
DAV:   1    -0.191579429478E+03   -0.12431E-01   -0.34095E-01  8160   0.125E+00    0.151E-01
DAV:   2    -0.191580823636E+03   -0.13942E-02   -0.11445E-02 12200   0.387E-01    0.332E-01
DAV:   3    -0.191580042037E+03    0.78160E-03   -0.41531E-03 11400   0.408E-01    0.187E-01
DAV:   4    -0.191579766609E+03    0.27543E-03   -0.84638E-04  9040   0.163E-01    0.686E-02
DAV:   5    -0.191579688926E+03    0.77682E-04   -0.21330E-04  6600   0.666E-02
  39 F= -.19157969E+03 E0= -.19146441E+03  d E =-.127881E-01
       N       E                     dE             d eps       ncg     rms          rms(c)
DAV:   1    -0.191572809434E+03    0.69572E-02   -0.31651E-01  8160   0.121E+00    0.188E-01
DAV:   2    -0.191578840664E+03   -0.60312E-02   -0.19768E-02 13440   0.776E-01    0.788E-01
DAV:   3    -0.191573015255E+03    0.58254E-02   -0.12657E-02 10480   0.716E-01    0.137E-01
DAV:   4    -0.191573112009E+03   -0.96754E-04   -0.12553E-03  9800   0.224E-01    0.161E-01
DAV:   5    -0.191572839511E+03    0.27250E-03   -0.60233E-04  8680   0.175E-01    0.517E-02
DAV:   6    -0.191572820073E+03    0.19438E-04   -0.15301E-04  6240   0.647E-02
  40 F= -.19157282E+03 E0= -.19145750E+03  d E =0.686885E-02
       N       E                     dE             d eps       ncg     rms          rms(c)
DAV:   1    -0.191553586191E+03    0.19253E-01   -0.25729E+00  8160   0.341E+00    0.441E-01
DAV:   2    -0.191577707634E+03   -0.24121E-01   -0.11177E-01 13600   0.159E+00    0.157E+00
DAV:   3    -0.191556711502E+03    0.20996E-01   -0.60530E-02 12280   0.149E+00    0.353E-01
DAV:   4    -0.191555431191E+03    0.12803E-02   -0.40078E-03 10960   0.291E-01    0.154E-01
DAV:   5    -0.191555140806E+03    0.29039E-03   -0.16068E-03 11840   0.181E-01    0.128E-01
DAV:   6    -0.191555397440E+03   -0.25663E-03   -0.17476E-03 10960   0.276E-01    0.201E-01
DAV:   7    -0.191554951042E+03    0.44640E-03   -0.96273E-04  9120   0.208E-01    0.532E-02
DAV:   8    -0.191554964723E+03   -0.13681E-04   -0.18479E-04  5920   0.888E-02
  41 F= -.19155496E+03 E0= -.19143973E+03  d E =0.178553E-01
       N       E                     dE             d eps       ncg     rms          rms(c)
DAV:   1    -0.191605280850E+03   -0.50330E-01   -0.90191E+00  8160   0.648E+00    0.772E-01
DAV:   2    -0.191645592895E+03   -0.40312E-01   -0.30109E-01 13240   0.219E+00    0.182E+00
DAV:   3    -0.191619804846E+03    0.25788E-01   -0.11445E-01 12320   0.217E+00    0.874E-01
DAV:   4    -0.191612308824E+03    0.74960E-02   -0.20617E-02 12280   0.789E-01    0.351E-01
DAV:   5    -0.191611511204E+03    0.79762E-03   -0.89245E-03 11240   0.536E-01    0.429E-01
DAV:   6    -0.191611171189E+03    0.34001E-03   -0.90881E-03 11400   0.660E-01    0.370E-01
DAV:   7    -0.191609855865E+03    0.13153E-02   -0.34854E-03 11320   0.373E-01    0.153E-01
DAV:   8    -0.191609659937E+03    0.19593E-03   -0.99101E-04  9360   0.216E-01    0.961E-02
DAV:   9    -0.191609553033E+03    0.10690E-03   -0.26544E-04  8400   0.108E-01    0.281E-02
DAV:  10    -0.191609543387E+03    0.96457E-05   -0.72491E-05  6440   0.320E-02
  42 F= -.19160954E+03 E0= -.19149492E+03  d E =-.545787E-01
       N       E                     dE             d eps       ncg     rms          rms(c)
DAV:   1    -0.191650301415E+03   -0.40748E-01   -0.33932E+00  8160   0.398E+00    0.452E-01
DAV:   2    -0.191655592324E+03   -0.52909E-02   -0.97864E-02 12200   0.900E-01    0.451E-01
DAV:   3    -0.191659313676E+03   -0.37214E-02   -0.23495E-02 12440   0.104E+00    0.790E-01
DAV:   4    -0.191653240765E+03    0.60729E-02   -0.12607E-02 11600   0.773E-01    0.256E-01
DAV:   5    -0.191653142201E+03    0.98565E-04   -0.37974E-03 10680   0.420E-01    0.280E-01
DAV:   6    -0.191652626940E+03    0.51526E-03   -0.29651E-03 11800   0.373E-01    0.157E-01
DAV:   7    -0.191652438558E+03    0.18838E-03   -0.10450E-03  9880   0.207E-01    0.132E-01
DAV:   8    -0.191652275237E+03    0.16332E-03   -0.44739E-04  8720   0.148E-01    0.439E-02
DAV:   9    -0.191652258099E+03    0.17138E-04   -0.65122E-05  6120   0.463E-02
  43 F= -.19165226E+03 E0= -.19153920E+03  d E =-.427147E-01
       N       E                     dE             d eps       ncg     rms          rms(c)
DAV:   1    -0.191672833130E+03   -0.20558E-01   -0.93044E-01  8160   0.206E+00    0.224E-01
DAV:   2    -0.191674470650E+03   -0.16375E-02   -0.26477E-02 12240   0.469E-01    0.230E-01
DAV:   3    -0.191675373832E+03   -0.90318E-03   -0.54738E-03 12360   0.526E-01    0.390E-01
DAV:   4    -0.191673854594E+03    0.15192E-02   -0.26177E-03 10280   0.363E-01    0.985E-02
DAV:   5    -0.191673904076E+03   -0.49482E-04   -0.66931E-04  8840   0.171E-01
  44 F= -.19167390E+03 E0= -.19156158E+03  d E =-.216460E-01
       N       E                     dE             d eps       ncg     rms          rms(c)
DAV:   1    -0.191684649310E+03   -0.10795E-01   -0.27337E-01  8160   0.113E+00    0.163E-01
DAV:   2    -0.191687381440E+03   -0.27321E-02   -0.12369E-02 12440   0.555E-01    0.501E-01
DAV:   3    -0.191684884560E+03    0.24969E-02   -0.59226E-03 11440   0.536E-01    0.125E-01
DAV:   4    -0.191684898656E+03   -0.14096E-04   -0.64937E-04  9320   0.157E-01
  45 F= -.19168490E+03 E0= -.19157395E+03  d E =-.109946E-01
       N       E                     dE             d eps       ncg     rms          rms(c)
DAV:   1    -0.191720262860E+03   -0.35378E-01   -0.32020E+00  8160   0.384E+00    0.426E-01
DAV:   2    -0.191726116442E+03   -0.58536E-02   -0.91432E-02 12240   0.885E-01    0.474E-01
DAV:   3    -0.191728077861E+03   -0.19614E-02   -0.18575E-02 11680   0.988E-01    0.670E-01
DAV:   4    -0.191723591188E+03    0.44867E-02   -0.87696E-03 10480   0.674E-01    0.223E-01
DAV:   5    -0.191723763879E+03   -0.17269E-03   -0.36608E-03 10400   0.446E-01    0.274E-01
DAV:   6    -0.191723147949E+03    0.61593E-03   -0.21651E-03 11880   0.323E-01    0.118E-01
DAV:   7    -0.191723036757E+03    0.11119E-03   -0.76965E-04  8880   0.182E-01    0.117E-01
DAV:   8    -0.191722901318E+03    0.13544E-03   -0.28279E-04  7840   0.128E-01    0.260E-02
DAV:   9    -0.191722906268E+03   -0.49497E-05   -0.44830E-05  6520   0.328E-02
  46 F= -.19172291E+03 E0= -.19161390E+03  d E =-.380076E-01
       N       E                     dE             d eps       ncg     rms          rms(c)
DAV:   1    -0.191730932468E+03   -0.80311E-02   -0.16738E-01  8160   0.918E-01    0.163E-01
DAV:   2    -0.191731188100E+03   -0.25563E-03   -0.74698E-03 11240   0.369E-01    0.244E-01
DAV:   3    -0.191730841772E+03    0.34633E-03   -0.24906E-03 11200   0.385E-01    0.181E-01
DAV:   4    -0.191730544625E+03    0.29715E-03   -0.10988E-03  9120   0.232E-01    0.126E-01
DAV:   5    -0.191730508412E+03    0.36213E-04   -0.84676E-04  9600   0.208E-01
  47 F= -.19173051E+03 E0= -.19162143E+03  d E =-.760214E-02
       N       E                     dE             d eps       ncg     rms          rms(c)
DAV:   1    -0.191761336697E+03   -0.30792E-01   -0.24906E+00  8160   0.339E+00    0.396E-01
DAV:   2    -0.191766533521E+03   -0.51968E-02   -0.76600E-02 12240   0.924E-01    0.519E-01
DAV:   3    -0.191766635055E+03   -0.10153E-03   -0.15658E-02 12200   0.959E-01    0.541E-01
DAV:   4    -0.191763457162E+03    0.31779E-02   -0.55153E-03 12160   0.554E-01    0.196E-01
DAV:   5    -0.191763586319E+03   -0.12916E-03   -0.25346E-03 11240   0.386E-01    0.238E-01
DAV:   6    -0.191763048145E+03    0.53817E-03   -0.19139E-03 11400   0.312E-01    0.906E-02
DAV:   7    -0.191762920278E+03    0.12787E-03   -0.35915E-04  8440   0.107E-01    0.473E-02
DAV:   8    -0.191762913310E+03    0.69681E-05   -0.12501E-04  8000   0.860E-02
  48 F= -.19176291E+03 E0= -.19165595E+03  d E =-.324049E-01
       N       E                     dE             d eps       ncg     rms          rms(c)
DAV:   1    -0.191777927854E+03   -0.15008E-01   -0.59763E-01  8160   0.165E+00    0.189E-01
DAV:   2    -0.191778976106E+03   -0.10483E-02   -0.18771E-02 11800   0.439E-01    0.194E-01
DAV:   3    -0.191779315170E+03   -0.33906E-03   -0.32780E-03 11640   0.414E-01    0.276E-01
DAV:   4    -0.191778548738E+03    0.76643E-03   -0.16927E-03  9800   0.314E-01    0.108E-01
DAV:   5    -0.191778594576E+03   -0.45838E-04   -0.68494E-04  9280   0.194E-01
  49 F= -.19177859E+03 E0= -.19167318E+03  d E =-.156813E-01
       N       E                     dE             d eps       ncg     rms          rms(c)
DAV:   1    -0.191804997198E+03   -0.26448E-01   -0.21361E+00  8160   0.310E+00    0.308E-01
DAV:   2    -0.191808384513E+03   -0.33873E-02   -0.56192E-02 12240   0.644E-01    0.221E-01
DAV:   3    -0.191810118527E+03   -0.17340E-02   -0.66424E-03 12240   0.609E-01    0.472E-01
DAV:   4    -0.191807718204E+03    0.24003E-02   -0.36832E-03 11600   0.511E-01    0.119E-01
DAV:   5    -0.191807709050E+03    0.91544E-05   -0.99645E-04 10200   0.139E-01
  50 F= -.19180771E+03 E0= -.19170401E+03  d E =-.291145E-01
       N       E                     dE             d eps       ncg     rms          rms(c)
DAV:   1    -0.191813061124E+03   -0.53429E-02   -0.65664E-02  8160   0.562E-01    0.137E-01
DAV:   2    -0.191816288114E+03   -0.32270E-02   -0.73414E-03 11080   0.638E-01    0.550E-01
DAV:   3    -0.191812950579E+03    0.33375E-02   -0.45536E-03  9920   0.551E-01    0.732E-02
DAV:   4    -0.191813013211E+03   -0.62631E-04   -0.36721E-04  8480   0.145E-01
  51 F= -.19181301E+03 E0= -.19170996E+03  d E =-.530416E-02
       N       E                     dE             d eps       ncg     rms          rms(c)
DAV:   1    -0.191847565794E+03   -0.34615E-01   -0.34230E+00  8160   0.393E+00    0.409E-01
DAV:   2    -0.191855174661E+03   -0.76089E-02   -0.93082E-02 13600   0.109E+00    0.538E-01
DAV:   3    -0.191853143956E+03    0.20307E-02   -0.14415E-02 12320   0.936E-01    0.408E-01
DAV:   4    -0.191851343925E+03    0.18000E-02   -0.43740E-03 12200   0.497E-01    0.199E-01
DAV:   5    -0.191851172052E+03    0.17187E-03   -0.29412E-03 11840   0.324E-01    0.223E-01
DAV:   6    -0.191851104405E+03    0.67648E-04   -0.23388E-03 11760   0.378E-01    0.192E-01
DAV:   7    -0.191850652133E+03    0.45227E-03   -0.65287E-04  8640   0.185E-01    0.293E-02
DAV:   8    -0.191850658685E+03   -0.65512E-05   -0.84511E-05  6680   0.529E-02
  52 F= -.19185066E+03 E0= -.19175028E+03  d E =-.376455E-01
       N       E                     dE             d eps       ncg     rms          rms(c)
DAV:   1    -0.191865269248E+03   -0.14617E-01   -0.49167E-01  8160   0.149E+00    0.157E-01
DAV:   2    -0.191867097141E+03   -0.18279E-02   -0.15207E-02 12440   0.473E-01    0.315E-01
DAV:   3    -0.191866278336E+03    0.81880E-03   -0.32202E-03 11760   0.438E-01    0.162E-01
DAV:   4    -0.191866019863E+03    0.25847E-03   -0.57726E-04  9160   0.163E-01    0.618E-02
DAV:   5    -0.191866048721E+03   -0.28859E-04   -0.29211E-04  7960   0.126E-01
  53 F= -.19186605E+03 E0= -.19176666E+03  d E =-.153900E-01
       N       E                     dE             d eps       ncg     rms          rms(c)
DAV:   1    -0.191869721713E+03   -0.37018E-02   -0.80577E-02  8160   0.691E-01    0.139E-01
DAV:   2    -0.191869841175E+03   -0.11946E-03   -0.39401E-03 11680   0.291E-01    0.218E-01
DAV:   3    -0.191869553343E+03    0.28783E-03   -0.21530E-03 10840   0.362E-01    0.174E-01
DAV:   4    -0.191869242367E+03    0.31098E-03   -0.68513E-04  8560   0.187E-01    0.702E-02
DAV:   5    -0.191869288275E+03   -0.45908E-04   -0.36117E-04  8480   0.163E-01
  54 F= -.19186929E+03 E0= -.19177048E+03  d E =-.323955E-02
       N       E                     dE             d eps       ncg     rms          rms(c)
DAV:   1    -0.191900022889E+03   -0.30781E-01   -0.20520E+00  8160   0.307E+00    0.384E-01
DAV:   2    -0.191909288811E+03   -0.92659E-02   -0.69344E-02 12680   0.119E+00    0.849E-01
DAV:   3    -0.191902610645E+03    0.66782E-02   -0.18569E-02 11640   0.108E+00    0.337E-01
DAV:   4    -0.191901722097E+03    0.88855E-03   -0.43058E-03 12400   0.450E-01    0.242E-01
DAV:   5    -0.191901331767E+03    0.39033E-03   -0.27907E-03 11440   0.427E-01    0.205E-01
DAV:   6    -0.191900928580E+03    0.40319E-03   -0.14947E-03 11640   0.270E-01    0.827E-02
DAV:   7    -0.191900802484E+03    0.12610E-03   -0.29156E-04  6640   0.823E-02    0.270E-02
DAV:   8    -0.191900802795E+03   -0.31145E-06   -0.70533E-05  7760   0.552E-02
  55 F= -.19190080E+03 E0= -.19180467E+03  d E =-.315145E-01
       N       E                     dE             d eps       ncg     rms          rms(c)
DAV:   1    -0.191927411476E+03   -0.26609E-01   -0.17011E+00  8160   0.275E+00    0.272E-01
DAV:   2    -0.191931242968E+03   -0.38315E-02   -0.45076E-02 12560   0.693E-01    0.353E-01
DAV:   3    -0.191930999344E+03    0.24362E-03   -0.73058E-03 11120   0.663E-01    0.360E-01
DAV:   4    -0.191929758600E+03    0.12407E-02   -0.27396E-03 11720   0.401E-01    0.151E-01
DAV:   5    -0.191929705032E+03    0.53569E-04   -0.12449E-03 10040   0.273E-01    0.153E-01
DAV:   6    -0.191929542966E+03    0.16207E-03   -0.74122E-04 10480   0.217E-01    0.795E-02
DAV:   7    -0.191929459611E+03    0.83355E-04   -0.18013E-04  6000   0.826E-02
  56 F= -.19192946E+03 E0= -.19183619E+03  d E =-.286568E-01
       N       E                     dE             d eps       ncg     rms          rms(c)
DAV:   1    -0.191943498117E+03   -0.13955E-01   -0.42814E-01  8160   0.139E+00    0.145E-01
DAV:   2    -0.191944927733E+03   -0.14296E-02   -0.12487E-02 12040   0.422E-01    0.274E-01
DAV:   3    -0.191944349277E+03    0.57846E-03   -0.25810E-03 11880   0.403E-01    0.161E-01
DAV:   4    -0.191944096051E+03    0.25323E-03   -0.57210E-04  8880   0.168E-01    0.624E-02
DAV:   5    -0.191944103500E+03   -0.74489E-05   -0.25237E-04  8080   0.121E-01
  57 F= -.19194410E+03 E0= -.19185223E+03  d E =-.146439E-01
       N       E                     dE             d eps       ncg     rms          rms(c)
DAV:   1    -0.191954539231E+03   -0.10443E-01   -0.25332E-01  8160   0.107E+00    0.123E-01
DAV:   2    -0.191955749891E+03   -0.12107E-02   -0.81662E-03 12040   0.382E-01    0.258E-01
DAV:   3    -0.191954959316E+03    0.79058E-03   -0.16326E-03 11920   0.350E-01    0.866E-02
DAV:   4    -0.191954929147E+03    0.30169E-04   -0.22895E-04  7360   0.110E-01
  58 F= -.19195493E+03 E0= -.19186441E+03  d E =-.108256E-01
       N       E                     dE             d eps       ncg     rms          rms(c)
DAV:   1    -0.191998505097E+03   -0.43546E-01   -0.58149E+00  8160   0.510E+00    0.525E-01
DAV:   2    -0.192013456893E+03   -0.14952E-01   -0.16292E-01 12040   0.138E+00    0.756E-01
DAV:   3    -0.192011081883E+03    0.23750E-02   -0.29385E-02 11040   0.134E+00    0.664E-01
DAV:   4    -0.192006679954E+03    0.44019E-02   -0.96053E-03 12000   0.739E-01    0.276E-01
DAV:   5    -0.192006405092E+03    0.27486E-03   -0.42779E-03 10960   0.512E-01    0.287E-01
DAV:   6    -0.192005827259E+03    0.57783E-03   -0.26082E-03 12520   0.422E-01    0.155E-01
DAV:   7    -0.192005503061E+03    0.32420E-03   -0.82085E-04 10320   0.164E-01    0.436E-02
DAV:   8    -0.192005468920E+03    0.34141E-04   -0.10397E-04  7440   0.472E-02
  59 F= -.19200547E+03 E0= -.19192034E+03  d E =-.505398E-01
       N       E                     dE             d eps       ncg     rms          rms(c)
DAV:   1    -0.192034266305E+03   -0.28763E-01   -0.23570E+00  8160   0.330E+00    0.423E-01
DAV:   2    -0.192046922827E+03   -0.12657E-01   -0.95745E-02 11760   0.138E+00    0.931E-01
DAV:   3    -0.192038964724E+03    0.79581E-02   -0.22181E-02 12160   0.122E+00    0.373E-01
DAV:   4    -0.192037700837E+03    0.12639E-02   -0.44292E-03 12080   0.484E-01    0.241E-01
DAV:   5    -0.192037389975E+03    0.31086E-03   -0.27288E-03 11280   0.450E-01    0.222E-01
DAV:   6    -0.192036930624E+03    0.45935E-03   -0.16038E-03 11720   0.288E-01    0.953E-02
DAV:   7    -0.192036840071E+03    0.90553E-04   -0.51457E-04  9080   0.145E-01
  60 F= -.19203684E+03 E0= -.19195430E+03  d E =-.313712E-01
       N       E                     dE             d eps       ncg     rms          rms(c)
DAV:   1    -0.192053809764E+03   -0.16879E-01   -0.95561E-01  8160   0.208E+00    0.255E-01
DAV:   2    -0.192057530479E+03   -0.37207E-02   -0.37052E-02 11280   0.777E-01    0.436E-01
DAV:   3    -0.192056190679E+03    0.13398E-02   -0.73018E-03 12320   0.691E-01    0.287E-01
DAV:   4    -0.192055335988E+03    0.85469E-03   -0.19539E-03 11080   0.337E-01    0.128E-01
DAV:   5    -0.192055355941E+03   -0.19954E-04   -0.81686E-04 10160   0.242E-01
  61 F= -.19205536E+03 E0= -.19197494E+03  d E =-.185159E-01
       N       E                     dE             d eps       ncg     rms          rms(c)
DAV:   1    -0.192076512599E+03   -0.21177E-01   -0.21542E+00  8160   0.313E+00    0.346E-01
DAV:   2    -0.192085295562E+03   -0.87830E-02   -0.77455E-02 11160   0.105E+00    0.649E-01
DAV:   3    -0.192082132724E+03    0.31628E-02   -0.14280E-02 12320   0.961E-01    0.362E-01
DAV:   4    -0.192080551587E+03    0.15811E-02   -0.23386E-03 11120   0.347E-01    0.101E-01
DAV:   5    -0.192080644666E+03   -0.93079E-04   -0.11776E-03 10720   0.158E-01    0.112E-01
DAV:   6    -0.192080636080E+03    0.85856E-05   -0.74098E-04 11320   0.224E-01
  62 F= -.19208064E+03 E0= -.19200245E+03  d E =-.252801E-01
       N       E                     dE             d eps       ncg     rms          rms(c)
DAV:   1    -0.192103135198E+03   -0.22491E-01   -0.53555E+00  8160   0.495E+00    0.576E-01
DAV:   2    -0.192124998801E+03   -0.21864E-01   -0.22406E-01 11680   0.172E+00    0.943E-01
DAV:   3    -0.192119742489E+03    0.52563E-02   -0.37662E-02 11920   0.154E+00    0.641E-01
DAV:   4    -0.192115206027E+03    0.45365E-02   -0.93271E-03 12280   0.736E-01    0.284E-01
DAV:   5    -0.192115044425E+03    0.16160E-03   -0.46696E-03 11400   0.561E-01    0.308E-01
DAV:   6    -0.192114413929E+03    0.63050E-03   -0.30007E-03 12400   0.430E-01    0.170E-01
DAV:   7    -0.192114123926E+03    0.29000E-03   -0.11343E-03 10720   0.258E-01    0.140E-01
DAV:   8    -0.192113908218E+03    0.21571E-03   -0.37756E-04  9360   0.166E-01    0.362E-02
DAV:   9    -0.192113898634E+03    0.95838E-05   -0.64639E-05  6200   0.429E-02
  63 F= -.19211390E+03 E0= -.19203771E+03  d E =-.332626E-01
       N       E                     dE             d eps       ncg     rms          rms(c)
DAV:   1    -0.192121158081E+03   -0.72499E-02   -0.10282E+01  8160   0.681E+00    0.727E-01
DAV:   2    -0.192158858933E+03   -0.37701E-01   -0.38206E-01 11920   0.211E+00    0.115E+00
DAV:   3    -0.192152857112E+03    0.60018E-02   -0.59523E-02 12160   0.198E+00    0.889E-01
DAV:   4    -0.192143562366E+03    0.92947E-02   -0.14057E-02 12360   0.891E-01    0.261E-01
DAV:   5    -0.192143892993E+03   -0.33063E-03   -0.62658E-03 11880   0.520E-01    0.345E-01
DAV:   6    -0.192143560782E+03    0.33221E-03   -0.50195E-03 12480   0.601E-01    0.277E-01
DAV:   7    -0.192142578316E+03    0.98247E-03   -0.19627E-03 11880   0.342E-01    0.118E-01
DAV:   8    -0.192142450908E+03    0.12741E-03   -0.41759E-04  9320   0.163E-01    0.532E-02
DAV:   9    -0.192142418114E+03    0.32794E-04   -0.10100E-04  7040   0.676E-02
  64 F= -.19214242E+03 E0= -.19206865E+03  d E =-.285195E-01
       N       E                     dE             d eps       ncg     rms          rms(c)
DAV:   1    -0.192146281378E+03   -0.38305E-02   -0.41200E-01  8160   0.135E+00    0.149E-01
DAV:   2    -0.192148737003E+03   -0.24556E-02   -0.16149E-02 11960   0.587E-01    0.369E-01
DAV:   3    -0.192147329080E+03    0.14079E-02   -0.27311E-03 12360   0.459E-01    0.112E-01
DAV:   4    -0.192147192813E+03    0.13627E-03   -0.25859E-04  8520   0.111E-01    0.529E-02
DAV:   5    -0.192147276247E+03   -0.83435E-04   -0.30678E-04  9440   0.135E-01
  65 F= -.19214728E+03 E0= -.19207366E+03  d E =-.485813E-02
       N       E                     dE             d eps       ncg     rms          rms(c)
DAV:   1    -0.192150548188E+03   -0.33554E-02   -0.32426E-01  8160   0.121E+00    0.136E-01
DAV:   2    -0.192151790184E+03   -0.12420E-02   -0.12150E-02 11960   0.389E-01    0.227E-01
DAV:   3    -0.192151460525E+03    0.32966E-03   -0.18161E-03 12280   0.359E-01    0.153E-01
DAV:   4    -0.192151221223E+03    0.23930E-03   -0.41147E-04  8560   0.166E-01    0.603E-02
DAV:   5    -0.192151240984E+03   -0.19761E-04   -0.22242E-04  7880   0.124E-01
  66 F= -.19215124E+03 E0= -.19207754E+03  d E =-.396474E-02
       N       E                     dE             d eps       ncg     rms          rms(c)
DAV:   1    -0.192152054804E+03   -0.83358E-03   -0.26331E-02  8160   0.356E-01    0.603E-02
DAV:   2    -0.192152349996E+03   -0.29519E-03   -0.14233E-03 12800   0.199E-01    0.141E-01
DAV:   3    -0.192152083272E+03    0.26672E-03   -0.47773E-04  9200   0.190E-01    0.493E-02
DAV:   4    -0.192152065420E+03    0.17853E-04   -0.70355E-05  6160   0.672E-02
  67 F= -.19215207E+03 E0= -.19207847E+03  d E =-.824436E-03
       N       E                     dE             d eps       ncg     rms          rms(c)
DAV:   1    -0.192155177662E+03   -0.30944E-02   -0.26448E-01  8160   0.109E+00    0.120E-01
DAV:   2    -0.192156376940E+03   -0.11993E-02   -0.86197E-03 12320   0.381E-01    0.254E-01
DAV:   3    -0.192155721004E+03    0.65594E-03   -0.16990E-03 12040   0.348E-01    0.105E-01
DAV:   4    -0.192155633783E+03    0.87221E-04   -0.23095E-04  8120   0.118E-01
  68 F= -.19215563E+03 E0= -.19208202E+03  d E =-.356836E-02
       N       E                     dE             d eps       ncg     rms          rms(c)
DAV:   1    -0.192155862393E+03   -0.14139E-03   -0.12984E-03  8680   0.138E-01    0.636E-02
DAV:   2    -0.192156538387E+03   -0.67599E-03   -0.10245E-03 11080   0.309E-01    0.243E-01
DAV:   3    -0.192155823132E+03    0.71525E-03   -0.73952E-04 10000   0.259E-01    0.335E-02
DAV:   4    -0.192155830483E+03   -0.73508E-05   -0.37445E-05  5560   0.551E-02
  69 F= -.19215583E+03 E0= -.19208232E+03  d E =-.196700E-03
       N       E                     dE             d eps       ncg     rms          rms(c)
DAV:   1    -0.192159036249E+03   -0.32131E-02   -0.30269E-01  8160   0.116E+00    0.120E-01
DAV:   2    -0.192160066757E+03   -0.10305E-02   -0.88675E-03 11720   0.384E-01    0.227E-01
DAV:   3    -0.192159636549E+03    0.43021E-03   -0.15335E-03 12160   0.336E-01    0.123E-01
DAV:   4    -0.192159472827E+03    0.16372E-03   -0.28209E-04  8200   0.123E-01    0.463E-02
DAV:   5    -0.192159513706E+03   -0.40879E-04   -0.19875E-04  7200   0.107E-01
  70 F= -.19215951E+03 E0= -.19208601E+03  d E =-.368322E-02
       N       E                     dE             d eps       ncg     rms          rms(c)
DAV:   1    -0.192158627247E+03    0.84558E-03   -0.20895E-02  8160   0.325E-01    0.578E-02
DAV:   2    -0.192159143813E+03   -0.51657E-03   -0.15054E-03 12680   0.266E-01    0.208E-01
DAV:   3    -0.192158625695E+03    0.51812E-03   -0.73071E-04  9120   0.233E-01    0.318E-02
DAV:   4    -0.192158623894E+03    0.18003E-05   -0.55254E-05  5600   0.403E-02
  71 F= -.19215862E+03 E0= -.19208508E+03  d E =0.889812E-03
       N       E                     dE             d eps       ncg     rms          rms(c)
DAV:   1    -0.192160058268E+03   -0.14326E-02   -0.77301E-02  8160   0.642E-01    0.160E-01
DAV:   2    -0.192160645111E+03   -0.58684E-03   -0.50557E-03 11560   0.462E-01    0.326E-01
DAV:   3    -0.192159472025E+03    0.11731E-02   -0.24167E-03 11280   0.428E-01    0.110E-01
DAV:   4    -0.192159487123E+03   -0.15098E-04   -0.86277E-04 10040   0.225E-01
  72 F= -.19215949E+03 E0= -.19208577E+03  d E =-.863229E-03
       N       E                     dE             d eps       ncg     rms          rms(c)
DAV:   1    -0.192158556634E+03    0.91539E-03   -0.21549E-02  8160   0.391E-01    0.991E-02
DAV:   2    -0.192160096125E+03   -0.15395E-02   -0.36833E-03 12040   0.464E-01    0.361E-01
DAV:   3    -0.192158490295E+03    0.16058E-02   -0.19308E-03 10000   0.393E-01    0.517E-02
DAV:   4    -0.192158502767E+03   -0.12471E-04   -0.13347E-04  5640   0.953E-02
  73 F= -.19215850E+03 E0= -.19208448E+03  d E =0.984357E-03
       N       E                     dE             d eps       ncg     rms          rms(c)
DAV:   1    -0.192156013237E+03    0.24771E-02   -0.16780E-01  8160   0.870E-01    0.138E-01
DAV:   2    -0.192158308008E+03   -0.22948E-02   -0.83615E-03 12680   0.577E-01    0.444E-01
DAV:   3    -0.192156047479E+03    0.22605E-02   -0.33836E-03 11160   0.491E-01    0.691E-02
DAV:   4    -0.192156041746E+03    0.57324E-05   -0.26479E-04  7520   0.957E-02
  74 F= -.19215604E+03 E0= -.19208187E+03  d E =0.246102E-02
       N       E                     dE             d eps       ncg     rms          rms(c)
DAV:   1    -0.192160817746E+03   -0.47703E-02   -0.54870E-01  8160   0.159E+00    0.218E-01
DAV:   2    -0.192166205435E+03   -0.53877E-02   -0.26943E-02 12480   0.907E-01    0.640E-01
DAV:   3    -0.192161609692E+03    0.45957E-02   -0.85307E-03 11320   0.749E-01    0.124E-01
DAV:   4    -0.192161515836E+03    0.93856E-04   -0.69544E-04  9560   0.185E-01
  75 F= -.19216152E+03 E0= -.19208775E+03  d E =-.547409E-02
       N       E                     dE             d eps       ncg     rms          rms(c)
DAV:   1    -0.192163421150E+03   -0.18115E-02   -0.75694E-02  8160   0.640E-01    0.150E-01
DAV:   2    -0.192166249461E+03   -0.28283E-02   -0.63260E-03 13120   0.634E-01    0.514E-01
DAV:   3    -0.192163209564E+03    0.30399E-02   -0.35127E-03 11080   0.565E-01    0.740E-02
DAV:   4    -0.192163266846E+03   -0.57281E-04   -0.35120E-04  8480   0.124E-01
  76 F= -.19216327E+03 E0= -.19208979E+03  d E =-.175101E-02
       N       E                     dE             d eps       ncg     rms          rms(c)
DAV:   1    -0.192164572898E+03   -0.13633E-02   -0.66561E-02  8160   0.556E-01    0.758E-02
DAV:   2    -0.192165178113E+03   -0.60522E-03   -0.23732E-03 13000   0.284E-01    0.222E-01
DAV:   3    -0.192164637851E+03    0.54026E-03   -0.81818E-04  9760   0.259E-01    0.516E-02
DAV:   4    -0.192164624882E+03    0.12968E-04   -0.89867E-05  5520   0.615E-02
  77 F= -.19216462E+03 E0= -.19209100E+03  d E =-.135804E-02
       N       E                     dE             d eps       ncg     rms          rms(c)
DAV:   1    -0.192167879471E+03   -0.32416E-02   -0.26736E-01  8160   0.109E+00    0.121E-01
DAV:   2    -0.192169005546E+03   -0.11261E-02   -0.76119E-03 12360   0.373E-01    0.265E-01
DAV:   3    -0.192168298323E+03    0.70722E-03   -0.19034E-03 11480   0.356E-01    0.105E-01
DAV:   4    -0.192168234994E+03    0.63329E-04   -0.31527E-04  8200   0.125E-01
  78 F= -.19216823E+03 E0= -.19209447E+03  d E =-.361011E-02
       N       E                     dE             d eps       ncg     rms          rms(c)
DAV:   1    -0.192167340357E+03    0.95797E-03   -0.16222E-02  8160   0.293E-01    0.626E-02
DAV:   2    -0.192168070380E+03   -0.73002E-03   -0.14327E-03 11240   0.325E-01    0.241E-01
DAV:   3    -0.192167331460E+03    0.73892E-03   -0.70090E-04  9720   0.264E-01    0.276E-02
DAV:   4    -0.192167344856E+03   -0.13395E-04   -0.37098E-05  5520   0.498E-02
  79 F= -.19216734E+03 E0= -.19209368E+03  d E =0.890138E-03
       N       E                     dE             d eps       ncg     rms          rms(c)
DAV:   1    -0.192170151744E+03   -0.28203E-02   -0.21105E-01  8160   0.962E-01    0.949E-02
DAV:   2    -0.192170864347E+03   -0.71260E-03   -0.52706E-03 11680   0.299E-01    0.202E-01
DAV:   3    -0.192170487604E+03    0.37674E-03   -0.10412E-03 10800   0.275E-01    0.888E-02
DAV:   4    -0.192170410317E+03    0.77288E-04   -0.13094E-04  5480   0.872E-02
  80 F= -.19217041E+03 E0= -.19209667E+03  d E =-.306546E-02
       N       E                     dE             d eps       ncg     rms          rms(c)
DAV:   1    -0.192168996109E+03    0.14915E-02   -0.40274E-02  8160   0.435E-01    0.618E-02
DAV:   2    -0.192169540329E+03   -0.54422E-03   -0.17273E-03 12920   0.281E-01    0.191E-01
DAV:   3    -0.192169033271E+03    0.50706E-03   -0.55666E-04  9360   0.233E-01    0.222E-02
DAV:   4    -0.192169043669E+03   -0.10399E-04   -0.41420E-05  5440   0.404E-02
  81 F= -.19216904E+03 E0= -.19209525E+03  d E =0.136665E-02
       N       E                     dE             d eps       ncg     rms          rms(c)
DAV:   1    -0.192167133898E+03    0.18994E-02   -0.10989E-01  8160   0.719E-01    0.112E-01
DAV:   2    -0.192167259705E+03   -0.12581E-03   -0.35826E-03 11160   0.246E-01    0.156E-01
DAV:   3    -0.192167181152E+03    0.78553E-04   -0.11029E-03 10880   0.283E-01    0.143E-01
DAV:   4    -0.192166923788E+03    0.25736E-03   -0.37649E-04  8160   0.154E-01    0.403E-02
DAV:   5    -0.192166940268E+03   -0.16480E-04   -0.18651E-04  5600   0.896E-02
  82 F= -.19216694E+03 E0= -.19209306E+03  d E =0.210340E-02
       N       E                     dE             d eps       ncg     rms          rms(c)
DAV:   1    -0.192171608846E+03   -0.46851E-02   -0.56910E-01  8160   0.159E+00    0.168E-01
DAV:   2    -0.192173420436E+03   -0.18116E-02   -0.15626E-02 11880   0.526E-01    0.323E-01
DAV:   3    -0.192172559302E+03    0.86113E-03   -0.31566E-03 12240   0.471E-01    0.176E-01
DAV:   4    -0.192172203477E+03    0.35583E-03   -0.67335E-04  8960   0.178E-01    0.589E-02
DAV:   5    -0.192172182967E+03    0.20510E-04   -0.23732E-04  6280   0.743E-02
  83 F= -.19217218E+03 E0= -.19209837E+03  d E =-.524270E-02
       N       E                     dE             d eps       ncg     rms          rms(c)
DAV:   1    -0.192169582310E+03    0.26212E-02   -0.13274E-01  8160   0.769E-01    0.111E-01
DAV:   2    -0.192171386518E+03   -0.18042E-02   -0.55426E-03 12560   0.505E-01    0.363E-01
DAV:   3    -0.192169695481E+03    0.16910E-02   -0.19993E-03 10080   0.414E-01    0.571E-02
DAV:   4    -0.192169724280E+03   -0.28800E-04   -0.22446E-04  7480   0.113E-01
  84 F= -.19216972E+03 E0= -.19209592E+03  d E =0.245869E-02
       N       E                     dE             d eps       ncg     rms          rms(c)
DAV:   1    -0.192164992706E+03    0.47028E-02   -0.48370E-01  8160   0.148E+00    0.199E-01
DAV:   2    -0.192166346001E+03   -0.13533E-02   -0.14678E-02 11640   0.547E-01    0.349E-01
DAV:   3    -0.192165435328E+03    0.91067E-03   -0.38528E-03 12040   0.525E-01    0.210E-01
DAV:   4    -0.192164925672E+03    0.50966E-03   -0.10393E-03 10040   0.240E-01    0.916E-02
DAV:   5    -0.192164992026E+03   -0.66355E-04   -0.61802E-04  9680   0.203E-01
  85 F= -.19216499E+03 E0= -.19209097E+03  d E =0.473225E-02
       N       E                     dE             d eps       ncg     rms          rms(c)
DAV:   1    -0.192169363538E+03   -0.44379E-02   -0.56382E-01  8160   0.160E+00    0.169E-01
DAV:   2    -0.192171902214E+03   -0.25387E-02   -0.17355E-02 12320   0.578E-01    0.394E-01
DAV:   3    -0.192170362911E+03    0.15393E-02   -0.39863E-03 11880   0.522E-01    0.152E-01
DAV:   4    -0.192170116218E+03    0.24669E-03   -0.64097E-04  9440   0.157E-01    0.693E-02
DAV:   5    -0.192170118163E+03   -0.19443E-05   -0.29362E-04  8960   0.133E-01
  86 F= -.19217012E+03 E0= -.19209608E+03  d E =-.512614E-02
       N       E                     dE             d eps       ncg     rms          rms(c)
DAV:   1    -0.192167701556E+03    0.24147E-02   -0.10842E-01  8160   0.697E-01    0.914E-02
DAV:   2    -0.192168944298E+03   -0.12427E-02   -0.42548E-03 12680   0.396E-01    0.313E-01
DAV:   3    -0.192167818267E+03    0.11260E-02   -0.16134E-03 10280   0.354E-01    0.586E-02
DAV:   4    -0.192167792672E+03    0.25595E-04   -0.12091E-04  5640   0.729E-02
  87 F= -.19216779E+03 E0= -.19209399E+03  d E =0.232549E-02
       N       E                     dE             d eps       ncg     rms          rms(c)
DAV:   1    -0.192157119743E+03    0.10699E-01   -0.18858E+00  8160   0.288E+00    0.315E-01
DAV:   2    -0.192165504031E+03   -0.83843E-02   -0.50813E-02 11520   0.110E+00    0.768E-01
DAV:   3    -0.192159738379E+03    0.57657E-02   -0.12746E-02 12360   0.959E-01    0.253E-01
DAV:   4    -0.192159004991E+03    0.73339E-03   -0.16618E-03 11480   0.241E-01    0.106E-01
DAV:   5    -0.192158996801E+03    0.81894E-05   -0.10710E-03 11360   0.162E-01    0.109E-01
DAV:   6    -0.192159096339E+03   -0.99538E-04   -0.98877E-04 10840   0.249E-01
  88 F= -.19215910E+03 E0= -.19208554E+03  d E =0.869633E-02
       N       E                     dE             d eps       ncg     rms          rms(c)
DAV:   1    -0.192160223146E+03   -0.12263E-02   -0.61568E-02  8160   0.546E-01    0.579E-02
DAV:   2    -0.192160662021E+03   -0.43887E-03   -0.17843E-03 12240   0.237E-01    0.177E-01
DAV:   3    -0.192160287343E+03    0.37468E-03   -0.50606E-04  9000   0.205E-01    0.364E-02
DAV:   4    -0.192160287499E+03   -0.15638E-06   -0.63077E-05  5840   0.583E-02
  89 F= -.19216029E+03 E0= -.19208657E+03  d E =-.119116E-02
       N       E                     dE             d eps       ncg     rms          rms(c)
DAV:   1    -0.192170315642E+03   -0.10028E-01   -0.39512E+00  8160   0.417E+00    0.466E-01
DAV:   2    -0.192188047060E+03   -0.17731E-01   -0.11289E-01 11720   0.168E+00    0.109E+00
DAV:   3    -0.192175749750E+03    0.12297E-01   -0.24703E-02 12320   0.137E+00    0.371E-01
DAV:   4    -0.192174413118E+03    0.13366E-02   -0.39917E-03 11280   0.438E-01    0.219E-01
DAV:   5    -0.192174582540E+03   -0.16942E-03   -0.30475E-03 11360   0.462E-01    0.262E-01
DAV:   6    -0.192174000965E+03    0.58157E-03   -0.20097E-03 11920   0.362E-01    0.127E-01
DAV:   7    -0.192173934518E+03    0.66448E-04   -0.76096E-04 10200   0.225E-01
  90 F= -.19217393E+03 E0= -.19209998E+03  d E =-.136470E-01
       N       E                     dE             d eps       ncg     rms          rms(c)
DAV:   1    -0.192170873720E+03    0.31272E-02   -0.22380E-01  8160   0.994E-01    0.113E-01
DAV:   2    -0.192172451714E+03   -0.15780E-02   -0.71661E-03 13080   0.520E-01    0.345E-01
DAV:   3    -0.192171095171E+03    0.13565E-02   -0.21589E-03 11520   0.398E-01    0.621E-02
DAV:   4    -0.192171061630E+03    0.33540E-04   -0.12535E-04  5880   0.772E-02
  91 F= -.19217106E+03 E0= -.19209725E+03  d E =0.287289E-02
       N       E                     dE             d eps       ncg     rms          rms(c)
DAV:   1    -0.192174675090E+03   -0.35799E-02   -0.35899E-01  8160   0.126E+00    0.139E-01
DAV:   2    -0.192177082767E+03   -0.24077E-02   -0.11262E-02 12280   0.600E-01    0.407E-01
DAV:   3    -0.192175127104E+03    0.19557E-02   -0.31966E-03 10840   0.488E-01    0.817E-02
DAV:   4    -0.192175147974E+03   -0.20870E-04   -0.32903E-04  8280   0.148E-01
  92 F= -.19217515E+03 E0= -.19210129E+03  d E =-.408634E-02
       N       E                     dE             d eps       ncg     rms          rms(c)
DAV:   1    -0.192175342484E+03   -0.21538E-03   -0.16660E-03  8400   0.145E-01    0.456E-02
DAV:   2    -0.192175564367E+03   -0.22188E-03   -0.43115E-04  9760   0.187E-01    0.135E-01
DAV:   3    -0.192175321101E+03    0.24327E-03   -0.26430E-04  8720   0.160E-01    0.238E-02
DAV:   4    -0.192175333031E+03   -0.11930E-04   -0.34083E-05  6040   0.487E-02
  93 F= -.19217533E+03 E0= -.19210131E+03  d E =-.185057E-03
       N       E                     dE             d eps       ncg     rms          rms(c)
DAV:   1    -0.192179235125E+03   -0.39140E-02   -0.41188E-01  8160   0.135E+00    0.138E-01
DAV:   2    -0.192180563673E+03   -0.13285E-02   -0.10501E-02 11880   0.407E-01    0.267E-01
DAV:   3    -0.192179917709E+03    0.64596E-03   -0.22159E-03 12240   0.391E-01    0.142E-01
DAV:   4    -0.192179724874E+03    0.19284E-03   -0.40148E-04  8160   0.146E-01    0.595E-02
DAV:   5    -0.192179750919E+03   -0.26045E-04   -0.28748E-04  8360   0.121E-01
  94 F= -.19217975E+03 E0= -.19210558E+03  d E =-.441789E-02
       N       E                     dE             d eps       ncg     rms          rms(c)
DAV:   1    -0.192181483368E+03   -0.17585E-02   -0.69255E-02  8160   0.566E-01    0.725E-02
DAV:   2    -0.192182013057E+03   -0.52969E-03   -0.21875E-03 13000   0.272E-01    0.204E-01
DAV:   3    -0.192181532826E+03    0.48023E-03   -0.81477E-04  8840   0.242E-01    0.424E-02
DAV:   4    -0.192181534442E+03   -0.16158E-05   -0.59160E-05  5520   0.449E-02
  95 F= -.19218153E+03 E0= -.19210714E+03  d E =-.178352E-02
       N       E                     dE             d eps       ncg     rms          rms(c)
DAV:   1    -0.192183820391E+03   -0.22876E-02   -0.12108E-01  8160   0.732E-01    0.890E-02
DAV:   2    -0.192184492761E+03   -0.67237E-03   -0.32996E-03 12480   0.313E-01    0.215E-01
DAV:   3    -0.192183919500E+03    0.57326E-03   -0.95752E-04 10600   0.280E-01    0.608E-02
DAV:   4    -0.192183923987E+03   -0.44865E-05   -0.14557E-04  5840   0.976E-02
  96 F= -.19218392E+03 E0= -.19210940E+03  d E =-.238954E-02
       N       E                     dE             d eps       ncg     rms          rms(c)
DAV:   1    -0.192184281956E+03   -0.36246E-03   -0.24450E-02  8160   0.348E-01    0.927E-02
DAV:   2    -0.192185495320E+03   -0.12134E-02   -0.28344E-03 11680   0.427E-01    0.339E-01
DAV:   3    -0.192184172804E+03    0.13225E-02   -0.14787E-03 10120   0.351E-01    0.449E-02
DAV:   4    -0.192184201283E+03   -0.28479E-04   -0.12308E-04  6880   0.982E-02
  97 F= -.19218420E+03 E0= -.19210963E+03  d E =-.277296E-03
       N       E                     dE             d eps       ncg     rms          rms(c)
DAV:   1    -0.192188087789E+03   -0.39150E-02   -0.37452E-01  8160   0.128E+00    0.130E-01
DAV:   2    -0.192189102064E+03   -0.10143E-02   -0.89463E-03 11920   0.364E-01    0.217E-01
DAV:   3    -0.192188688242E+03    0.41382E-03   -0.16093E-03 11920   0.350E-01    0.134E-01
DAV:   4    -0.192188572022E+03    0.11622E-03   -0.45615E-04  8240   0.170E-01    0.905E-02
DAV:   5    -0.192188529386E+03    0.42635E-04   -0.27130E-04  8080   0.146E-01
  98 F= -.19218853E+03 E0= -.19211356E+03  d E =-.432810E-02
       N       E                     dE             d eps       ncg     rms          rms(c)
DAV:   1    -0.192188064716E+03    0.50731E-03   -0.39754E-03  8160   0.156E-01    0.286E-02
DAV:   2    -0.192188160765E+03   -0.96049E-04   -0.27918E-04  8440   0.110E-01
  99 F= -.19218816E+03 E0= -.19211330E+03  d E =0.368622E-03
       N       E                     dE             d eps       ncg     rms          rms(c)
DAV:   1    -0.192187497988E+03    0.56673E-03   -0.82753E-03  8160   0.224E-01    0.338E-02
DAV:   2    -0.192187694264E+03   -0.19628E-03   -0.49601E-04  9080   0.155E-01    0.130E-01
DAV:   3    -0.192187496282E+03    0.19798E-03   -0.24883E-04  7800   0.141E-01    0.174E-02
DAV:   4    -0.192187502153E+03   -0.58709E-05   -0.20662E-05  5560   0.219E-02
 100 F= -.19218750E+03 E0= -.19211277E+03  d E =0.658612E-03
