unknown system                          
           1
     8.857448    5.107673    0.000000
    -8.854759    5.103046    0.000000
     0.000000    0.000000   30.000000
   V    Mo   W    S 
   3   3   3  18
Direct configuration=     1
   0.33333334  0.00000000  0.00000000
   0.33333334  0.33333334  0.00000000
   0.66666669  0.66666669  0.00000000
   0.00000000  0.00000000  0.00000000
   0.66666669  0.00000000  0.00000000
   1.00000000  0.33333334  0.00000000
   0.00000000  0.66666669  0.00000000
   0.33333334  0.66666669  0.00000000
   0.66666669  0.33333334  0.00000000
   0.11068511  0.22244981  0.95539999
   0.22244981  0.11068511  0.04460000
   0.11068511  0.55578315  0.95539999
   0.22244981  0.44401845  0.04460000
   0.11068511  0.88911647  0.95539999
   0.22244981  0.77735180  0.04460000
   0.44401845  0.22244981  0.95539999
   0.55578315  0.11068511  0.04460000
   0.44401845  0.55578315  0.95539999
   0.55578315  0.44401845  0.04460000
   0.44401845  0.88911647  0.95539999
   0.55578315  0.77735180  0.04460000
   0.77735180  0.22244981  0.95539999
   0.88911647  0.11068511  0.04460000
   0.77735180  0.55578315  0.95539999
   0.88911647  0.44401845  0.04460000
   0.77735180  0.88911647  0.95539999
   0.88911647  0.77735180  0.04460000
unknown system                          
           1
     8.669403    5.001497    0.000000
    -8.666950    4.997277    0.000000
     0.000000    0.000000   30.000000
   V    Mo   W    S 
   3   3   3  18
Direct configuration=     2
   0.33327115  0.00032966  0.00015136
   0.33137929  0.33216621  0.00006704
   0.66745078  0.66857816 -0.00011107
  -0.00120981  0.00161065 -0.00000436
   0.66950641  0.00131584 -0.00023065
   0.99860448  0.33048828 -0.00004367
  -0.00010120  0.66686597  0.00016050
   0.33379882  0.66654103 -0.00009257
   0.66737083  0.33183739  0.00010383
   0.11546638  0.22433373  0.95190414
   0.22664663  0.11296361  0.04688754
   0.11143577  0.55611013  0.95080442
   0.22493885  0.44290146  0.04798462
   0.11502067  0.89006328  0.95200002
   0.22386696  0.78150183  0.04817171
   0.44083278  0.22060178  0.95312941
   0.55126759  0.10976950  0.04805067
   0.44616109  0.55382339  0.95300908
   0.55374997  0.44609613  0.04686638
   0.44154054  0.89023832  0.95207580
   0.55685563  0.77480296  0.04796344
   0.77722800  0.22252261  0.95067387
   0.88890573  0.11109348  0.04933201
   0.77557388  0.55754863  0.95196515
   0.88850261  0.44491202  0.04926715
   0.77533693  0.88421741  0.95187878
   0.88481371  0.77498100  0.04803530
unknown system                          
           1
     8.487533    4.901370    0.000000
    -8.485692    4.898208    0.000000
     0.000000    0.000000   30.000000
   V    Mo   W    S 
   3   3   3  18
Direct configuration=     3
   0.33315180  0.00022634  0.00013203
   0.33081092  0.33188222  0.00012135
   0.66770763  0.66916517 -0.00008071
  -0.00182995  0.00212979 -0.00000758
   0.67075926  0.00212612 -0.00025111
   0.99774746  0.32945058 -0.00004502
  -0.00000016  0.66677760  0.00012777
   0.33365126  0.66654639 -0.00014066
   0.66802192  0.33148552  0.00016067
   0.11561499  0.22440663  0.95181618
   0.22670198  0.11304725  0.04685860
   0.11151174  0.55631738  0.95086587
   0.22508907  0.44309187  0.04796346
   0.11499920  0.88991303  0.95209157
   0.22383550  0.78138524  0.04816063
   0.44102061  0.22068111  0.95322188
   0.55129552  0.10991801  0.04803505
   0.44606909  0.55392000  0.95308320
   0.55385384  0.44598538  0.04667594
   0.44140446  0.89004653  0.95213838
   0.55666098  0.77466097  0.04792719
   0.77710095  0.22263564  0.95052150
   0.88890159  0.11107445  0.04952998
   0.77562668  0.55744909  0.95203532
   0.88842984  0.44499863  0.04928813
   0.77525738  0.88409305  0.95176277
   0.88482090  0.77480045  0.04800751
unknown system                          
           1
     8.284251    4.788448    0.000000
    -8.278284    4.778138    0.000000
     0.000000    0.000000   30.000000
   V    Mo   W    S 
   3   3   3  18
Direct configuration=     4
   0.33247085 -0.00078231  0.00000017
   0.32872508  0.33101461  0.00029187
   0.66882724  0.67141952  0.00008383
  -0.00447642  0.00383762 -0.00003207
   0.67572706  0.00558896 -0.00022508
   0.99397525  0.32564339 -0.00003338
   0.00058407  0.66611298 -0.00004907
   0.33255974  0.66671336 -0.00025061
   0.67119651  0.33047606  0.00031705
   0.11688714  0.22503548  0.95003572
   0.22743516  0.11359803  0.04805626
   0.11131851  0.55612700  0.94950786
   0.22545247  0.44263686  0.04930414
   0.11590023  0.89062869  0.95103829
   0.22447705  0.78241388  0.04964736
   0.44033974  0.22034605  0.95226609
   0.55033889  0.10911898  0.04943215
   0.44655008  0.55337789  0.95200814
   0.55352427  0.44631782  0.04724492
   0.44118122  0.89065021  0.95096998
   0.55710549  0.77436330  0.04918870
   0.77704943  0.22265857  0.94825410
   0.88884940  0.11098031  0.05190909
   0.77499860  0.55766424  0.95084866
   0.88869124  0.44496536  0.05101507
   0.77468270  0.88294904  0.94984003
   0.88384347  0.77435854  0.04933066
unknown system                          
           1
     8.288672    4.797678    0.000000
    -8.276643    4.776866    0.000000
     0.000000    0.000000   30.000000
   V    Mo   W    S 
   3   3   3  18
Direct configuration=     5
   0.33061222 -0.00345280 -0.00026152
   0.32510360  0.32968943  0.00045797
   0.67082197  0.67577932  0.00039014
  -0.00945223  0.00688222 -0.00013715
   0.68501830  0.01225778 -0.00008588
   0.98647413  0.31889527 -0.00000723
   0.00208031  0.66460502 -0.00028136
   0.33021226  0.66723306 -0.00030490
   0.67743435  0.32849773  0.00044222
   0.11734785  0.22531226  0.94762014
   0.22713569  0.11375616  0.04975970
   0.11058944  0.55446954  0.94771547
   0.22479017  0.44173618  0.05095746
   0.11608003  0.89190865  0.94979452
   0.22506675  0.78368950  0.05177509
   0.44021811  0.22023795  0.95120533
   0.55012536  0.10808979  0.05120152
   0.44701869  0.55267207  0.95058284
   0.55355331  0.44639275  0.04779463
   0.44233775  0.89186591  0.94958077
   0.55785641  0.77510030  0.05061044
   0.77730739  0.22213557  0.94488745
   0.88889250  0.11100210  0.05540196
   0.77415160  0.55747403  0.94944919
   0.88964549  0.44465639  0.05346672
   0.77439969  0.88257398  0.94704278
   0.88339332  0.77475430  0.05094161
unknown system                          
           1
     8.286365    4.795088    0.000000
    -8.273797    4.773349    0.000000
     0.000000    0.000000   30.000000
   V    Mo   W    S 
   3   3   3  18
Direct configuration=     6
   0.32937660 -0.00475922 -0.00023662
   0.32385995  0.32928058  0.00046137
   0.67132280  0.67747284  0.00034961
  -0.00990194  0.00728221 -0.00007822
   0.68552506  0.01245112 -0.00012762
   0.98617410  0.31931226  0.00007418
   0.00300074  0.66368869 -0.00023803
   0.32906956  0.66721894 -0.00031813
   0.67907189  0.32815864  0.00033877
   0.11638181  0.22508796  0.94750846
   0.22623607  0.11323854  0.04972913
   0.11015019  0.55331842  0.94760803
   0.22383209  0.44156874  0.05090862
   0.11502809  0.89202111  0.94989908
   0.22484499  0.78365317  0.05198178
   0.44089512  0.22047879  0.95142718
   0.55102364  0.10808449  0.05113623
   0.44690580  0.55281012  0.95065434
   0.55420385  0.44601565  0.04747655
   0.44358239  0.89223823  0.94974474
   0.55796442  0.77619846  0.05048712
   0.77736267  0.22172569  0.94451479
   0.88919371  0.11130961  0.05576519
   0.77422470  0.55709408  0.94957586
   0.89020857  0.44454156  0.05371945
   0.77450320  0.88327410  0.94683958
   0.88417440  0.77544967  0.05079848
unknown system                          
           1
     8.288470    4.796334    0.000000
    -8.275730    4.774298    0.000000
     0.000000    0.000000   30.000000
   V    Mo   W    S 
   3   3   3  18
Direct configuration=     7
   0.32805325 -0.00601751 -0.00027066
   0.32233977  0.32872216  0.00044564
   0.67171413  0.67939908  0.00035931
  -0.01057040  0.00811538 -0.00002442
   0.68693045  0.01308229 -0.00006500
   0.98551987  0.31938284  0.00010759
   0.00406795  0.66244812 -0.00023873
   0.32774426  0.66706393 -0.00036230
   0.68093792  0.32779915  0.00029846
   0.11580630  0.22497539  0.94738896
   0.22567870  0.11289509  0.04973415
   0.10998065  0.55263743  0.94740198
   0.22333873  0.44154800  0.05095761
   0.11429685  0.89194971  0.95001572
   0.22469904  0.78363171  0.05224235
   0.44134048  0.22057129  0.95168535
   0.55154195  0.10806194  0.05107099
   0.44681387  0.55290447  0.95073473
   0.55465137  0.44579192  0.04708739
   0.44424430  0.89244549  0.94988002
   0.55787711  0.77684511  0.05040907
   0.77756311  0.22143310  0.94418772
   0.88931137  0.11154004  0.05600497
   0.77443299  0.55691627  0.94969374
   0.89052909  0.44453206  0.05401349
   0.77466344  0.88369804  0.94659132
   0.88470788  0.77584196  0.05065043
unknown system                          
           1
     8.273993    4.789745    0.000000
    -8.262217    4.769367    0.000000
     0.000000    0.000000   30.000000
   V    Mo   W    S 
   3   3   3  18
Direct configuration=     8
   0.32798566 -0.00605816 -0.00027169
   0.32228087  0.32870483  0.00044563
   0.67170248  0.67948919  0.00035925
  -0.01056096  0.00812943 -0.00002310
   0.68690588  0.01301106 -0.00007023
   0.98560351  0.31950602  0.00010891
   0.00412608  0.66236374 -0.00023597
   0.32768262  0.66703378 -0.00036401
   0.68097281  0.32781980  0.00029675
   0.11578802  0.22497153  0.94740628
   0.22567192  0.11288401  0.04971704
   0.10999032  0.55264028  0.94740062
   0.22335234  0.44156886  0.05094724
   0.11425924  0.89190931  0.95003974
   0.22468997  0.78361033  0.05223227
   0.44135528  0.22057090  0.95171523
   0.55155161  0.10807144  0.05104557
   0.44680911  0.55291883  0.95075674
   0.55467023  0.44579503  0.04705056
   0.44423723  0.89243256  0.94990672
   0.55785755  0.77684747  0.05039024
   0.77756840  0.22141989  0.94421270
   0.88932614  0.11156574  0.05598007
   0.77445528  0.55691675  0.94972090
   0.89052856  0.44454503  0.05400492
   0.77467337  0.88370719  0.94661162
   0.88473092  0.77583959  0.05061591
unknown system                          
           1
     8.281732    4.795361    0.000000
    -8.267152    4.770135    0.000000
     0.000000    0.000000   30.000000
   V    Mo   W    S 
   3   3   3  18
Direct configuration=     9
   0.32851257 -0.00579785 -0.00025738
   0.32311804  0.32910764  0.00044690
   0.67209053  0.67934967  0.00035557
  -0.01109898  0.00718580 -0.00004004
   0.68668185  0.01268876 -0.00008454
   0.98528578  0.31900827  0.00011061
   0.00342774  0.66309116 -0.00025582
   0.32856867  0.66741739 -0.00034973
   0.68059349  0.32794382  0.00029963
   0.11576128  0.22494791  0.94732861
   0.22568371  0.11285187  0.04979804
   0.10987571  0.55259033  0.94747469
   0.22314100  0.44148848  0.05098804
   0.11447560  0.89216800  0.94991557
   0.22470761  0.78372886  0.05225345
   0.44127544  0.22047882  0.95152637
   0.55147936  0.10804961  0.05118860
   0.44706027  0.55301232  0.95068458
   0.55478237  0.44603454  0.04722957
   0.44427415  0.89249791  0.94976682
   0.55812824  0.77674039  0.05041121
   0.77749833  0.22148900  0.94410327
   0.88926071  0.11141259  0.05610584
   0.77422297  0.55698064  0.94961510
   0.89057634  0.44449057  0.05401081
   0.77448196  0.88346789  0.94660749
   0.88434970  0.77579006  0.05076665
unknown system                          
           1
     8.292829    4.799960    0.000000
    -8.276174    4.771157    0.000000
     0.000000    0.000000   30.000000
   V    Mo   W    S 
   3   3   3  18
Direct configuration=    10
   0.32726467 -0.00694232 -0.00028458
   0.32176439  0.32865994  0.00045713
   0.67246932  0.68132248  0.00036550
  -0.01177752  0.00774568 -0.00000700
   0.68773039  0.01286754 -0.00009607
   0.98501891  0.31943880  0.00014323
   0.00439574  0.66186289 -0.00025160
   0.32739644  0.66724319 -0.00038485
   0.68222002  0.32778096  0.00026868
   0.11532072  0.22485592  0.94719333
   0.22529556  0.11258319  0.04981775
   0.10975584  0.55207232  0.94723085
   0.22285891  0.44152738  0.05107267
   0.11384627  0.89200347  0.95001384
   0.22460875  0.78369330  0.05249146
   0.44159417  0.22050042  0.95175020
   0.55182426  0.10801412  0.05113901
   0.44707208  0.55312641  0.95074960
   0.55520146  0.44599469  0.04684610
   0.44471955  0.89265350  0.94988270
   0.55807145  0.77718894  0.05037708
   0.77762472  0.22116869  0.94382590
   0.88944755  0.11170785  0.05636311
   0.77436106  0.55687802  0.94972759
   0.89085758  0.44455623  0.05430650
   0.77455891  0.88368580  0.94637937
   0.88471324  0.77602503  0.05062240
unknown system                          
           1
     8.292301    4.799578    0.000000
    -8.275113    4.769855    0.000000
     0.000000    0.000000   30.000000
   V    Mo   W    S 
   3   3   3  18
Direct configuration=    11
   0.32617914 -0.00779218 -0.00029017
   0.32035544  0.32808811  0.00046416
   0.67248360  0.68257655  0.00034790
  -0.01173498  0.00875910  0.00004250
   0.68842821  0.01318864 -0.00005408
   0.98512888  0.31999703  0.00015146
   0.00541656  0.66069823 -0.00023699
   0.32612454  0.66689270 -0.00042711
   0.68338807  0.32757392  0.00025917
   0.11509110  0.22476200  0.94723155
   0.22505848  0.11245530  0.04972680
   0.10982669  0.55189990  0.94709440
   0.22290707  0.44164566  0.05106581
   0.11336592  0.89170562  0.95016323
   0.22451200  0.78355038  0.05257345
   0.44182812  0.22056254  0.95203097
   0.55210471  0.10804698  0.05096412
   0.44692812  0.55314603  0.95085428
   0.55537790  0.44585874  0.04648747
   0.44489323  0.89268418  0.95004346
   0.55782959  0.77750546  0.05037148
   0.77772508  0.22091884  0.94380615
   0.88956105  0.11195176  0.05634739
   0.77460080  0.55678368  0.94987076
   0.89095453  0.44467621  0.05443549
   0.77472170  0.88392015  0.94620862
   0.88515891  0.77615893  0.05046764
unknown system                          
           1
     8.290980    4.800659    0.000000
    -8.278477    4.779014    0.000000
     0.000000    0.000000   30.000000
   V    Mo   W    S 
   3   3   3  18
Direct configuration=    12
   0.32579946 -0.00811244 -0.00029949
   0.31992562  0.32794042  0.00046692
   0.67254966  0.68314167  0.00035273
  -0.01189879  0.00897346  0.00005413
   0.68873094  0.01322241 -0.00004677
   0.98511850  0.32017434  0.00016001
   0.00573372  0.66030209 -0.00023495
   0.32574999  0.66680365 -0.00044093
   0.68383200  0.32753954  0.00025453
   0.11499103  0.22473703  0.94720740
   0.22496574  0.11239043  0.04972101
   0.10982383  0.55179969  0.94702750
   0.22288006  0.44167743  0.05108568
   0.11319245  0.89162271  0.95020659
   0.22448348  0.78351565  0.05262376
   0.44191411  0.22056857  0.95211201
   0.55219448  0.10804759  0.05092700
   0.44692392  0.55317811  0.95088490
   0.55547815  0.44585448  0.04636399
   0.44497595  0.89270672  0.95009267
   0.55779289  0.77760838  0.05035511
   0.77776284  0.22084026  0.94375745
   0.88960893  0.11204291  0.05638618
   0.77465812  0.55675819  0.94992030
   0.89100801  0.44470113  0.05450350
   0.77475712  0.88397448  0.94615397
   0.88526224  0.77620557  0.05040468
unknown system                          
           1
     8.291719    4.803227    0.000000
    -8.281110    4.784836    0.000000
     0.000000    0.000000   30.000000
   V    Mo   W    S 
   3   3   3  18
Direct configuration=    13
   0.32781728 -0.00632773 -0.00027646
   0.32230130  0.32872309  0.00046671
   0.67242088  0.68073733  0.00037988
  -0.01153170  0.00754758  0.00000140
   0.68743641  0.01292003 -0.00006805
   0.98457323  0.31887756  0.00015244
   0.00383904  0.66227943 -0.00028172
   0.32814378  0.66752407 -0.00036128
   0.68173370  0.32756442  0.00029357
   0.11536668  0.22479714  0.94743946
   0.22540003  0.11266691  0.04964288
   0.10984865  0.55238313  0.94746663
   0.22295569  0.44157490  0.05085524
   0.11411460  0.89212764  0.95012064
   0.22459690  0.78368344  0.05229117
   0.44157749  0.22048406  0.95179622
   0.55193778  0.10822200  0.05100179
   0.44697542  0.55315652  0.95085472
   0.55520647  0.44594729  0.04683015
   0.44452796  0.89251373  0.94996060
   0.55806861  0.77706594  0.05027059
   0.77748124  0.22126626  0.94405618
   0.88930690  0.11147864  0.05609428
   0.77430464  0.55676131  0.94978807
   0.89059144  0.44447463  0.05407780
   0.77456874  0.88368759  0.94654097
   0.88465128  0.77607754  0.05060603
unknown system                          
           1
     8.287334    4.800787    0.000000
    -8.274519    4.778587    0.000000
     0.000000    0.000000   30.000000
   V    Mo   W    S 
   3   3   3  18
Direct configuration=    14
   0.33052442 -0.00410232 -0.00016222
   0.32567854  0.32964237  0.00048590
   0.67255295  0.67735278  0.00031410
  -0.01094986  0.00575329 -0.00007634
   0.68577232  0.01291423 -0.00012657
   0.98328484  0.31666372  0.00009088
   0.00129094  0.66525823 -0.00035166
   0.33146627  0.66895219 -0.00027081
   0.67903916  0.32734790  0.00033932
   0.11565966  0.22479589  0.94778726
   0.22591277  0.11296630  0.04953001
   0.10977762  0.55301094  0.94825784
   0.22271732  0.44133864  0.05047800
   0.11540758  0.89295274  0.94993907
   0.22467917  0.78404996  0.05179325
   0.44112721  0.22033263  0.95127589
   0.55165182  0.10835304  0.05117373
   0.44712925  0.55314804  0.95077100
   0.55499220  0.44610475  0.04752508
   0.44408446  0.89238803  0.94967984
   0.55849654  0.77655283  0.05030902
   0.77704160  0.22162698  0.94432561
   0.88886517  0.11060851  0.05585528
   0.77368708  0.55673227  0.94952880
   0.89021544  0.44428469  0.05353413
   0.77422009  0.88322225  0.94690355
   0.88388989  0.77596356  0.05108995
unknown system                          
           1
     8.290130    4.805054    0.000000
    -8.278855    4.785497    0.000000
     0.000000    0.000000   30.000000
   V    Mo   W    S 
   3   3   3  18
Direct configuration=    15
   0.33051621 -0.00445844 -0.00015872
   0.32582669  0.32947759  0.00052394
   0.67320347  0.67738241  0.00024310
  -0.01126450  0.00546797 -0.00006565
   0.68585643  0.01350686 -0.00013063
   0.98212098  0.31505646  0.00014772
   0.00085419  0.66645967 -0.00031411
   0.33240244  0.67006059 -0.00026121
   0.67938129  0.32699850  0.00030052
   0.11535526  0.22478785  0.94784784
   0.22573751  0.11288980  0.04950880
   0.10953675  0.55256174  0.94859290
   0.22220760  0.44128663  0.05022153
   0.11532311  0.89306672  0.94987926
   0.22445906  0.78413075  0.05178815
   0.44137691  0.22046434  0.95128785
   0.55189803  0.10826684  0.05126384
   0.44722244  0.55320879  0.95080938
   0.55524692  0.44592657  0.04746580
   0.44438596  0.89266099  0.94957988
   0.55859459  0.77683592  0.05040059
   0.77693727  0.22131445  0.94405848
   0.88875150  0.11048053  0.05598739
   0.77365459  0.55661020  0.94947806
   0.89053975  0.44451139  0.05348480
   0.77421380  0.88340156  0.94676226
   0.88387619  0.77585774  0.05129813
unknown system                          
           1
     8.288974    4.803711    0.000000
    -8.276214    4.781596    0.000000
     0.000000    0.000000   30.000000
   V    Mo   W    S 
   3   3   3  18
Direct configuration=    16
   0.33158975 -0.00404271 -0.00009924
   0.32726603  0.32963095  0.00056928
   0.67396961  0.67601636  0.00015721
  -0.01129779  0.00413016 -0.00007827
   0.68495845  0.01385377 -0.00016029
   0.98035314  0.31229155  0.00012393
  -0.00074051  0.66932250 -0.00034725
   0.33523197  0.67216946 -0.00023305
   0.67860371  0.32650844  0.00028555
   0.11523547  0.22477963  0.94800287
   0.22581852  0.11289484  0.04947136
   0.10926694  0.55243854  0.94931969
   0.22160130  0.44114045  0.04983936
   0.11591114  0.89370787  0.94966406
   0.22440611  0.78449975  0.05163425
   0.44136378  0.22047791  0.95105264
   0.55193113  0.10826494  0.05143645
   0.44744848  0.55334060  0.95081089
   0.55540969  0.44583019  0.04770894
   0.44441519  0.89295339  0.94928858
   0.55894218  0.77676217  0.05050634
   0.77672642  0.22126532  0.94392674
   0.88835249  0.10978869  0.05606524
   0.77335620  0.55654562  0.94927340
   0.89068805  0.44454661  0.05319280
   0.77403839  0.88337392  0.94681015
   0.88336861  0.77572355  0.05177828
unknown system                          
           1
     8.290732    4.805587    0.000000
    -8.277766    4.783112    0.000000
     0.000000    0.000000   30.000000
   V    Mo   W    S 
   3   3   3  18
Direct configuration=    17
   0.33010056 -0.00548043 -0.00012526
   0.32532460  0.32896221  0.00059702
   0.67417940  0.67782334  0.00014201
  -0.01169575  0.00468653 -0.00003815
   0.68562579  0.01399205 -0.00014941
   0.98045069  0.31241461  0.00013455
   0.00027610  0.66879021 -0.00032817
   0.33464715  0.67237593 -0.00030784
   0.68018123  0.32632824  0.00027059
   0.11496877  0.22468119  0.94785467
   0.22553572  0.11268302  0.04948768
   0.10923066  0.55205642  0.94921831
   0.22154106  0.44132548  0.04988638
   0.11529183  0.89340782  0.94971211
   0.22435569  0.78441770  0.05184191
   0.44164017  0.22054067  0.95135985
   0.55210134  0.10825653  0.05132804
   0.44747835  0.55348289  0.95091285
   0.55564962  0.44571737  0.04726413
   0.44463598  0.89311840  0.94937262
   0.55876632  0.77700324  0.05052764
   0.77694900  0.22098647  0.94375146
   0.88841568  0.10998765  0.05623301
   0.77369489  0.55656027  0.94941793
   0.89102296  0.44469812  0.05335291
   0.77419139  0.88363602  0.94664795
   0.88365524  0.77576251  0.05163510
unknown system                          
           1
     8.289454    4.804123    0.000000
    -8.276877    4.782321    0.000000
     0.000000    0.000000   30.000000
   V    Mo   W    S 
   3   3   3  18
Direct configuration=    18
   0.32950577 -0.00616009 -0.00012488
   0.32449766  0.32857727  0.00062665
   0.67450452  0.67852585  0.00012022
  -0.01182231  0.00458465 -0.00000541
   0.68566215  0.01396091 -0.00013574
   0.98009235  0.31174104  0.00015682
   0.00039129  0.66932390 -0.00032843
   0.33521721  0.67313171 -0.00033824
   0.68078889  0.32614723  0.00025965
   0.11482623  0.22460652  0.94780203
   0.22540736  0.11257151  0.04949515
   0.10919200  0.55187396  0.94936559
   0.22136584  0.44141099  0.04981854
   0.11517484  0.89346244  0.94966172
   0.22434535  0.78445153  0.05191252
   0.44176297  0.22057059  0.95147123
   0.55217625  0.10826471  0.05130173
   0.44755525  0.55359886  0.95097035
   0.55581229  0.44564674  0.04706108
   0.44471963  0.89330786  0.94932033
   0.55879216  0.77707586  0.05057429
   0.77702286  0.22084280  0.94364002
   0.88833273  0.10988335  0.05631175
   0.77376510  0.55654624  0.94945407
   0.89126712  0.44475376  0.05334750
   0.77422628  0.88375400  0.94657428
   0.88363264  0.77576026  0.05168707
unknown system                          
           1
     8.286544    4.801976    0.000000
    -8.274553    4.781187    0.000000
     0.000000    0.000000   30.000000
   V    Mo   W    S 
   3   3   3  18
Direct configuration=    19
   0.33044681 -0.00520999 -0.00011892
   0.32587790  0.32917514  0.00059156
   0.67412795  0.67740581  0.00015064
  -0.01176563  0.00464753 -0.00003817
   0.68564501  0.01413270 -0.00014141
   0.98041744  0.31242001  0.00014519
   0.00015184  0.66879344 -0.00032205
   0.33451883  0.67218920 -0.00027985
   0.67989245  0.32633353  0.00026986
   0.11500503  0.22472234  0.94788097
   0.22558958  0.11272111  0.04947258
   0.10918036  0.55206998  0.94918673
   0.22154352  0.44125409  0.04988179
   0.11535314  0.89345077  0.94971891
   0.22434335  0.78444270  0.05181941
   0.44160060  0.22052153  0.95128728
   0.55208429  0.10824186  0.05136719
   0.44746965  0.55342902  0.95087826
   0.55562121  0.44572715  0.04738389
   0.44464884  0.89308027  0.94937041
   0.55878805  0.77701155  0.05050232
   0.77688940  0.22104453  0.94374400
   0.88842270  0.11000531  0.05621387
   0.77364874  0.55654224  0.94937372
   0.89093330  0.44469264  0.05334471
   0.77414782  0.88360704  0.94666978
   0.88363228  0.77576292  0.05164725
unknown system                          
           1
     8.286426    4.801882    0.000000
    -8.274540    4.781275    0.000000
     0.000000    0.000000   30.000000
   V    Mo   W    S 
   3   3   3  18
Direct configuration=    20
   0.33182911 -0.00395181 -0.00013085
   0.32819877  0.33034826  0.00052452
   0.67357253  0.67583761  0.00020962
  -0.01214516  0.00511696 -0.00009886
   0.68619154  0.01476378 -0.00017553
   0.98098047  0.31381391  0.00008994
   0.00017074  0.66733755 -0.00032321
   0.33235425  0.67006474 -0.00019135
   0.67889469  0.32663912  0.00024616
   0.11518543  0.22492961  0.94803324
   0.22579174  0.11295232  0.04938886
   0.10904874  0.55217285  0.94874658
   0.22180380  0.44092692  0.05001389
   0.11530166  0.89336581  0.94989442
   0.22425074  0.78433456  0.05178297
   0.44144549  0.22045957  0.95103436
   0.55206402  0.10820151  0.05150506
   0.44729168  0.55311456  0.95075112
   0.55545427  0.44581384  0.04786168
   0.44476778  0.89266723  0.94952628
   0.55871068  0.77709658  0.05027829
   0.77674683  0.22133056  0.94383813
   0.88863496  0.11040423  0.05617377
   0.77356314  0.55650446  0.94926932
   0.89039598  0.44464374  0.05344644
   0.77397867  0.88349899  0.94680873
   0.88373190  0.77582700  0.05149630
unknown system                          
           1
     8.288905    4.803501    0.000000
    -8.276960    4.782791    0.000000
     0.000000    0.000000   30.000000
   V    Mo   W    S 
   3   3   3  18
Direct configuration=    21
   0.33185326 -0.00389945 -0.00012939
   0.32818915  0.33033457  0.00052425
   0.67356166  0.67580349  0.00020685
  -0.01210663  0.00508158 -0.00010340
   0.68614176  0.01472752 -0.00017940
   0.98097306  0.31375457  0.00008595
   0.00010130  0.66741138 -0.00032376
   0.33249852  0.67012044 -0.00019241
   0.67885200  0.32663420  0.00024654
   0.11519874  0.22493010  0.94803640
   0.22580600  0.11296442  0.04939417
   0.10905582  0.55219287  0.94876472
   0.22180854  0.44092931  0.05000937
   0.11533153  0.89337273  0.94988377
   0.22425547  0.78433798  0.05177251
   0.44142947  0.22046349  0.95102543
   0.55204656  0.10819636  0.05150918
   0.44729459  0.55310795  0.95074822
   0.55543209  0.44581787  0.04787193
   0.44475545  0.89267211  0.94951771
   0.55872444  0.77708031  0.05029098
   0.77673821  0.22133584  0.94384934
   0.88862728  0.11037885  0.05616484
   0.77354994  0.55651017  0.94926619
   0.89039395  0.44464558  0.05343610
   0.77398542  0.88349182  0.94681725
   0.88371689  0.77581840  0.05150656
unknown system                          
           1
     8.287538    4.803087    0.000000
    -8.274261    4.780078    0.000000
     0.000000    0.000000   30.000000
   V    Mo   W    S 
   3   3   3  18
Direct configuration=    22
   0.33203407 -0.00372258 -0.00013167
   0.32851243  0.33051048  0.00051401
   0.67354028  0.67567863  0.00021772
  -0.01220501  0.00513595 -0.00011140
   0.68624206  0.01477096 -0.00018553
   0.98108888  0.31400858  0.00008038
   0.00009582  0.66714160 -0.00032225
   0.33212577  0.66976429 -0.00017934
   0.67871728  0.32669765  0.00024056
   0.11523224  0.22495329  0.94806265
   0.22583570  0.11299784  0.04937869
   0.10904140  0.55220036  0.94869448
   0.22185369  0.44088143  0.05002778
   0.11532344  0.89336998  0.94991042
   0.22424750  0.78433131  0.05176989
   0.44140290  0.22044905  0.95100007
   0.55203927  0.10819069  0.05152265
   0.44728631  0.55307431  0.95074258
   0.55541806  0.44584959  0.04791756
   0.44477105  0.89262690  0.94953790
   0.55872706  0.77707894  0.05025120
   0.77671642  0.22136339  0.94386523
   0.88865392  0.11043161  0.05615970
   0.77352619  0.55651839  0.94925785
   0.89032693  0.44463892  0.05345588
   0.77395442  0.88345104  0.94684352
   0.88370639  0.77582185  0.05147936
unknown system                          
           1
     8.290409    4.804982    0.000000
    -8.276570    4.781003    0.000000
     0.000000    0.000000   30.000000
   V    Mo   W    S 
   3   3   3  18
Direct configuration=    23
   0.33074481 -0.00526545 -0.00014495
   0.32694664  0.32984681  0.00056225
   0.67396346  0.67711178  0.00020547
  -0.01239943  0.00532711 -0.00002213
   0.68652293  0.01486716 -0.00012404
   0.98074318  0.31367722  0.00014915
   0.00097784  0.66728022 -0.00032080
   0.33191469  0.67058464 -0.00023445
   0.68002423  0.32650561  0.00024623
   0.11491960  0.22481629  0.94791526
   0.22550916  0.11269886  0.04937720
   0.10902683  0.55186652  0.94877344
   0.22160582  0.44107436  0.04999790
   0.11493814  0.89331171  0.94992099
   0.22423110  0.78432484  0.05193863
   0.44172214  0.22046755  0.95127526
   0.55228177  0.10827008  0.05139660
   0.44733990  0.55333642  0.95084956
   0.55579394  0.44570249  0.04748505
   0.44488610  0.89283479  0.94954597
   0.55858977  0.77726956  0.05025988
   0.77693643  0.22111211  0.94365499
   0.88861608  0.11049013  0.05631423
   0.77377891  0.55645413  0.94936584
   0.89071719  0.44466775  0.05352117
   0.77400962  0.88368552  0.94663536
   0.88387361  0.77589624  0.05145584
unknown system                          
           1
     8.291872    4.806056    0.000000
    -8.277589    4.781309    0.000000
     0.000000    0.000000   30.000000
   V    Mo   W    S 
   3   3   3  18
Direct configuration=    24
   0.33037684 -0.00568211 -0.00015732
   0.32655083  0.32970597  0.00055966
   0.67412607  0.67763575  0.00020409
  -0.01254047  0.00551081 -0.00001214
   0.68675474  0.01490120 -0.00012834
   0.98074489  0.31381391  0.00015403
   0.00134840  0.66701128 -0.00031796
   0.33142590  0.67052893 -0.00024556
   0.68042513  0.32648780  0.00022340
   0.11485309  0.22478047  0.94790236
   0.22542582  0.11262738  0.04936532
   0.10901535  0.55176990  0.94871254
   0.22160215  0.44111021  0.05001520
   0.11479440  0.89327675  0.94995556
   0.22421540  0.78430603  0.05200553
   0.44180751  0.22046286  0.95136300
   0.55234459  0.10828936  0.05135981
   0.44732883  0.55338950  0.95089429
   0.55590132  0.44568569  0.04736084
   0.44493289  0.89286752  0.94957352