       N       E                     dE             d eps       ncg     rms          rms(c)
DAV:   1     0.112621584336E+04    0.11262E+04   -0.35982E+04  8160   0.577E+02
DAV:   2    -0.342567690756E+01   -0.11296E+04   -0.10880E+04 11480   0.173E+02
DAV:   3    -0.199949278709E+03   -0.19652E+03   -0.18920E+03 10880   0.821E+01
DAV:   4    -0.209010548634E+03   -0.90613E+01   -0.88176E+01 12400   0.262E+01
DAV:   5    -0.209291423669E+03   -0.28088E+00   -0.27997E+00 11240   0.329E+00    0.275E+01
DAV:   6    -0.236985404586E+03   -0.27694E+02   -0.11077E+02 12520   0.603E+01    0.594E+01
DAV:   7    -0.196526244893E+03    0.40459E+02   -0.17637E+02 13520   0.152E+02    0.202E+01
DAV:   8    -0.189547738779E+03    0.69785E+01   -0.17403E+01 12080   0.128E+01    0.127E+01
DAV:   9    -0.188240690075E+03    0.13070E+01   -0.36064E+00 12560   0.611E+00    0.931E+00
DAV:  10    -0.187048897299E+03    0.11918E+01   -0.18826E+00 13440   0.762E+00    0.289E+00
DAV:  11    -0.187022643178E+03    0.26254E-01   -0.65334E-01 13560   0.283E+00    0.323E+00
DAV:  12    -0.187177516701E+03   -0.15487E+00   -0.11016E+00 12320   0.545E+00    0.492E+00
DAV:  13    -0.186927569832E+03    0.24995E+00   -0.48389E-01 12920   0.387E+00    0.214E+00
DAV:  14    -0.186878703605E+03    0.48866E-01   -0.10443E-01 13200   0.144E+00    0.818E-01
DAV:  15    -0.186879675279E+03   -0.97167E-03   -0.44325E-02 11760   0.125E+00    0.117E+00
DAV:  16    -0.186870771889E+03    0.89034E-02   -0.20991E-02 12920   0.828E-01    0.547E-01
DAV:  17    -0.186867505008E+03    0.32669E-02   -0.97915E-03 12600   0.519E-01    0.223E-01
DAV:  18    -0.186866956391E+03    0.54862E-03   -0.15548E-03 12520   0.173E-01    0.531E-02
DAV:  19    -0.186867474300E+03   -0.51791E-03   -0.75179E-04 10840   0.701E-02    0.921E-02
DAV:  20    -0.186867818004E+03   -0.34370E-03   -0.48558E-04  8680   0.606E-02    0.547E-02
DAV:  21    -0.186868670538E+03   -0.85253E-03   -0.24598E-04  7800   0.509E-02    0.315E-02
DAV:  22    -0.186869472549E+03   -0.80201E-03   -0.12809E-04  7360   0.357E-02    0.292E-02
DAV:  23    -0.186870700455E+03   -0.12279E-02   -0.13322E-04  7480   0.324E-02    0.728E-03
DAV:  24    -0.186871282893E+03   -0.58244E-03   -0.22764E-05  6720   0.124E-02    0.845E-03
DAV:  25    -0.186871718766E+03   -0.43587E-03   -0.17500E-05  5520   0.153E-02    0.540E-03
DAV:  26    -0.186871906775E+03   -0.18801E-03   -0.80793E-06  6840   0.765E-03    0.162E-03
DAV:  27    -0.186871994004E+03   -0.87229E-04   -0.37831E-06  7000   0.446E-03
   1 F= -.18687199E+03 E0= -.18669984E+03  d E =-.186872E+03
       N       E                     dE             d eps       ncg     rms          rms(c)
DAV:   1    -0.187510861909E+03   -0.63896E+00   -0.27186E+02  8160   0.350E+01    0.468E+00
DAV:   2    -0.189613157444E+03   -0.21023E+01   -0.20497E+01 12240   0.159E+01    0.106E+01
DAV:   3    -0.189328334392E+03    0.28482E+00   -0.54638E+00 12400   0.130E+01    0.606E+00
DAV:   4    -0.188796511568E+03    0.53182E+00   -0.56343E-01 11480   0.432E+00    0.240E+00
DAV:   5    -0.188888716404E+03   -0.92205E-01   -0.48201E-01 12440   0.397E+00    0.490E+00
DAV:   6    -0.188758494202E+03    0.13022E+00   -0.61724E-01 12680   0.388E+00    0.226E+00
DAV:   7    -0.188718209750E+03    0.40284E-01   -0.21258E-01 11400   0.186E+00    0.171E+00
DAV:   8    -0.188711257697E+03    0.69521E-02   -0.11097E-01 12920   0.201E+00    0.184E+00
DAV:   9    -0.188684237901E+03    0.27020E-01   -0.49212E-02 11560   0.124E+00    0.499E-01
DAV:  10    -0.188682400956E+03    0.18369E-02   -0.51907E-03 11040   0.276E-01    0.237E-01
DAV:  11    -0.188681906652E+03    0.49430E-03   -0.26080E-03 12680   0.214E-01    0.134E-01
DAV:  12    -0.188681951792E+03   -0.45140E-04   -0.94466E-04 11240   0.978E-02
   2 F= -.18868195E+03 E0= -.18854178E+03  d E =-.180996E+01
       N       E                     dE             d eps       ncg     rms          rms(c)
DAV:   1    -0.190609435152E+03   -0.19275E+01   -0.31299E+01  9240   0.142E+01    0.445E+00
DAV:   2    -0.190561630550E+03    0.47805E-01   -0.27971E+00 11280   0.950E+00    0.723E+00
DAV:   3    -0.190088513390E+03    0.47312E+00   -0.13277E+00 12320   0.863E+00    0.422E+00
DAV:   4    -0.189877690509E+03    0.21082E+00   -0.72729E-01 12800   0.425E+00    0.247E+00
DAV:   5    -0.189788037465E+03    0.89653E-01   -0.28540E-01 11880   0.191E+00    0.817E-01
DAV:   6    -0.189774443439E+03    0.13594E-01   -0.38799E-02 10560   0.713E-01    0.356E-01
DAV:   7    -0.189775255191E+03   -0.81175E-03   -0.89887E-03 12200   0.502E-01    0.399E-01
DAV:   8    -0.189774092446E+03    0.11627E-02   -0.26595E-03 11760   0.295E-01    0.133E-01
DAV:   9    -0.189774493557E+03   -0.40111E-03   -0.10618E-03 10760   0.144E-01    0.166E-01
DAV:  10    -0.189774571784E+03   -0.78227E-04   -0.12147E-03 11200   0.229E-01    0.199E-01
DAV:  11    -0.189774243030E+03    0.32875E-03   -0.63142E-04  9080   0.167E-01    0.458E-02
DAV:  12    -0.189774236861E+03    0.61696E-05   -0.91015E-05  6200   0.411E-02
   3 F= -.18977424E+03 E0= -.18965566E+03  d E =-.109229E+01
       N       E                     dE             d eps       ncg     rms          rms(c)
DAV:   1    -0.191332498354E+03   -0.15583E+01   -0.75638E+01  8160   0.198E+01    0.460E+00
DAV:   2    -0.191201138719E+03    0.13136E+00   -0.54242E+00 13200   0.806E+00    0.496E+00
DAV:   3    -0.191305095217E+03   -0.10396E+00   -0.16246E+00 11760   0.914E+00    0.713E+00
DAV:   4    -0.190975263222E+03    0.32983E+00   -0.17404E+00 12200   0.818E+00    0.442E+00
DAV:   5    -0.190944143690E+03    0.31120E-01   -0.96149E-01 11200   0.596E+00    0.360E+00
DAV:   6    -0.190761013129E+03    0.18313E+00   -0.22212E-01 11880   0.299E+00    0.679E-01
DAV:   7    -0.190756140522E+03    0.48726E-02   -0.40939E-02 11200   0.728E-01    0.460E-01
DAV:   8    -0.190753207055E+03    0.29335E-02   -0.79438E-03 10160   0.378E-01    0.183E-01
DAV:   9    -0.190753540361E+03   -0.33331E-03   -0.19023E-03 12040   0.273E-01    0.239E-01
DAV:  10    -0.190753507443E+03    0.32919E-04   -0.16411E-03 10240   0.285E-01    0.173E-01
DAV:  11    -0.190753270370E+03    0.23707E-03   -0.86758E-04 10400   0.149E-01    0.528E-02
DAV:  12    -0.190753260204E+03    0.10166E-04   -0.16343E-04  6560   0.504E-02
   4 F= -.19075326E+03 E0= -.19065010E+03  d E =-.979023E+00
       N       E                     dE             d eps       ncg     rms          rms(c)
DAV:   1    -0.192103002645E+03   -0.13497E+01   -0.15847E+02  8160   0.281E+01    0.569E+00
DAV:   2    -0.191923211104E+03    0.17979E+00   -0.95181E+00 11920   0.898E+00    0.489E+00
DAV:   3    -0.192367381788E+03   -0.44417E+00   -0.26982E+00 12240   0.113E+01    0.957E+00
DAV:   4    -0.191588872117E+03    0.77851E+00   -0.26532E+00 12200   0.110E+01    0.330E+00
DAV:   5    -0.191413272280E+03    0.17560E+00   -0.44398E-01 12080   0.292E+00    0.122E+00
DAV:   6    -0.191415670875E+03   -0.23986E-02   -0.16162E-01 12440   0.232E+00    0.177E+00
DAV:   7    -0.191395383440E+03    0.20287E-01   -0.11727E-01 12160   0.216E+00    0.816E-01
DAV:   8    -0.191385837971E+03    0.95455E-02   -0.12360E-02 11600   0.628E-01    0.177E-01
DAV:   9    -0.191386546597E+03   -0.70863E-03   -0.31280E-03 12240   0.238E-01    0.214E-01
DAV:  10    -0.191386507112E+03    0.39485E-04   -0.24167E-03 11360   0.339E-01    0.218E-01
DAV:  11    -0.191386088166E+03    0.41895E-03   -0.10062E-03 10200   0.216E-01    0.628E-02
DAV:  12    -0.191386050035E+03    0.38131E-04   -0.13075E-04  6160   0.517E-02
   5 F= -.19138605E+03 E0= -.19128492E+03  d E =-.632790E+00
       N       E                     dE             d eps       ncg     rms          rms(c)
DAV:   1    -0.191422942766E+03   -0.36855E-01   -0.28050E+00  8160   0.355E+00    0.460E-01
DAV:   2    -0.191448153188E+03   -0.25210E-01   -0.16754E-01 12640   0.192E+00    0.123E+00
DAV:   3    -0.191433182558E+03    0.14971E-01   -0.41299E-02 12200   0.139E+00    0.369E-01
DAV:   4    -0.191433523490E+03   -0.34093E-03   -0.87464E-03 11000   0.579E-01    0.491E-01
DAV:   5    -0.191431486480E+03    0.20370E-02   -0.53148E-03 10840   0.498E-01    0.197E-01
DAV:   6    -0.191431196729E+03    0.28975E-03   -0.14274E-03 10880   0.182E-01    0.880E-02
DAV:   7    -0.191431074808E+03    0.12192E-03   -0.65354E-04  9760   0.890E-02    0.332E-02
DAV:   8    -0.191431068322E+03    0.64859E-05   -0.92299E-05  6880   0.395E-02
   6 F= -.19143107E+03 E0= -.19132809E+03  d E =-.450183E-01
       N       E                     dE             d eps       ncg     rms          rms(c)
DAV:   1    -0.191477283015E+03   -0.46208E-01   -0.55295E+00  8160   0.499E+00    0.580E-01
DAV:   2    -0.191496396985E+03   -0.19114E-01   -0.17848E-01 13160   0.152E+00    0.104E+00
DAV:   3    -0.191489147460E+03    0.72495E-02   -0.56041E-02 11840   0.155E+00    0.747E-01
DAV:   4    -0.191485081280E+03    0.40662E-02   -0.16266E-02 11760   0.782E-01    0.488E-01
DAV:   5    -0.191483612040E+03    0.14692E-02   -0.81268E-03 10960   0.646E-01    0.353E-01
DAV:   6    -0.191482391372E+03    0.12207E-02   -0.34156E-03 11040   0.355E-01    0.124E-01
DAV:   7    -0.191482542896E+03   -0.15152E-03   -0.15836E-03 10640   0.226E-01    0.184E-01
DAV:   8    -0.191482238844E+03    0.30405E-03   -0.88783E-04  8480   0.209E-01    0.706E-02
DAV:   9    -0.191482194578E+03    0.44265E-04   -0.11985E-04  5760   0.680E-02
   7 F= -.19148219E+03 E0= -.19137787E+03  d E =-.511263E-01
       N       E                     dE             d eps       ncg     rms          rms(c)
DAV:   1    -0.191507550974E+03   -0.25312E-01   -0.11067E+00  8160   0.227E+00    0.299E-01
DAV:   2    -0.191511925359E+03   -0.43744E-02   -0.42151E-02 13120   0.868E-01    0.553E-01
DAV:   3    -0.191509089283E+03    0.28361E-02   -0.10402E-02 12240   0.742E-01    0.253E-01
DAV:   4    -0.191508234202E+03    0.85508E-03   -0.21083E-03 11400   0.254E-01    0.115E-01
DAV:   5    -0.191508223919E+03    0.10283E-04   -0.12330E-03 10200   0.182E-01    0.153E-01
DAV:   6    -0.191508182474E+03    0.41445E-04   -0.12389E-03  9400   0.238E-01    0.138E-01
DAV:   7    -0.191507986261E+03    0.19621E-03   -0.38945E-04  7200   0.128E-01    0.290E-02
DAV:   8    -0.191507994016E+03   -0.77543E-05   -0.71414E-05  5960   0.499E-02
   8 F= -.19150799E+03 E0= -.19140338E+03  d E =-.257994E-01
       N       E                     dE             d eps       ncg     rms          rms(c)
DAV:   1    -0.191541659174E+03   -0.33673E-01   -0.19840E+00  8160   0.303E+00    0.341E-01
DAV:   2    -0.191547305998E+03   -0.56468E-02   -0.61025E-02 13600   0.928E-01    0.526E-01
DAV:   3    -0.191545462627E+03    0.18434E-02   -0.12159E-02 12200   0.817E-01    0.359E-01
DAV:   4    -0.191543914708E+03    0.15479E-02   -0.29111E-03 11160   0.352E-01    0.138E-01
DAV:   5    -0.191544232650E+03   -0.31794E-03   -0.18841E-03 10640   0.278E-01    0.254E-01
DAV:   6    -0.191543827883E+03    0.40477E-03   -0.20969E-03  9720   0.299E-01    0.131E-01
DAV:   7    -0.191543622213E+03    0.20567E-03   -0.40754E-04  8040   0.111E-01    0.280E-02
DAV:   8    -0.191543634351E+03   -0.12138E-04   -0.84677E-05  6520   0.563E-02
   9 F= -.19154363E+03 E0= -.19143959E+03  d E =-.356403E-01
       N       E                     dE             d eps       ncg     rms          rms(c)
DAV:   1    -0.191510127024E+03    0.33495E-01   -0.16062E+00  8160   0.272E+00    0.279E-01
DAV:   2    -0.191512954298E+03   -0.28273E-02   -0.41944E-02 12440   0.576E-01    0.278E-01
DAV:   3    -0.191513965706E+03   -0.10114E-02   -0.73576E-03 11160   0.598E-01    0.447E-01
DAV:   4    -0.191512107352E+03    0.18584E-02   -0.42743E-03 10240   0.445E-01    0.181E-01
DAV:   5    -0.191512039139E+03    0.68213E-04   -0.17485E-03  9880   0.284E-01    0.181E-01
DAV:   6    -0.191511834342E+03    0.20480E-03   -0.11815E-03  9760   0.218E-01    0.919E-02
DAV:   7    -0.191511745556E+03    0.88786E-04   -0.37063E-04  8720   0.109E-01
  10 F= -.19151175E+03 E0= -.19140694E+03  d E =0.318888E-01
       N       E                     dE             d eps       ncg     rms          rms(c)
DAV:   1    -0.191435350504E+03    0.76484E-01   -0.11769E+01  8160   0.736E+00    0.774E-01
DAV:   2    -0.191454557674E+03   -0.19207E-01   -0.30954E-01 12680   0.152E+00    0.719E-01
DAV:   3    -0.191468133031E+03   -0.13575E-01   -0.59674E-02 12080   0.166E+00    0.146E+00
DAV:   4    -0.191449290757E+03    0.18842E-01   -0.41449E-02 11720   0.135E+00    0.439E-01
DAV:   5    -0.191449197080E+03    0.93677E-04   -0.11577E-02 10880   0.689E-01    0.472E-01
DAV:   6    -0.191447960779E+03    0.12363E-02   -0.87863E-03 11960   0.635E-01    0.285E-01
DAV:   7    -0.191446636650E+03    0.13241E-02   -0.23358E-03 11560   0.267E-01    0.551E-02
DAV:   8    -0.191446699605E+03   -0.62955E-04   -0.34697E-04  9400   0.101E-01
  11 F= -.19144670E+03 E0= -.19134178E+03  d E =0.650460E-01
       N       E                     dE             d eps       ncg     rms          rms(c)
DAV:   1    -0.191436018152E+03    0.10618E-01   -0.20996E+00  8160   0.310E+00    0.319E-01
DAV:   2    -0.191438632016E+03   -0.26139E-02   -0.45979E-02 13000   0.624E-01    0.331E-01
DAV:   3    -0.191440348578E+03   -0.17166E-02   -0.11653E-02 11000   0.676E-01    0.551E-01
DAV:   4    -0.191437733712E+03    0.26149E-02   -0.69370E-03 10160   0.525E-01    0.215E-01
DAV:   5    -0.191437595025E+03    0.13869E-03   -0.23602E-03  9560   0.339E-01    0.212E-01
DAV:   6    -0.191437304039E+03    0.29099E-03   -0.14489E-03 10200   0.263E-01    0.107E-01
DAV:   7    -0.191437120797E+03    0.18324E-03   -0.30510E-04  7400   0.929E-02    0.288E-02
DAV:   8    -0.191437131687E+03   -0.10890E-04   -0.79642E-05  6560   0.583E-02
  12 F= -.19143713E+03 E0= -.19133215E+03  d E =0.956792E-02
       N       E                     dE             d eps       ncg     rms          rms(c)
DAV:   1    -0.191453324250E+03   -0.16203E-01   -0.13804E+00  8160   0.248E+00    0.247E-01
DAV:   2    -0.191456411416E+03   -0.30872E-02   -0.41324E-02 12240   0.614E-01    0.269E-01
DAV:   3    -0.191457419594E+03   -0.10082E-02   -0.87638E-03 12080   0.580E-01    0.451E-01
DAV:   4    -0.191455559886E+03    0.18597E-02   -0.38219E-03 11120   0.399E-01    0.132E-01
DAV:   5    -0.191455583836E+03   -0.23950E-04   -0.10437E-03  9760   0.223E-01    0.157E-01
DAV:   6    -0.191455423849E+03    0.15999E-03   -0.83900E-04 10080   0.205E-01    0.913E-02
DAV:   7    -0.191455383889E+03    0.39960E-04   -0.34424E-04  7280   0.117E-01
  13 F= -.19145538E+03 E0= -.19134964E+03  d E =-.182522E-01
       N       E                     dE             d eps       ncg     rms          rms(c)
DAV:   1    -0.191462449573E+03   -0.70257E-02   -0.24043E-01  8160   0.107E+00    0.143E-01
DAV:   2    -0.191463107418E+03   -0.65785E-03   -0.83563E-03 13600   0.348E-01    0.229E-01
DAV:   3    -0.191462837288E+03    0.27013E-03   -0.22924E-03 10920   0.340E-01    0.179E-01
DAV:   4    -0.191462637187E+03    0.20010E-03   -0.10570E-03  9320   0.213E-01    0.132E-01
DAV:   5    -0.191462527382E+03    0.10980E-03   -0.67835E-04  8280   0.174E-01    0.925E-02
DAV:   6    -0.191462450499E+03    0.76883E-04   -0.28635E-04  6880   0.976E-02
  14 F= -.19146245E+03 E0= -.19135637E+03  d E =-.706661E-02
       N       E                     dE             d eps       ncg     rms          rms(c)
DAV:   1    -0.191486039956E+03   -0.23513E-01   -0.18555E+00  8160   0.293E+00    0.338E-01
DAV:   2    -0.191491346400E+03   -0.53064E-02   -0.58187E-02 12600   0.907E-01    0.557E-01
DAV:   3    -0.191489632819E+03    0.17136E-02   -0.13558E-02 11800   0.818E-01    0.405E-01
DAV:   4    -0.191488750695E+03    0.88212E-03   -0.55621E-03 10400   0.483E-01    0.326E-01
DAV:   5    -0.191487888013E+03    0.86268E-03   -0.34317E-03 10320   0.393E-01    0.179E-01
DAV:   6    -0.191487639931E+03    0.24808E-03   -0.13334E-03  9720   0.189E-01    0.856E-02
DAV:   7    -0.191487691207E+03   -0.51276E-04   -0.65516E-04  9160   0.162E-01
  15 F= -.19148769E+03 E0= -.19138084E+03  d E =-.252407E-01
       N       E                     dE             d eps       ncg     rms          rms(c)
DAV:   1    -0.191480489911E+03    0.71500E-02   -0.17080E-01  8160   0.895E-01    0.958E-02
DAV:   2    -0.191481263338E+03   -0.77343E-03   -0.53459E-03 13560   0.279E-01    0.247E-01
DAV:   3    -0.191480728227E+03    0.53511E-03   -0.16191E-03 10000   0.265E-01    0.883E-02
DAV:   4    -0.191480661841E+03    0.66386E-04   -0.20072E-04  6320   0.789E-02
  16 F= -.19148066E+03 E0= -.19137385E+03  d E =0.702937E-02
       N       E                     dE             d eps       ncg     rms          rms(c)
DAV:   1    -0.191482493028E+03   -0.17648E-02   -0.56016E-01  8160   0.159E+00    0.190E-01
DAV:   2    -0.191486752021E+03   -0.42590E-02   -0.20047E-02 13600   0.710E-01    0.616E-01
DAV:   3    -0.191483195729E+03    0.35563E-02   -0.78796E-03 11280   0.611E-01    0.163E-01
DAV:   4    -0.191483176388E+03    0.19341E-04   -0.11566E-03  9400   0.208E-01    0.151E-01
DAV:   5    -0.191483012453E+03    0.16394E-03   -0.92837E-04  9360   0.209E-01    0.108E-01
DAV:   6    -0.191482990778E+03    0.21675E-04   -0.48647E-04  8280   0.141E-01
  17 F= -.19148299E+03 E0= -.19137610E+03  d E =-.232894E-02
       N       E                     dE             d eps       ncg     rms          rms(c)
DAV:   1    -0.191501152248E+03   -0.18140E-01   -0.14294E+00  8160   0.258E+00    0.321E-01
DAV:   2    -0.191511026353E+03   -0.98741E-02   -0.55696E-02 13560   0.106E+00    0.928E-01
DAV:   3    -0.191503341081E+03    0.76853E-02   -0.21029E-02 12200   0.982E-01    0.276E-01
DAV:   4    -0.191502659139E+03    0.68194E-03   -0.24473E-03 11280   0.261E-01    0.145E-01
DAV:   5    -0.191502719285E+03   -0.60145E-04   -0.17014E-03 11360   0.258E-01    0.220E-01
DAV:   6    -0.191502443399E+03    0.27589E-03   -0.16315E-03  9800   0.263E-01    0.126E-01
DAV:   7    -0.191502278611E+03    0.16479E-03   -0.38899E-04  7960   0.108E-01    0.345E-02
DAV:   8    -0.191502275862E+03    0.27493E-05   -0.73147E-05  6560   0.621E-02
  18 F= -.19150228E+03 E0= -.19139527E+03  d E =-.192851E-01
       N       E                     dE             d eps       ncg     rms          rms(c)
DAV:   1    -0.191513324752E+03   -0.11046E-01   -0.48020E-01  8160   0.149E+00    0.172E-01
DAV:   2    -0.191514477523E+03   -0.11528E-02   -0.15161E-02 12240   0.409E-01    0.264E-01
DAV:   3    -0.191514363789E+03    0.11373E-03   -0.39987E-03 11640   0.425E-01    0.251E-01
DAV:   4    -0.191513718326E+03    0.64546E-03   -0.12955E-03  9520   0.235E-01    0.714E-02
DAV:   5    -0.191513718002E+03    0.32365E-06   -0.40113E-04  8480   0.125E-01
  19 F= -.19151372E+03 E0= -.19140622E+03  d E =-.114421E-01
       N       E                     dE             d eps       ncg     rms          rms(c)
DAV:   1    -0.191510997250E+03    0.27211E-02   -0.88973E-01  8160   0.206E+00    0.289E-01
DAV:   2    -0.191515195819E+03   -0.41986E-02   -0.32408E-02 13440   0.767E-01    0.662E-01
DAV:   3    -0.191511482869E+03    0.37130E-02   -0.14806E-02 11440   0.812E-01    0.326E-01
DAV:   4    -0.191510614846E+03    0.86802E-03   -0.31982E-03 10840   0.322E-01    0.169E-01
DAV:   5    -0.191510563879E+03    0.50967E-04   -0.18230E-03 10040   0.298E-01    0.197E-01
DAV:   6    -0.191510189142E+03    0.37474E-03   -0.11642E-03  9800   0.246E-01    0.821E-02
DAV:   7    -0.191510165797E+03    0.23345E-04   -0.35628E-04  7600   0.116E-01
  20 F= -.19151017E+03 E0= -.19140350E+03  d E =0.355221E-02
       N       E                     dE             d eps       ncg     rms          rms(c)
DAV:   1    -0.191540790700E+03   -0.30602E-01   -0.44783E+00  8160   0.459E+00    0.578E-01
DAV:   2    -0.191550031246E+03   -0.92405E-02   -0.13736E-01 12040   0.128E+00    0.949E-01
DAV:   3    -0.191547000427E+03    0.30308E-02   -0.47179E-02 12280   0.143E+00    0.793E-01
DAV:   4    -0.191540120555E+03    0.68799E-02   -0.13858E-02 12240   0.731E-01    0.224E-01
DAV:   5    -0.191539758294E+03    0.36226E-03   -0.46816E-03 11600   0.333E-01    0.270E-01
DAV:   6    -0.191539602470E+03    0.15582E-03   -0.38845E-03 11360   0.436E-01    0.267E-01
DAV:   7    -0.191538989642E+03    0.61283E-03   -0.17616E-03  9600   0.278E-01    0.112E-01
DAV:   8    -0.191538910443E+03    0.79199E-04   -0.50815E-04  8240   0.154E-01
  21 F= -.19153891E+03 E0= -.19143148E+03  d E =-.287446E-01
       N       E                     dE             d eps       ncg     rms          rms(c)
DAV:   1    -0.191552400422E+03   -0.13411E-01   -0.76809E-01  8160   0.188E+00    0.231E-01
DAV:   2    -0.191554081764E+03   -0.16813E-02   -0.25082E-02 12880   0.536E-01    0.317E-01
DAV:   3    -0.191553933765E+03    0.14800E-03   -0.58745E-03 12280   0.530E-01    0.313E-01
DAV:   4    -0.191553140343E+03    0.79342E-03   -0.28817E-03 10240   0.352E-01    0.172E-01
DAV:   5    -0.191553018245E+03    0.12210E-03   -0.14633E-03  9640   0.264E-01    0.154E-01
DAV:   6    -0.191552836574E+03    0.18167E-03   -0.79021E-04  9800   0.179E-01    0.666E-02
DAV:   7    -0.191552767434E+03    0.69139E-04   -0.15251E-04  5640   0.615E-02
  22 F= -.19155277E+03 E0= -.19144569E+03  d E =-.138570E-01
       N       E                     dE             d eps       ncg     rms          rms(c)
DAV:   1    -0.191566962301E+03   -0.14126E-01   -0.66593E-01  8160   0.174E+00    0.200E-01
DAV:   2    -0.191569611143E+03   -0.26488E-02   -0.21899E-02 12040   0.573E-01    0.445E-01
DAV:   3    -0.191567935415E+03    0.16757E-02   -0.65935E-03 12000   0.535E-01    0.202E-01
DAV:   4    -0.191567739532E+03    0.19588E-03   -0.13450E-03  9920   0.226E-01    0.154E-01
DAV:   5    -0.191567514036E+03    0.22550E-03   -0.74942E-04  8680   0.205E-01    0.905E-02
DAV:   6    -0.191567474800E+03    0.39235E-04   -0.34308E-04  8320   0.115E-01
  23 F= -.19156747E+03 E0= -.19146041E+03  d E =-.147074E-01
       N       E                     dE             d eps       ncg     rms          rms(c)
DAV:   1    -0.191548679167E+03    0.18835E-01   -0.18261E+00  8160   0.286E+00    0.297E-01
DAV:   2    -0.191554836039E+03   -0.61569E-02   -0.51149E-02 12760   0.890E-01    0.637E-01
DAV:   3    -0.191551185338E+03    0.36507E-02   -0.14918E-02 11600   0.795E-01    0.290E-01
DAV:   4    -0.191551207848E+03   -0.22510E-04   -0.39298E-03 10880   0.405E-01    0.321E-01
DAV:   5    -0.191550211014E+03    0.99683E-03   -0.21364E-03  9640   0.348E-01    0.123E-01
DAV:   6    -0.191550143987E+03    0.67027E-04   -0.74577E-04 10200   0.144E-01
  24 F= -.19155014E+03 E0= -.19144332E+03  d E =0.173308E-01
       N       E                     dE             d eps       ncg     rms          rms(c)
DAV:   1    -0.191574215430E+03   -0.24004E-01   -0.16763E+00  8160   0.277E+00    0.296E-01
DAV:   2    -0.191578554577E+03   -0.43391E-02   -0.50710E-02 12360   0.718E-01    0.451E-01
DAV:   3    -0.191577780114E+03    0.77446E-03   -0.11442E-02 12040   0.708E-01    0.389E-01
DAV:   4    -0.191576622859E+03    0.11573E-02   -0.41459E-03 10840   0.421E-01    0.232E-01
DAV:   5    -0.191576206699E+03    0.41616E-03   -0.16768E-03  9800   0.308E-01    0.148E-01
DAV:   6    -0.191576099017E+03    0.10768E-03   -0.80213E-04 10600   0.167E-01    0.740E-02
DAV:   7    -0.191575971801E+03    0.12722E-03   -0.21532E-04  5960   0.666E-02    0.185E-02
DAV:   8    -0.191575982328E+03   -0.10527E-04   -0.66808E-05  7400   0.426E-02
  25 F= -.19157598E+03 E0= -.19146964E+03  d E =-.258383E-01
       N       E                     dE             d eps       ncg     rms          rms(c)
DAV:   1    -0.191562375907E+03    0.13596E-01   -0.45058E-01  8160   0.144E+00    0.165E-01
DAV:   2    -0.191563310776E+03   -0.93487E-03   -0.14316E-02 11520   0.358E-01    0.207E-01
DAV:   3    -0.191563531999E+03   -0.22122E-03   -0.37690E-03 12280   0.401E-01    0.269E-01
DAV:   4    -0.191562828473E+03    0.70353E-03   -0.15563E-03  9520   0.255E-01    0.938E-02
DAV:   5    -0.191562816774E+03    0.11699E-04   -0.45532E-04  8200   0.157E-01
  26 F= -.19156282E+03 E0= -.19145607E+03  d E =0.131656E-01
       N       E                     dE             d eps       ncg     rms          rms(c)
DAV:   1    -0.191596288718E+03   -0.33460E-01   -0.31973E+00  8160   0.385E+00    0.436E-01
DAV:   2    -0.191602578983E+03   -0.62903E-02   -0.10254E-01 12240   0.928E-01    0.460E-01
DAV:   3    -0.191605727680E+03   -0.31487E-02   -0.21465E-02 12240   0.100E+00    0.778E-01
DAV:   4    -0.191599982134E+03    0.57455E-02   -0.11038E-02 11760   0.740E-01    0.205E-01
DAV:   5    -0.191599452220E+03    0.52991E-03   -0.21559E-03 11000   0.210E-01    0.124E-01
DAV:   6    -0.191599737593E+03   -0.28537E-03   -0.21736E-03 12040   0.285E-01    0.223E-01
DAV:   7    -0.191599229217E+03    0.50838E-03   -0.12850E-03  8920   0.244E-01    0.674E-02
DAV:   8    -0.191599204575E+03    0.24643E-04   -0.20180E-04  5560   0.879E-02
  27 F= -.19159920E+03 E0= -.19149349E+03  d E =-.363878E-01
       N       E                     dE             d eps       ncg     rms          rms(c)
DAV:   1    -0.191603213771E+03   -0.39846E-02   -0.44835E-02  8160   0.459E-01    0.568E-02
DAV:   2    -0.191603354066E+03   -0.14030E-03   -0.14542E-03 13400   0.130E-01    0.984E-02
DAV:   3    -0.191603301513E+03    0.52553E-04   -0.44564E-04  8760   0.144E-01
  28 F= -.19160330E+03 E0= -.19149798E+03  d E =-.409694E-02
       N       E                     dE             d eps       ncg     rms          rms(c)
DAV:   1    -0.191611041047E+03   -0.76870E-02   -0.53860E-01  8160   0.155E+00    0.210E-01
DAV:   2    -0.191617427022E+03   -0.63860E-02   -0.25518E-02 13320   0.855E-01    0.750E-01
DAV:   3    -0.191611387947E+03    0.60391E-02   -0.12185E-02 10320   0.751E-01    0.133E-01
DAV:   4    -0.191611406242E+03   -0.18295E-04   -0.11638E-03  9840   0.201E-01    0.145E-01
DAV:   5    -0.191611241234E+03    0.16501E-03   -0.68597E-04  9120   0.197E-01    0.989E-02
DAV:   6    -0.191611171831E+03    0.69403E-04   -0.33277E-04  7520   0.121E-01
  29 F= -.19161117E+03 E0= -.19150587E+03  d E =-.787032E-02
       N       E                     dE             d eps       ncg     rms          rms(c)
DAV:   1    -0.191636771243E+03   -0.25530E-01   -0.16130E+00  8160   0.274E+00    0.317E-01
DAV:   2    -0.191644050568E+03   -0.72793E-02   -0.56037E-02 13280   0.936E-01    0.683E-01
DAV:   3    -0.191639437746E+03    0.46128E-02   -0.14673E-02 11520   0.851E-01    0.283E-01
DAV:   4    -0.191639386909E+03    0.50838E-04   -0.33091E-03 11360   0.395E-01    0.290E-01
DAV:   5    -0.191638570735E+03    0.81617E-03   -0.20254E-03  9800   0.343E-01    0.128E-01
DAV:   6    -0.191638555596E+03    0.15139E-04   -0.77977E-04 10200   0.146E-01
  30 F= -.19163856E+03 E0= -.19153480E+03  d E =-.273838E-01
       N       E                     dE             d eps       ncg     rms          rms(c)
DAV:   1    -0.191602265203E+03    0.36306E-01   -0.26185E+00  8160   0.349E+00    0.390E-01
DAV:   2    -0.191610420652E+03   -0.81554E-02   -0.80651E-02 13280   0.983E-01    0.694E-01
DAV:   3    -0.191607512176E+03    0.29085E-02   -0.22660E-02 11880   0.100E+00    0.477E-01
DAV:   4    -0.191605857080E+03    0.16551E-02   -0.70323E-03 11400   0.519E-01    0.296E-01
DAV:   5    -0.191605125542E+03    0.73154E-03   -0.38391E-03 10720   0.425E-01    0.198E-01
DAV:   6    -0.191604880873E+03    0.24467E-03   -0.15497E-03 10920   0.230E-01    0.100E-01
DAV:   7    -0.191604836473E+03    0.44400E-04   -0.70767E-04 10960   0.164E-01
  31 F= -.19160484E+03 E0= -.19149925E+03  d E =0.337191E-01
       N       E                     dE             d eps       ncg     rms          rms(c)
DAV:   1    -0.191567936572E+03    0.36944E-01   -0.45234E+00  8160   0.459E+00    0.505E-01
DAV:   2    -0.191577850053E+03   -0.99135E-02   -0.12733E-01 13560   0.117E+00    0.655E-01
DAV:   3    -0.191577891760E+03   -0.41707E-04   -0.27374E-02 11240   0.115E+00    0.696E-01
DAV:   4    -0.191573983296E+03    0.39085E-02   -0.12209E-02 11160   0.744E-01    0.380E-01
DAV:   5    -0.191573081290E+03    0.90201E-03   -0.67791E-03 10880   0.552E-01    0.316E-01
DAV:   6    -0.191572392470E+03    0.68882E-03   -0.36704E-03 11800   0.389E-01    0.151E-01
DAV:   7    -0.191572047714E+03    0.34476E-03   -0.86720E-04 10440   0.140E-01    0.375E-02
DAV:   8    -0.191572030192E+03    0.17522E-04   -0.10209E-04  7400   0.406E-02
  32 F= -.19157203E+03 E0= -.19146480E+03  d E =0.328063E-01
       N       E                     dE             d eps       ncg     rms          rms(c)
DAV:   1    -0.191569224649E+03    0.28231E-02   -0.14644E+00  8160   0.261E+00    0.286E-01
DAV:   2    -0.191571868834E+03   -0.26442E-02   -0.31625E-02 12880   0.606E-01    0.413E-01
DAV:   3    -0.191571546013E+03    0.32282E-03   -0.10130E-02 11880   0.682E-01    0.429E-01
DAV:   4    -0.191570095936E+03    0.14501E-02   -0.41655E-03 11200   0.426E-01    0.167E-01
DAV:   5    -0.191569660951E+03    0.43499E-03   -0.11247E-03 10120   0.159E-01    0.871E-02
DAV:   6    -0.191569868331E+03   -0.20738E-03   -0.90626E-04  9680   0.215E-01    0.154E-01
DAV:   7    -0.191569600118E+03    0.26821E-03   -0.51947E-04  8280   0.167E-01    0.391E-02
DAV:   8    -0.191569600289E+03   -0.17097E-06   -0.87071E-05  5600   0.607E-02
  33 F= -.19156960E+03 E0= -.19146220E+03  d E =0.242990E-02
       N       E                     dE             d eps       ncg     rms          rms(c)
DAV:   1    -0.191584106271E+03   -0.14506E-01   -0.10701E+00  8160   0.222E+00    0.260E-01
DAV:   2    -0.191586653689E+03   -0.25474E-02   -0.38176E-02 12160   0.595E-01    0.325E-01
DAV:   3    -0.191587322744E+03   -0.66906E-03   -0.79997E-03 12240   0.625E-01    0.433E-01
DAV:   4    -0.191585365847E+03    0.19569E-02   -0.31486E-03 11360   0.391E-01    0.874E-02
DAV:   5    -0.191585434586E+03   -0.68739E-04   -0.81724E-04  9720   0.148E-01
  34 F= -.19158543E+03 E0= -.19147807E+03  d E =-.158343E-01
       N       E                     dE             d eps       ncg     rms          rms(c)
DAV:   1    -0.191595201153E+03   -0.98353E-02   -0.51416E-01  8160   0.153E+00    0.203E-01
DAV:   2    -0.191599438686E+03   -0.42375E-02   -0.23202E-02 11720   0.737E-01    0.563E-01
DAV:   3    -0.191595903336E+03    0.35354E-02   -0.77519E-03 12000   0.622E-01    0.136E-01
DAV:   4    -0.191596189352E+03   -0.28602E-03   -0.16492E-03  9600   0.260E-01    0.213E-01
DAV:   5    -0.191595731605E+03    0.45775E-03   -0.11896E-03  9440   0.235E-01    0.710E-02
DAV:   6    -0.191595732327E+03   -0.72182E-06   -0.25606E-04  6440   0.804E-02
  35 F= -.19159573E+03 E0= -.19148821E+03  d E =-.102977E-01
       N       E                     dE             d eps       ncg     rms          rms(c)
DAV:   1    -0.191604446581E+03   -0.87150E-02   -0.40304E-01  8160   0.136E+00    0.154E-01
DAV:   2    -0.191605271206E+03   -0.82462E-03   -0.13470E-02 12240   0.307E-01    0.144E-01
DAV:   3    -0.191605570094E+03   -0.29889E-03   -0.23874E-03 12440   0.332E-01    0.229E-01
DAV:   4    -0.191604972299E+03    0.59779E-03   -0.97867E-04  9360   0.231E-01    0.638E-02
DAV:   5    -0.191605064211E+03   -0.91912E-04   -0.41306E-04  7720   0.141E-01
  36 F= -.19160506E+03 E0= -.19149764E+03  d E =-.933188E-02
       N       E                     dE             d eps       ncg     rms          rms(c)
DAV:   1    -0.191621902207E+03   -0.16930E-01   -0.17880E+00  8160   0.286E+00    0.308E-01
DAV:   2    -0.191625506239E+03   -0.36040E-02   -0.54670E-02 12120   0.654E-01    0.325E-01
DAV:   3    -0.191626409447E+03   -0.90321E-03   -0.10831E-02 11840   0.703E-01    0.452E-01
DAV:   4    -0.191624241584E+03    0.21679E-02   -0.46137E-03 11200   0.463E-01    0.173E-01
DAV:   5    -0.191624386219E+03   -0.14463E-03   -0.17564E-03  9800   0.312E-01    0.214E-01
DAV:   6    -0.191623976800E+03    0.40942E-03   -0.10379E-03  9840   0.204E-01    0.527E-02
DAV:   7    -0.191623923486E+03    0.53314E-04   -0.15713E-04  6360   0.568E-02
  37 F= -.19162392E+03 E0= -.19151689E+03  d E =-.188593E-01
       N       E                     dE             d eps       ncg     rms          rms(c)
DAV:   1    -0.191624266125E+03   -0.28933E-03   -0.40159E-03  8560   0.149E-01    0.489E-02
DAV:   2    -0.191624837445E+03   -0.57132E-03   -0.13629E-03 10680   0.259E-01    0.237E-01
DAV:   3    -0.191624226676E+03    0.61077E-03   -0.90602E-04  8560   0.218E-01    0.181E-02
DAV:   4    -0.191624250928E+03   -0.24252E-04   -0.35499E-05  5800   0.382E-02
  38 F= -.19162425E+03 E0= -.19151721E+03  d E =-.327442E-03
       N       E                     dE             d eps       ncg     rms          rms(c)
DAV:   1    -0.191637902692E+03   -0.13676E-01   -0.94311E-01  8160   0.207E+00    0.226E-01
DAV:   2    -0.191640539168E+03   -0.26365E-02   -0.29422E-02 11400   0.604E-01    0.344E-01
DAV:   3    -0.191639673764E+03    0.86540E-03   -0.63253E-03 12240   0.545E-01    0.229E-01
DAV:   4    -0.191639071120E+03    0.60264E-03   -0.15186E-03 10120   0.245E-01    0.897E-02
DAV:   5    -0.191639067567E+03    0.35531E-05   -0.57778E-04  9600   0.137E-01
  39 F= -.19163907E+03 E0= -.19153294E+03  d E =-.148166E-01
       N       E                     dE             d eps       ncg     rms          rms(c)
DAV:   1    -0.191607048311E+03    0.32023E-01   -0.37490E+00  8160   0.415E+00    0.472E-01
DAV:   2    -0.191623701590E+03   -0.16653E-01   -0.13037E-01 12400   0.139E+00    0.105E+00
DAV:   3    -0.191614239701E+03    0.94619E-02   -0.44259E-02 12360   0.137E+00    0.500E-01
DAV:   4    -0.191612613324E+03    0.16264E-02   -0.91293E-03 11200   0.573E-01    0.334E-01
DAV:   5    -0.191611609228E+03    0.10041E-02   -0.43429E-03 11240   0.470E-01    0.229E-01
DAV:   6    -0.191611191648E+03    0.41758E-03   -0.20095E-03 12320   0.278E-01    0.108E-01
DAV:   7    -0.191611027159E+03    0.16449E-03   -0.61554E-04 10800   0.111E-01    0.294E-02
DAV:   8    -0.191611019432E+03    0.77269E-05   -0.65042E-05  7520   0.397E-02
  40 F= -.19161102E+03 E0= -.19150355E+03  d E =0.280481E-01
       N       E                     dE             d eps       ncg     rms          rms(c)
DAV:   1    -0.191598546260E+03    0.12481E-01   -0.13329E+00  8160   0.248E+00    0.280E-01
DAV:   2    -0.191602575438E+03   -0.40292E-02   -0.37711E-02 13480   0.779E-01    0.500E-01
DAV:   3    -0.191600310454E+03    0.22650E-02   -0.10584E-02 12280   0.707E-01    0.261E-01
DAV:   4    -0.191599906742E+03    0.40371E-03   -0.28451E-03 11160   0.324E-01    0.204E-01
DAV:   5    -0.191599742448E+03    0.16429E-03   -0.21310E-03 10360   0.311E-01    0.191E-01
DAV:   6    -0.191599436449E+03    0.30600E-03   -0.10929E-03  9640   0.207E-01    0.663E-02
DAV:   7    -0.191599376916E+03    0.59533E-04   -0.16071E-04  6280   0.648E-02
  41 F= -.19159938E+03 E0= -.19149153E+03  d E =0.116425E-01
       N       E                     dE             d eps       ncg     rms          rms(c)
DAV:   1    -0.191605442854E+03   -0.60064E-02   -0.38394E-01  8160   0.131E+00    0.154E-01
DAV:   2    -0.191608255881E+03   -0.28130E-02   -0.15647E-02 11840   0.558E-01    0.459E-01
DAV:   3    -0.191606158634E+03    0.20972E-02   -0.45337E-03 11520   0.485E-01    0.113E-01
DAV:   4    -0.191606142641E+03    0.15993E-04   -0.54119E-04  8680   0.153E-01
  42 F= -.19160614E+03 E0= -.19149801E+03  d E =-.676572E-02
       N       E                     dE             d eps       ncg     rms          rms(c)
DAV:   1    -0.191611040201E+03   -0.48816E-02   -0.23135E-01  8160   0.103E+00    0.138E-01
DAV:   2    -0.191612120263E+03   -0.10801E-02   -0.83122E-03 12960   0.387E-01    0.295E-01
DAV:   3    -0.191611313012E+03    0.80725E-03   -0.26002E-03 10720   0.360E-01    0.127E-01
DAV:   4    -0.191611313135E+03   -0.12243E-06   -0.79954E-04  8800   0.187E-01
  43 F= -.19161131E+03 E0= -.19150346E+03  d E =-.517049E-02
       N       E                     dE             d eps       ncg     rms          rms(c)
DAV:   1    -0.191618777495E+03   -0.74645E-02   -0.54016E-01  8160   0.157E+00    0.188E-01
DAV:   2    -0.191620859055E+03   -0.20816E-02   -0.19810E-02 12120   0.499E-01    0.339E-01
DAV:   3    -0.191619838313E+03    0.10207E-02   -0.49851E-03 11920   0.479E-01    0.187E-01
DAV:   4    -0.191619694770E+03    0.14354E-03   -0.12710E-03  9960   0.236E-01    0.161E-01
DAV:   5    -0.191619487728E+03    0.20704E-03   -0.75735E-04  9080   0.207E-01    0.945E-02
DAV:   6    -0.191619439309E+03    0.48419E-04   -0.31078E-04  7600   0.100E-01
  44 F= -.19161944E+03 E0= -.19151142E+03  d E =-.812617E-02
       N       E                     dE             d eps       ncg     rms          rms(c)
DAV:   1    -0.191629084460E+03   -0.95967E-02   -0.91689E-01  8160   0.204E+00    0.224E-01
DAV:   2    -0.191631722378E+03   -0.26379E-02   -0.30781E-02 11560   0.566E-01    0.334E-01
DAV:   3    -0.191631240440E+03    0.48194E-03   -0.71349E-03 12400   0.558E-01    0.277E-01
DAV:   4    -0.191630633196E+03    0.60724E-03   -0.23114E-03 10400   0.316E-01    0.166E-01
DAV:   5    -0.191630429567E+03    0.20363E-03   -0.96699E-04  9720   0.221E-01    0.109E-01
DAV:   6    -0.191630388548E+03    0.41019E-04   -0.45512E-04  9320   0.131E-01
  45 F= -.19163039E+03 E0= -.19152261E+03  d E =-.109492E-01
       N       E                     dE             d eps       ncg     rms          rms(c)
DAV:   1    -0.191625880003E+03    0.45496E-02   -0.14515E-01  8160   0.814E-01    0.861E-02
DAV:   2    -0.191626281776E+03   -0.40177E-03   -0.43518E-03 12240   0.221E-01    0.134E-01
DAV:   3    -0.191626162613E+03    0.11916E-03   -0.95438E-04 10880   0.213E-01    0.100E-01
DAV:   4    -0.191626074296E+03    0.88316E-04   -0.26456E-04  6840   0.109E-01
  46 F= -.19162607E+03 E0= -.19151817E+03  d E =0.431425E-02
       N       E                     dE             d eps       ncg     rms          rms(c)
DAV:   1    -0.191628481916E+03   -0.23193E-02   -0.30100E-01  8160   0.118E+00    0.185E-01
DAV:   2    -0.191631587487E+03   -0.31056E-02   -0.16994E-02 10480   0.683E-01    0.512E-01
DAV:   3    -0.191628771461E+03    0.28160E-02   -0.61928E-03 11040   0.568E-01    0.136E-01
DAV:   4    -0.191628847613E+03   -0.76152E-04   -0.10887E-03  9560   0.236E-01    0.168E-01
DAV:   5    -0.191628591627E+03    0.25599E-03   -0.81744E-04  9320   0.211E-01    0.880E-02
DAV:   6    -0.191628518477E+03    0.73150E-04   -0.29751E-04  7200   0.973E-02
  47 F= -.19162852E+03 E0= -.19152072E+03  d E =-.244418E-02
       N       E                     dE             d eps       ncg     rms          rms(c)
DAV:   1    -0.191635020413E+03   -0.64288E-02   -0.42690E-01  8160   0.142E+00    0.187E-01
DAV:   2    -0.191635978171E+03   -0.95776E-03   -0.11729E-02 12720   0.424E-01    0.311E-01
DAV:   3    -0.191635511366E+03    0.46680E-03   -0.42448E-03 12040   0.479E-01    0.253E-01
DAV:   4    -0.191634854322E+03    0.65704E-03   -0.13329E-03  9560   0.244E-01    0.740E-02
DAV:   5    -0.191634789431E+03    0.64891E-04   -0.36153E-04  8360   0.814E-02
  48 F= -.19163479E+03 E0= -.19152721E+03  d E =-.627095E-02
       N       E                     dE             d eps       ncg     rms          rms(c)
DAV:   1    -0.191640492115E+03   -0.56378E-02   -0.29038E-01  8160   0.116E+00    0.161E-01
DAV:   2    -0.191643341839E+03   -0.28497E-02   -0.14696E-02 11680   0.570E-01    0.507E-01
DAV:   3    -0.191640844333E+03    0.24975E-02   -0.62962E-03 11400   0.526E-01    0.109E-01
DAV:   4    -0.191640729618E+03    0.11472E-03   -0.40438E-04  8640   0.963E-02    0.488E-02
DAV:   5    -0.191640724102E+03    0.55151E-05   -0.18924E-04  6600   0.716E-02
  49 F= -.19164072E+03 E0= -.19153344E+03  d E =-.593467E-02
       N       E                     dE             d eps       ncg     rms          rms(c)
DAV:   1    -0.191644926016E+03   -0.41964E-02   -0.12173E-01  8160   0.762E-01    0.126E-01
DAV:   2    -0.191647324723E+03   -0.23987E-02   -0.64621E-03 12400   0.519E-01    0.479E-01
DAV:   3    -0.191644906690E+03    0.24180E-02   -0.34536E-03 11040   0.463E-01    0.651E-02
DAV:   4    -0.191644977550E+03   -0.70859E-04   -0.31027E-04  8280   0.115E-01
  50 F= -.19164498E+03 E0= -.19153802E+03  d E =-.425345E-02
       N       E                     dE             d eps       ncg     rms          rms(c)
DAV:   1    -0.191642281994E+03    0.26247E-02   -0.24346E-01  8160   0.110E+00    0.151E-01
DAV:   2    -0.191643086291E+03   -0.80430E-03   -0.84655E-03 12560   0.358E-01    0.277E-01
DAV:   3    -0.191642528394E+03    0.55790E-03   -0.37960E-03 11040   0.405E-01    0.185E-01
DAV:   4    -0.191642208115E+03    0.32028E-03   -0.94847E-04  8560   0.189E-01    0.870E-02
DAV:   5    -0.191642198969E+03    0.91461E-05   -0.50882E-04  8240   0.163E-01
  51 F= -.19164220E+03 E0= -.19153495E+03  d E =0.277858E-02
       N       E                     dE             d eps       ncg     rms          rms(c)
DAV:   1    -0.191652823989E+03   -0.10616E-01   -0.76319E-01  8160   0.189E+00    0.230E-01
DAV:   2    -0.191653736746E+03   -0.91276E-03   -0.20282E-02 11920   0.410E-01    0.220E-01
DAV:   3    -0.191653983165E+03   -0.24642E-03   -0.59567E-03 12240   0.466E-01    0.320E-01
DAV:   4    -0.191653049439E+03    0.93373E-03   -0.32493E-03 11280   0.381E-01    0.144E-01
DAV:   5    -0.191652911830E+03    0.13761E-03   -0.10634E-03  9920   0.201E-01    0.125E-01
DAV:   6    -0.191652845210E+03    0.66620E-04   -0.75781E-04  9000   0.194E-01
  52 F= -.19165285E+03 E0= -.19154632E+03  d E =-.106462E-01
       N       E                     dE             d eps       ncg     rms          rms(c)
DAV:   1    -0.191638151782E+03    0.14760E-01   -0.12065E+00  8160   0.235E+00    0.252E-01
DAV:   2    -0.191641029036E+03   -0.28773E-02   -0.38759E-02 12240   0.559E-01    0.295E-01
DAV:   3    -0.191641335933E+03   -0.30690E-03   -0.76309E-03 12240   0.591E-01    0.361E-01
DAV:   4    -0.191639982926E+03    0.13530E-02   -0.26791E-03 10120   0.357E-01    0.140E-01
DAV:   5    -0.191640022510E+03   -0.39584E-04   -0.14258E-03  9480   0.259E-01    0.163E-01
DAV:   6    -0.191639803538E+03    0.21897E-03   -0.82700E-04  9760   0.186E-01    0.599E-02
DAV:   7    -0.191639754766E+03    0.48772E-04   -0.19374E-04  6400   0.664E-02
  53 F= -.19163975E+03 E0= -.19153254E+03  d E =0.130904E-01
       N       E                     dE             d eps       ncg     rms          rms(c)
DAV:   1    -0.191620945038E+03    0.18858E-01   -0.26625E+00  8160   0.350E+00    0.401E-01
DAV:   2    -0.191628091240E+03   -0.71462E-02   -0.79118E-02 12320   0.932E-01    0.622E-01
DAV:   3    -0.191626190123E+03    0.19011E-02   -0.23943E-02 12360   0.102E+00    0.512E-01
DAV:   4    -0.191624180946E+03    0.20092E-02   -0.80772E-03 11520   0.569E-01    0.285E-01
DAV:   5    -0.191623543630E+03    0.63732E-03   -0.39310E-03 10880   0.425E-01    0.224E-01
DAV:   6    -0.191623221653E+03    0.32198E-03   -0.20139E-03 11600   0.283E-01    0.114E-01
DAV:   7    -0.191623066385E+03    0.15527E-03   -0.70042E-04 10720   0.131E-01    0.601E-02
DAV:   8    -0.191623057438E+03    0.89472E-05   -0.17495E-04  6600   0.101E-01
  54 F= -.19162306E+03 E0= -.19151501E+03  d E =0.166973E-01
       N       E                     dE             d eps       ncg     rms          rms(c)
DAV:   1    -0.191620533225E+03    0.25332E-02   -0.10502E-01  8160   0.693E-01    0.833E-02
DAV:   2    -0.191621046116E+03   -0.51289E-03   -0.39037E-03 13600   0.244E-01    0.189E-01
DAV:   3    -0.191620731181E+03    0.31493E-03   -0.13285E-03  9960   0.239E-01    0.852E-02
DAV:   4    -0.191620681478E+03    0.49703E-04   -0.20623E-04  5720   0.905E-02
  55 F= -.19162068E+03 E0= -.19151271E+03  d E =0.237596E-02
       N       E                     dE             d eps       ncg     rms          rms(c)
DAV:   1    -0.191624040125E+03   -0.33089E-02   -0.24980E-01  8160   0.107E+00    0.142E-01
DAV:   2    -0.191626135829E+03   -0.20957E-02   -0.11288E-02 13520   0.469E-01    0.391E-01
DAV:   3    -0.191624485990E+03    0.16498E-02   -0.48616E-03 11440   0.465E-01    0.135E-01
DAV:   4    -0.191624426290E+03    0.59700E-04   -0.80780E-04  8960   0.166E-01
  56 F= -.19162443E+03 E0= -.19151628E+03  d E =-.374481E-02
       N       E                     dE             d eps       ncg     rms          rms(c)
DAV:   1    -0.191623446745E+03    0.10392E-02   -0.58228E-01  8160   0.165E+00    0.184E-01
DAV:   2    -0.191626009188E+03   -0.25624E-02   -0.17588E-02 13440   0.518E-01    0.415E-01
DAV:   3    -0.191624320338E+03    0.16888E-02   -0.69361E-03 11560   0.544E-01    0.207E-01
DAV:   4    -0.191624059600E+03    0.26074E-03   -0.15851E-03  9600   0.233E-01    0.129E-01
DAV:   5    -0.191623917746E+03    0.14185E-03   -0.70590E-04  8480   0.187E-01    0.992E-02
DAV:   6    -0.191623825068E+03    0.92678E-04   -0.34761E-04  7720   0.124E-01
  57 F= -.19162383E+03 E0= -.19151607E+03  d E =0.601221E-03
       N       E                     dE             d eps       ncg     rms          rms(c)
DAV:   1    -0.191630257688E+03   -0.63399E-02   -0.64180E-01  8160   0.171E+00    0.192E-01
DAV:   2    -0.191632007374E+03   -0.17497E-02   -0.19918E-02 12280   0.429E-01    0.276E-01
DAV:   3    -0.191631797518E+03    0.20986E-03   -0.50044E-03 11240   0.464E-01    0.277E-01
DAV:   4    -0.191631182303E+03    0.61521E-03   -0.19449E-03  9960   0.285E-01    0.116E-01
DAV:   5    -0.191631047795E+03    0.13451E-03   -0.69926E-04  8720   0.162E-01    0.891E-02
DAV:   6    -0.191631056572E+03   -0.87769E-05   -0.47275E-04  8760   0.154E-01
  58 F= -.19163106E+03 E0= -.19152343E+03  d E =-.723150E-02
       N       E                     dE             d eps       ncg     rms          rms(c)
DAV:   1    -0.191623510562E+03    0.75372E-02   -0.12323E+00  8160   0.238E+00    0.273E-01
DAV:   2    -0.191627814171E+03   -0.43036E-02   -0.35647E-02 13440   0.672E-01    0.515E-01
DAV:   3    -0.191625646558E+03    0.21676E-02   -0.13071E-02 12280   0.747E-01    0.347E-01
DAV:   4    -0.191624711684E+03    0.93487E-03   -0.37783E-03 11320   0.367E-01    0.157E-01
DAV:   5    -0.191624372188E+03    0.33950E-03   -0.11765E-03 10120   0.191E-01    0.110E-01
DAV:   6    -0.191624435755E+03   -0.63568E-04   -0.89024E-04 10640   0.213E-01
  59 F= -.19162444E+03 E0= -.19151674E+03  d E =0.662082E-02
       N       E                     dE             d eps       ncg     rms          rms(c)
DAV:   1    -0.191627832246E+03   -0.34601E-02   -0.49567E-01  8160   0.151E+00    0.186E-01
DAV:   2    -0.191630370335E+03   -0.25381E-02   -0.18530E-02 13520   0.518E-01    0.405E-01
DAV:   3    -0.191628898081E+03    0.14723E-02   -0.71534E-03 11400   0.539E-01    0.226E-01
DAV:   4    -0.191628483865E+03    0.41422E-03   -0.16022E-03  9520   0.232E-01    0.980E-02
DAV:   5    -0.191628325716E+03    0.15815E-03   -0.39771E-04  7640   0.100E-01    0.573E-02
DAV:   6    -0.191628428617E+03   -0.10290E-03   -0.42458E-04  9840   0.147E-01    0.104E-01
DAV:   7    -0.191628318373E+03    0.11024E-03   -0.22266E-04  6800   0.109E-01    0.337E-02
DAV:   8    -0.191628315121E+03    0.32515E-05   -0.45862E-05  5640   0.505E-02
  60 F= -.19162832E+03 E0= -.19152059E+03  d E =-.387937E-02
       N       E                     dE             d eps       ncg     rms          rms(c)
DAV:   1    -0.191628282460E+03    0.35913E-04   -0.96219E-01  8160   0.210E+00    0.254E-01
DAV:   2    -0.191632568612E+03   -0.42862E-02   -0.28280E-02 13400   0.681E-01    0.557E-01
DAV:   3    -0.191629672865E+03    0.28957E-02   -0.12959E-02 11760   0.741E-01    0.305E-01
DAV:   4    -0.191628912068E+03    0.76080E-03   -0.30256E-03 11040   0.313E-01    0.133E-01
DAV:   5    -0.191628576453E+03    0.33562E-03   -0.70836E-04 10120   0.105E-01    0.507E-02
DAV:   6    -0.191628748227E+03   -0.17177E-03   -0.42734E-04  9360   0.144E-01    0.125E-01
DAV:   7    -0.191628581930E+03    0.16630E-03   -0.29010E-04  7320   0.134E-01    0.340E-02
DAV:   8    -0.191628580059E+03    0.18716E-05   -0.52484E-05  5600   0.481E-02
  61 F= -.19162858E+03 E0= -.19152075E+03  d E =-.264937E-03
       N       E                     dE             d eps       ncg     rms          rms(c)
DAV:   1    -0.191628945555E+03   -0.36362E-03   -0.84001E-03  8160   0.199E-01    0.255E-02
DAV:   2    -0.191628970988E+03   -0.25433E-04   -0.24174E-04  9560   0.576E-02
  62 F= -.19162897E+03 E0= -.19152117E+03  d E =-.390929E-03
       N       E                     dE             d eps       ncg     rms          rms(c)
DAV:   1    -0.191635008002E+03   -0.60624E-02   -0.43396E-01  8160   0.142E+00    0.172E-01
DAV:   2    -0.191635804232E+03   -0.79623E-03   -0.13886E-02 12200   0.360E-01    0.197E-01
DAV:   3    -0.191635947207E+03   -0.14297E-03   -0.32822E-03 11640   0.390E-01    0.255E-01
DAV:   4    -0.191635339502E+03    0.60770E-03   -0.14465E-03 10040   0.278E-01    0.106E-01
DAV:   5    -0.191635279943E+03    0.59560E-04   -0.53849E-04  8160   0.157E-01
  63 F= -.19163528E+03 E0= -.19152776E+03  d E =-.630896E-02
       N       E                     dE             d eps       ncg     rms          rms(c)
DAV:   1    -0.191639121802E+03   -0.37823E-02   -0.14409E-01  8160   0.828E-01    0.123E-01
DAV:   2    -0.191640593585E+03   -0.14718E-02   -0.64190E-03 12720   0.416E-01    0.342E-01
DAV:   3    -0.191639207759E+03    0.13858E-02   -0.27068E-03 11360   0.380E-01    0.881E-02
DAV:   4    -0.191639250101E+03   -0.42342E-04   -0.44087E-04  8160   0.135E-01
  64 F= -.19163925E+03 E0= -.19153186E+03  d E =-.397016E-02
       N       E                     dE             d eps       ncg     rms          rms(c)
DAV:   1    -0.191641046321E+03   -0.18386E-02   -0.81494E-02  8160   0.636E-01    0.994E-02
DAV:   2    -0.191642090896E+03   -0.10446E-02   -0.42021E-03 13160   0.361E-01    0.313E-01
DAV:   3    -0.191641095302E+03    0.99559E-03   -0.18359E-03  9840   0.326E-01    0.696E-02
DAV:   4    -0.191641094528E+03    0.77394E-06   -0.16777E-04  5640   0.772E-02
  65 F= -.19164109E+03 E0= -.19153400E+03  d E =-.184443E-02
       N       E                     dE             d eps       ncg     rms          rms(c)
DAV:   1    -0.191641823867E+03   -0.72857E-03   -0.65809E-02  8160   0.555E-01    0.957E-02
DAV:   2    -0.191642477704E+03   -0.65384E-03   -0.29813E-03 11680   0.305E-01    0.255E-01
DAV:   3    -0.191641779542E+03    0.69816E-03   -0.12965E-03  9920   0.277E-01    0.741E-02
DAV:   4    -0.191641802168E+03   -0.22626E-04   -0.31219E-04  7600   0.120E-01
  66 F= -.19164180E+03 E0= -.19153474E+03  d E =-.707640E-03
       N       E                     dE             d eps       ncg     rms          rms(c)
DAV:   1    -0.191648744466E+03   -0.69649E-02   -0.56129E-01  8160   0.162E+00    0.183E-01
DAV:   2    -0.191649242876E+03   -0.49841E-03   -0.12400E-02 11960   0.301E-01    0.139E-01
DAV:   3    -0.191649308951E+03   -0.66075E-04   -0.23173E-03 11200   0.269E-01    0.197E-01
DAV:   4    -0.191649069110E+03    0.23984E-03   -0.14946E-03 10840   0.287E-01    0.153E-01
DAV:   5    -0.191648835544E+03    0.23357E-03   -0.56850E-04  8160   0.169E-01    0.759E-02
DAV:   6    -0.191648871135E+03   -0.35591E-04   -0.38197E-04  8280   0.143E-01
  67 F= -.19164887E+03 E0= -.19154211E+03  d E =-.706897E-02
       N       E                     dE             d eps       ncg     rms          rms(c)
DAV:   1    -0.191634788802E+03    0.14047E-01   -0.18698E+00  8160   0.295E+00    0.349E-01
DAV:   2    -0.191638347447E+03   -0.35586E-02   -0.47756E-02 13280   0.690E-01    0.459E-01
DAV:   3    -0.191638013402E+03    0.33404E-03   -0.13176E-02 11240   0.814E-01    0.493E-01
DAV:   4    -0.191635957573E+03    0.20558E-02   -0.51241E-03 11400   0.517E-01    0.227E-01
DAV:   5    -0.191635672074E+03    0.28550E-03   -0.26682E-03 10120   0.362E-01    0.211E-01
DAV:   6    -0.191635334076E+03    0.33800E-03   -0.16330E-03 10480   0.280E-01    0.102E-01
DAV:   7    -0.191635214849E+03    0.11923E-03   -0.43812E-04  8480   0.111E-01    0.320E-02
DAV:   8    -0.191635209731E+03    0.51175E-05   -0.92427E-05  7120   0.499E-02
  68 F= -.19163521E+03 E0= -.19152761E+03  d E =0.136614E-01
       N       E                     dE             d eps       ncg     rms          rms(c)
DAV:   1    -0.191641099373E+03   -0.58845E-02   -0.49408E-01  8160   0.153E+00    0.206E-01
DAV:   2    -0.191642478127E+03   -0.13788E-02   -0.17698E-02 12840   0.499E-01    0.309E-01
DAV:   3    -0.191641897371E+03    0.58076E-03   -0.54685E-03 12280   0.502E-01    0.259E-01
DAV:   4    -0.191641329425E+03    0.56795E-03   -0.22908E-03 10000   0.314E-01    0.138E-01
DAV:   5    -0.191641181409E+03    0.14802E-03   -0.99502E-04  9640   0.196E-01    0.120E-01
DAV:   6    -0.191641079105E+03    0.10230E-03   -0.62648E-04  8640   0.173E-01    0.718E-02
DAV:   7    -0.191641008488E+03    0.70617E-04   -0.16966E-04  5520   0.754E-02
  69 F= -.19164101E+03 E0= -.19153372E+03  d E =-.579876E-02
       N       E                     dE             d eps       ncg     rms          rms(c)
DAV:   1    -0.191647052787E+03   -0.59737E-02   -0.31524E-01  8160   0.120E+00    0.132E-01
DAV:   2    -0.191647798262E+03   -0.74547E-03   -0.93305E-03 12680   0.316E-01    0.171E-01
DAV:   3    -0.191647713776E+03    0.84485E-04   -0.17656E-03 11160   0.298E-01    0.160E-01
DAV:   4    -0.191647472960E+03    0.24082E-03   -0.59889E-04  8640   0.177E-01    0.819E-02
DAV:   5    -0.191647465798E+03    0.71618E-05   -0.32722E-04  8240   0.133E-01
  70 F= -.19164747E+03 E0= -.19154078E+03  d E =-.645731E-02
       N       E                     dE             d eps       ncg     rms          rms(c)
DAV:   1    -0.191640197975E+03    0.72750E-02   -0.67402E-01  8160   0.177E+00    0.224E-01
DAV:   2    -0.191642043586E+03   -0.18456E-02   -0.18803E-02 12640   0.542E-01    0.378E-01
DAV:   3    -0.191641192361E+03    0.85122E-03   -0.59466E-03 12200   0.578E-01    0.305E-01
DAV:   4    -0.191640351954E+03    0.84041E-03   -0.20950E-03 11080   0.318E-01    0.113E-01
DAV:   5    -0.191640195726E+03    0.15623E-03   -0.62136E-04  9880   0.126E-01    0.785E-02
DAV:   6    -0.191640234091E+03   -0.38365E-04   -0.53291E-04  9280   0.165E-01
  71 F= -.19164023E+03 E0= -.19153286E+03  d E =0.723171E-02
       N       E                     dE             d eps       ncg     rms          rms(c)
DAV:   1    -0.191654741052E+03   -0.14545E-01   -0.15677E+00  8160   0.270E+00    0.315E-01
DAV:   2    -0.191657184395E+03   -0.24433E-02   -0.40992E-02 13400   0.624E-01    0.364E-01
DAV:   3    -0.191657902995E+03   -0.71860E-03   -0.92205E-03 12240   0.715E-01    0.502E-01
DAV:   4    -0.191655480921E+03    0.24221E-02   -0.46195E-03 11320   0.504E-01    0.152E-01
DAV:   5    -0.191655289517E+03    0.19140E-03   -0.15091E-03 10080   0.205E-01    0.123E-01
DAV:   6    -0.191655326484E+03   -0.36967E-04   -0.12244E-03 10280   0.242E-01    0.136E-01
DAV:   7    -0.191655103223E+03    0.22326E-03   -0.52260E-04  8760   0.160E-01    0.341E-02
DAV:   8    -0.191655089109E+03    0.14114E-04   -0.59101E-05  6040   0.372E-02
  72 F= -.19165509E+03 E0= -.19154921E+03  d E =-.148550E-01
       N       E                     dE             d eps       ncg     rms          rms(c)
DAV:   1    -0.191656656396E+03   -0.15532E-02   -0.71203E-02  8160   0.576E-01    0.727E-02
DAV:   2    -0.191656820183E+03   -0.16379E-03   -0.20744E-03 12040   0.140E-01    0.912E-02
DAV:   3    -0.191656736120E+03    0.84063E-04   -0.55726E-04  9800   0.145E-01
  73 F= -.19165674E+03 E0= -.19155110E+03  d E =-.164701E-02
       N       E                     dE             d eps       ncg     rms          rms(c)
DAV:   1    -0.191651592227E+03    0.52280E-02   -0.96467E-01  8160   0.213E+00    0.254E-01
DAV:   2    -0.191656401676E+03   -0.48094E-02   -0.29234E-02 13240   0.748E-01    0.630E-01
DAV:   3    -0.191652666391E+03    0.37353E-02   -0.98609E-03 12200   0.748E-01    0.246E-01
DAV:   4    -0.191652247848E+03    0.41854E-03   -0.21981E-03 10960   0.265E-01    0.140E-01
DAV:   5    -0.191651901563E+03    0.34628E-03   -0.80454E-04 10400   0.132E-01    0.694E-02
DAV:   6    -0.191652023102E+03   -0.12154E-03   -0.59767E-04 10080   0.176E-01    0.116E-01
DAV:   7    -0.191651872714E+03    0.15039E-03   -0.34737E-04  8040   0.134E-01    0.257E-02
DAV:   8    -0.191651871359E+03    0.13547E-05   -0.54094E-05  5920   0.365E-02
  74 F= -.19165187E+03 E0= -.19154567E+03  d E =0.486476E-02
       N       E                     dE             d eps       ncg     rms          rms(c)
DAV:   1    -0.191662806209E+03   -0.10933E-01   -0.11597E+00  8160   0.231E+00    0.272E-01
DAV:   2    -0.191665986804E+03   -0.31806E-02   -0.27474E-02 12760   0.663E-01    0.483E-01
DAV:   3    -0.191664065029E+03    0.19218E-02   -0.80844E-03 12160   0.673E-01    0.311E-01
DAV:   4    -0.191663549754E+03    0.51528E-03   -0.29886E-03 11640   0.371E-01    0.202E-01
DAV:   5    -0.191663282189E+03    0.26756E-03   -0.18710E-03 10040   0.300E-01    0.165E-01
DAV:   6    -0.191663021463E+03    0.26073E-03   -0.92123E-04  9440   0.208E-01    0.639E-02
DAV:   7    -0.191662994159E+03    0.27304E-04   -0.18010E-04  5960   0.718E-02
  75 F= -.19166299E+03 E0= -.19155805E+03  d E =-.111228E-01
       N       E                     dE             d eps       ncg     rms          rms(c)
DAV:   1    -0.191653816193E+03    0.92053E-02   -0.37819E+00  8160   0.417E+00    0.493E-01
DAV:   2    -0.191665550832E+03   -0.11735E-01   -0.90956E-02 13280   0.122E+00    0.922E-01
DAV:   3    -0.191658583264E+03    0.69676E-02   -0.30644E-02 12200   0.129E+00    0.604E-01
DAV:   4    -0.191656054903E+03    0.25284E-02   -0.99210E-03 12280   0.667E-01    0.314E-01
DAV:   5    -0.191654949663E+03    0.11052E-02   -0.41771E-03 10840   0.408E-01    0.237E-01
DAV:   6    -0.191654664775E+03    0.28489E-03   -0.29605E-03 12680   0.384E-01    0.166E-01
DAV:   7    -0.191654387162E+03    0.27761E-03   -0.86190E-04  8840   0.183E-01    0.484E-02
DAV:   8    -0.191654344868E+03    0.42294E-04   -0.14800E-04  6800   0.663E-02
  76 F= -.19165434E+03 E0= -.19154869E+03  d E =0.864929E-02
       N       E                     dE             d eps       ncg     rms          rms(c)
DAV:   1    -0.191655149286E+03   -0.76212E-03   -0.81323E-02  8160   0.615E-01    0.741E-02
DAV:   2    -0.191655396544E+03   -0.24726E-03   -0.22305E-03 13080   0.173E-01    0.131E-01
DAV:   3    -0.191655254778E+03    0.14177E-03   -0.77945E-04 10680   0.188E-01    0.897E-02
DAV:   4    -0.191655204282E+03    0.50496E-04   -0.24078E-04  6400   0.104E-01
  77 F= -.19165520E+03 E0= -.19154975E+03  d E =-.859415E-03
       N       E                     dE             d eps       ncg     rms          rms(c)
DAV:   1    -0.191636524684E+03    0.18730E-01   -0.25040E+00  8160   0.341E+00    0.404E-01
DAV:   2    -0.191646797634E+03   -0.10273E-01   -0.71986E-02 13440   0.117E+00    0.899E-01
DAV:   3    -0.191640110349E+03    0.66873E-02   -0.23770E-02 12120   0.112E+00    0.412E-01
DAV:   4    -0.191638653067E+03    0.14573E-02   -0.47349E-03 11040   0.403E-01    0.187E-01
DAV:   5    -0.191638185594E+03    0.46747E-03   -0.18815E-03 11360   0.213E-01    0.141E-01
DAV:   6    -0.191638629062E+03   -0.44347E-03   -0.23036E-03 11080   0.327E-01    0.238E-01
DAV:   7    -0.191638023499E+03    0.60556E-03   -0.11835E-03  9560   0.234E-01    0.440E-02
DAV:   8    -0.191638014514E+03    0.89848E-05   -0.11153E-04  5640   0.636E-02
  78 F= -.19163801E+03 E0= -.19153058E+03  d E =0.171898E-01
       N       E                     dE             d eps       ncg     rms          rms(c)
DAV:   1    -0.191638437298E+03   -0.41380E-03   -0.76400E-01  8160   0.189E+00    0.271E-01
DAV:   2    -0.191642547285E+03   -0.41100E-02   -0.32915E-02 12880   0.811E-01    0.581E-01
DAV:   3    -0.191639457935E+03    0.30893E-02   -0.12681E-02 12160   0.759E-01    0.274E-01
DAV:   4    -0.191638938058E+03    0.51988E-03   -0.32776E-03 11400   0.348E-01    0.190E-01
DAV:   5    -0.191638677584E+03    0.26047E-03   -0.19770E-03 10200   0.297E-01    0.162E-01
DAV:   6    -0.191638440607E+03    0.23698E-03   -0.10484E-03  9880   0.202E-01    0.691E-02
DAV:   7    -0.191638362572E+03    0.78035E-04   -0.22690E-04  6320   0.693E-02
  79 F= -.19163836E+03 E0= -.19153022E+03  d E =-.348058E-03
       N       E                     dE             d eps       ncg     rms          rms(c)
DAV:   1    -0.191645066680E+03   -0.66261E-02   -0.60062E-01  8160   0.167E+00    0.199E-01
DAV:   2    -0.191646992508E+03   -0.19258E-02   -0.18963E-02 12680   0.531E-01    0.327E-01
DAV:   3    -0.191646020241E+03    0.97227E-03   -0.54345E-03 12240   0.486E-01    0.227E-01
DAV:   4    -0.191645667910E+03    0.35233E-03   -0.20670E-03 10160   0.288E-01    0.141E-01
DAV:   5    -0.191645514866E+03    0.15304E-03   -0.10056E-03  9720   0.196E-01    0.115E-01
DAV:   6    -0.191645426099E+03    0.88767E-04   -0.56083E-04  8760   0.163E-01
  80 F= -.19164543E+03 E0= -.19153824E+03  d E =-.706353E-02
       N       E                     dE             d eps       ncg     rms          rms(c)
DAV:   1    -0.191649416695E+03   -0.39018E-02   -0.18432E-01  8160   0.925E-01    0.106E-01
DAV:   2    -0.191649999269E+03   -0.58257E-03   -0.56976E-03 12840   0.299E-01    0.182E-01
DAV:   3    -0.191649703739E+03    0.29553E-03   -0.13913E-03 10880   0.260E-01    0.990E-02
DAV:   4    -0.191649646689E+03    0.57050E-04   -0.35885E-04  7760   0.122E-01
  81 F= -.19164965E+03 E0= -.19154318E+03  d E =-.422059E-02
       N       E                     dE             d eps       ncg     rms          rms(c)
DAV:   1    -0.191642555790E+03    0.71479E-02   -0.80589E-01  8160   0.193E+00    0.216E-01
DAV:   2    -0.191645852747E+03   -0.32970E-02   -0.23419E-02 13360   0.665E-01    0.473E-01
DAV:   3    -0.191643466652E+03    0.23861E-02   -0.76508E-03 12120   0.616E-01    0.181E-01
DAV:   4    -0.191643447298E+03    0.19354E-04   -0.17038E-03  9840   0.264E-01    0.180E-01
DAV:   5    -0.191643182005E+03    0.26529E-03   -0.11741E-03  9800   0.238E-01    0.112E-01
DAV:   6    -0.191643069821E+03    0.11218E-03   -0.45382E-04  8640   0.127E-01    0.432E-02
DAV:   7    -0.191643050450E+03    0.19371E-04   -0.88078E-05  6360   0.465E-02
  82 F= -.19164305E+03 E0= -.19153573E+03  d E =0.659624E-02
       N       E                     dE             d eps       ncg     rms          rms(c)
DAV:   1    -0.191640169339E+03    0.29005E-02   -0.10074E+00  8160   0.215E+00    0.247E-01
DAV:   2    -0.191642483297E+03   -0.23140E-02   -0.23472E-02 13200   0.582E-01    0.379E-01
DAV:   3    -0.191641297808E+03    0.11855E-02   -0.69725E-03 12240   0.592E-01    0.268E-01
DAV:   4    -0.191640817431E+03    0.48038E-03   -0.22160E-03 11080   0.314E-01    0.166E-01
DAV:   5    -0.191640736877E+03    0.80554E-04   -0.13529E-03  9960   0.267E-01    0.176E-01
DAV:   6    -0.191640459401E+03    0.27748E-03   -0.77314E-04  9080   0.207E-01    0.619E-02
DAV:   7    -0.191640438257E+03    0.21144E-04   -0.14243E-04  6000   0.649E-02
  83 F= -.19164044E+03 E0= -.19153295E+03  d E =0.261219E-02
       N       E                     dE             d eps       ncg     rms          rms(c)
DAV:   1    -0.191645326052E+03   -0.48667E-02   -0.41655E-01  8160   0.139E+00    0.167E-01
DAV:   2    -0.191646757280E+03   -0.14312E-02   -0.11886E-02 13000   0.452E-01    0.313E-01
DAV:   3    -0.191645890415E+03    0.86687E-03   -0.47141E-03 12200   0.450E-01    0.195E-01
DAV:   4    -0.191645605234E+03    0.28518E-03   -0.13953E-03  9600   0.230E-01    0.105E-01
DAV:   5    -0.191645512906E+03    0.92328E-04   -0.47594E-04  8880   0.146E-01
  84 F= -.19164551E+03 E0= -.19153856E+03  d E =-.507465E-02
       N       E                     dE             d eps       ncg     rms          rms(c)
DAV:   1    -0.191630978265E+03    0.14627E-01   -0.28090E+00  8160   0.362E+00    0.444E-01
DAV:   2    -0.191638983056E+03   -0.80048E-02   -0.83188E-02 13480   0.969E-01    0.677E-01
DAV:   3    -0.191635883315E+03    0.30997E-02   -0.29932E-02 12000   0.110E+00    0.606E-01
DAV:   4    -0.191632873648E+03    0.30097E-02   -0.11776E-02 12200   0.683E-01    0.268E-01
DAV:   5    -0.191631835650E+03    0.10380E-02   -0.31122E-03 10640   0.302E-01    0.167E-01
DAV:   6    -0.191632001184E+03   -0.16553E-03   -0.20763E-03 12280   0.333E-01    0.200E-01
DAV:   7    -0.191631643444E+03    0.35774E-03   -0.10681E-03 10000   0.229E-01    0.856E-02
DAV:   8    -0.191631600757E+03    0.42686E-04   -0.31010E-04  7800   0.127E-01
  85 F= -.19163160E+03 E0= -.19152320E+03  d E =0.139121E-01
       N       E                     dE             d eps       ncg     rms          rms(c)
DAV:   1    -0.191630439517E+03    0.12039E-02   -0.13160E-01  8160   0.783E-01    0.982E-02
DAV:   2    -0.191630742560E+03   -0.30304E-03   -0.37268E-03 13400   0.202E-01    0.128E-01
DAV:   3    -0.191630670059E+03    0.72501E-04   -0.12250E-03 11000   0.223E-01    0.134E-01
DAV:   4    -0.191630526225E+03    0.14383E-03   -0.55900E-04  8480   0.155E-01    0.621E-02
DAV:   5    -0.191630490915E+03    0.35309E-04   -0.14017E-04  5760   0.746E-02
  86 F= -.19163049E+03 E0= -.19152179E+03  d E =0.110984E-02
       N       E                     dE             d eps       ncg     rms          rms(c)
DAV:   1    -0.191631543420E+03   -0.10172E-02   -0.77018E-01  8160   0.189E+00    0.233E-01
DAV:   2    -0.191633224038E+03   -0.16806E-02   -0.23111E-02 13160   0.520E-01    0.286E-01
DAV:   3    -0.191632816615E+03    0.40742E-03   -0.51834E-03 12200   0.501E-01    0.274E-01
DAV:   4    -0.191632210329E+03    0.60629E-03   -0.21572E-03 11480   0.332E-01    0.157E-01
DAV:   5    -0.191632085881E+03    0.12445E-03   -0.10446E-03  9720   0.227E-01    0.150E-01
DAV:   6    -0.191631926003E+03    0.15988E-03   -0.79180E-04  9040   0.202E-01    0.777E-02
DAV:   7    -0.191631873396E+03    0.52608E-04   -0.19357E-04  6240   0.830E-02
  87 F= -.19163187E+03 E0= -.19152283E+03  d E =-.138248E-02
       N       E                     dE             d eps       ncg     rms          rms(c)
DAV:   1    -0.191633648265E+03   -0.17223E-02   -0.14702E-01  8160   0.812E-01    0.859E-02
DAV:   2    -0.191634135926E+03   -0.48766E-03   -0.55120E-03 12040   0.250E-01    0.126E-01
DAV:   3    -0.191634074679E+03    0.61246E-04   -0.88668E-04 10960   0.210E-01
  88 F= -.19163407E+03 E0= -.19152496E+03  d E =-.220128E-02
       N       E                     dE             d eps       ncg     rms          rms(c)
DAV:   1    -0.191634536892E+03   -0.40097E-03   -0.10532E-02  8880   0.248E-01    0.633E-02
DAV:   2    -0.191635074419E+03   -0.53753E-03   -0.11702E-03 10960   0.249E-01    0.230E-01
DAV:   3    -0.191634487942E+03    0.58648E-03   -0.74254E-04  8760   0.224E-01    0.380E-02
DAV:   4    -0.191634524191E+03   -0.36249E-04   -0.10909E-04  5680   0.729E-02
  89 F= -.19163452E+03 E0= -.19152538E+03  d E =-.449512E-03
       N       E                     dE             d eps       ncg     rms          rms(c)
DAV:   1    -0.191635773260E+03   -0.12853E-02   -0.63468E-02  8160   0.539E-01    0.750E-02
DAV:   2    -0.191636096732E+03   -0.32347E-03   -0.26858E-03 12120   0.207E-01    0.146E-01
DAV:   3    -0.191635896146E+03    0.20059E-03   -0.79877E-04  9680   0.204E-01    0.827E-02
DAV:   4    -0.191635845295E+03    0.50852E-04   -0.20189E-04  6080   0.102E-01
  90 F= -.19163585E+03 E0= -.19152688E+03  d E =-.132110E-02
       N       E                     dE             d eps       ncg     rms          rms(c)
DAV:   1    -0.191638137509E+03   -0.22414E-02   -0.18670E-01  8160   0.931E-01    0.121E-01
DAV:   2    -0.191638970320E+03   -0.83281E-03   -0.69568E-03 12320   0.311E-01    0.232E-01
DAV:   3    -0.191638450841E+03    0.51948E-03   -0.22462E-03 11480   0.319E-01    0.126E-01
DAV:   4    -0.191638362112E+03    0.88729E-04   -0.55612E-04  8280   0.150E-01
  91 F= -.19163836E+03 E0= -.19152936E+03  d E =-.251682E-02
       N       E                     dE             d eps       ncg     rms          rms(c)
DAV:   1    -0.191635670215E+03    0.27806E-02   -0.19041E-01  8160   0.959E-01    0.116E-01
DAV:   2    -0.191636798180E+03   -0.11280E-02   -0.78162E-03 13520   0.370E-01    0.280E-01
DAV:   3    -0.191635976463E+03    0.82172E-03   -0.25308E-03 10640   0.355E-01    0.102E-01
DAV:   4    -0.191635963259E+03    0.13204E-04   -0.41789E-04  7960   0.135E-01
  92 F= -.19163596E+03 E0= -.19152711E+03  d E =0.239885E-02
       N       E                     dE             d eps       ncg     rms          rms(c)
DAV:   1    -0.191638107776E+03   -0.21313E-02   -0.21833E-01  8160   0.100E+00    0.113E-01
DAV:   2    -0.191639192218E+03   -0.10844E-02   -0.83683E-03 12400   0.374E-01    0.250E-01
DAV:   3    -0.191638511009E+03    0.68121E-03   -0.20327E-03 11360   0.315E-01    0.816E-02
DAV:   4    -0.191638489725E+03    0.21284E-04   -0.32261E-04  7000   0.113E-01
  93 F= -.19163849E+03 E0= -.19152975E+03  d E =-.252647E-02
       N       E                     dE             d eps       ncg     rms          rms(c)
DAV:   1    -0.191638685717E+03   -0.17471E-03   -0.25990E-03 10960   0.161E-01    0.588E-02
DAV:   2    -0.191639299926E+03   -0.61421E-03   -0.15254E-03 10920   0.277E-01    0.240E-01
DAV:   3    -0.191638636521E+03    0.66340E-03   -0.10947E-03  8680   0.242E-01    0.278E-02
DAV:   4    -0.191638667260E+03   -0.30738E-04   -0.70930E-05  5800   0.546E-02
  94 F= -.19163867E+03 E0= -.19153006E+03  d E =-.177534E-03
       N       E                     dE             d eps       ncg     rms          rms(c)
DAV:   1    -0.191639332851E+03   -0.69633E-03   -0.21469E-02  8160   0.315E-01    0.510E-02
DAV:   2    -0.191639611585E+03   -0.27873E-03   -0.11813E-03 12040   0.193E-01    0.159E-01
DAV:   3    -0.191639334868E+03    0.27672E-03   -0.55965E-04  8400   0.172E-01    0.355E-02
DAV:   4    -0.191639334437E+03    0.43051E-06   -0.56790E-05  5480   0.396E-02
  95 F= -.19163933E+03 E0= -.19153084E+03  d E =-.667178E-03
       N       E                     dE             d eps       ncg     rms          rms(c)
DAV:   1    -0.191640107167E+03   -0.77230E-03   -0.29136E-02  8160   0.375E-01    0.600E-02
DAV:   2    -0.191640369192E+03   -0.26202E-03   -0.15160E-03 13480   0.192E-01    0.153E-01
DAV:   3    -0.191640109076E+03    0.26012E-03   -0.69770E-04  8360   0.186E-01    0.491E-02
DAV:   4    -0.191640116130E+03   -0.70546E-05   -0.13615E-04  5480   0.734E-02
  96 F= -.19164012E+03 E0= -.19153146E+03  d E =-.781693E-03
       N       E                     dE             d eps       ncg     rms          rms(c)
DAV:   1    -0.191641061193E+03   -0.95212E-03   -0.14265E-01  8160   0.828E-01    0.113E-01
DAV:   2    -0.191641583562E+03   -0.52237E-03   -0.50555E-03 13440   0.282E-01    0.211E-01
DAV:   3    -0.191641222992E+03    0.36057E-03   -0.17858E-03 10160   0.301E-01    0.125E-01
DAV:   4    -0.191641104686E+03    0.11831E-03   -0.46274E-04  7800   0.134E-01    0.715E-02
DAV:   5    -0.191641066594E+03    0.38092E-04   -0.25274E-04  6840   0.110E-01
  97 F= -.19164107E+03 E0= -.19153281E+03  d E =-.950464E-03
       N       E                     dE             d eps       ncg     rms          rms(c)
DAV:   1    -0.191644862263E+03   -0.37576E-02   -0.24301E-01  8160   0.109E+00    0.199E-01
DAV:   2    -0.191644977125E+03   -0.11486E-03   -0.10177E-02 12000   0.407E-01    0.274E-01
DAV:   3    -0.191644773088E+03    0.20404E-03   -0.37657E-03 11360   0.459E-01    0.259E-01
DAV:   4    -0.191644129147E+03    0.64394E-03   -0.17307E-03 10200   0.297E-01    0.129E-01
DAV:   5    -0.191644093864E+03    0.35283E-04   -0.10386E-03  9520   0.216E-01    0.133E-01
DAV:   6    -0.191643886218E+03    0.20765E-03   -0.60539E-04  8320   0.167E-01    0.449E-02
DAV:   7    -0.191643861981E+03    0.24237E-04   -0.96634E-05  5480   0.516E-02
  98 F= -.19164386E+03 E0= -.19153556E+03  d E =-.279539E-02
       N       E                     dE             d eps       ncg     rms          rms(c)
DAV:   1    -0.191644182624E+03   -0.29641E-03   -0.20623E-01  8160   0.971E-01    0.125E-01
DAV:   2    -0.191645238946E+03   -0.10563E-02   -0.77913E-03 13160   0.369E-01    0.273E-01
DAV:   3    -0.191644526214E+03    0.71273E-03   -0.26799E-03 11320   0.363E-01    0.128E-01
DAV:   4    -0.191644421060E+03    0.10515E-03   -0.56321E-04  8200   0.144E-01    0.790E-02
DAV:   5    -0.191644372809E+03    0.48251E-04   -0.29727E-04  7920   0.118E-01
  99 F= -.19164437E+03 E0= -.19153598E+03  d E =-.510828E-03
       N       E                     dE             d eps       ncg     rms          rms(c)
DAV:   1    -0.191648910156E+03   -0.44891E-02   -0.36963E-01  8160   0.130E+00    0.172E-01
DAV:   2    -0.191651013096E+03   -0.21029E-02   -0.13142E-02 12320   0.589E-01    0.405E-01
DAV:   3    -0.191649165755E+03    0.18473E-02   -0.42444E-03 12160   0.474E-01    0.114E-01
DAV:   4    -0.191649218854E+03   -0.53099E-04   -0.73239E-04  8920   0.181E-01
 100 F= -.19164922E+03 E0= -.19154167E+03  d E =-.484604E-02
