<?xml version="1.0" encoding="ISO-8859-1"?>
<modeling>
 <generator>
  <i name="program" type="string">vasp </i>
  <i name="version" type="string">5.4.1  </i>
  <i name="subversion" type="string">05Feb16 (build Jul 05 2020 17:13:04) complex                          parallel </i>
  <i name="platform" type="string">IFC91_ompi </i>
  <i name="date" type="string">2024 07 31 </i>
  <i name="time" type="string">00:10:28 </i>
 </generator>
 <incar>
  <i type="int" name="ISTART">     0</i>
  <i type="string" name="PREC">normal</i>
  <i type="string" name="ALGO"> Normal</i>
  <i type="int" name="ISPIN">     1</i>
  <i type="int" name="ICHARG">     2</i>
  <i type="int" name="IBRION">     1</i>
  <i type="int" name="NSW">   100</i>
  <i type="int" name="ISIF">     3</i>
  <i type="int" name="ISYM">     0</i>
  <i name="SYMPREC">      0.00000001</i>
  <i name="POTIM">      0.50000000</i>
  <i type="logical" name="LREAL"> F  </i>
  <i type="logical" name="LPLANE"> F  </i>
  <i type="int" name="ISMEAR">     0</i>
  <i type="logical" name="LWAVE"> F  </i>
  <i type="logical" name="LCHARG"> F  </i>
  <v type="int" name="KPOINT_BSE">    -1     0     0     0</v>
 </incar>
 <kpoints>
  <generation param="Gamma">
   <v type="int" name="divisions">       8        8        1 </v>
   <v name="usershift">      0.00000000       0.00000000       0.00000000 </v>
   <v name="genvec1">      0.12500000       0.00000000       0.00000000 </v>
   <v name="genvec2">     -0.00000000       0.12500000       0.00000000 </v>
   <v name="genvec3">      0.00000000       0.00000000       1.00000000 </v>
   <v name="shift">      0.00000000       0.00000000       0.00000000 </v>
  </generation>
  <varray name="kpointlist" >
   <v>       0.00000000       0.00000000       0.00000000 </v>
   <v>       0.12500000       0.00000000       0.00000000 </v>
   <v>       0.25000000       0.00000000       0.00000000 </v>
   <v>       0.37500000       0.00000000       0.00000000 </v>
   <v>       0.50000000       0.00000000       0.00000000 </v>
   <v>       0.00000000       0.12500000       0.00000000 </v>
   <v>       0.12500000       0.12500000       0.00000000 </v>
   <v>       0.25000000       0.12500000       0.00000000 </v>
   <v>       0.37500000       0.12500000       0.00000000 </v>
   <v>       0.50000000       0.12500000       0.00000000 </v>
   <v>      -0.37500000       0.12500000       0.00000000 </v>
   <v>      -0.25000000       0.12500000       0.00000000 </v>
   <v>      -0.12500000       0.12500000       0.00000000 </v>
   <v>       0.00000000       0.25000000       0.00000000 </v>
   <v>       0.12500000       0.25000000       0.00000000 </v>
   <v>       0.25000000       0.25000000       0.00000000 </v>
   <v>       0.37500000       0.25000000       0.00000000 </v>
   <v>       0.50000000       0.25000000       0.00000000 </v>
   <v>      -0.37500000       0.25000000       0.00000000 </v>
   <v>      -0.25000000       0.25000000       0.00000000 </v>
   <v>      -0.12500000       0.25000000       0.00000000 </v>
   <v>      -0.00000000       0.37500000       0.00000000 </v>
   <v>       0.12500000       0.37500000       0.00000000 </v>
   <v>       0.25000000       0.37500000       0.00000000 </v>
   <v>       0.37500000       0.37500000       0.00000000 </v>
   <v>       0.50000000       0.37500000       0.00000000 </v>
   <v>      -0.37500000       0.37500000       0.00000000 </v>
   <v>      -0.25000000       0.37500000       0.00000000 </v>
   <v>      -0.12500000       0.37500000       0.00000000 </v>
   <v>       0.00000000       0.50000000       0.00000000 </v>
   <v>       0.12500000       0.50000000       0.00000000 </v>
   <v>       0.25000000       0.50000000       0.00000000 </v>
   <v>       0.37500000       0.50000000       0.00000000 </v>
   <v>       0.50000000       0.50000000       0.00000000 </v>
  </varray>
  <varray name="weights" >
   <v>       0.01562500 </v>
   <v>       0.03125000 </v>
   <v>       0.03125000 </v>
   <v>       0.03125000 </v>
   <v>       0.01562500 </v>
   <v>       0.03125000 </v>
   <v>       0.03125000 </v>
   <v>       0.03125000 </v>
   <v>       0.03125000 </v>
   <v>       0.03125000 </v>
   <v>       0.03125000 </v>
   <v>       0.03125000 </v>
   <v>       0.03125000 </v>
   <v>       0.03125000 </v>
   <v>       0.03125000 </v>
   <v>       0.03125000 </v>
   <v>       0.03125000 </v>
   <v>       0.03125000 </v>
   <v>       0.03125000 </v>
   <v>       0.03125000 </v>
   <v>       0.03125000 </v>
   <v>       0.03125000 </v>
   <v>       0.03125000 </v>
   <v>       0.03125000 </v>
   <v>       0.03125000 </v>
   <v>       0.03125000 </v>
   <v>       0.03125000 </v>
   <v>       0.03125000 </v>
   <v>       0.03125000 </v>
   <v>       0.01562500 </v>
   <v>       0.03125000 </v>
   <v>       0.03125000 </v>
   <v>       0.03125000 </v>
   <v>       0.01562500 </v>
  </varray>
 </kpoints>
 <parameters>
  <separator name="general" >
   <i type="string" name="SYSTEM">unknown system</i>
   <i type="logical" name="LCOMPAT"> F  </i>
  </separator>
  <separator name="electronic" >
   <i type="string" name="PREC">normal</i>
   <i name="ENMAX">    280.00000000</i>
   <i name="ENAUG">    373.43800000</i>
   <i name="EDIFF">      0.00010000</i>
   <i type="int" name="IALGO">    38</i>
   <i type="int" name="IWAVPR">    11</i>
   <i type="int" name="NBANDS">   120</i>
   <i name="NELECT">    159.00000000</i>
   <i type="int" name="TURBO">     0</i>
   <i type="int" name="IRESTART">     0</i>
   <i type="int" name="NREBOOT">     0</i>
   <i type="int" name="NMIN">     0</i>
   <i name="EREF">      0.00000000</i>
   <separator name="electronic smearing" >
    <i type="int" name="ISMEAR">     0</i>
    <i name="SIGMA">      0.20000000</i>
    <i name="KSPACING">      0.50000000</i>
    <i type="logical" name="KGAMMA"> T  </i>
   </separator>
   <separator name="electronic projectors" >
    <i type="logical" name="LREAL"> F  </i>
    <v name="ROPT">      0.00000000      0.00000000      0.00000000      0.00000000</v>
    <i type="int" name="LMAXPAW">  -100</i>
    <i type="int" name="LMAXMIX">     2</i>
    <i type="logical" name="NLSPLINE"> F  </i>
   </separator>
   <separator name="electronic startup" >
    <i type="int" name="ISTART">     0</i>
    <i type="int" name="ICHARG">     2</i>
    <i type="int" name="INIWAV">     1</i>
   </separator>
   <separator name="electronic spin" >
    <i type="int" name="ISPIN">     1</i>
    <i type="logical" name="LNONCOLLINEAR"> F  </i>
    <v name="MAGMOM">      1.00000000      1.00000000      1.00000000      1.00000000      1.00000000      1.00000000      1.00000000      1.00000000      1.00000000      1.00000000      1.00000000      1.00000000      1.00000000      1.00000000      1.00000000      1.00000000      1.00000000      1.00000000      1.00000000      1.00000000
      1.00000000      1.00000000      1.00000000      1.00000000      1.00000000      1.00000000      1.00000000</v>
    <i name="NUPDOWN">     -1.00000000</i>
    <i type="logical" name="LSORBIT"> F  </i>
    <v name="SAXIS">      0.00000000      0.00000000      1.00000000</v>
    <i type="logical" name="LSPIRAL"> F  </i>
    <v name="QSPIRAL">      0.00000000      0.00000000      0.00000000</v>
    <i type="logical" name="LZEROZ"> F  </i>
   </separator>
   <separator name="electronic exchange-correlation" >
    <i type="logical" name="LASPH"> F  </i>
    <i type="logical" name="LMETAGGA"> F  </i>
   </separator>
   <separator name="electronic convergence" >
    <i type="int" name="NELM">    60</i>
    <i type="int" name="NELMDL">    -5</i>
    <i type="int" name="NELMIN">     2</i>
    <i name="ENINI">    280.00000000</i>
    <separator name="electronic convergence detail" >
     <i type="logical" name="LDIAG"> T  </i>
     <i type="logical" name="LSUBROT"> F  </i>
     <i name="WEIMIN">      0.00100000</i>
     <i name="EBREAK">      0.00000021</i>
     <i name="DEPER">      0.30000000</i>
     <i type="int" name="NRMM">     4</i>
     <i name="TIME">      0.40000000</i>
    </separator>
   </separator>
   <separator name="electronic mixer" >
    <i name="AMIX">      0.40000000</i>
    <i name="BMIX">      1.00000000</i>
    <i name="AMIN">      0.10000000</i>
    <i name="AMIX_MAG">      1.60000000</i>
    <i name="BMIX_MAG">      1.00000000</i>
    <separator name="electronic mixer details" >
     <i type="int" name="IMIX">     4</i>
     <i type="logical" name="MIXFIRST"> F  </i>
     <i type="int" name="MAXMIX">   -45</i>
     <i name="WC">    100.00000000</i>
     <i type="int" name="INIMIX">     1</i>
     <i type="int" name="MIXPRE">     1</i>
     <i type="int" name="MREMOVE">     5</i>
    </separator>
   </separator>
   <separator name="electronic dipolcorrection" >
    <i type="logical" name="LDIPOL"> F  </i>
    <i type="logical" name="LMONO"> F  </i>
    <i type="int" name="IDIPOL">     0</i>
    <i name="EPSILON">      1.00000000</i>
    <v name="DIPOL">   -100.00000000   -100.00000000   -100.00000000</v>
    <i name="EFIELD">      0.00000000</i>
   </separator>
  </separator>
  <separator name="grids" >
   <i type="int" name="NGX">    42</i>
   <i type="int" name="NGY">    42</i>
   <i type="int" name="NGZ">   126</i>
   <i type="int" name="NGXF">    84</i>
   <i type="int" name="NGYF">    84</i>
   <i type="int" name="NGZF">   252</i>
   <i type="logical" name="ADDGRID"> F  </i>
  </separator>
  <separator name="ionic" >
   <i type="int" name="NSW">   100</i>
   <i type="int" name="IBRION">     1</i>
   <i type="int" name="ISIF">     3</i>
   <i name="PSTRESS">      0.00000000</i>
   <i name="EDIFFG">      0.00100000</i>
   <i type="int" name="NFREE">     0</i>
   <i name="POTIM">      0.50000000</i>
   <i name="SMASS">     -3.00000000</i>
   <i name="SCALEE">      1.00000000</i>
  </separator>
  <separator name="ionic md" >
   <i name="TEBEG">      0.00010000</i>
   <i name="TEEND">      0.00010000</i>
   <i type="int" name="NBLOCK">     1</i>
   <i type="int" name="KBLOCK">   100</i>
   <i type="int" name="NPACO">   256</i>
   <i name="APACO">     16.00000000</i>
  </separator>
  <separator name="symmetry" >
   <i type="int" name="ISYM">     0</i>
   <i name="SYMPREC">      0.00000001</i>
  </separator>
  <separator name="dos" >
   <i type="logical" name="LORBIT"> F  </i>
   <v name="RWIGS">     -1.00000000     -1.00000000     -1.00000000     -1.00000000</v>
   <i type="int" name="NEDOS">   301</i>
   <i name="EMIN">     10.00000000</i>
   <i name="EMAX">    -10.00000000</i>
   <i name="EFERMI">      0.00000000</i>
  </separator>
  <separator name="writing" >
   <i type="int" name="NWRITE">     2</i>
   <i type="logical" name="LWAVE"> F  </i>
   <i type="logical" name="LCHARG"> F  </i>
   <i type="logical" name="LPARD"> F  </i>
   <i type="logical" name="LVTOT"> F  </i>
   <i type="logical" name="LVHAR"> F  </i>
   <i type="logical" name="LELF"> F  </i>
   <i type="logical" name="LOPTICS"> F  </i>
   <v name="STM">      0.00000000      0.00000000      0.00000000      0.00000000      0.00000000      0.00000000      0.00000000</v>
  </separator>
  <separator name="performance" >
   <i type="int" name="NPAR">    40</i>
   <i type="int" name="NSIM">     4</i>
   <i type="int" name="NBLK">    -1</i>
   <i type="logical" name="LPLANE"> F  </i>
   <i type="logical" name="LSCALAPACK"> T  </i>
   <i type="logical" name="LSCAAWARE"> F  </i>
   <i type="logical" name="LSCALU"> F  </i>
   <i type="logical" name="LASYNC"> F  </i>
   <i type="logical" name="LORBITALREAL"> F  </i>
  </separator>
  <separator name="miscellaneous" >
   <i type="int" name="IDIOT">     3</i>
   <i type="logical" name="LMUSIC"> F  </i>
   <v name="POMASS">     50.94100000     95.94000000    183.85000000     32.06600000</v>
   <v name="DARWINR">      0.00000000      0.00000000      0.00000000      0.00000000</v>
   <v name="DARWINV">      1.00000000      1.00000000      1.00000000      1.00000000</v>
   <i type="logical" name="LCORR"> T  </i>
  </separator>
  <i type="logical" name="GGA_COMPAT"> T  </i>
  <i type="logical" name="LBERRY"> F  </i>
  <i type="int" name="ICORELEVEL">     0</i>
  <i type="logical" name="LDAU"> F  </i>
  <i type="int" name="I_CONSTRAINED_M">     0</i>
  <separator name="electronic exchange-correlation" >
   <i type="string" name="GGA">--</i>
   <i type="int" name="VOSKOWN">     0</i>
   <i type="logical" name="LHFCALC"> F  </i>
   <i type="string" name="PRECFOCK"></i>
   <i type="logical" name="LSYMGRAD"> F  </i>
   <i type="logical" name="LHFONE"> F  </i>
   <i type="logical" name="LRHFCALC"> F  </i>
   <i type="logical" name="LTHOMAS"> F  </i>
   <i type="logical" name="LMODELHF"> F  </i>
   <i name="ENCUT4O">     -1.00000000</i>
   <i type="int" name="EXXOEP">     0</i>
   <i type="int" name="FOURORBIT">     0</i>
   <i name="AEXX">      0.00000000</i>
   <i name="HFALPHA">      0.00000000</i>
   <i name="MCALPHA">      0.00000000</i>
   <i name="ALDAX">      1.00000000</i>
   <i name="AGGAX">      1.00000000</i>
   <i name="ALDAC">      1.00000000</i>
   <i name="AGGAC">      1.00000000</i>
   <i type="int" name="NKREDX">     1</i>
   <i type="int" name="NKREDY">     1</i>
   <i type="int" name="NKREDZ">     1</i>
   <i type="logical" name="SHIFTRED"> F  </i>
   <i type="logical" name="ODDONLY"> F  </i>
   <i type="logical" name="EVENONLY"> F  </i>
   <i type="int" name="LMAXFOCK">     0</i>
   <i type="int" name="NMAXFOCKAE">     0</i>
   <i type="logical" name="LFOCKAEDFT"> F  </i>
   <i name="HFSCREEN">      0.00000000</i>
   <i name="HFSCREENC">      0.00000000</i>
   <i type="int" name="NBANDSGWLOW">     0</i>
  </separator>
  <separator name="vdW DFT" >
   <i type="logical" name="LUSE_VDW"> F  </i>
   <i name="Zab_VDW">     -0.84910000</i>
   <i name="PARAM1">      0.12340000</i>
   <i name="PARAM2">      1.00000000</i>
   <i name="PARAM3">      0.00000000</i>
  </separator>
  <separator name="model GW" >
   <i type="int" name="MODEL_GW">     0</i>
   <i name="MODEL_EPS0">     58.26239943</i>
   <i name="MODEL_ALPHA">      1.00000000</i>
  </separator>
  <separator name="linear response parameters" >
   <i type="logical" name="LEPSILON"> F  </i>
   <i type="logical" name="LRPA"> F  </i>
   <i type="logical" name="LNABLA"> F  </i>
   <i type="logical" name="LVEL"> F  </i>
   <i type="int" name="KINTER">     0</i>
   <i name="CSHIFT">      0.10000000</i>
   <i name="OMEGAMAX">     -1.00000000</i>
   <i name="DEG_THRESHOLD">      0.00200000</i>
  </separator>
  <separator name="orbital magnetization" >
   <i type="logical" name="NUCIND"> F  </i>
   <v name="MAGPOS">      0.00000000      0.00000000      0.00000000</v>
   <i type="logical" name="LNICSALL"> T  </i>
   <i type="logical" name="ORBITALMAG"> F  </i>
   <i type="logical" name="LMAGBLOCH"> F  </i>
   <i type="logical" name="LCHIMAG"> F  </i>
   <i type="logical" name="LGAUGE"> T  </i>
   <i type="int" name="MAGATOM">     0</i>
   <v name="MAGDIPOL">      0.00000000      0.00000000      0.00000000</v>
   <v name="AVECCONST">      0.00000000      0.00000000      0.00000000</v>
  </separator>
  <separator name="response functions" >
   <i type="logical" name="LADDER"> F  </i>
   <i type="logical" name="LFXC"> F  </i>
   <i type="logical" name="LHARTREE"> T  </i>
   <i type="int" name="IBSE">     0</i>
   <v type="int" name="KPOINT">    -1     0     0     0</v>
   <i type="logical" name="LTCTE"> F  </i>
   <i type="logical" name="LTETE"> F  </i>
   <i type="logical" name="LTRIPLET"> F  </i>
   <i type="logical" name="LFXCEPS"> F  </i>
   <i type="logical" name="LFXHEG"> F  </i>
   <i type="int" name="NATURALO">     0</i>
   <i type="logical" name="L2ORDER"> F  </i>
   <i type="logical" name="LUSEW"> F  </i>
   <i name="ENCUTGW">     -2.00000000</i>
   <i name="ENCUTGWSOFT">     -2.00000000</i>
   <i name="ENCUTLF">     -1.00000000</i>
   <i type="int" name="LMAXMP2">    -1</i>
   <i name="SCISSOR">      0.00000000</i>
   <i type="int" name="NOMEGA">     0</i>
   <i type="int" name="NOMEGAR">     0</i>
   <i type="int" name="NBANDSGW">    -1</i>
   <i type="int" name="NBANDSO">    -1</i>
   <i type="int" name="NBANDSV">    -1</i>
   <i type="int" name="NELM">     1</i>
   <i type="int" name="NELMHF">     1</i>
   <i type="int" name="DIM">     3</i>
   <i type="int" name="ANTIRES">     0</i>
   <i name="OMEGAMAX">    -30.00000000</i>
   <i name="OMEGAMIN">    -30.00000000</i>
   <i name="OMEGATL">   -200.00000000</i>
   <i type="int" name="OMEGAGRID">     0</i>
   <i name="CSHIFT">     -0.10000000</i>
   <i type="logical" name="SELFENERGY"> F  </i>
   <i type="logical" name="LSPECTRAL"> F  </i>
   <i type="logical" name="LSPECTRALGW"> F  </i>
   <i type="logical" name="LSINGLES"> F  </i>
   <i type="logical" name="LFERMIGW"> F  </i>
   <i type="logical" name="ODDONLYGW"> F  </i>
   <i type="logical" name="EVENONLYGW"> F  </i>
   <i type="int" name="NKREDLFX">     1</i>
   <i type="int" name="NKREDLFY">     1</i>
   <i type="int" name="NKREDLFZ">     1</i>
   <i type="int" name="MAXMEM">  1800</i>
   <i type="int" name="TELESCOPE">     0</i>
   <i type="int" name="TAUPAR">     1</i>
   <i type="int" name="OMEGAPAR">    -1</i>
   <i name="LAMBDA">      1.00000000</i>
  </separator>
  <separator name="External order field" >
   <i name="OFIELD_KAPPA">      0.00000000</i>
   <v name="OFIELD_K">      0.00000000      0.00000000      0.00000000</v>
   <i name="OFIELD_Q6_NEAR">      0.00000000</i>
   <i name="OFIELD_Q6_FAR">      0.00000000</i>
   <i name="OFIELD_A">      0.00000000</i>
  </separator>
 </parameters>
 <atominfo>
  <atoms>      27 </atoms>
  <types>       4 </types>
  <array name="atoms" >
   <dimension dim="1">ion</dimension>
   <field type="string">element</field>
   <field type="int">atomtype</field>
   <set>
    <rc><c>V </c><c>   1</c></rc>
    <rc><c>V </c><c>   1</c></rc>
    <rc><c>V </c><c>   1</c></rc>
    <rc><c>Mo</c><c>   2</c></rc>
    <rc><c>Mo</c><c>   2</c></rc>
    <rc><c>Mo</c><c>   2</c></rc>
    <rc><c>W </c><c>   3</c></rc>
    <rc><c>W </c><c>   3</c></rc>
    <rc><c>W </c><c>   3</c></rc>
    <rc><c>S </c><c>   4</c></rc>
    <rc><c>S </c><c>   4</c></rc>
    <rc><c>S </c><c>   4</c></rc>
    <rc><c>S </c><c>   4</c></rc>
    <rc><c>S </c><c>   4</c></rc>
    <rc><c>S </c><c>   4</c></rc>
    <rc><c>S </c><c>   4</c></rc>
    <rc><c>S </c><c>   4</c></rc>
    <rc><c>S </c><c>   4</c></rc>
    <rc><c>S </c><c>   4</c></rc>
    <rc><c>S </c><c>   4</c></rc>
    <rc><c>S </c><c>   4</c></rc>
    <rc><c>S </c><c>   4</c></rc>
    <rc><c>S </c><c>   4</c></rc>
    <rc><c>S </c><c>   4</c></rc>
    <rc><c>S </c><c>   4</c></rc>
    <rc><c>S </c><c>   4</c></rc>
    <rc><c>S </c><c>   4</c></rc>
   </set>
  </array>
  <array name="atomtypes" >
   <dimension dim="1">type</dimension>
   <field type="int">atomspertype</field>
   <field type="string">element</field>
   <field>mass</field>
   <field>valence</field>
   <field type="string">pseudopotential</field>
   <set>
    <rc><c>   3</c><c>V </c><c>     50.94100000</c><c>      5.00000000</c><c> PAW_PBE V 08Apr2002                    </c></rc>
    <rc><c>   3</c><c>Mo</c><c>     95.94000000</c><c>      6.00000000</c><c> PAW_PBE Mo 08Apr2002                   </c></rc>
    <rc><c>   3</c><c>W </c><c>    183.85000000</c><c>      6.00000000</c><c> PAW_PBE W 08Apr2002                    </c></rc>
    <rc><c>  18</c><c>S </c><c>     32.06600000</c><c>      6.00000000</c><c>  PAW_PBE S 17Jan2003                   </c></rc>
   </set>
  </array>
 </atominfo>
 <structure name="initialpos" >
  <crystal>
   <varray name="basis" >
    <v>       8.66999996       5.03999989       0.00000000 </v>
    <v>      -8.66999982       5.04000013       0.00000000 </v>
    <v>       0.00000000       0.00000000      30.00000000 </v>
   </varray>
   <i name="volume">   2621.80797419 </i>
   <varray name="rec_basis" >
    <v>       0.05767013       0.09920635       0.00000000 </v>
    <v>      -0.05767013       0.09920635       0.00000000 </v>
    <v>       0.00000000       0.00000000       0.03333333 </v>
   </varray>
  </crystal>
  <varray name="positions" >
   <v>       0.33333334       0.66666669       0.00000000 </v>
   <v>       0.00000000       0.00000000       0.00000000 </v>
   <v>       0.66666669       0.66666669       0.00000000 </v>
   <v>       0.33333334       0.00000000       0.00000000 </v>
   <v>       0.66666669       0.00000000       0.00000000 </v>
   <v>       1.00000000       0.33333334       0.00000000 </v>
   <v>       0.00000000       0.66666669       0.00000000 </v>
   <v>       0.33333334       0.33333334       0.00000000 </v>
   <v>       0.66666669       0.33333334       0.00000000 </v>
   <v>       0.11068511       0.22244981       0.95539999 </v>
   <v>       0.22244981       0.11068511       0.04460000 </v>
   <v>       0.11068511       0.55578315       0.95539999 </v>
   <v>       0.22244981       0.44401845       0.04460000 </v>
   <v>       0.11068511       0.88911647       0.95539999 </v>
   <v>       0.22244981       0.77735180       0.04460000 </v>
   <v>       0.44401845       0.22244981       0.95539999 </v>
   <v>       0.55578315       0.11068511       0.04460000 </v>
   <v>       0.44401845       0.55578315       0.95539999 </v>
   <v>       0.55578315       0.44401845       0.04460000 </v>
   <v>       0.44401845       0.88911647       0.95539999 </v>
   <v>       0.55578315       0.77735180       0.04460000 </v>
   <v>       0.77735180       0.22244981       0.95539999 </v>
   <v>       0.88911647       0.11068511       0.04460000 </v>
   <v>       0.77735180       0.55578315       0.95539999 </v>
   <v>       0.88911647       0.44401845       0.04460000 </v>
   <v>       0.77735180       0.88911647       0.95539999 </v>
   <v>       0.88911647       0.77735180       0.04460000 </v>
  </varray>
 </structure>
 <calculation>
  <scstep>
   <time name="dav">   30.11   30.19</time>
   <time name="total">   30.17   30.25</time>
   <energy>
    <i name="alphaZ">     81.65567618 </i>
    <i name="ewald">  41890.23009656 </i>
    <i name="hartreedc"> -47722.86566785 </i>
    <i name="XCdc">   -242.92868360 </i>
    <i name="pawpsdc">   3467.42045192 </i>
    <i name="pawaedc">  -2871.19716117 </i>
    <i name="eentropy">     -0.53827019 </i>
    <i name="bandstr">   -237.00312276 </i>
    <i name="atom">   6761.44252427 </i>
    <i name="e_fr_energy">   1126.21584336 </i>
    <i name="e_wo_entrp">   1126.75411355 </i>
    <i name="e_0_energy">   1126.48497846 </i>
   </energy>
  </scstep>
  <scstep>
   <time name="dav">   40.32   40.42</time>
   <time name="total">   40.33   40.43</time>
   <energy>
    <i name="e_fr_energy">     -3.42567691 </i>
    <i name="e_wo_entrp">     -3.22936169 </i>
    <i name="e_0_energy">     -3.32751930 </i>
   </energy>
  </scstep>
  <scstep>
   <time name="dav">   38.07   38.17</time>
   <time name="total">   38.08   38.17</time>
   <energy>
    <i name="e_fr_energy">   -199.94927871 </i>
    <i name="e_wo_entrp">   -199.68306079 </i>
    <i name="e_0_energy">   -199.81616975 </i>
   </energy>
  </scstep>
  <scstep>
   <time name="dav">   42.48   42.58</time>
   <time name="total">   42.48   42.59</time>
   <energy>
    <i name="e_fr_energy">   -209.01054863 </i>
    <i name="e_wo_entrp">   -208.71444556 </i>
    <i name="e_0_energy">   -208.86249710 </i>
   </energy>
  </scstep>
  <scstep>
   <time name="dav">   38.90   38.99</time>
   <time name="total">   39.50   39.60</time>
   <energy>
    <i name="e_fr_energy">   -209.29142367 </i>
    <i name="e_wo_entrp">   -208.99793315 </i>
    <i name="e_0_energy">   -209.14467841 </i>
   </energy>
  </scstep>
  <scstep>
   <time name="dav">   42.63   42.73</time>
   <time name="total">   43.27   43.38</time>
   <energy>
    <i name="e_fr_energy">   -236.98540459 </i>
    <i name="e_wo_entrp">   -236.70759989 </i>
    <i name="e_0_energy">   -236.84650224 </i>
   </energy>
  </scstep>
  <scstep>
   <time name="dav">   45.46   45.57</time>
   <time name="total">   46.11   46.23</time>
   <energy>
    <i name="e_fr_energy">   -196.52624489 </i>
    <i name="e_wo_entrp">   -196.21133555 </i>
    <i name="e_0_energy">   -196.36879022 </i>
   </energy>
  </scstep>
  <scstep>
   <time name="dav">   41.65   41.75</time>
   <time name="total">   42.31   42.42</time>
   <energy>
    <i name="e_fr_energy">   -189.54773878 </i>
    <i name="e_wo_entrp">   -189.25995715 </i>
    <i name="e_0_energy">   -189.40384796 </i>
   </energy>
  </scstep>
  <scstep>
   <time name="dav">   42.91   43.02</time>
   <time name="total">   43.58   43.70</time>
   <energy>
    <i name="e_fr_energy">   -188.24069007 </i>
    <i name="e_wo_entrp">   -187.91310899 </i>
    <i name="e_0_energy">   -188.07689953 </i>
   </energy>
  </scstep>
  <scstep>
   <time name="dav">   45.46   45.57</time>
   <time name="total">   46.16   46.49</time>
   <energy>
    <i name="e_fr_energy">   -187.04889730 </i>
    <i name="e_wo_entrp">   -186.69825371 </i>
    <i name="e_0_energy">   -186.87357551 </i>
   </energy>
  </scstep>
  <scstep>
   <time name="dav">   45.75   45.86</time>
   <time name="total">   46.42   46.54</time>
   <energy>
    <i name="e_fr_energy">   -187.02264318 </i>
    <i name="e_wo_entrp">   -186.67738341 </i>
    <i name="e_0_energy">   -186.85001329 </i>
   </energy>
  </scstep>
  <scstep>
   <time name="dav">   42.11   42.21</time>
   <time name="total">   42.79   42.90</time>
   <energy>
    <i name="e_fr_energy">   -187.17751670 </i>
    <i name="e_wo_entrp">   -186.84087129 </i>
    <i name="e_0_energy">   -187.00919399 </i>
   </energy>
  </scstep>
  <scstep>
   <time name="dav">   43.90   44.01</time>
   <time name="total">   44.59   44.71</time>
   <energy>
    <i name="e_fr_energy">   -186.92756983 </i>
    <i name="e_wo_entrp">   -186.59066631 </i>
    <i name="e_0_energy">   -186.75911807 </i>
   </energy>
  </scstep>
  <scstep>
   <time name="dav">   44.84   44.95</time>
   <time name="total">   45.53   45.65</time>
   <energy>
    <i name="e_fr_energy">   -186.87870360 </i>
    <i name="e_wo_entrp">   -186.53539747 </i>
    <i name="e_0_energy">   -186.70705054 </i>
   </energy>
  </scstep>
  <scstep>
   <time name="dav">   40.73   40.82</time>
   <time name="total">   41.41   41.52</time>
   <energy>
    <i name="e_fr_energy">   -186.87967528 </i>
    <i name="e_wo_entrp">   -186.53392016 </i>
    <i name="e_0_energy">   -186.70679772 </i>
   </energy>
  </scstep>
  <scstep>
   <time name="dav">   43.71   43.81</time>
   <time name="total">   44.39   44.51</time>
   <energy>
    <i name="e_fr_energy">   -186.87077189 </i>
    <i name="e_wo_entrp">   -186.52460698 </i>
    <i name="e_0_energy">   -186.69768944 </i>
   </energy>
  </scstep>
  <scstep>
   <time name="dav">   42.86   42.96</time>
   <time name="total">   43.56   43.68</time>
   <energy>
    <i name="e_fr_energy">   -186.86750501 </i>
    <i name="e_wo_entrp">   -186.52341898 </i>
    <i name="e_0_energy">   -186.69546199 </i>
   </energy>
  </scstep>
  <scstep>
   <time name="dav">   42.64   42.75</time>
   <time name="total">   43.33   43.44</time>
   <energy>
    <i name="e_fr_energy">   -186.86695639 </i>
    <i name="e_wo_entrp">   -186.52237263 </i>
    <i name="e_0_energy">   -186.69466451 </i>
   </energy>
  </scstep>
  <scstep>
   <time name="dav">   37.60   37.69</time>
   <time name="total">   38.29   38.39</time>
   <energy>
    <i name="e_fr_energy">   -186.86747430 </i>
    <i name="e_wo_entrp">   -186.52306561 </i>
    <i name="e_0_energy">   -186.69526996 </i>
   </energy>
  </scstep>
  <scstep>
   <time name="dav">   31.64   31.72</time>
   <time name="total">   32.36   32.44</time>
   <energy>
    <i name="e_fr_energy">   -186.86781800 </i>
    <i name="e_wo_entrp">   -186.52353516 </i>
    <i name="e_0_energy">   -186.69567658 </i>
   </energy>
  </scstep>
  <scstep>
   <time name="dav">   29.32   29.39</time>
   <time name="total">   30.02   30.10</time>
   <energy>
    <i name="e_fr_energy">   -186.86867054 </i>
    <i name="e_wo_entrp">   -186.52436117 </i>
    <i name="e_0_energy">   -186.69651586 </i>
   </energy>
  </scstep>
  <scstep>
   <time name="dav">   27.88   27.95</time>
   <time name="total">   28.59   28.67</time>
   <energy>
    <i name="e_fr_energy">   -186.86947255 </i>
    <i name="e_wo_entrp">   -186.52514154 </i>
    <i name="e_0_energy">   -186.69730704 </i>
   </energy>
  </scstep>
  <scstep>
   <time name="dav">   28.31   28.38</time>
   <time name="total">   29.01   29.09</time>
   <energy>
    <i name="e_fr_energy">   -186.87070046 </i>
    <i name="e_wo_entrp">   -186.52642005 </i>
    <i name="e_0_energy">   -186.69856025 </i>
   </energy>
  </scstep>
  <scstep>
   <time name="dav">   26.31   26.38</time>
   <time name="total">   26.99   27.07</time>
   <energy>
    <i name="e_fr_energy">   -186.87128289 </i>
    <i name="e_wo_entrp">   -186.52699497 </i>
    <i name="e_0_energy">   -186.69913893 </i>
   </energy>
  </scstep>
  <scstep>
   <time name="dav">   22.76   22.82</time>
   <time name="total">   23.45   23.51</time>
   <energy>
    <i name="e_fr_energy">   -186.87171877 </i>
    <i name="e_wo_entrp">   -186.52739203 </i>
    <i name="e_0_energy">   -186.69955540 </i>
   </energy>
  </scstep>
  <scstep>
   <time name="dav">   26.64   26.70</time>
   <time name="total">   27.34   27.41</time>
   <energy>
    <i name="e_fr_energy">   -186.87190677 </i>
    <i name="e_wo_entrp">   -186.52759915 </i>
    <i name="e_0_energy">   -186.69975296 </i>
   </energy>
  </scstep>
  <scstep>
   <time name="dav">   27.12   27.19</time>
   <time name="total">   27.17   27.24</time>
   <energy>
    <i name="alphaZ">     81.65567618 </i>
    <i name="ewald">  41890.23009656 </i>
    <i name="hartreedc"> -47832.99577489 </i>
    <i name="XCdc">   -231.60040709 </i>
    <i name="pawpsdc">   4192.12187626 </i>
    <i name="pawaedc">  -3610.14088911 </i>
    <i name="eentropy">     -0.34430562 </i>
    <i name="bandstr">  -1437.24079055 </i>
    <i name="atom">   6761.44252427 </i>
    <i name="e_fr_energy">   -186.87199400 </i>
    <i name="e_wo_entrp">   -186.52768838 </i>
    <i name="e_0_energy">   -186.69984119 </i>
   </energy>
  </scstep>
  <structure>
   <crystal>
    <varray name="basis" >
     <v>       8.66999996       5.03999989       0.00000000 </v>
     <v>      -8.66999982       5.04000013       0.00000000 </v>
     <v>       0.00000000       0.00000000      30.00000000 </v>
    </varray>
    <i name="volume">   2621.80797419 </i>
    <varray name="rec_basis" >
     <v>       0.05767013       0.09920635       0.00000000 </v>
     <v>      -0.05767013       0.09920635       0.00000000 </v>
     <v>       0.00000000       0.00000000       0.03333333 </v>
    </varray>
   </crystal>
   <varray name="positions" >
    <v>       0.33333334       0.66666669       0.00000000 </v>
    <v>       0.00000000       0.00000000       0.00000000 </v>
    <v>       0.66666669       0.66666669       0.00000000 </v>
    <v>       0.33333334       0.00000000       0.00000000 </v>
    <v>       0.66666669       0.00000000       0.00000000 </v>
    <v>       1.00000000       0.33333334       0.00000000 </v>
    <v>       0.00000000       0.66666669       0.00000000 </v>
    <v>       0.33333334       0.33333334       0.00000000 </v>
    <v>       0.66666669       0.33333334       0.00000000 </v>
    <v>       0.11068511       0.22244981       0.95539999 </v>
    <v>       0.22244981       0.11068511       0.04460000 </v>
    <v>       0.11068511       0.55578315       0.95539999 </v>
    <v>       0.22244981       0.44401845       0.04460000 </v>
    <v>       0.11068511       0.88911647       0.95539999 </v>
    <v>       0.22244981       0.77735180       0.04460000 </v>
    <v>       0.44401845       0.22244981       0.95539999 </v>
    <v>       0.55578315       0.11068511       0.04460000 </v>
    <v>       0.44401845       0.55578315       0.95539999 </v>
    <v>       0.55578315       0.44401845       0.04460000 </v>
    <v>       0.44401845       0.88911647       0.95539999 </v>
    <v>       0.55578315       0.77735180       0.04460000 </v>
    <v>       0.77735180       0.22244981       0.95539999 </v>
    <v>       0.88911647       0.11068511       0.04460000 </v>
    <v>       0.77735180       0.55578315       0.95539999 </v>
    <v>       0.88911647       0.44401845       0.04460000 </v>
    <v>       0.77735180       0.88911647       0.95539999 </v>
    <v>       0.88911647       0.77735180       0.04460000 </v>
   </varray>
  </structure>
  <varray name="forces" >
   <v>      -0.14409679       0.16684594      -0.08475556 </v>
   <v>      -0.22684469       0.05259619       0.08484822 </v>
   <v>      -0.28655809       0.15606850       0.00482013 </v>
   <v>       0.26290633       0.14918507       0.05581824 </v>
   <v>      -0.17664446       0.09187164      -0.00754786 </v>
   <v>      -0.00196022      -0.29824420      -0.06255056 </v>
   <v>       0.22127360       0.19556519      -0.00592598 </v>
   <v>      -0.08383563      -0.30090375       0.01306048 </v>
   <v>       0.56276573      -0.31039766       0.00094779 </v>
   <v>       0.60117713      -0.53854237      -2.16925098 </v>
   <v>      -0.62060911      -0.56234246       2.17971562 </v>
   <v>       0.36885979       0.71310751      -2.19203099 </v>
   <v>      -0.36064373       0.70752632       2.11859825 </v>
   <v>      -0.66269263      -0.15427243      -2.06765670 </v>
   <v>       0.64240681      -0.13887932       2.13044393 </v>
   <v>       0.04446203       0.16995763      -2.88784205 </v>
   <v>      -0.23372167       0.14912173       2.95189920 </v>
   <v>      -0.26685681       0.52902109      -1.43454205 </v>
   <v>      -0.45958431       0.56967230       2.12791761 </v>
   <v>       0.54588149      -0.71680987      -2.15834233 </v>
   <v>       0.32151288      -0.66325684       1.41096755 </v>
   <v>      -0.05327423       0.03039771      -2.95696145 </v>
   <v>       0.77713430      -0.00488712       2.12384674 </v>
   <v>      -0.59589492      -0.00556762      -2.08127357 </v>
   <v>      -0.30964132      -0.00624492       2.88338029 </v>
   <v>       0.89425311      -0.00053572      -1.45428858 </v>
   <v>      -0.75977459       0.01994745       1.47670460 </v>
  </varray>
  <varray name="stress" >
   <v>       7.35663802      -0.03738335      -1.53321323 </v>
   <v>      -0.03738349       4.39815021       0.03595281 </v>
   <v>      -1.53321325       0.03595283      30.31820875 </v>
  </varray>
  <energy>
   <i name="e_fr_energy">   -186.87199400 </i>
   <i name="e_wo_entrp">   -186.69984119 </i>
   <i name="e_0_energy">     -0.34430562 </i>
  </energy>
  <time name="totalsc"> 1085.71 1088.76</time>
 </calculation>
 <calculation>
  <scstep>
   <time name="dav">   29.90   29.97</time>
   <time name="total">   30.59   30.67</time>
   <energy>
    <i name="alphaZ">     78.92136320 </i>
    <i name="ewald">  39379.54309650 </i>
    <i name="hartreedc"> -45337.06049192 </i>
    <i name="XCdc">   -239.05837390 </i>
    <i name="pawpsdc">   4192.09295680 </i>
    <i name="pawaedc">  -3610.11264002 </i>
    <i name="eentropy">     -0.28108352 </i>
    <i name="bandstr">  -1412.99821332 </i>
    <i name="atom">   6761.44252427 </i>
    <i name="e_fr_energy">   -187.51086191 </i>
    <i name="e_wo_entrp">   -187.22977839 </i>
    <i name="e_0_energy">   -187.37032015 </i>
   </energy>
  </scstep>
  <scstep>
   <time name="dav">   41.81   41.91</time>
   <time name="total">   42.51   42.62</time>
   <energy>
    <i name="e_fr_energy">   -189.61315744 </i>
    <i name="e_wo_entrp">   -189.27317196 </i>
    <i name="e_0_energy">   -189.44316470 </i>
   </energy>
  </scstep>
  <scstep>
   <time name="dav">   42.12   42.22</time>
   <time name="total">   42.77   42.88</time>
   <energy>
    <i name="e_fr_energy">   -189.32833439 </i>
    <i name="e_wo_entrp">   -189.06306639 </i>
    <i name="e_0_energy">   -189.19570039 </i>
   </energy>
  </scstep>
  <scstep>
   <time name="dav">   39.48   39.57</time>
   <time name="total">   40.19   40.30</time>
   <energy>
    <i name="e_fr_energy">   -188.79651157 </i>
    <i name="e_wo_entrp">   -188.51197474 </i>
    <i name="e_0_energy">   -188.65424315 </i>
   </energy>
  </scstep>
  <scstep>
   <time name="dav">   42.33   42.44</time>
   <time name="total">   43.03   43.14</time>
   <energy>
    <i name="e_fr_energy">   -188.88871640 </i>
    <i name="e_wo_entrp">   -188.60305133 </i>
    <i name="e_0_energy">   -188.74588387 </i>
   </energy>
  </scstep>
  <scstep>
   <time name="dav">   42.86   42.96</time>
   <time name="total">   43.55   43.66</time>
   <energy>
    <i name="e_fr_energy">   -188.75849420 </i>
    <i name="e_wo_entrp">   -188.47327430 </i>
    <i name="e_0_energy">   -188.61588425 </i>
   </energy>
  </scstep>
  <scstep>
   <time name="dav">   39.30   39.39</time>
   <time name="total">   39.99   40.09</time>
   <energy>
    <i name="e_fr_energy">   -188.71820975 </i>
    <i name="e_wo_entrp">   -188.43400053 </i>
    <i name="e_0_energy">   -188.57610514 </i>
   </energy>
  </scstep>
  <scstep>
   <time name="dav">   43.54   43.64</time>
   <time name="total">   44.23   44.34</time>
   <energy>
    <i name="e_fr_energy">   -188.71125770 </i>
    <i name="e_wo_entrp">   -188.42889130 </i>
    <i name="e_0_energy">   -188.57007450 </i>
   </energy>
  </scstep>
  <scstep>
   <time name="dav">   39.59   39.69</time>
   <time name="total">   40.29   40.40</time>
   <energy>
    <i name="e_fr_energy">   -188.68423790 </i>
    <i name="e_wo_entrp">   -188.40191162 </i>
    <i name="e_0_energy">   -188.54307476 </i>
   </energy>
  </scstep>
  <scstep>
   <time name="dav">   38.13   38.22</time>
   <time name="total">   38.82   38.93</time>
   <energy>
    <i name="e_fr_energy">   -188.68240096 </i>
    <i name="e_wo_entrp">   -188.40100422 </i>
    <i name="e_0_energy">   -188.54170259 </i>
   </energy>
  </scstep>
  <scstep>
   <time name="dav">   42.90   43.01</time>
   <time name="total">   43.61   43.72</time>
   <energy>
    <i name="e_fr_energy">   -188.68190665 </i>
    <i name="e_wo_entrp">   -188.40159948 </i>
    <i name="e_0_energy">   -188.54175307 </i>
   </energy>
  </scstep>
  <scstep>
   <time name="dav">   38.86   38.95</time>
   <time name="total">   38.90   39.00</time>
   <energy>
    <i name="alphaZ">     78.92136320 </i>
    <i name="ewald">  39379.54309650 </i>
    <i name="hartreedc"> -45347.96358328 </i>
    <i name="XCdc">   -237.96793188 </i>
    <i name="pawpsdc">   3952.80528407 </i>
    <i name="pawaedc">  -3367.34639809 </i>
    <i name="eentropy">     -0.28034159 </i>
    <i name="bandstr">  -1407.83596499 </i>
    <i name="atom">   6761.44252427 </i>
    <i name="e_fr_energy">   -188.68195179 </i>
    <i name="e_wo_entrp">   -188.40161020 </i>
    <i name="e_0_energy">   -188.54178100 </i>
   </energy>
  </scstep>
  <structure>
   <crystal>
    <varray name="basis" >
     <v>       8.85593936       5.10386466       0.00000000 </v>
     <v>      -8.85704100       5.10576023       0.00000000 </v>
     <v>       0.00000000       0.00000000      30.00000000 </v>
    </varray>
    <i name="volume">   2712.64324715 </i>
    <varray name="rec_basis" >
     <v>       0.05646626       0.09795288       0.00000000 </v>
     <v>      -0.05644529       0.09794070       0.00000000 </v>
     <v>       0.00000000       0.00000000       0.03333333 </v>
    </varray>
   </crystal>
   <varray name="positions" >
    <v>       0.33373096       0.66786611      -0.00013629 </v>
    <v>      -0.00037939       0.00088284       0.00013644 </v>
    <v>       0.66661638       0.66821088       0.00000775 </v>
    <v>       0.33477879      -0.00001745       0.00008976 </v>
    <v>       0.66661493       0.00093115      -0.00001214 </v>
    <v>       0.99856716       0.33191141      -0.00010059 </v>
    <v>       0.00155159       0.66698704      -0.00000953 </v>
    <v>       0.33165998       0.33212647       0.00002100 </v>
    <v>       0.66674683       0.33028208       0.00000152 </v>
    <v>       0.10978023       0.21819979       0.95191164 </v>
    <v>       0.21803182       0.10972039       0.04810517 </v>
    <v>       0.11512425       0.55816984       0.95187501 </v>
    <v>       0.22483265       0.44840803       0.04800689 </v>
    <v>       0.10810305       0.89022184       0.95207502 </v>
    <v>       0.22357241       0.77489984       0.04802594 </v>
    <v>       0.44495557       0.22313952       0.95075608 </v>
    <v>       0.55584659       0.11204905       0.04934691 </v>
    <v>       0.44580790       0.55905747       0.95309312 </v>
    <v>       0.55723095       0.44802353       0.04802188 </v>
    <v>       0.44210655       0.88416710       0.95192918 </v>
    <v>       0.55350332       0.77328296       0.04686896 </v>
    <v>       0.77734906       0.22274351       0.95064493 </v>
    <v>       0.89125519       0.10849961       0.04801533 </v>
    <v>       0.77566728       0.55741438       0.95205312 </v>
    <v>       0.88822511       0.44485004       0.04923673 </v>
    <v>       0.77983719       0.88662595       0.95306137 </v>
    <v>       0.88709812       0.77956108       0.04697467 </v>
   </varray>
  </structure>
  <varray name="forces" >
   <v>      -0.16049504       0.09507325      -0.03048740 </v>
   <v>      -0.17058017       0.08962433       0.02904896 </v>
   <v>      -0.20631717       0.12516934       0.00299207 </v>
   <v>       0.20203067       0.31628041      -0.06139674 </v>
   <v>      -0.49139880       0.28770789       0.00152426 </v>
   <v>      -0.17405235      -0.32733291       0.05969813 </v>
   <v>       0.26352956       0.11378197      -0.11455255 </v>
   <v>       0.01678837      -0.28912501       0.11340427 </v>
   <v>       0.63452826      -0.36234475      -0.00311243 </v>
   <v>       0.07607420       0.03671947      -0.05999413 </v>
   <v>      -0.08295298       0.04105388       0.00466510 </v>
   <v>      -0.10182745       0.05974964       0.00156319 </v>
   <v>       0.10752661       0.05342396      -0.15383487 </v>
   <v>       0.02190439      -0.11113832       0.13865674 </v>
   <v>      -0.00656172      -0.09566926       0.07425227 </v>
   <v>      -0.07424026       0.11534169       0.01011633 </v>
   <v>      -0.04331438       0.10096532       0.27790887 </v>
   <v>       0.03789420      -0.07831655       0.11767004 </v>
   <v>       0.06149391      -0.07453916      -0.26430207 </v>
   <v>       0.04526623      -0.06858488      -0.09007375 </v>
   <v>      -0.00471626      -0.03489880      -0.07135592 </v>
   <v>      -0.12568920      -0.00175687      -0.27408398 </v>
   <v>       0.06165870      -0.01356766       0.09951507 </v>
   <v>       0.10514157      -0.00072227       0.24103144 </v>
   <v>      -0.11549159      -0.00278721       0.00320723 </v>
   <v>       0.02501167       0.00392616       0.09032686 </v>
   <v>       0.09878903       0.02196631      -0.14238699 </v>
  </varray>
  <varray name="stress" >
   <v>     -20.01024096       0.00232651       0.06353973 </v>
   <v>       0.00232651     -19.56270095       0.03681028 </v>
   <v>       0.06353968       0.03681035      -1.76368724 </v>
  </varray>
  <energy>
   <i name="e_fr_energy">   -188.68195179 </i>
   <i name="e_wo_entrp">   -188.54178100 </i>
   <i name="e_0_energy">     -0.28034159 </i>
  </energy>
  <time name="totalsc">  546.40  547.81</time>
 </calculation>
 <calculation>
  <scstep>
   <time name="dav">   32.89   32.97</time>
   <time name="total">   33.61   33.69</time>
   <energy>
    <i name="alphaZ">     82.34975872 </i>
    <i name="ewald">  41305.05566451 </i>
    <i name="hartreedc"> -47304.05084707 </i>
    <i name="XCdc">   -233.84388074 </i>
    <i name="pawpsdc">   3950.39377910 </i>
    <i name="pawaedc">  -3364.90645589 </i>
    <i name="eentropy">     -0.23487220 </i>
    <i name="bandstr">  -1386.81510585 </i>
    <i name="atom">   6761.44252427 </i>
    <i name="e_fr_energy">   -190.60943515 </i>
    <i name="e_wo_entrp">   -190.37456296 </i>
    <i name="e_0_energy">   -190.49199905 </i>
   </energy>
  </scstep>
  <scstep>
   <time name="dav">   38.73   38.82</time>
   <time name="total">   39.41   39.51</time>
   <energy>
    <i name="e_fr_energy">   -190.56163055 </i>
    <i name="e_wo_entrp">   -190.32917828 </i>
    <i name="e_0_energy">   -190.44540442 </i>
   </energy>
  </scstep>
  <scstep>
   <time name="dav">   41.61   41.71</time>
   <time name="total">   42.29   42.40</time>
   <energy>
    <i name="e_fr_energy">   -190.08851339 </i>
    <i name="e_wo_entrp">   -189.83833942 </i>
    <i name="e_0_energy">   -189.96342640 </i>
   </energy>
  </scstep>
  <scstep>
   <time name="dav">   43.18   43.29</time>
   <time name="total">   43.87   43.98</time>
   <energy>
    <i name="e_fr_energy">   -189.87769051 </i>
    <i name="e_wo_entrp">   -189.64441693 </i>
    <i name="e_0_energy">   -189.76105372 </i>
   </energy>
  </scstep>
  <scstep>
   <time name="dav">   40.72   40.82</time>
   <time name="total">   41.42   41.52</time>
   <energy>
    <i name="e_fr_energy">   -189.78803747 </i>
    <i name="e_wo_entrp">   -189.55161682 </i>
    <i name="e_0_energy">   -189.66982714 </i>
   </energy>
  </scstep>
  <scstep>
   <time name="dav">   36.80   36.89</time>
   <time name="total">   37.49   37.58</time>
   <energy>
    <i name="e_fr_energy">   -189.77444344 </i>
    <i name="e_wo_entrp">   -189.53634397 </i>
    <i name="e_0_energy">   -189.65539370 </i>
   </energy>
  </scstep>
  <scstep>
   <time name="dav">   41.32   41.42</time>
   <time name="total">   42.02   42.13</time>
   <energy>
    <i name="e_fr_energy">   -189.77525519 </i>
    <i name="e_wo_entrp">   -189.53925153 </i>
    <i name="e_0_energy">   -189.65725336 </i>
   </energy>
  </scstep>
  <scstep>
   <time name="dav">   40.17   40.26</time>
   <time name="total">   40.85   40.95</time>
   <energy>
    <i name="e_fr_energy">   -189.77409245 </i>
    <i name="e_wo_entrp">   -189.53689702 </i>
    <i name="e_0_energy">   -189.65549473 </i>
   </energy>
  </scstep>
  <scstep>
   <time name="dav">   37.29   37.38</time>
   <time name="total">   38.01   38.11</time>
   <energy>
    <i name="e_fr_energy">   -189.77449356 </i>
    <i name="e_wo_entrp">   -189.53760536 </i>
    <i name="e_0_energy">   -189.65604946 </i>
   </energy>
  </scstep>
  <scstep>
   <time name="dav">   38.54   38.63</time>
   <time name="total">   39.22   39.32</time>
   <energy>
    <i name="e_fr_energy">   -189.77457178 </i>
    <i name="e_wo_entrp">   -189.53724951 </i>
    <i name="e_0_energy">   -189.65591065 </i>
   </energy>
  </scstep>
  <scstep>
   <time name="dav">   32.66   32.74</time>
   <time name="total">   33.34   33.43</time>
   <energy>
    <i name="e_fr_energy">   -189.77424303 </i>
    <i name="e_wo_entrp">   -189.53714727 </i>
    <i name="e_0_energy">   -189.65569515 </i>
   </energy>
  </scstep>
  <scstep>
   <time name="dav">   24.71   24.77</time>
   <time name="total">   24.76   24.82</time>
   <energy>
    <i name="alphaZ">     82.34975872 </i>
    <i name="ewald">  41305.05566451 </i>
    <i name="hartreedc"> -47277.28205859 </i>
    <i name="XCdc">   -235.23859632 </i>
    <i name="pawpsdc">   4038.67938461 </i>
    <i name="pawaedc">  -3454.38811615 </i>
    <i name="eentropy">     -0.23714843 </i>
    <i name="bandstr">  -1410.15564948 </i>
    <i name="atom">   6761.44252427 </i>
    <i name="e_fr_energy">   -189.77423686 </i>
    <i name="e_wo_entrp">   -189.53708843 </i>
    <i name="e_0_energy">   -189.65566265 </i>
   </energy>
  </scstep>
  <structure>
   <crystal>
    <varray name="basis" >
     <v>       8.66753979       4.99772923       0.00000000 </v>
     <v>      -8.66859274       4.99954156       0.00000000 </v>
     <v>       0.00000000       0.00000000      30.00000000 </v>
    </varray>
    <i name="volume">   2599.71014216 </i>
    <varray name="rec_basis" >
     <v>       0.05769345       0.10003338       0.00000000 </v>
     <v>      -0.05767254       0.10002123       0.00000000 </v>
     <v>       0.00000000       0.00000000       0.03333333 </v>
    </varray>
   </crystal>
   <varray name="positions" >
    <v>       0.33373521       0.66817759      -0.00015353 </v>
    <v>      -0.00039386       0.00119493       0.00015286 </v>
    <v>       0.66662673       0.66861619       0.00000944 </v>
    <v>       0.33549749       0.00031441       0.00005506 </v>
    <v>       0.66662229       0.00187921      -0.00001128 </v>
    <v>       0.99785688       0.33153441      -0.00006685 </v>
    <v>       0.00199286       0.66692378      -0.00007427 </v>
    <v>       0.33119587       0.33163028       0.00008510 </v>
    <v>       0.66675254       0.32907310      -0.00000023 </v>
    <v>       0.10991405       0.21818796       0.95187774 </v>
    <v>       0.21802058       0.10986795       0.04810781 </v>
    <v>       0.11512600       0.55836652       0.95187589 </v>
    <v>       0.22502432       0.44839384       0.04791995 </v>
    <v>       0.10793944       0.89001632       0.95215338 </v>
    <v>       0.22340724       0.77474726       0.04806791 </v>
    <v>       0.44507605       0.22340211       0.95076180 </v>
    <v>       0.55597281       0.11225817       0.04950398 </v>
    <v>       0.44571411       0.55889115       0.95315962 </v>
    <v>       0.55716603       0.44784090       0.04787250 </v>
    <v>       0.44203598       0.88400989       0.95187828 </v>
    <v>       0.55344084       0.77322952       0.04682863 </v>
    <v>       0.77722581       0.22286088       0.95049003 </v>
    <v>       0.89129169       0.10841807       0.04807158 </v>
    <v>       0.77576674       0.55731256       0.95218934 </v>
    <v>       0.88810991       0.44495594       0.04923854 </v>
    <v>       0.77986765       0.88660853       0.95311242 </v>
    <v>       0.88722918       0.77950301       0.04689420 </v>
   </varray>
  </structure>
  <varray name="forces" >
   <v>      -0.17903788       0.05857964      -0.00830971 </v>
   <v>      -0.14121827       0.12293163       0.00627489 </v>
   <v>      -0.16886971       0.10091073       0.00088558 </v>
   <v>       0.18022835       0.36105552      -0.06234401 </v>
   <v>      -0.57896466       0.33054599       0.00228760 </v>
   <v>      -0.22150597      -0.33086732       0.06302689 </v>
   <v>       0.27381903       0.07698541      -0.10669635 </v>
   <v>       0.06039779      -0.28082901       0.10542650 </v>
   <v>       0.63809271      -0.37242997      -0.00171842 </v>
   <v>       0.06769821      -0.09864410      -0.56099497 </v>
   <v>      -0.06149446      -0.10305873       0.50995157 </v>
   <v>       0.03761592       0.11499699      -0.50704911 </v>
   <v>      -0.01732502       0.11299716       0.33209452 </v>
   <v>      -0.09086538      -0.03067214      -0.34544043 </v>
   <v>       0.10654985      -0.01502571       0.57209489 </v>
   <v>      -0.04324704       0.05994238      -0.54476162 </v>
   <v>       0.00548467       0.02396632       0.86533266 </v>
   <v>      -0.03215278       0.04471353      -0.33375739 </v>
   <v>       0.00642227       0.05137098       0.21224615 </v>
   <v>       0.09126328      -0.11782621      -0.58641107 </v>
   <v>       0.02187073      -0.08260778       0.36692700 </v>
   <v>      -0.03126737      -0.00835957      -0.86474725 </v>
   <v>       0.12743619      -0.02808628       0.59734889 </v>
   <v>      -0.03143107      -0.01748235      -0.23401665 </v>
   <v>      -0.05590487       0.00054153       0.55825473 </v>
   <v>       0.08297650       0.00517605      -0.34868754 </v>
   <v>      -0.04657100       0.02117531       0.31278265 </v>
  </varray>
  <varray name="stress" >
   <v>     -10.16062537      -0.00816151       0.03488692 </v>
   <v>      -0.00816156      -9.84928099       0.02999083 </v>
   <v>       0.03488709       0.02999079       6.52113245 </v>
  </varray>
  <energy>
   <i name="e_fr_energy">   -189.77423686 </i>
   <i name="e_wo_entrp">   -189.65566265 </i>
   <i name="e_0_energy">     -0.23714843 </i>
  </energy>
  <time name="totalsc">  514.12  515.46</time>
 </calculation>
 <calculation>
  <scstep>
   <time name="dav">   29.77   29.84</time>
   <time name="total">   30.43   30.50</time>
   <energy>
    <i name="alphaZ">     85.81133147 </i>
    <i name="ewald">  42828.24643809 </i>
    <i name="hartreedc"> -48844.80506165 </i>
    <i name="XCdc">   -232.96749791 </i>
    <i name="pawpsdc">   4038.93116602 </i>
    <i name="pawaedc">  -3454.63890286 </i>
    <i name="eentropy">     -0.20007052 </i>
    <i name="bandstr">  -1373.15242526 </i>
    <i name="atom">   6761.44252427 </i>
    <i name="e_fr_energy">   -191.33249835 </i>
    <i name="e_wo_entrp">   -191.13242784 </i>
    <i name="e_0_energy">   -191.23246309 </i>
   </energy>
  </scstep>
  <scstep>
   <time name="dav">   44.37   44.48</time>
   <time name="total">   45.03   45.14</time>
   <energy>
    <i name="e_fr_energy">   -191.20113872 </i>
    <i name="e_wo_entrp">   -190.99406459 </i>
    <i name="e_0_energy">   -191.09760166 </i>
   </energy>
  </scstep>
  <scstep>
   <time name="dav">   40.11   40.21</time>
   <time name="total">   40.78   40.89</time>
   <energy>
    <i name="e_fr_energy">   -191.30509522 </i>
    <i name="e_wo_entrp">   -191.08690073 </i>
    <i name="e_0_energy">   -191.19599797 </i>
   </energy>
  </scstep>
  <scstep>
   <time name="dav">   41.43   41.53</time>
   <time name="total">   42.10   42.21</time>
   <energy>
    <i name="e_fr_energy">   -190.97526322 </i>
    <i name="e_wo_entrp">   -190.75217489 </i>
    <i name="e_0_energy">   -190.86371905 </i>
   </energy>
  </scstep>
  <scstep>
   <time name="dav">   38.60   38.70</time>
   <time name="total">   39.28   39.38</time>
   <energy>
    <i name="e_fr_energy">   -190.94414369 </i>
    <i name="e_wo_entrp">   -190.75049112 </i>
    <i name="e_0_energy">   -190.84731741 </i>
   </energy>
  </scstep>
  <scstep>
   <time name="dav">   40.65   40.75</time>
   <time name="total">   41.32   41.42</time>
   <energy>
    <i name="e_fr_energy">   -190.76101313 </i>
    <i name="e_wo_entrp">   -190.55493593 </i>
    <i name="e_0_energy">   -190.65797453 </i>
   </energy>
  </scstep>
  <scstep>
   <time name="dav">   38.58   38.67</time>
   <time name="total">   39.24   39.35</time>
   <energy>
    <i name="e_fr_energy">   -190.75614052 </i>
    <i name="e_wo_entrp">   -190.55015077 </i>
    <i name="e_0_energy">   -190.65314564 </i>
   </energy>
  </scstep>
  <scstep>
   <time name="dav">   35.58   35.67</time>
   <time name="total">   36.24   36.33</time>
   <energy>
    <i name="e_fr_energy">   -190.75320705 </i>
    <i name="e_wo_entrp">   -190.54681989 </i>
    <i name="e_0_energy">   -190.65001347 </i>
   </energy>
  </scstep>
  <scstep>
   <time name="dav">   41.08   41.18</time>
   <time name="total">   41.75   41.86</time>
   <energy>
    <i name="e_fr_energy">   -190.75354036 </i>
    <i name="e_wo_entrp">   -190.54726902 </i>
    <i name="e_0_energy">   -190.65040469 </i>
   </energy>
  </scstep>
  <scstep>
   <time name="dav">   35.95   36.04</time>
   <time name="total">   36.62   36.71</time>
   <energy>
    <i name="e_fr_energy">   -190.75350744 </i>
    <i name="e_wo_entrp">   -190.54731815 </i>
    <i name="e_0_energy">   -190.65041280 </i>
   </energy>
  </scstep>
  <scstep>
   <time name="dav">   36.30   36.38</time>
   <time name="total">   36.96   37.06</time>
   <energy>
    <i name="e_fr_energy">   -190.75327037 </i>
    <i name="e_wo_entrp">   -190.54705930 </i>
    <i name="e_0_energy">   -190.65016484 </i>
   </energy>
  </scstep>
  <scstep>
   <time name="dav">   25.73   25.79</time>
   <time name="total">   25.78   25.85</time>
   <energy>
    <i name="alphaZ">     85.81133147 </i>
    <i name="ewald">  42828.24643809 </i>
    <i name="hartreedc"> -48816.33790810 </i>
    <i name="XCdc">   -234.29020685 </i>
    <i name="pawpsdc">   4063.56364901 </i>
    <i name="pawaedc">  -3479.45027468 </i>
    <i name="eentropy">     -0.20632152 </i>
    <i name="bandstr">  -1399.53249188 </i>
    <i name="atom">   6761.44252427 </i>
    <i name="e_fr_energy">   -190.75326020 </i>
    <i name="e_wo_entrp">   -190.54693868 </i>
    <i name="e_0_energy">   -190.65009944 </i>
   </energy>
  </scstep>
  <structure>
   <crystal>
    <varray name="basis" >
     <v>       8.48682197       4.89771301       0.00000000 </v>
     <v>      -8.48831986       4.90029879       0.00000000 </v>
     <v>       0.00000000       0.00000000      30.00000000 </v>
    </varray>
    <i name="volume">   2494.83954252 </i>
    <varray name="rec_basis" >
     <v>       0.05892522       0.10207053       0.00000000 </v>
     <v>      -0.05889412       0.10205252       0.00000000 </v>
     <v>       0.00000000       0.00000000       0.03333333 </v>
    </varray>
   </crystal>
   <varray name="positions" >
    <v>       0.33333850       0.66912535      -0.00015195 </v>
    <v>      -0.00000977       0.00251346       0.00014658 </v>
    <v>       0.66664197       0.66974221       0.00000949 </v>
    <v>       0.33848536       0.00206442      -0.00007455 </v>
    <v>       0.66658186       0.00626533      -0.00000590 </v>
    <v>       0.99491216       0.33032354       0.00006619 </v>
    <v>       0.00338532       0.66631166      -0.00028808 </v>
    <v>       0.32974070       0.32961481       0.00029618 </v>
    <v>       0.66670543       0.32441346      -0.00000261 </v>
    <v>       0.10919320       0.21700290       0.95029519 </v>
    <v>       0.21682710       0.10905671       0.04958851 </v>
    <v>       0.11631766       0.55888752       0.95039838 </v>
    <v>       0.22563762       0.44948946       0.04901682 </v>
    <v>       0.10745827       0.89051343       0.95103049 </v>
    <v>       0.22405988       0.77430748       0.04967071 </v>
    <v>       0.44520166       0.22375090       0.94916726 </v>
    <v>       0.55602108       0.11212718       0.05178837 </v>
    <v>       0.44608301       0.55969246       0.95208848 </v>
    <v>       0.55774431       0.44853045       0.04871382 </v>
    <v>       0.44157194       0.88275598       0.95024716 </v>
    <v>       0.55292274       0.77247762       0.04795719 </v>
    <v>       0.77717954       0.22276982       0.94820411 </v>
    <v>       0.89163386       0.10765274       0.04972655 </v>
    <v>       0.77530687       0.55747043       0.95130431 </v>
    <v>       0.88800522       0.44508389       0.05086110 </v>
    <v>       0.78028543       0.88626183       0.95202092 </v>
    <v>       0.88698352       0.78000942       0.04792516 </v>
   </varray>
  </structure>
  <varray name="forces" >
   <v>      -0.16476840       0.03839070       0.04180543 </v>
   <v>      -0.12055410       0.12237420      -0.04309519 </v>
   <v>      -0.19898581       0.11668044      -0.00130053 </v>
   <v>       0.17513424       0.39993246      -0.02721003 </v>
   <v>      -0.58336059       0.33297098      -0.00219543 </v>
   <v>      -0.25642371      -0.34836314       0.02890054 </v>
   <v>       0.25654643       0.05572962      -0.05698834 </v>
   <v>       0.06572776      -0.25885222       0.05896947 </v>
   <v>       0.63045449      -0.36201312       0.00351672 </v>
   <v>      -0.01327220      -0.06206693      -0.34018861 </v>
   <v>       0.03748473      -0.09021214       0.37219067 </v>
   <v>       0.09912359       0.01403562      -0.37300119 </v>
   <v>      -0.04290445      -0.01077691       0.17638527 </v>
   <v>       0.00214872       0.04295141      -0.17971340 </v>
   <v>       0.03634628       0.04241987       0.34336179 </v>
   <v>       0.01153684       0.03914162      -0.36806292 </v>
   <v>       0.02669956      -0.02468787       0.69748195 </v>
   <v>      -0.01861199      -0.01504503      -0.24061461 </v>
   <v>       0.07909331      -0.00538689       0.07893039 </v>
   <v>       0.04791343       0.02430550      -0.42586204 </v>
   <v>      -0.06612259       0.04049782       0.25941605 </v>
   <v>       0.03945996      -0.01042164      -0.69525367 </v>
   <v>      -0.00922912      -0.05067092       0.42782950 </v>
   <v>       0.05512937      -0.06383177      -0.08794035 </v>
   <v>      -0.02636672      -0.02868795       0.36815251 </v>
   <v>      -0.06198792       0.02783267      -0.25130210 </v>
   <v>      -0.00021113       0.03375363       0.23578812 </v>
  </varray>
  <varray name="stress" >
   <v>      -5.71647054      -0.07944383      -0.12542500 </v>
   <v>      -0.07944377      -5.80801789      -0.09536396 </v>
   <v>      -0.12542508      -0.09536387       4.51783814 </v>
  </varray>
  <energy>
   <i name="e_fr_energy">   -190.75326020 </i>
   <i name="e_wo_entrp">   -190.65009944 </i>
   <i name="e_0_energy">     -0.20632152 </i>
  </energy>
  <time name="totalsc">  513.80  515.14</time>
 </calculation>
 <calculation>
  <scstep>
   <time name="dav">   29.72   29.79</time>
   <time name="total">   30.38   30.45</time>
   <energy>
    <i name="alphaZ">     90.14970379 </i>
    <i name="ewald">  44656.27051315 </i>
    <i name="hartreedc"> -50699.39922082 </i>
    <i name="XCdc">   -231.83357740 </i>
    <i name="pawpsdc">   4063.61200354 </i>
    <i name="pawaedc">  -3479.49419851 </i>
    <i name="eentropy">     -0.19322558 </i>
    <i name="bandstr">  -1352.65752510 </i>
    <i name="atom">   6761.44252427 </i>
    <i name="e_fr_energy">   -192.10300264 </i>
    <i name="e_wo_entrp">   -191.90977707 </i>
    <i name="e_0_energy">   -192.00638986 </i>
   </energy>
  </scstep>
  <scstep>
   <time name="dav">   40.84   40.94</time>
   <time name="total">   41.50   41.61</time>
   <energy>
    <i name="e_fr_energy">   -191.92321110 </i>
    <i name="e_wo_entrp">   -191.71456807 </i>
    <i name="e_0_energy">   -191.81888959 </i>
   </energy>
  </scstep>
  <scstep>
   <time name="dav">   41.53   41.63</time>
   <time name="total">   42.20   42.31</time>
   <energy>
    <i name="e_fr_energy">   -192.36738179 </i>
    <i name="e_wo_entrp">   -192.15848406 </i>
    <i name="e_0_energy">   -192.26293292 </i>
   </energy>
  </scstep>
  <scstep>
   <time name="dav">   41.34   41.44</time>
   <time name="total">   42.01   42.12</time>
   <energy>
    <i name="e_fr_energy">   -191.58887212 </i>
    <i name="e_wo_entrp">   -191.38148842 </i>
    <i name="e_0_energy">   -191.48518027 </i>
   </energy>
  </scstep>
  <scstep>
   <time name="dav">   41.12   41.22</time>
   <time name="total">   41.79   41.90</time>
   <energy>
    <i name="e_fr_energy">   -191.41327228 </i>
    <i name="e_wo_entrp">   -191.21560268 </i>
    <i name="e_0_energy">   -191.31443748 </i>
   </energy>
  </scstep>
  <scstep>
   <time name="dav">   42.02   42.12</time>
   <time name="total">   42.67   42.78</time>
   <energy>
    <i name="e_fr_energy">   -191.41567088 </i>
    <i name="e_wo_entrp">   -191.20577123 </i>
    <i name="e_0_energy">   -191.31072105 </i>
   </energy>
  </scstep>
  <scstep>
   <time name="dav">   41.21   41.31</time>
   <time name="total">   41.88   41.99</time>
   <energy>
    <i name="e_fr_energy">   -191.39538344 </i>
    <i name="e_wo_entrp">   -191.19541802 </i>
    <i name="e_0_energy">   -191.29540073 </i>
   </energy>
  </scstep>
  <scstep>
   <time name="dav">   39.79   39.89</time>
   <time name="total">   40.44   40.54</time>
   <energy>
    <i name="e_fr_energy">   -191.38583797 </i>
    <i name="e_wo_entrp">   -191.18381370 </i>
    <i name="e_0_energy">   -191.28482584 </i>
   </energy>
  </scstep>
  <scstep>
   <time name="dav">   41.58   41.68</time>
   <time name="total">   42.23   42.34</time>
   <energy>
    <i name="e_fr_energy">   -191.38654660 </i>
    <i name="e_wo_entrp">   -191.18456942 </i>
    <i name="e_0_energy">   -191.28555801 </i>
   </energy>
  </scstep>
  <scstep>
   <time name="dav">   39.06   39.15</time>
   <time name="total">   39.70   39.80</time>
   <energy>
    <i name="e_fr_energy">   -191.38650711 </i>
    <i name="e_wo_entrp">   -191.18443594 </i>
    <i name="e_0_energy">   -191.28547153 </i>
   </energy>
  </scstep>
  <scstep>
   <time name="dav">   35.59   35.68</time>
   <time name="total">   36.24   36.34</time>
   <energy>
    <i name="e_fr_energy">   -191.38608817 </i>
    <i name="e_wo_entrp">   -191.18383016 </i>
    <i name="e_0_energy">   -191.28495916 </i>
   </energy>
  </scstep>
  <scstep>
   <time name="dav">   24.72   24.78</time>
   <time name="total">   24.77   24.83</time>
   <energy>
    <i name="alphaZ">     90.14970379 </i>
    <i name="ewald">  44656.27051315 </i>
    <i name="hartreedc"> -50665.74160030 </i>
    <i name="XCdc">   -233.34932966 </i>
    <i name="pawpsdc">   4086.00744329 </i>
    <i name="pawaedc">  -3502.00076094 </i>
    <i name="eentropy">     -0.20226466 </i>
    <i name="bandstr">  -1383.96227899 </i>
    <i name="atom">   6761.44252427 </i>
    <i name="e_fr_energy">   -191.38605004 </i>
    <i name="e_wo_entrp">   -191.18378537 </i>
    <i name="e_0_energy">   -191.28491770 </i>
   </energy>
  </scstep>
  <structure>
   <crystal>
    <varray name="basis" >
     <v>       8.28005528       4.77275051       0.00000000 </v>
     <v>      -8.28644000       4.78380196       0.00000000 </v>
     <v>       0.00000000       0.00000000      30.00000000 </v>
    </varray>
    <i name="volume">   2374.77766353 </i>
    <varray name="rec_basis" >
     <v>       0.06043263       0.10468062       0.00000000 </v>
     <v>      -0.06029302       0.10459996       0.00000000 </v>
     <v>       0.00000000       0.00000000       0.03333333 </v>
    </varray>
   </crystal>
   <varray name="positions" >
    <v>       0.33252840       0.67073249       0.00000999 </v>
    <v>       0.00076167       0.00493102      -0.00002149 </v>
    <v>       0.66665912       0.67239103       0.00000340 </v>
    <v>       0.34465398       0.00581895      -0.00020259 </v>
    <v>       0.66651367       0.01472294      -0.00001155 </v>
    <v>       0.98880698       0.32793394       0.00020276 </v>
    <v>       0.00584439       0.66507755      -0.00053404 </v>
    <v>       0.32709003       0.32590180       0.00054821 </v>
    <v>       0.66669633       0.31546732       0.00001002 </v>
    <v>       0.10795466       0.21582601       0.94833320 </v>
    <v>       0.21549504       0.10731220       0.05163852 </v>
    <v>       0.11768630       0.55851157       0.94834386 </v>
    <v>       0.22539479       0.45021653       0.05027621 </v>
    <v>       0.10783421       0.89140772       0.94975431 </v>
    <v>       0.22522602       0.77445313       0.05164648 </v>
    <v>       0.44563727       0.22402512       0.94706485 </v>
    <v>       0.55582750       0.11143550       0.05523213 </v>
    <v>       0.44608930       0.56021870       0.95063947 </v>
    <v>       0.55853145       0.44851931       0.04956343 </v>
    <v>       0.44195055       0.88222318       0.94797971 </v>
    <v>       0.55273953       0.77297416       0.04947600 </v>
    <v>       0.77740403       0.22225926       0.94476522 </v>
    <v>       0.89118207       0.10685487       0.05200805 </v>
    <v>       0.77463559       0.55663515       0.95041348 </v>
    <v>       0.88759543       0.44490630       0.05297111 </v>
    <v>       0.78038770       0.88677364       0.95053912 </v>
    <v>       0.88708846       0.78068506       0.04935004 </v>
   </varray>
  </structure>
  <varray name="forces" >
   <v>      -0.10119553       0.06554861      -0.01459326 </v>
   <v>      -0.11173177       0.05274924       0.01900243 </v>
   <v>      -0.29159380       0.16974020       0.00396913 </v>
   <v>       0.05903305       0.17979972       0.05494471 </v>
   <v>      -0.06105241       0.03271586       0.00202221 </v>
   <v>      -0.12241387      -0.13827487      -0.06117529 </v>
   <v>       0.19645102      -0.01952281      -0.03744926 </v>
   <v>       0.10063968      -0.16667895       0.03317436 </v>
   <v>       0.16939586      -0.09227336      -0.00531018 </v>
   <v>      -0.08357165      -0.01404575      -0.04970697 </v>
   <v>       0.11391268      -0.04864045       0.06765683 </v>
   <v>       0.10426281      -0.07624183      -0.06692196 </v>
   <v>      -0.03681958      -0.17235994      -0.09017351 </v>
   <v>       0.13323472       0.11690219       0.09935121 </v>
   <v>      -0.02989557       0.07860696       0.04179904 </v>
   <v>       0.05981415       0.08321404      -0.08794538 </v>
   <v>       0.00462854      -0.04494555       0.32970430 </v>
   <v>      -0.01627631      -0.07872637       0.03656628 </v>
   <v>       0.21003970      -0.06933586      -0.19952412 </v>
   <v>      -0.01630682       0.17217996      -0.07509963 </v>
   <v>      -0.14783541       0.15194370       0.03338313 </v>
   <v>       0.04412362       0.01898690      -0.32357706 </v>
   <v>      -0.15446508      -0.07079390       0.07116842 </v>
   <v>       0.16719584      -0.15028183       0.19847177 </v>
   <v>      -0.04188036      -0.09106166       0.09558309 </v>
   <v>      -0.20593146       0.05669176      -0.04205456 </v>
   <v>       0.05823795       0.05410400      -0.03326572 </v>
  </varray>
  <varray name="stress" >
   <v>       0.27055406      -0.22903471      -0.23338528 </v>
   <v>      -0.22903463       0.04837316      -0.38044886 </v>
   <v>      -0.23338497      -0.38044904      -0.48871642 </v>
  </varray>
  <energy>
   <i name="e_fr_energy">   -191.38605004 </i>
   <i name="e_wo_entrp">   -191.28491770 </i>
   <i name="e_0_energy">     -0.20226466 </i>
  </energy>
  <time name="totalsc">  523.43  524.78</time>
 </calculation>
 <calculation>
  <scstep>
   <time name="dav">   29.90   29.97</time>
   <time name="total">   30.57   30.65</time>
   <energy>
    <i name="alphaZ">     90.03828244 </i>
    <i name="ewald">  44587.12952599 </i>
    <i name="hartreedc"> -50596.13263625 </i>
    <i name="XCdc">   -233.50271758 </i>
    <i name="pawpsdc">   4085.91577878 </i>
    <i name="pawaedc">  -3501.90413960 </i>
    <i name="eentropy">     -0.20542968 </i>
    <i name="bandstr">  -1384.20413115 </i>
    <i name="atom">   6761.44252427 </i>
    <i name="e_fr_energy">   -191.42294277 </i>
    <i name="e_wo_entrp">   -191.21751309 </i>
    <i name="e_0_energy">   -191.32022793 </i>
   </energy>
  </scstep>
  <scstep>
   <time name="dav">   42.70   42.80</time>
   <time name="total">   43.34   43.45</time>
   <energy>
    <i name="e_fr_energy">   -191.44815319 </i>
    <i name="e_wo_entrp">   -191.23844621 </i>
    <i name="e_0_energy">   -191.34329970 </i>
   </energy>
  </scstep>
  <scstep>
   <time name="dav">   41.14   41.24</time>
   <time name="total">   41.79   41.90</time>
   <energy>
    <i name="e_fr_energy">   -191.43318256 </i>
    <i name="e_wo_entrp">   -191.22894746 </i>
    <i name="e_0_energy">   -191.33106501 </i>
   </energy>
  </scstep>
  <scstep>
   <time name="dav">   38.03   38.12</time>
   <time name="total">   38.69   38.79</time>
   <energy>
    <i name="e_fr_energy">   -191.43352349 </i>
    <i name="e_wo_entrp">   -191.22618020 </i>
    <i name="e_0_energy">   -191.32985185 </i>
   </energy>
  </scstep>
  <scstep>
   <time name="dav">   37.51   37.60</time>
   <time name="total">   38.17   38.27</time>
   <energy>
    <i name="e_fr_energy">   -191.43148648 </i>
    <i name="e_wo_entrp">   -191.22551406 </i>
    <i name="e_0_energy">   -191.32850027 </i>
   </energy>
  </scstep>
  <scstep>
   <time name="dav">   37.65   37.75</time>
   <time name="total">   38.30   38.40</time>
   <energy>
    <i name="e_fr_energy">   -191.43119673 </i>
    <i name="e_wo_entrp">   -191.22527679 </i>
    <i name="e_0_energy">   -191.32823676 </i>
   </energy>
  </scstep>
  <scstep>
   <time name="dav">   34.49   34.58</time>
   <time name="total">   35.16   35.25</time>
   <energy>
    <i name="e_fr_energy">   -191.43107481 </i>
    <i name="e_wo_entrp">   -191.22520020 </i>
    <i name="e_0_energy">   -191.32813750 </i>
   </energy>
  </scstep>
  <scstep>
   <time name="dav">   26.50   26.56</time>
   <time name="total">   26.55   26.62</time>
   <energy>
    <i name="alphaZ">     90.03828244 </i>
    <i name="ewald">  44587.12952599 </i>
    <i name="hartreedc"> -50597.90187310 </i>
    <i name="XCdc">   -233.44756398 </i>
    <i name="pawpsdc">   4082.00940380 </i>
    <i name="pawaedc">  -3497.94699115 </i>
    <i name="eentropy">     -0.20594921 </i>
    <i name="bandstr">  -1382.54842740 </i>
    <i name="atom">   6761.44252427 </i>
    <i name="e_fr_energy">   -191.43106832 </i>
    <i name="e_wo_entrp">   -191.22511912 </i>
    <i name="e_0_energy">   -191.32809372 </i>
   </energy>
  </scstep>
  <structure>
   <crystal>
    <varray name="basis" >
     <v>       8.28473175       4.76951043       0.00000000 </v>
     <v>      -8.29671081       4.79025351       0.00000000 </v>
     <v>       0.00000000       0.00000000      30.00000000 </v>
    </varray>
    <i name="volume">   2377.71642376 </i>
    <varray name="rec_basis" >
     <v>       0.06043934       0.10468083       0.00000000 </v>
     <v>      -0.06017762       0.10452969       0.00000000 </v>
     <v>       0.00000000       0.00000000       0.03333333 </v>
    </varray>
   </crystal>
   <varray name="positions" >
    <v>       0.33257638       0.67131947      -0.00001520 </v>
    <v>       0.00069136       0.00547222       0.00001072 </v>
    <v>       0.66666582       0.67401790       0.00000973 </v>
    <v>       0.34561830       0.00648144      -0.00011433 </v>
    <v>       0.66650241       0.01493234      -0.00000833 </v>
    <v>       0.98786599       0.32763450       0.00010458 </v>
    <v>       0.00627181       0.66444272      -0.00058907 </v>
    <v>       0.32659282       0.32484996       0.00059646 </v>
    <v>       0.66672398       0.31466228       0.00000152 </v>
    <v>       0.10766937       0.21601606       0.94828947 </v>
    <v>       0.21560350       0.10677830       0.05170953 </v>
    <v>       0.11758256       0.55784419       0.94827408 </v>
    <v>       0.22444233       0.44945640       0.05011109 </v>
    <v>       0.10878548       0.89158851       0.94993411 </v>
    <v>       0.22550765       0.77492407       0.05167759 </v>
    <v>       0.44621240       0.22426233       0.94696343 </v>
    <v>       0.55562277       0.11121302       0.05569325 </v>
    <v>       0.44565183       0.55986399       0.95072257 </v>
    <v>       0.55877304       0.44757594       0.04923285 </v>
    <v>       0.44274965       0.88312978       0.94790019 </v>
    <v>       0.55307242       0.77413928       0.04950170 </v>
    <v>       0.77761916       0.22223593       0.94431368 </v>
    <v>       0.89039805       0.10695861       0.05208114 </v>
    <v>       0.77438311       0.55542944       0.95074306 </v>
    <v>       0.88703225       0.44457948       0.05308434 </v>
    <v>       0.78007780       0.88763246       0.95049923 </v>
    <v>       0.88752222       0.78077385       0.04927252 </v>
   </varray>
  </structure>
  <varray name="forces" >
   <v>      -0.11067571       0.10263078      -0.02275242 </v>
   <v>      -0.15111798       0.04524279       0.02229714 </v>
   <v>      -0.33183761       0.19774584       0.00151097 </v>
   <v>       0.05950642       0.22011844       0.03570369 </v>
   <v>      -0.12284001       0.07102087      -0.00060767 </v>
   <v>      -0.15272154      -0.15703950      -0.03387454 </v>
   <v>       0.22998218      -0.04906770      -0.02615493 </v>
   <v>       0.13950319      -0.18800273       0.02718265 </v>
   <v>       0.28023539      -0.15684045       0.00487193 </v>
   <v>      -0.03882736      -0.02159317      -0.03256164 </v>
   <v>       0.07093408      -0.05161643       0.05187781 </v>
   <v>       0.08400448      -0.03749526      -0.05433656 </v>
   <v>      -0.00971482      -0.10732037      -0.11977814 </v>
   <v>       0.08908454       0.06009545       0.12876748 </v>
   <v>      -0.00486168       0.04462353       0.02555851 </v>
   <v>       0.03242844       0.03911271      -0.05181482 </v>
   <v>       0.01792424      -0.00479440       0.17911689 </v>
   <v>      -0.01501296      -0.05512522       0.06749562 </v>
   <v>       0.12054385      -0.02554414      -0.19521393 </v>
   <v>      -0.02120363       0.09091998      -0.04956387 </v>
   <v>      -0.09299091       0.07601063       0.05002242 </v>
   <v>       0.01916400      -0.01433960      -0.18152428 </v>
   <v>      -0.08733010      -0.02582110       0.04821821 </v>
   <v>       0.08313976      -0.09428264       0.18886938 </v>
   <v>      -0.01639220      -0.04679270       0.05438729 </v>
   <v>      -0.11025197       0.04510122      -0.05167073 </v>
   <v>       0.03932790       0.04305316      -0.06602647 </v>
  </varray>
  <varray name="stress" >
   <v>      -0.21966107       0.03486267      -0.09073008 </v>
   <v>       0.03486255      -0.17917777      -0.12003279 </v>
   <v>      -0.09072997      -0.12003276      -1.16721551 </v>
  </varray>
  <energy>
   <i name="e_fr_energy">   -191.43106832 </i>
   <i name="e_wo_entrp">   -191.32809372 </i>
   <i name="e_0_energy">     -0.20594921 </i>
  </energy>
  <time name="totalsc">  350.46  351.37</time>
 </calculation>
 <calculation>
  <scstep>
   <time name="dav">   29.85   29.93</time>
   <time name="total">   30.51   30.59</time>
   <energy>
    <i name="alphaZ">     90.21563449 </i>
    <i name="ewald">  44662.37576710 </i>
    <i name="hartreedc"> -50675.22567418 </i>
    <i name="XCdc">   -233.34811118 </i>
    <i name="pawpsdc">   4081.90228404 </i>
    <i name="pawaedc">  -3497.83844057 </i>
    <i name="eentropy">     -0.20735634 </i>
    <i name="bandstr">  -1380.79391066 </i>
    <i name="atom">   6761.44252427 </i>
    <i name="e_fr_energy">   -191.47728302 </i>
    <i name="e_wo_entrp">   -191.26992668 </i>
    <i name="e_0_energy">   -191.37360485 </i>
   </energy>
  </scstep>
  <scstep>
   <time name="dav">   44.30   44.40</time>
   <time name="total">   44.94   45.05</time>
   <energy>
    <i name="e_fr_energy">   -191.49639699 </i>
    <i name="e_wo_entrp">   -191.28407410 </i>
    <i name="e_0_energy">   -191.39023554 </i>
   </energy>
  </scstep>
  <scstep>
   <time name="dav">   40.43   40.52</time>
   <time name="total">   41.08   41.19</time>
   <energy>
    <i name="e_fr_energy">   -191.48914746 </i>
    <i name="e_wo_entrp">   -191.28383575 </i>
    <i name="e_0_energy">   -191.38649160 </i>
   </energy>
  </scstep>
  <scstep>
   <time name="dav">   40.23   40.33</time>
   <time name="total">   40.88   40.99</time>
   <energy>
    <i name="e_fr_energy">   -191.48508128 </i>
    <i name="e_wo_entrp">   -191.27634113 </i>
    <i name="e_0_energy">   -191.38071120 </i>
   </energy>
  </scstep>
  <scstep>
   <time name="dav">   37.81   37.90</time>
   <time name="total">   38.45   38.55</time>
   <energy>
    <i name="e_fr_energy">   -191.48361204 </i>
    <i name="e_wo_entrp">   -191.27511152 </i>
    <i name="e_0_energy">   -191.37936178 </i>
   </energy>
  </scstep>
  <scstep>
   <time name="dav">   38.12   38.21</time>
   <time name="total">   38.77   38.87</time>
   <energy>
    <i name="e_fr_energy">   -191.48239137 </i>
    <i name="e_wo_entrp">   -191.27394081 </i>
    <i name="e_0_energy">   -191.37816609 </i>
   </energy>
  </scstep>
  <scstep>
   <time name="dav">   37.02   37.11</time>
   <time name="total">   37.64   37.74</time>
   <energy>
    <i name="e_fr_energy">   -191.48254290 </i>
    <i name="e_wo_entrp">   -191.27403714 </i>
    <i name="e_0_energy">   -191.37829002 </i>
   </energy>
  </scstep>
  <scstep>
   <time name="dav">   30.53   30.61</time>
   <time name="total">   31.15   31.24</time>
   <energy>
    <i name="e_fr_energy">   -191.48223884 </i>
    <i name="e_wo_entrp">   -191.27351591 </i>
    <i name="e_0_energy">   -191.37787738 </i>
   </energy>
  </scstep>
  <scstep>
   <time name="dav">   23.06   23.12</time>
   <time name="total">   23.11   23.17</time>
   <energy>
    <i name="alphaZ">     90.21563449 </i>
    <i name="ewald">  44662.37576710 </i>
    <i name="hartreedc"> -50674.30593737 </i>
    <i name="XCdc">   -233.38648511 </i>
[...]
      <set comment="kpoint 31">
       <r>  -17.4943    1.0000 </r>
       <r>  -17.2733    1.0000 </r>
       <r>  -16.9136    1.0000 </r>
       <r>  -16.5289    1.0000 </r>
       <r>  -16.4615    1.0000 </r>
       <r>  -16.4226    1.0000 </r>
       <r>  -16.2773    1.0000 </r>
       <r>  -16.1365    1.0000 </r>
       <r>  -16.1064    1.0000 </r>
       <r>  -16.0264    1.0000 </r>
       <r>  -15.9611    1.0000 </r>
       <r>  -15.8567    1.0000 </r>
       <r>  -15.8465    1.0000 </r>
       <r>  -15.6831    1.0000 </r>
       <r>  -15.6262    1.0000 </r>
       <r>  -15.5514    1.0000 </r>
       <r>  -15.4725    1.0000 </r>
       <r>  -15.3999    1.0000 </r>
       <r>   -9.7376    1.0000 </r>
       <r>   -9.4556    1.0000 </r>
       <r>   -9.2807    1.0000 </r>
       <r>   -8.9395    1.0000 </r>
       <r>   -8.8104    1.0000 </r>
       <r>   -8.7381    1.0000 </r>
       <r>   -8.5443    1.0000 </r>
       <r>   -8.4338    1.0000 </r>
       <r>   -8.4053    1.0000 </r>
       <r>   -8.3438    1.0000 </r>
       <r>   -8.2624    1.0000 </r>
       <r>   -8.2180    1.0000 </r>
       <r>   -8.1409    1.0000 </r>
       <r>   -8.1086    1.0000 </r>
       <r>   -7.9811    1.0000 </r>
       <r>   -7.8987    1.0000 </r>
       <r>   -7.8067    1.0000 </r>
       <r>   -7.6038    1.0000 </r>
       <r>   -7.5178    1.0000 </r>
       <r>   -7.4056    1.0000 </r>
       <r>   -7.2965    1.0000 </r>
       <r>   -7.2289    1.0000 </r>
       <r>   -7.1354    1.0000 </r>
       <r>   -7.0848    1.0000 </r>
       <r>   -6.9727    1.0000 </r>
       <r>   -6.9310    1.0000 </r>
       <r>   -6.8204    1.0000 </r>
       <r>   -6.7903    1.0000 </r>
       <r>   -6.7710    1.0000 </r>
       <r>   -6.6422    1.0000 </r>
       <r>   -6.5857    1.0000 </r>
       <r>   -6.5304    1.0000 </r>
       <r>   -6.4362    1.0000 </r>
       <r>   -6.3175    1.0000 </r>
       <r>   -6.2534    1.0000 </r>
       <r>   -6.1674    1.0000 </r>
       <r>   -6.1307    1.0000 </r>
       <r>   -6.0213    1.0000 </r>
       <r>   -5.9719    1.0000 </r>
       <r>   -5.8997    1.0000 </r>
       <r>   -5.8280    1.0000 </r>
       <r>   -5.8197    1.0000 </r>
       <r>   -5.6899    1.0000 </r>
       <r>   -5.6589    1.0000 </r>
       <r>   -5.6239    1.0000 </r>
       <r>   -5.4780    1.0000 </r>
       <r>   -5.3141    1.0000 </r>
       <r>   -5.1785    1.0000 </r>
       <r>   -5.0520    1.0000 </r>
       <r>   -4.9606    1.0000 </r>
       <r>   -4.8163    1.0000 </r>
       <r>   -4.7029    1.0000 </r>
       <r>   -4.4471    1.0000 </r>
       <r>   -4.3942    1.0000 </r>
       <r>   -4.2724    1.0000 </r>
       <r>   -4.2308    1.0000 </r>
       <r>   -3.9113    1.0000 </r>
       <r>   -3.7800    1.0000 </r>
       <r>   -3.6157    0.9994 </r>
       <r>   -3.5056    0.9930 </r>
       <r>   -3.2636    0.7724 </r>
       <r>   -3.1524    0.4841 </r>
       <r>   -2.9912    0.1191 </r>
       <r>   -2.7805    0.0038 </r>
       <r>   -2.7528    0.0021 </r>
       <r>   -2.6362    0.0001 </r>
       <r>   -2.5032    0.0000 </r>
       <r>   -2.3953    0.0000 </r>
       <r>   -2.2406    0.0000 </r>
       <r>   -2.1700    0.0000 </r>
       <r>   -2.0378    0.0000 </r>
       <r>   -1.9747    0.0000 </r>
       <r>   -1.6392    0.0000 </r>
       <r>   -1.6098    0.0000 </r>
       <r>   -1.5697    0.0000 </r>
       <r>   -1.4886    0.0000 </r>
       <r>   -1.3132    0.0000 </r>
       <r>   -1.2293    0.0000 </r>
       <r>   -1.0860    0.0000 </r>
       <r>   -0.9991    0.0000 </r>
       <r>   -0.9011    0.0000 </r>
       <r>   -0.8718    0.0000 </r>
       <r>   -0.8047    0.0000 </r>
       <r>   -0.7445    0.0000 </r>
       <r>   -0.6247    0.0000 </r>
       <r>   -0.5769    0.0000 </r>
       <r>   -0.4637    0.0000 </r>
       <r>   -0.2978    0.0000 </r>
       <r>   -0.1954    0.0000 </r>
       <r>   -0.0798    0.0000 </r>
       <r>    0.0044    0.0000 </r>
       <r>    0.1967    0.0000 </r>
       <r>    0.5939    0.0000 </r>
       <r>    0.7619    0.0000 </r>
       <r>    0.8967    0.0000 </r>
       <r>    1.0993    0.0000 </r>
       <r>    1.2040    0.0000 </r>
       <r>    1.2938    0.0000 </r>
       <r>    1.4835    0.0000 </r>
       <r>    2.1575    0.0000 </r>
       <r>    2.3016    0.0000 </r>
       <r>    2.4209    0.0000 </r>
      </set>
      <set comment="kpoint 32">
       <r>  -17.5135    1.0000 </r>
       <r>  -17.1728    1.0000 </r>
       <r>  -17.0509    1.0000 </r>
       <r>  -16.5327    1.0000 </r>
       <r>  -16.4204    1.0000 </r>
       <r>  -16.3265    1.0000 </r>
       <r>  -16.2383    1.0000 </r>
       <r>  -16.2028    1.0000 </r>
       <r>  -16.1257    1.0000 </r>
       <r>  -16.0200    1.0000 </r>
       <r>  -15.9889    1.0000 </r>
       <r>  -15.8911    1.0000 </r>
       <r>  -15.8409    1.0000 </r>
       <r>  -15.6876    1.0000 </r>
       <r>  -15.6316    1.0000 </r>
       <r>  -15.5310    1.0000 </r>
       <r>  -15.4896    1.0000 </r>
       <r>  -15.3742    1.0000 </r>
       <r>   -9.6412    1.0000 </r>
       <r>   -9.5939    1.0000 </r>
       <r>   -9.3674    1.0000 </r>
       <r>   -8.9041    1.0000 </r>
       <r>   -8.7130    1.0000 </r>
       <r>   -8.5786    1.0000 </r>
       <r>   -8.4966    1.0000 </r>
       <r>   -8.3898    1.0000 </r>
       <r>   -8.3810    1.0000 </r>
       <r>   -8.3475    1.0000 </r>
       <r>   -8.3022    1.0000 </r>
       <r>   -8.2274    1.0000 </r>
       <r>   -8.2165    1.0000 </r>
       <r>   -8.1648    1.0000 </r>
       <r>   -8.1433    1.0000 </r>
       <r>   -7.8869    1.0000 </r>
       <r>   -7.8709    1.0000 </r>
       <r>   -7.4974    1.0000 </r>
       <r>   -7.4708    1.0000 </r>
       <r>   -7.3729    1.0000 </r>
       <r>   -7.3080    1.0000 </r>
       <r>   -7.2363    1.0000 </r>
       <r>   -7.2081    1.0000 </r>
       <r>   -7.0524    1.0000 </r>
       <r>   -7.0149    1.0000 </r>
       <r>   -6.9000    1.0000 </r>
       <r>   -6.8743    1.0000 </r>
       <r>   -6.8147    1.0000 </r>
       <r>   -6.7642    1.0000 </r>
       <r>   -6.6707    1.0000 </r>
       <r>   -6.5373    1.0000 </r>
       <r>   -6.5280    1.0000 </r>
       <r>   -6.4410    1.0000 </r>
       <r>   -6.3045    1.0000 </r>
       <r>   -6.2747    1.0000 </r>
       <r>   -6.2577    1.0000 </r>
       <r>   -6.1346    1.0000 </r>
       <r>   -6.0117    1.0000 </r>
       <r>   -5.9285    1.0000 </r>
       <r>   -5.8885    1.0000 </r>
       <r>   -5.8262    1.0000 </r>
       <r>   -5.6772    1.0000 </r>
       <r>   -5.6662    1.0000 </r>
       <r>   -5.5376    1.0000 </r>
       <r>   -5.5267    1.0000 </r>
       <r>   -5.4282    1.0000 </r>
       <r>   -5.4053    1.0000 </r>
       <r>   -5.2325    1.0000 </r>
       <r>   -5.2215    1.0000 </r>
       <r>   -5.0093    1.0000 </r>
       <r>   -4.9125    1.0000 </r>
       <r>   -4.6237    1.0000 </r>
       <r>   -4.4713    1.0000 </r>
       <r>   -4.3490    1.0000 </r>
       <r>   -4.3269    1.0000 </r>
       <r>   -4.0847    1.0000 </r>
       <r>   -4.0440    1.0000 </r>
       <r>   -3.7495    1.0000 </r>
       <r>   -3.6455    0.9997 </r>
       <r>   -3.4795    0.9885 </r>
       <r>   -3.2749    0.7957 </r>
       <r>   -3.1034    0.3498 </r>
       <r>   -2.8754    0.0228 </r>
       <r>   -2.8685    0.0203 </r>
       <r>   -2.7890    0.0045 </r>
       <r>   -2.6199    0.0001 </r>
       <r>   -2.5110    0.0000 </r>
       <r>   -2.3994    0.0000 </r>
       <r>   -2.2124    0.0000 </r>
       <r>   -2.1981    0.0000 </r>
       <r>   -2.0444    0.0000 </r>
       <r>   -1.9732    0.0000 </r>
       <r>   -1.6438    0.0000 </r>
       <r>   -1.6099    0.0000 </r>
       <r>   -1.5649    0.0000 </r>
       <r>   -1.4806    0.0000 </r>
       <r>   -1.3186    0.0000 </r>
       <r>   -1.2590    0.0000 </r>
       <r>   -1.0487    0.0000 </r>
       <r>   -0.9998    0.0000 </r>
       <r>   -0.9342    0.0000 </r>
       <r>   -0.8908    0.0000 </r>
       <r>   -0.7936    0.0000 </r>
       <r>   -0.7018    0.0000 </r>
       <r>   -0.6555    0.0000 </r>
       <r>   -0.5267    0.0000 </r>
       <r>   -0.4756    0.0000 </r>
       <r>   -0.2519    0.0000 </r>
       <r>   -0.1833    0.0000 </r>
       <r>   -0.0914    0.0000 </r>
       <r>   -0.0521    0.0000 </r>
       <r>    0.2221    0.0000 </r>
       <r>    0.5635    0.0000 </r>
       <r>    0.8128    0.0000 </r>
       <r>    0.8723    0.0000 </r>
       <r>    1.0950    0.0000 </r>
       <r>    1.1920    0.0000 </r>
       <r>    1.3102    0.0000 </r>
       <r>    1.4152    0.0000 </r>
       <r>    2.1247    0.0000 </r>
       <r>    2.2699    0.0000 </r>
       <r>    2.5965    0.0000 </r>
      </set>
      <set comment="kpoint 33">
       <r>  -17.4928    1.0000 </r>
       <r>  -17.2791    1.0000 </r>
       <r>  -16.9083    1.0000 </r>
       <r>  -16.5354    1.0000 </r>
       <r>  -16.4606    1.0000 </r>
       <r>  -16.4090    1.0000 </r>
       <r>  -16.2831    1.0000 </r>
       <r>  -16.1408    1.0000 </r>
       <r>  -16.0981    1.0000 </r>
       <r>  -16.0230    1.0000 </r>
       <r>  -15.9713    1.0000 </r>
       <r>  -15.8647    1.0000 </r>
       <r>  -15.8372    1.0000 </r>
       <r>  -15.6924    1.0000 </r>
       <r>  -15.6210    1.0000 </r>
       <r>  -15.5395    1.0000 </r>
       <r>  -15.4861    1.0000 </r>
       <r>  -15.3966    1.0000 </r>
       <r>   -9.7401    1.0000 </r>
       <r>   -9.4562    1.0000 </r>
       <r>   -9.2772    1.0000 </r>
       <r>   -8.9377    1.0000 </r>
       <r>   -8.8126    1.0000 </r>
       <r>   -8.7320    1.0000 </r>
       <r>   -8.5442    1.0000 </r>
       <r>   -8.4338    1.0000 </r>
       <r>   -8.4034    1.0000 </r>
       <r>   -8.3441    1.0000 </r>
       <r>   -8.2511    1.0000 </r>
       <r>   -8.2250    1.0000 </r>
       <r>   -8.1513    1.0000 </r>
       <r>   -8.1051    1.0000 </r>
       <r>   -7.9803    1.0000 </r>
       <r>   -7.9046    1.0000 </r>
       <r>   -7.8167    1.0000 </r>
       <r>   -7.6021    1.0000 </r>
       <r>   -7.4972    1.0000 </r>
       <r>   -7.3879    1.0000 </r>
       <r>   -7.3039    1.0000 </r>
       <r>   -7.2140    1.0000 </r>
       <r>   -7.1466    1.0000 </r>
       <r>   -7.0891    1.0000 </r>
       <r>   -6.9866    1.0000 </r>
       <r>   -6.9378    1.0000 </r>
       <r>   -6.8222    1.0000 </r>
       <r>   -6.7915    1.0000 </r>
       <r>   -6.7648    1.0000 </r>
       <r>   -6.6395    1.0000 </r>
       <r>   -6.5825    1.0000 </r>
       <r>   -6.5161    1.0000 </r>
       <r>   -6.4338    1.0000 </r>
       <r>   -6.3256    1.0000 </r>
       <r>   -6.2617    1.0000 </r>
       <r>   -6.1755    1.0000 </r>
       <r>   -6.1318    1.0000 </r>
       <r>   -6.0319    1.0000 </r>
       <r>   -5.9824    1.0000 </r>
       <r>   -5.9064    1.0000 </r>
       <r>   -5.8362    1.0000 </r>
       <r>   -5.8257    1.0000 </r>
       <r>   -5.6874    1.0000 </r>
       <r>   -5.6509    1.0000 </r>
       <r>   -5.6274    1.0000 </r>
       <r>   -5.4865    1.0000 </r>
       <r>   -5.2963    1.0000 </r>
       <r>   -5.1699    1.0000 </r>
       <r>   -5.0505    1.0000 </r>
       <r>   -4.9542    1.0000 </r>
       <r>   -4.8176    1.0000 </r>
       <r>   -4.6912    1.0000 </r>
       <r>   -4.4475    1.0000 </r>
       <r>   -4.3819    1.0000 </r>
       <r>   -4.2667    1.0000 </r>
       <r>   -4.2128    1.0000 </r>
       <r>   -3.9541    1.0000 </r>
       <r>   -3.7640    1.0000 </r>
       <r>   -3.6410    0.9997 </r>
       <r>   -3.5196    0.9947 </r>
       <r>   -3.3005    0.8432 </r>
       <r>   -3.1039    0.3511 </r>
       <r>   -2.9845    0.1099 </r>
       <r>   -2.7801    0.0038 </r>
       <r>   -2.7433    0.0017 </r>
       <r>   -2.6315    0.0001 </r>
       <r>   -2.5196    0.0000 </r>
       <r>   -2.3858    0.0000 </r>
       <r>   -2.2256    0.0000 </r>
       <r>   -2.1519    0.0000 </r>
       <r>   -2.0451    0.0000 </r>
       <r>   -1.9763    0.0000 </r>
       <r>   -1.6614    0.0000 </r>
       <r>   -1.6039    0.0000 </r>
       <r>   -1.5439    0.0000 </r>
       <r>   -1.4642    0.0000 </r>
       <r>   -1.3170    0.0000 </r>
       <r>   -1.2655    0.0000 </r>
       <r>   -1.1127    0.0000 </r>
       <r>   -1.0000    0.0000 </r>
       <r>   -0.8960    0.0000 </r>
       <r>   -0.8733    0.0000 </r>
       <r>   -0.8060    0.0000 </r>
       <r>   -0.7471    0.0000 </r>
       <r>   -0.6239    0.0000 </r>
       <r>   -0.5942    0.0000 </r>
       <r>   -0.4402    0.0000 </r>
       <r>   -0.2956    0.0000 </r>
       <r>   -0.2007    0.0000 </r>
       <r>   -0.0779    0.0000 </r>
       <r>    0.0114    0.0000 </r>
       <r>    0.1997    0.0000 </r>
       <r>    0.6001    0.0000 </r>
       <r>    0.7618    0.0000 </r>
       <r>    0.9001    0.0000 </r>
       <r>    1.1092    0.0000 </r>
       <r>    1.2118    0.0000 </r>
       <r>    1.2953    0.0000 </r>
       <r>    1.4476    0.0000 </r>
       <r>    2.1561    0.0000 </r>
       <r>    2.3006    0.0000 </r>
       <r>    2.4182    0.0000 </r>
      </set>
      <set comment="kpoint 34">
       <r>  -17.4581    1.0000 </r>
       <r>  -17.3559    1.0000 </r>
       <r>  -16.7427    1.0000 </r>
       <r>  -16.6337    1.0000 </r>
       <r>  -16.5277    1.0000 </r>
       <r>  -16.4235    1.0000 </r>
       <r>  -16.2713    1.0000 </r>
       <r>  -16.1505    1.0000 </r>
       <r>  -16.0741    1.0000 </r>
       <r>  -16.0285    1.0000 </r>
       <r>  -15.9488    1.0000 </r>
       <r>  -15.8603    1.0000 </r>
       <r>  -15.8003    1.0000 </r>
       <r>  -15.7001    1.0000 </r>
       <r>  -15.6110    1.0000 </r>
       <r>  -15.5488    1.0000 </r>
       <r>  -15.4792    1.0000 </r>
       <r>  -15.4251    1.0000 </r>
       <r>   -9.7825    1.0000 </r>
       <r>   -9.3402    1.0000 </r>
       <r>   -9.1262    1.0000 </r>
       <r>   -9.0448    1.0000 </r>
       <r>   -8.9564    1.0000 </r>
       <r>   -8.8154    1.0000 </r>
       <r>   -8.5860    1.0000 </r>
       <r>   -8.4408    1.0000 </r>
       <r>   -8.3908    1.0000 </r>
       <r>   -8.3804    1.0000 </r>
       <r>   -8.2418    1.0000 </r>
       <r>   -8.2012    1.0000 </r>
       <r>   -8.1377    1.0000 </r>
       <r>   -7.9738    1.0000 </r>
       <r>   -7.9451    1.0000 </r>
       <r>   -7.9001    1.0000 </r>
       <r>   -7.7381    1.0000 </r>
       <r>   -7.6246    1.0000 </r>
       <r>   -7.5104    1.0000 </r>
       <r>   -7.4576    1.0000 </r>
       <r>   -7.3074    1.0000 </r>
       <r>   -7.2282    1.0000 </r>
       <r>   -7.1965    1.0000 </r>
       <r>   -7.0698    1.0000 </r>
       <r>   -6.9607    1.0000 </r>
       <r>   -6.9296    1.0000 </r>
       <r>   -6.8177    1.0000 </r>
       <r>   -6.7380    1.0000 </r>
       <r>   -6.6701    1.0000 </r>
       <r>   -6.6259    1.0000 </r>
       <r>   -6.5754    1.0000 </r>
       <r>   -6.5274    1.0000 </r>
       <r>   -6.4316    1.0000 </r>
       <r>   -6.3749    1.0000 </r>
       <r>   -6.2645    1.0000 </r>
       <r>   -6.1525    1.0000 </r>
       <r>   -6.1374    1.0000 </r>
       <r>   -6.0995    1.0000 </r>
       <r>   -6.0352    1.0000 </r>
       <r>   -5.9487    1.0000 </r>
       <r>   -5.8479    1.0000 </r>
       <r>   -5.7981    1.0000 </r>
       <r>   -5.7730    1.0000 </r>
       <r>   -5.6655    1.0000 </r>
       <r>   -5.6059    1.0000 </r>
       <r>   -5.5819    1.0000 </r>
       <r>   -5.3240    1.0000 </r>
       <r>   -5.1163    1.0000 </r>
       <r>   -4.9178    1.0000 </r>
       <r>   -4.8878    1.0000 </r>
       <r>   -4.7236    1.0000 </r>
       <r>   -4.6814    1.0000 </r>
       <r>   -4.5479    1.0000 </r>
       <r>   -4.3464    1.0000 </r>
       <r>   -4.3250    1.0000 </r>
       <r>   -4.2075    1.0000 </r>
       <r>   -3.9070    1.0000 </r>
       <r>   -3.7848    1.0000 </r>
       <r>   -3.6241    0.9995 </r>
       <r>   -3.5618    0.9978 </r>
       <r>   -3.3178    0.8707 </r>
       <r>   -3.1246    0.4065 </r>
       <r>   -3.0215    0.1671 </r>
       <r>   -2.7637    0.0027 </r>
       <r>   -2.6945    0.0005 </r>
       <r>   -2.6483    0.0002 </r>
       <r>   -2.5162    0.0000 </r>
       <r>   -2.3803    0.0000 </r>
       <r>   -2.2228    0.0000 </r>
       <r>   -2.1257    0.0000 </r>
       <r>   -2.0497    0.0000 </r>
       <r>   -1.9796    0.0000 </r>
       <r>   -1.6671    0.0000 </r>
       <r>   -1.6064    0.0000 </r>
       <r>   -1.5062    0.0000 </r>
       <r>   -1.4786    0.0000 </r>
       <r>   -1.3066    0.0000 </r>
       <r>   -1.2599    0.0000 </r>
       <r>   -1.1612    0.0000 </r>
       <r>   -0.9907    0.0000 </r>
       <r>   -0.9126    0.0000 </r>
       <r>   -0.8442    0.0000 </r>
       <r>   -0.8008    0.0000 </r>
       <r>   -0.7655    0.0000 </r>
       <r>   -0.6349    0.0000 </r>
       <r>   -0.6081    0.0000 </r>
       <r>   -0.4319    0.0000 </r>
       <r>   -0.3619    0.0000 </r>
       <r>   -0.1970    0.0000 </r>
       <r>   -0.0567    0.0000 </r>
       <r>    0.0803    0.0000 </r>
       <r>    0.1557    0.0000 </r>
       <r>    0.6301    0.0000 </r>
       <r>    0.7323    0.0000 </r>
       <r>    0.9018    0.0000 </r>
       <r>    1.1240    0.0000 </r>
       <r>    1.2347    0.0000 </r>
       <r>    1.2838    0.0000 </r>
       <r>    1.4831    0.0000 </r>
       <r>    2.2368    0.0000 </r>
       <r>    2.2719    0.0000 </r>
       <r>    2.3729    0.0000 </r>
      </set>
     </set>
    </set>
   </array>
  </eigenvalues>
  <separator name="orbital magnetization" >
   <v name="MAGDIPOLOUT">      0.00000000      0.00000000      0.00000000</v>
  </separator>
 </calculation>
 <structure name="finalpos" >
  <crystal>
   <varray name="basis" >
    <v>       8.32114840       4.78265320       0.00000000 </v>
    <v>      -8.33469408       4.80607332       0.00000000 </v>
    <v>       0.00000000       0.00000000      30.00000000 </v>
   </varray>
   <i name="volume">   2395.62002029 </i>
   <varray name="rec_basis" >
    <v>       0.06018575       0.10437416       0.00000000 </v>
    <v>      -0.05989247       0.10420453       0.00000000 </v>
    <v>       0.00000000       0.00000000       0.03333333 </v>
   </varray>
  </crystal>
  <varray name="positions" >
   <v>       0.32757181       0.66582031      -0.00042700 </v>
   <v>       0.00289131       0.00150218       0.00043943 </v>
   <v>       0.66494594       0.69673906      -0.00013239 </v>
   <v>       0.34838901       0.00593069       0.00055944 </v>
   <v>       0.66743166       0.01759264       0.00003121 </v>
   <v>       0.98597119       0.32915202      -0.00069544 </v>
   <v>       0.02183759       0.66786406      -0.00053197 </v>
   <v>       0.31163713       0.31552683       0.00074628 </v>
   <v>       0.66725365       0.30563157       0.00010811 </v>
   <v>       0.10433423       0.21238311       0.94744958 </v>
   <v>       0.21492936       0.10333876       0.05256905 </v>
   <v>       0.11876457       0.55579292       0.94669974 </v>
   <v>       0.21993539       0.44499527       0.04998470 </v>
   <v>       0.11335017       0.89096717       0.95021253 </v>
   <v>       0.22895475       0.77437643       0.05297729 </v>
   <v>       0.44662990       0.22438823       0.94795664 </v>
   <v>       0.55680747       0.11128994       0.05712148 </v>
   <v>       0.44418906       0.55809442       0.95163835 </v>
   <v>       0.55887644       0.44897033       0.04413601 </v>
   <v>       0.44332008       0.88361981       0.94859160 </v>
   <v>       0.55035137       0.77830968       0.05091778 </v>
   <v>       0.77688402       0.22184353       0.94283460 </v>
   <v>       0.89118718       0.10857791       0.05111432 </v>
   <v>       0.77430481       0.55698592       0.95605003 </v>
   <v>       0.88642701       0.44481023       0.05259848 </v>
   <v>       0.78287767       0.89429763       0.94901373 </v>
   <v>       0.88816169       0.77941382       0.04803633 </v>
  </varray>
 </structure>
</modeling>
