       N       E                     dE             d eps       ncg     rms          rms(c)
DAV:   1     0.112681631014E+04    0.11268E+04   -0.35973E+04  8160   0.577E+02
DAV:   2    -0.412942193861E+01   -0.11309E+04   -0.10912E+04 11360   0.173E+02
DAV:   3    -0.199973429157E+03   -0.19584E+03   -0.18804E+03 10880   0.819E+01
DAV:   4    -0.209047002821E+03   -0.90736E+01   -0.88193E+01 12280   0.261E+01
DAV:   5    -0.209350481322E+03   -0.30348E+00   -0.30264E+00 11440   0.342E+00    0.275E+01
DAV:   6    -0.236562175376E+03   -0.27212E+02   -0.10019E+02 12880   0.596E+01    0.595E+01
DAV:   7    -0.196088033332E+03    0.40474E+02   -0.16753E+02 12440   0.146E+02    0.198E+01
DAV:   8    -0.189217765555E+03    0.68703E+01   -0.16335E+01 12200   0.123E+01    0.118E+01
DAV:   9    -0.188013544502E+03    0.12042E+01   -0.29903E+00 13360   0.661E+00    0.824E+00
DAV:  10    -0.187021854233E+03    0.99169E+00   -0.14379E+00 13080   0.676E+00    0.201E+00
DAV:  11    -0.187218388568E+03   -0.19653E+00   -0.80400E-01 13240   0.454E+00    0.478E+00
DAV:  12    -0.187059810783E+03    0.15858E+00   -0.39149E-01 12120   0.412E+00    0.343E+00
DAV:  13    -0.186940958095E+03    0.11885E+00   -0.20748E-01 12440   0.288E+00    0.120E+00
DAV:  14    -0.186934523674E+03    0.64344E-02   -0.46004E-02 13080   0.115E+00    0.103E+00
DAV:  15    -0.186928142978E+03    0.63807E-02   -0.15055E-02 13440   0.626E-01    0.591E-01
DAV:  16    -0.186923937300E+03    0.42057E-02   -0.88347E-03 13160   0.400E-01    0.169E-01
DAV:  17    -0.186923688995E+03    0.24831E-03   -0.34501E-03 12000   0.166E-01    0.206E-01
DAV:  18    -0.186923149121E+03    0.53987E-03   -0.15918E-03 12240   0.177E-01    0.861E-02
DAV:  19    -0.186923552873E+03   -0.40375E-03   -0.74310E-04 10840   0.791E-02    0.943E-02
DAV:  20    -0.186924101474E+03   -0.54860E-03   -0.64256E-04  9720   0.844E-02    0.789E-02
DAV:  21    -0.186925249974E+03   -0.11485E-02   -0.35445E-04  9160   0.748E-02    0.240E-02
DAV:  22    -0.186926140178E+03   -0.89020E-03   -0.92829E-05  7120   0.267E-02    0.275E-02
DAV:  23    -0.186926853644E+03   -0.71347E-03   -0.60967E-05  7640   0.229E-02    0.144E-02
DAV:  24    -0.186927531813E+03   -0.67817E-03   -0.44338E-05  7120   0.199E-02    0.100E-02
DAV:  25    -0.186927901451E+03   -0.36964E-03   -0.10653E-05  6320   0.137E-02    0.519E-03
DAV:  26    -0.186928119968E+03   -0.21852E-03   -0.76556E-06  6800   0.801E-03    0.297E-03
DAV:  27    -0.186928203338E+03   -0.83370E-04   -0.30141E-06  7200   0.554E-03
   1 F= -.18692820E+03 E0= -.18675598E+03  d E =-.186928E+03
       N       E                     dE             d eps       ncg     rms          rms(c)
DAV:   1    -0.187487590252E+03   -0.55947E+00   -0.26699E+02  8160   0.346E+01    0.463E+00
DAV:   2    -0.189404055903E+03   -0.19165E+01   -0.20559E+01 12920   0.154E+01    0.883E+00
DAV:   3    -0.189395229017E+03    0.88269E-02   -0.40607E+00 12320   0.117E+01    0.701E+00
DAV:   4    -0.188763666392E+03    0.63156E+00   -0.60203E-01 12080   0.457E+00    0.173E+00
DAV:   5    -0.188773512913E+03   -0.98465E-02   -0.31835E-01 10200   0.155E+00    0.236E+00
DAV:   6    -0.188716945697E+03    0.56567E-01   -0.30106E-01 12160   0.221E+00    0.203E+00
DAV:   7    -0.188721650607E+03   -0.47049E-02   -0.17719E-01 12200   0.262E+00    0.234E+00
DAV:   8    -0.188677750874E+03    0.43900E-01   -0.81856E-02 12880   0.153E+00    0.376E-01
DAV:   9    -0.188675743756E+03    0.20071E-02   -0.67804E-03 10560   0.283E-01    0.200E-01
DAV:  10    -0.188677112354E+03   -0.13686E-02   -0.45622E-03 13520   0.394E-01    0.481E-01
DAV:  11    -0.188675322540E+03    0.17898E-02   -0.36242E-03 12600   0.354E-01    0.107E-01
DAV:  12    -0.188675437062E+03   -0.11452E-03   -0.64814E-04 11400   0.976E-02    0.796E-02
DAV:  13    -0.188675368766E+03    0.68296E-04   -0.19426E-04  8000   0.467E-02
   2 F= -.18867537E+03 E0= -.18853341E+03  d E =-.174717E+01
       N       E                     dE             d eps       ncg     rms          rms(c)
DAV:   1    -0.190573865227E+03   -0.18984E+01   -0.30372E+01  8880   0.141E+01    0.447E+00
DAV:   2    -0.190675349331E+03   -0.10148E+00   -0.29226E+00 11360   0.101E+01    0.807E+00
DAV:   3    -0.190029063718E+03    0.64629E+00   -0.13790E+00 12320   0.857E+00    0.392E+00
DAV:   4    -0.189846478695E+03    0.18259E+00   -0.66520E-01 12280   0.364E+00    0.250E+00
DAV:   5    -0.189768029546E+03    0.78449E-01   -0.28893E-01 12040   0.196E+00    0.120E+00
DAV:   6    -0.189749688088E+03    0.18341E-01   -0.60802E-02 11800   0.138E+00    0.862E-01
DAV:   7    -0.189743932621E+03    0.57555E-02   -0.14662E-02 11440   0.715E-01    0.201E-01
DAV:   8    -0.189743967800E+03   -0.35180E-04   -0.21059E-03 12400   0.164E-01    0.147E-01
DAV:   9    -0.189744108617E+03   -0.14082E-03   -0.10784E-03 10680   0.145E-01    0.153E-01
DAV:  10    -0.189744606760E+03   -0.49814E-03   -0.14568E-03 10440   0.266E-01    0.261E-01
DAV:  11    -0.189743969691E+03    0.63707E-03   -0.85616E-04  9160   0.195E-01    0.219E-02
DAV:  12    -0.189743993351E+03   -0.23660E-04   -0.66646E-05  5720   0.280E-02
   3 F= -.18974399E+03 E0= -.18962431E+03  d E =-.106862E+01
       N       E                     dE             d eps       ncg     rms          rms(c)
DAV:   1    -0.191236309494E+03   -0.14923E+01   -0.63102E+01  8160   0.182E+01    0.464E+00
DAV:   2    -0.191350993933E+03   -0.11468E+00   -0.55885E+00 13600   0.100E+01    0.683E+00
DAV:   3    -0.191001165572E+03    0.34983E+00   -0.16822E+00 12040   0.922E+00    0.493E+00
DAV:   4    -0.190759351135E+03    0.24181E+00   -0.86775E-01 12280   0.506E+00    0.256E+00
DAV:   5    -0.190666879769E+03    0.92471E-01   -0.27716E-01 12160   0.209E+00    0.123E+00
DAV:   6    -0.190657316355E+03    0.95634E-02   -0.10654E-01 11720   0.199E+00    0.143E+00
DAV:   7    -0.190643570590E+03    0.13746E-01   -0.52391E-02 11400   0.159E+00    0.599E-01
DAV:   8    -0.190638733697E+03    0.48369E-02   -0.67677E-03 12200   0.471E-01    0.118E-01
DAV:   9    -0.190639297001E+03   -0.56330E-03   -0.19507E-03 10840   0.152E-01    0.153E-01
DAV:  10    -0.190639123953E+03    0.17305E-03   -0.90914E-04 10640   0.191E-01    0.117E-01
DAV:  11    -0.190639044705E+03    0.79247E-04   -0.32084E-04  7800   0.124E-01
   4 F= -.19063904E+03 E0= -.19053883E+03  d E =-.895051E+00
       N       E                     dE             d eps       ncg     rms          rms(c)
DAV:   1    -0.191939655865E+03   -0.13005E+01   -0.11431E+02  8160   0.242E+01    0.569E+00
DAV:   2    -0.192054633403E+03   -0.11498E+00   -0.93611E+00 13560   0.118E+01    0.707E+00
DAV:   3    -0.191733134321E+03    0.32150E+00   -0.23323E+00 11760   0.113E+01    0.628E+00
DAV:   4    -0.191363284579E+03    0.36985E+00   -0.13662E+00 12240   0.751E+00    0.316E+00
DAV:   5    -0.191205734799E+03    0.15755E+00   -0.42977E-01 12560   0.313E+00    0.159E+00
DAV:   6    -0.191202885618E+03    0.28492E-02   -0.18779E-01 12560   0.303E+00    0.196E+00
DAV:   7    -0.191169591513E+03    0.33294E-01   -0.88402E-02 12400   0.214E+00    0.549E-01
DAV:   8    -0.191164364687E+03    0.52268E-02   -0.90721E-03 11120   0.467E-01    0.148E-01
DAV:   9    -0.191165214613E+03   -0.84993E-03   -0.33477E-03 11360   0.254E-01    0.222E-01
DAV:  10    -0.191164843363E+03    0.37125E-03   -0.13729E-03 10320   0.274E-01    0.102E-01
DAV:  11    -0.191164773023E+03    0.70341E-04   -0.25977E-04  6960   0.998E-02
   5 F= -.19116477E+03 E0= -.19107389E+03  d E =-.525728E+00
       N       E                     dE             d eps       ncg     rms          rms(c)
DAV:   1    -0.191205032209E+03   -0.40189E-01   -0.36028E+00  8160   0.406E+00    0.521E-01
DAV:   2    -0.191217064808E+03   -0.12033E-01   -0.14423E-01 13200   0.127E+00    0.726E-01
DAV:   3    -0.191213615714E+03    0.34491E-02   -0.30683E-02 12440   0.121E+00    0.688E-01
DAV:   4    -0.191209616172E+03    0.39995E-02   -0.12054E-02 11280   0.806E-01    0.310E-01
DAV:   5    -0.191208190884E+03    0.14253E-02   -0.37618E-03 10120   0.379E-01    0.201E-01
DAV:   6    -0.191208430088E+03   -0.23920E-03   -0.25087E-03 12120   0.379E-01    0.233E-01
DAV:   7    -0.191207800503E+03    0.62958E-03   -0.94880E-04 10360   0.221E-01    0.342E-02
DAV:   8    -0.191207835060E+03   -0.34557E-04   -0.10765E-04  6080   0.654E-02
   6 F= -.19120784E+03 E0= -.19111433E+03  d E =-.430620E-01
       N       E                     dE             d eps       ncg     rms          rms(c)
DAV:   1    -0.191220008933E+03   -0.12208E-01   -0.32269E-01  8160   0.122E+00    0.173E-01
DAV:   2    -0.191220798855E+03   -0.78992E-03   -0.12416E-02 11640   0.366E-01    0.222E-01
DAV:   3    -0.191220744838E+03    0.54018E-04   -0.30893E-03 12480   0.409E-01    0.245E-01
DAV:   4    -0.191220171114E+03    0.57372E-03   -0.13698E-03  9800   0.274E-01    0.993E-02
DAV:   5    -0.191220098352E+03    0.72762E-04   -0.48905E-04  8920   0.140E-01
   7 F= -.19122010E+03 E0= -.19112552E+03  d E =-.122633E-01
       N       E                     dE             d eps       ncg     rms          rms(c)
DAV:   1    -0.191218955083E+03    0.12160E-02   -0.99803E-01  8160   0.238E+00    0.583E-01
DAV:   2    -0.191216576982E+03    0.23781E-02   -0.71897E-02 12440   0.101E+00    0.717E-01
DAV:   3    -0.191216969955E+03   -0.39297E-03   -0.31040E-02 11720   0.135E+00    0.801E-01
DAV:   4    -0.191210290070E+03    0.66799E-02   -0.15686E-02 11440   0.911E-01    0.344E-01
DAV:   5    -0.191210472016E+03   -0.18195E-03   -0.74992E-03 10400   0.624E-01    0.409E-01
DAV:   6    -0.191208418861E+03    0.20532E-02   -0.33408E-03 11920   0.411E-01    0.671E-02
DAV:   7    -0.191208485214E+03   -0.66353E-04   -0.42797E-04  9560   0.101E-01
   8 F= -.19120849E+03 E0= -.19111556E+03  d E =0.116131E-01
       N       E                     dE             d eps       ncg     rms          rms(c)
DAV:   1    -0.191289105452E+03   -0.80687E-01   -0.65963E+00  8160   0.567E+00    0.952E-01
DAV:   2    -0.191298012117E+03   -0.89067E-02   -0.25745E-01 12920   0.197E+00    0.135E+00
DAV:   3    -0.191289809328E+03    0.82028E-02   -0.88554E-02 12200   0.226E+00    0.114E+00
DAV:   4    -0.191276342921E+03    0.13466E-01   -0.36708E-02 12280   0.135E+00    0.603E-01
DAV:   5    -0.191276097541E+03    0.24538E-03   -0.21872E-02 10760   0.103E+00    0.731E-01
DAV:   6    -0.191270674966E+03    0.54226E-02   -0.12898E-02 11880   0.795E-01    0.212E-01
DAV:   7    -0.191270110413E+03    0.56455E-03   -0.21429E-03 10800   0.233E-01    0.808E-02
DAV:   8    -0.191270160992E+03   -0.50579E-04   -0.64037E-04 11200   0.168E-01
   9 F= -.19127016E+03 E0= -.19117282E+03  d E =-.616758E-01
       N       E                     dE             d eps       ncg     rms          rms(c)
DAV:   1    -0.191291669140E+03   -0.21559E-01   -0.72568E-01  8160   0.185E+00    0.282E-01
DAV:   2    -0.191293542336E+03   -0.18732E-02   -0.31367E-02 12720   0.650E-01    0.413E-01
DAV:   3    -0.191292446168E+03    0.10962E-02   -0.79260E-03 11800   0.642E-01    0.322E-01
DAV:   4    -0.191291623650E+03    0.82252E-03   -0.34234E-03 10760   0.396E-01    0.196E-01
DAV:   5    -0.191291354081E+03    0.26957E-03   -0.18055E-03  9760   0.305E-01    0.183E-01
DAV:   6    -0.191291045099E+03    0.30898E-03   -0.92821E-04  9760   0.223E-01    0.724E-02
DAV:   7    -0.191290985979E+03    0.59120E-04   -0.14021E-04  6080   0.748E-02
  10 F= -.19129099E+03 E0= -.19119329E+03  d E =-.208250E-01
       N       E                     dE             d eps       ncg     rms          rms(c)
DAV:   1    -0.191340724931E+03   -0.49680E-01   -0.30335E+00  8160   0.370E+00    0.387E-01
DAV:   2    -0.191349716731E+03   -0.89918E-02   -0.81244E-02 13560   0.104E+00    0.685E-01
DAV:   3    -0.191346108222E+03    0.36085E-02   -0.19847E-02 12120   0.103E+00    0.480E-01
DAV:   4    -0.191343955763E+03    0.21525E-02   -0.56268E-03 11400   0.513E-01    0.197E-01
DAV:   5    -0.191343557812E+03    0.39795E-03   -0.19483E-03 11680   0.288E-01    0.183E-01
DAV:   6    -0.191343488602E+03    0.69211E-04   -0.13615E-03 11200   0.284E-01    0.144E-01
DAV:   7    -0.191343240167E+03    0.24843E-03   -0.41975E-04  8240   0.138E-01    0.283E-02
DAV:   8    -0.191343241676E+03   -0.15092E-05   -0.67777E-05  6160   0.435E-02
  11 F= -.19134324E+03 E0= -.19124573E+03  d E =-.522557E-01
       N       E                     dE             d eps       ncg     rms          rms(c)
DAV:   1    -0.191293755335E+03    0.49485E-01   -0.26842E+00  8160   0.352E+00    0.439E-01
DAV:   2    -0.191299673178E+03   -0.59178E-02   -0.79563E-02 13320   0.102E+00    0.646E-01
DAV:   3    -0.191297821298E+03    0.18519E-02   -0.21014E-02 11800   0.109E+00    0.591E-01
DAV:   4    -0.191294303681E+03    0.35176E-02   -0.84517E-03 11480   0.639E-01    0.215E-01
DAV:   5    -0.191293858799E+03    0.44488E-03   -0.27914E-03 11280   0.311E-01    0.205E-01
DAV:   6    -0.191293672350E+03    0.18645E-03   -0.18474E-03 11720   0.319E-01    0.160E-01
DAV:   7    -0.191293382760E+03    0.28959E-03   -0.61866E-04  9720   0.167E-01    0.368E-02
DAV:   8    -0.191293368273E+03    0.14488E-04   -0.75591E-05  6480   0.383E-02
  12 F= -.19129337E+03 E0= -.19119581E+03  d E =0.498734E-01
       N       E                     dE             d eps       ncg     rms          rms(c)
DAV:   1    -0.191375894258E+03   -0.82511E-01   -0.65562E+00  8160   0.555E+00    0.727E-01
DAV:   2    -0.191388781976E+03   -0.12888E-01   -0.21032E-01 13560   0.163E+00    0.987E-01
DAV:   3    -0.191385990070E+03    0.27919E-02   -0.54690E-02 11400   0.174E+00    0.932E-01
DAV:   4    -0.191376382331E+03    0.96077E-02   -0.21089E-02 11840   0.105E+00    0.395E-01
DAV:   5    -0.191376054796E+03    0.32754E-03   -0.10269E-02 11240   0.687E-01    0.482E-01
DAV:   6    -0.191373985902E+03    0.20689E-02   -0.67894E-03 11480   0.597E-01    0.204E-01
DAV:   7    -0.191373419366E+03    0.56654E-03   -0.15058E-03 10880   0.213E-01    0.534E-02
DAV:   8    -0.191373359619E+03    0.59747E-04   -0.22013E-04  8600   0.585E-02
  13 F= -.19137336E+03 E0= -.19127621E+03  d E =-.799913E-01
       N       E                     dE             d eps       ncg     rms          rms(c)
DAV:   1    -0.191399164698E+03   -0.25745E-01   -0.59017E-01  8160   0.164E+00    0.194E-01
DAV:   2    -0.191401640817E+03   -0.24761E-02   -0.19267E-02 12800   0.623E-01    0.415E-01
DAV:   3    -0.191399873678E+03    0.17671E-02   -0.42869E-03 11800   0.500E-01    0.160E-01
DAV:   4    -0.191399718296E+03    0.15538E-03   -0.10727E-03  9720   0.215E-01    0.128E-01
DAV:   5    -0.191399667846E+03    0.50450E-04   -0.81086E-04 10040   0.216E-01
  14 F= -.19139967E+03 E0= -.19130384E+03  d E =-.263082E-01
       N       E                     dE             d eps       ncg     rms          rms(c)
DAV:   1    -0.191466209375E+03   -0.66491E-01   -0.40748E+00  8160   0.430E+00    0.448E-01
DAV:   2    -0.191478398964E+03   -0.12190E-01   -0.10973E-01 13520   0.135E+00    0.841E-01
DAV:   3    -0.191471724681E+03    0.66743E-02   -0.20709E-02 12160   0.111E+00    0.403E-01
DAV:   4    -0.191470398023E+03    0.13267E-02   -0.54192E-03 11160   0.509E-01    0.281E-01
DAV:   5    -0.191470189372E+03    0.20865E-03   -0.40561E-03 10120   0.487E-01    0.284E-01
DAV:   6    -0.191469528674E+03    0.66070E-03   -0.21114E-03 12600   0.321E-01    0.106E-01
DAV:   7    -0.191469301769E+03    0.22690E-03   -0.48583E-04  9480   0.100E-01    0.240E-02
DAV:   8    -0.191469304820E+03   -0.30512E-05   -0.67852E-05  6880   0.274E-02
  15 F= -.19146930E+03 E0= -.19137750E+03  d E =-.696370E-01
       N       E                     dE             d eps       ncg     rms          rms(c)
DAV:   1    -0.191494682555E+03   -0.25381E-01   -0.48375E-01  8160   0.149E+00    0.159E-01
DAV:   2    -0.191495939209E+03   -0.12567E-02   -0.14247E-02 13520   0.413E-01    0.247E-01
DAV:   3    -0.191495641102E+03    0.29811E-03   -0.29262E-03 11320   0.413E-01    0.202E-01
DAV:   4    -0.191495186471E+03    0.45463E-03   -0.81653E-04  9200   0.207E-01    0.623E-02
DAV:   5    -0.191495151196E+03    0.35275E-04   -0.22888E-04  6040   0.809E-02
  16 F= -.19149515E+03 E0= -.19140492E+03  d E =-.258464E-01
       N       E                     dE             d eps       ncg     rms          rms(c)
DAV:   1    -0.191527132393E+03   -0.31946E-01   -0.75646E-01  8160   0.198E+00    0.424E-01
DAV:   2    -0.191531183998E+03   -0.40516E-02   -0.43392E-02 12120   0.117E+00    0.837E-01
DAV:   3    -0.191524192017E+03    0.69920E-02   -0.16426E-02 11360   0.104E+00    0.300E-01
DAV:   4    -0.191522777209E+03    0.14148E-02   -0.35547E-03 12240   0.323E-01    0.180E-01
DAV:   5    -0.191522987208E+03   -0.21000E-03   -0.31507E-03 11440   0.373E-01    0.282E-01
DAV:   6    -0.191522100001E+03    0.88721E-03   -0.17759E-03 10440   0.323E-01    0.603E-02
DAV:   7    -0.191522081826E+03    0.18175E-04   -0.14741E-04  5600   0.702E-02
  17 F= -.19152208E+03 E0= -.19143327E+03  d E =-.269306E-01
       N       E                     dE             d eps       ncg     rms          rms(c)
DAV:   1    -0.191605825994E+03   -0.83726E-01   -0.59347E+00  8160   0.519E+00    0.543E-01
DAV:   2    -0.191627592281E+03   -0.21766E-01   -0.17992E-01 12600   0.177E+00    0.109E+00
DAV:   3    -0.191615662222E+03    0.11930E-01   -0.33425E-02 12200   0.145E+00    0.473E-01
DAV:   4    -0.191613672736E+03    0.19895E-02   -0.70452E-03 11000   0.611E-01    0.320E-01
DAV:   5    -0.191613302341E+03    0.37040E-03   -0.46610E-03 10120   0.556E-01    0.312E-01
DAV:   6    -0.191612484635E+03    0.81771E-03   -0.25674E-03 12720   0.360E-01    0.121E-01
DAV:   7    -0.191612186471E+03    0.29816E-03   -0.72542E-04  9520   0.122E-01    0.411E-02
DAV:   8    -0.191612198868E+03   -0.12397E-04   -0.14162E-04  6640   0.854E-02
  18 F= -.19161220E+03 E0= -.19152927E+03  d E =-.901170E-01
       N       E                     dE             d eps       ncg     rms          rms(c)
DAV:   1    -0.191673431366E+03   -0.61245E-01   -0.32815E+00  8160   0.389E+00    0.402E-01
DAV:   2    -0.191681640460E+03   -0.82091E-02   -0.99933E-02 12160   0.996E-01    0.550E-01
DAV:   3    -0.191681016438E+03    0.62402E-03   -0.16946E-02 12400   0.102E+00    0.526E-01
DAV:   4    -0.191677740328E+03    0.32761E-02   -0.47875E-03 11280   0.547E-01    0.144E-01
DAV:   5    -0.191677786163E+03   -0.45835E-04   -0.17073E-03 12360   0.268E-01    0.185E-01
DAV:   6    -0.191677668159E+03    0.11800E-03   -0.13724E-03 11080   0.309E-01    0.149E-01
DAV:   7    -0.191677349844E+03    0.31832E-03   -0.44870E-04  8440   0.162E-01    0.263E-02
DAV:   8    -0.191677354252E+03   -0.44084E-05   -0.71527E-05  5920   0.334E-02
  19 F= -.19167735E+03 E0= -.19159742E+03  d E =-.651554E-01
       N       E                     dE             d eps       ncg     rms          rms(c)
DAV:   1    -0.191794918263E+03   -0.11757E+00   -0.58466E+01  8160   0.164E+01    0.160E+00
DAV:   2    -0.191966640582E+03   -0.17172E+00   -0.18895E+00 11920   0.425E+00    0.226E+00
DAV:   3    -0.191940197869E+03    0.26443E-01   -0.26324E-01 12360   0.403E+00    0.184E+00
DAV:   4    -0.191898237522E+03    0.41960E-01   -0.66390E-02 12240   0.211E+00    0.646E-01
DAV:   5    -0.191900135408E+03   -0.18979E-02   -0.27730E-02 12400   0.139E+00    0.855E-01
DAV:   6    -0.191893748973E+03    0.63864E-02   -0.20273E-02 12720   0.119E+00    0.420E-01
DAV:   7    -0.191890361904E+03    0.33871E-02   -0.64228E-03 11720   0.449E-01    0.954E-02
DAV:   8    -0.191890454872E+03   -0.92968E-04   -0.12167E-03 11680   0.183E-01    0.120E-01
DAV:   9    -0.191890341230E+03    0.11364E-03   -0.69149E-04 10400   0.208E-01    0.929E-02
DAV:  10    -0.191890214453E+03    0.12678E-03   -0.22745E-04  6840   0.107E-01    0.199E-02
DAV:  11    -0.191890235130E+03   -0.20677E-04   -0.91217E-05  6680   0.319E-02
  20 F= -.19189024E+03 E0= -.19181228E+03  d E =-.212881E+00
       N       E                     dE             d eps       ncg     rms          rms(c)
DAV:   1    -0.191914475596E+03   -0.24261E-01   -0.12518E+00  8160   0.252E+00    0.508E-01
DAV:   2    -0.191918695732E+03   -0.42201E-02   -0.86600E-02 11760   0.130E+00    0.744E-01
DAV:   3    -0.191914293113E+03    0.44026E-02   -0.18735E-02 11320   0.121E+00    0.441E-01
DAV:   4    -0.191911398745E+03    0.28944E-02   -0.55668E-03 12240   0.569E-01    0.238E-01
DAV:   5    -0.191911878836E+03   -0.48009E-03   -0.45987E-03 11560   0.527E-01    0.355E-01
DAV:   6    -0.191910357998E+03    0.15208E-02   -0.26320E-03 11640   0.424E-01    0.641E-02
DAV:   7    -0.191910359606E+03   -0.16073E-05   -0.25945E-04  7240   0.982E-02
  21 F= -.19191036E+03 E0= -.19183074E+03  d E =-.201245E-01
       N       E                     dE             d eps       ncg     rms          rms(c)
DAV:   1    -0.191929009331E+03   -0.18651E-01   -0.11608E+00  8160   0.230E+00    0.301E-01
DAV:   2    -0.191935922200E+03   -0.69129E-02   -0.54230E-02 10680   0.116E+00    0.645E-01
DAV:   3    -0.191931129198E+03    0.47930E-02   -0.10401E-02 12240   0.828E-01    0.192E-01
DAV:   4    -0.191930748644E+03    0.38055E-03   -0.15401E-03 11120   0.288E-01    0.168E-01
DAV:   5    -0.191930772917E+03   -0.24273E-04   -0.12945E-03 10280   0.318E-01    0.183E-01
DAV:   6    -0.191930379449E+03    0.39347E-03   -0.80180E-04 11320   0.203E-01    0.397E-02
DAV:   7    -0.191930366436E+03    0.13013E-04   -0.12195E-04  5960   0.532E-02
  22 F= -.19193037E+03 E0= -.19185071E+03  d E =-.200068E-01
       N       E                     dE             d eps       ncg     rms          rms(c)
DAV:   1    -0.191945966357E+03   -0.15587E-01   -0.10377E+00  8160   0.217E+00    0.242E-01
DAV:   2    -0.191949125789E+03   -0.31594E-02   -0.40784E-02 12040   0.635E-01    0.295E-01
DAV:   3    -0.191949235208E+03   -0.10942E-03   -0.55738E-03 12360   0.611E-01    0.315E-01
DAV:   4    -0.191947926229E+03    0.13090E-02   -0.16733E-03 10720   0.346E-01    0.707E-02
DAV:   5    -0.191947994476E+03   -0.68247E-04   -0.66840E-04  9760   0.143E-01
  23 F= -.19194799E+03 E0= -.19186746E+03  d E =-.176280E-01
       N       E                     dE             d eps       ncg     rms          rms(c)
DAV:   1    -0.191967228658E+03   -0.19302E-01   -0.12645E+01  8160   0.753E+00    0.764E-01
DAV:   2    -0.192009074315E+03   -0.41846E-01   -0.46001E-01 11880   0.221E+00    0.108E+00
DAV:   3    -0.192004581552E+03    0.44928E-02   -0.62602E-02 12280   0.199E+00    0.885E-01
DAV:   4    -0.191993904375E+03    0.10677E-01   -0.13452E-02 12200   0.953E-01    0.249E-01
DAV:   5    -0.191996393089E+03   -0.24887E-02   -0.70209E-03 12560   0.717E-01    0.509E-01
DAV:   6    -0.191993047882E+03    0.33452E-02   -0.47587E-03 11160   0.585E-01    0.802E-02
DAV:   7    -0.191993002491E+03    0.45391E-04   -0.61296E-04 10160   0.101E-01
  24 F= -.19199300E+03 E0= -.19191007E+03  d E =-.450080E-01
       N       E                     dE             d eps       ncg     rms          rms(c)
DAV:   1    -0.192000341371E+03   -0.72935E-02   -0.38898E+00  8160   0.420E+00    0.478E-01
DAV:   2    -0.192012801859E+03   -0.12460E-01   -0.17079E-01 12040   0.127E+00    0.478E-01
DAV:   3    -0.192014715693E+03   -0.19138E-02   -0.18110E-02 11680   0.111E+00    0.630E-01
DAV:   4    -0.192009598809E+03    0.51169E-02   -0.68903E-03 11400   0.742E-01    0.187E-01
DAV:   5    -0.192009909003E+03   -0.31019E-03   -0.31197E-03 10560   0.405E-01    0.262E-01
DAV:   6    -0.192009237177E+03    0.67183E-03   -0.22740E-03 12040   0.385E-01    0.121E-01
DAV:   7    -0.192009007686E+03    0.22949E-03   -0.53722E-04  9080   0.122E-01    0.348E-02
DAV:   8    -0.192008989782E+03    0.17904E-04   -0.77710E-05  7880   0.433E-02
  25 F= -.19200899E+03 E0= -.19192462E+03  d E =-.159873E-01
       N       E                     dE             d eps       ncg     rms          rms(c)
DAV:   1    -0.192010952659E+03   -0.19450E-02   -0.25259E+00  8160   0.334E+00    0.328E-01
DAV:   2    -0.192019559847E+03   -0.86072E-02   -0.92797E-02 11760   0.100E+00    0.451E-01
DAV:   3    -0.192018711909E+03    0.84794E-03   -0.11867E-02 12040   0.845E-01    0.375E-01
DAV:   4    -0.192016970790E+03    0.17411E-02   -0.26596E-03 11360   0.434E-01    0.138E-01
DAV:   5    -0.192017166992E+03   -0.19620E-03   -0.10835E-03 11080   0.305E-01    0.186E-01
DAV:   6    -0.192016794040E+03    0.37295E-03   -0.88750E-04 10560   0.216E-01    0.473E-02
DAV:   7    -0.192016782444E+03    0.11596E-04   -0.15231E-04  5720   0.897E-02
  26 F= -.19201678E+03 E0= -.19193197E+03  d E =-.779266E-02
       N       E                     dE             d eps       ncg     rms          rms(c)
DAV:   1    -0.192017396957E+03   -0.60292E-03   -0.75094E-02  8160   0.588E-01    0.740E-02
DAV:   2    -0.192017839445E+03   -0.44249E-03   -0.31066E-03 11640   0.280E-01    0.164E-01
DAV:   3    -0.192017500708E+03    0.33874E-03   -0.64684E-04 10040   0.214E-01    0.447E-02
DAV:   4    -0.192017489591E+03    0.11117E-04   -0.93288E-05  6040   0.701E-02
  27 F= -.19201749E+03 E0= -.19193258E+03  d E =-.707147E-03
       N       E                     dE             d eps       ncg     rms          rms(c)
DAV:   1    -0.192018890639E+03   -0.13899E-02   -0.12896E-01  8160   0.757E-01    0.816E-02
DAV:   2    -0.192019251118E+03   -0.36048E-03   -0.46746E-03 12200   0.204E-01    0.829E-02
DAV:   3    -0.192019277136E+03   -0.26018E-04   -0.46983E-04 11320   0.178E-01
  28 F= -.19201928E+03 E0= -.19193412E+03  d E =-.178754E-02
       N       E                     dE             d eps       ncg     rms          rms(c)
DAV:   1    -0.192019641301E+03   -0.39018E-03   -0.15326E-02  8160   0.285E-01    0.493E-02
DAV:   2    -0.192019662570E+03   -0.21269E-04   -0.59357E-04 10400   0.722E-02
  29 F= -.19201966E+03 E0= -.19193444E+03  d E =-.385435E-03
       N       E                     dE             d eps       ncg     rms          rms(c)
DAV:   1    -0.192020861141E+03   -0.12198E-02   -0.11452E-01  8160   0.712E-01    0.862E-02
DAV:   2    -0.192021389788E+03   -0.52865E-03   -0.40212E-03 12320   0.261E-01    0.173E-01
DAV:   3    -0.192021050537E+03    0.33925E-03   -0.92226E-04 10160   0.241E-01    0.688E-02
DAV:   4    -0.192021039596E+03    0.10941E-04   -0.10746E-04  5720   0.901E-02
  30 F= -.19202104E+03 E0= -.19193587E+03  d E =-.137703E-02
       N       E                     dE             d eps       ncg     rms          rms(c)
DAV:   1    -0.192022172655E+03   -0.11221E-02   -0.11452E-01  8160   0.716E-01    0.850E-02
DAV:   2    -0.192022696071E+03   -0.52342E-03   -0.41541E-03 12480   0.248E-01    0.158E-01
DAV:   3    -0.192022414280E+03    0.28179E-03   -0.67988E-04 10040   0.227E-01    0.706E-02
DAV:   4    -0.192022402159E+03    0.12121E-04   -0.11198E-04  5560   0.946E-02
  31 F= -.19202240E+03 E0= -.19193716E+03  d E =-.136256E-02
       N       E                     dE             d eps       ncg     rms          rms(c)
DAV:   1    -0.192023101018E+03   -0.68674E-03   -0.46089E-02  8160   0.458E-01    0.614E-02
DAV:   2    -0.192023299151E+03   -0.19813E-03   -0.17301E-03 12040   0.160E-01    0.108E-01
DAV:   3    -0.192023164928E+03    0.13422E-03   -0.37609E-04  9520   0.154E-01    0.492E-02
DAV:   4    -0.192023164170E+03    0.75814E-06   -0.72447E-05  5600   0.761E-02
  32 F= -.19202316E+03 E0= -.19193805E+03  d E =-.762011E-03
       N       E                     dE             d eps       ncg     rms          rms(c)
DAV:   1    -0.192024179523E+03   -0.10146E-02   -0.12555E-01  8160   0.746E-01    0.828E-02
DAV:   2    -0.192024640505E+03   -0.46098E-03   -0.41798E-03 12720   0.258E-01    0.143E-01
DAV:   3    -0.192024418534E+03    0.22197E-03   -0.58209E-04 10160   0.211E-01    0.694E-02
DAV:   4    -0.192024401465E+03    0.17069E-04   -0.10923E-04  5520   0.940E-02
  33 F= -.19202440E+03 E0= -.19193923E+03  d E =-.123730E-02
       N       E                     dE             d eps       ncg     rms          rms(c)
DAV:   1    -0.192024858357E+03   -0.43982E-03   -0.21637E-02  8160   0.323E-01    0.563E-02
DAV:   2    -0.192025186196E+03   -0.32784E-03   -0.12543E-03 12600   0.215E-01    0.159E-01
DAV:   3    -0.192024855913E+03    0.33028E-03   -0.49022E-04  8520   0.188E-01    0.312E-02
DAV:   4    -0.192024884375E+03   -0.28463E-04   -0.56980E-05  5440   0.656E-02
  34 F= -.19202488E+03 E0= -.19193983E+03  d E =-.482910E-03
