unknown system                          
           1
     8.855036    5.105726    0.000000
    -8.855035    5.105725    0.000000
     0.000000    0.000000   30.000000
   V    Mo   W    S 
   3   3   3  18
Direct configuration=     1
   0.00000000  0.66666669  0.00000000
   0.66666669  0.66666669  0.00000000
   1.00000000  0.33333334  0.00000000
   0.00000000  0.00000000  0.00000000
   0.33333334  0.66666669  0.00000000
   0.33333334  0.00000000  0.00000000
   0.33333334  0.33333334  0.00000000
   0.66666669  0.00000000  0.00000000
   0.66666669  0.33333334  0.00000000
   0.11068511  0.22244981  0.95539999
   0.22244981  0.11068511  0.04460000
   0.11068511  0.55578315  0.95539999
   0.22244981  0.44401845  0.04460000
   0.11068511  0.88911647  0.95539999
   0.22244981  0.77735180  0.04460000
   0.44401845  0.22244981  0.95539999
   0.55578315  0.11068511  0.04460000
   0.44401845  0.55578315  0.95539999
   0.55578315  0.44401845  0.04460000
   0.44401845  0.88911647  0.95539999
   0.55578315  0.77735180  0.04460000
   0.77735180  0.22244981  0.95539999
   0.88911647  0.11068511  0.04460000
   0.77735180  0.55578315  0.95539999
   0.88911647  0.44401845  0.04460000
   0.77735180  0.88911647  0.95539999
   0.88911647  0.77735180  0.04460000
unknown system                          
           1
     8.667196    4.999607    0.000000
    -8.667190    4.999596    0.000000
     0.000000    0.000000   30.000000
   V    Mo   W    S 
   3   3   3  18
Direct configuration=     2
   0.00189325  0.66856012 -0.00000001
   0.66702906  0.66775145  0.00014327
   1.00108467  0.33369569 -0.00014328
   0.00130406 -0.00033072  0.00009792
   0.33300296  0.66797092 -0.00009792
   0.33195358 -0.00137980 -0.00000000
   0.33171475  0.33200275 -0.00023281
   0.66533588 -0.00161901  0.00023279
   0.66597116  0.33263800 -0.00000002
   0.10965097  0.22521218  0.95192783
   0.22264696  0.11191439  0.04925040
   0.10659100  0.55340875  0.95310540
   0.21813765  0.44181361  0.04804941
   0.10884929  0.88436245  0.95189650
   0.21769578  0.77551595  0.04810351
   0.44471808  0.22293303  0.95071984
   0.55626635  0.11138462  0.04928013
   0.44830214  0.55663312  0.95201904
   0.55740776  0.44825331  0.04809958
   0.44524783  0.88931374  0.95074957
   0.55854566  0.77631751  0.04807214
   0.78158635  0.22407427  0.95190041
   0.88996627  0.11496843  0.04798098
   0.77916876  0.55892256  0.95315711
   0.89225580  0.44583559  0.04684293
   0.77514672  0.88480406  0.95195063
   0.88674175  0.77325750  0.04689456
unknown system                          
           1
     8.484880    4.899923    0.000000
    -8.484862    4.899891    0.000000
     0.000000    0.000000   30.000000
   V    Mo   W    S 
   3   3   3  18
Direct configuration=     3
   0.00253893  0.66920669  0.00000001
   0.66707759  0.66812886  0.00011694
   1.00146137  0.33374500 -0.00011698
   0.00203065 -0.00008837  0.00013961
   0.33324879  0.66869917 -0.00013963
   0.33180644 -0.00152675  0.00000004
   0.33122029  0.33132525 -0.00025648
   0.66465735 -0.00211648  0.00025647
   0.66537059  0.33203926 -0.00000002
   0.10984033  0.22537451  0.95186133
   0.22280516  0.11216540  0.04932668
   0.10650424  0.55337512  0.95312434
   0.21815900  0.44164797  0.04799710
   0.10872911  0.88417735  0.95181194
   0.21751060  0.77539558  0.04818796
   0.44478357  0.22314196  0.95069700
   0.55647561  0.11145011  0.04930288
   0.44830180  0.55647046  0.95209294
   0.55735939  0.44812442  0.04801970
   0.44549886  0.88947202  0.95067311
   0.55870909  0.77650573  0.04813800
   0.78145630  0.22402570  0.95197947
   0.88980280  0.11496663  0.04790790
   0.77911080  0.55873710  0.95328430
   0.89206976  0.44577813  0.04671650
   0.77498023  0.88482404  0.95200382
   0.88670582  0.77316959  0.04687496
unknown system                          
           1
     8.266386    4.775398    0.000000
    -8.267157    4.776734    0.000000
     0.000000    0.000000   30.000000
   V    Mo   W    S 
   3   3   3  18
Direct configuration=     4
   0.00496940  0.67163867 -0.00000000
   0.66685110  0.66952263 -0.00004398
   1.00285582  0.33352016  0.00004368
   0.00518137  0.00149355  0.00022861
   0.33483576  0.67185369 -0.00022844
   0.33193414 -0.00139991  0.00000013
   0.32946888  0.32832213 -0.00022970
   0.66165093 -0.00387306  0.00022968
   0.66247334  0.32914255 -0.00000012
   0.10922232  0.22579919  0.95008425
   0.22312267  0.11236614  0.05124518
   0.10540989  0.55290840  0.95187530
   0.21728504  0.44124909  0.04919814
   0.10793614  0.88274590  0.95003782
   0.21607967  0.77460325  0.04996225
   0.44456654  0.22304606  0.94894102
   0.55637853  0.11123307  0.05105864
   0.44936742  0.55697136  0.95096091
   0.55772853  0.44905139  0.04918772
   0.44569970  0.88978893  0.94875483
   0.55913517  0.77588408  0.04991605
   0.78237753  0.22439151  0.95081305
   0.89030073  0.11602611  0.04903879
   0.77969785  0.55954618  0.95245041
   0.89287415  0.44636905  0.04755025
   0.77457843  0.88394291  0.95080152
   0.88623341  0.77207141  0.04812391
unknown system                          
           1
     8.261337    4.779427    0.000000
    -8.261137    4.779082    0.000000
     0.000000    0.000000   30.000000
   V    Mo   W    S 
   3   3   3  18
Direct configuration=     5
   0.00928023  0.67585192  0.00000064
   0.66609461  0.67243127 -0.00037513
   1.00582617  0.33271882  0.00038294
   0.01212324  0.00554165  0.00021713
   0.33861017  0.67866704 -0.00021742
   0.33332526 -0.00002755 -0.00000380
   0.32574158  0.32135771 -0.00007981
   0.65477149 -0.00733641  0.00007931
   0.65672561  0.32327726  0.00000012
   0.10842059  0.22584196  0.94745512
   0.22343008  0.11198000  0.05411791
   0.10487529  0.55298160  0.95008531
   0.21699251  0.44169205  0.05057830
   0.10747135  0.88155009  0.94753464
   0.21488750  0.77414332  0.05247211
   0.44352607  0.22206497  0.94628944
   0.55539135  0.11018441  0.05371788
   0.44973108  0.55722368  0.94960976
   0.55760624  0.44973999  0.05062493
   0.44531460  0.89009649  0.94588737
   0.55913024  0.77512999  0.05255479
   0.78315153  0.22430722  0.94938812
   0.89059798  0.11648660  0.05037151
   0.78032931  0.56001394  0.95152597
   0.89338965  0.44695903  0.04845270
   0.77507156  0.88374985  0.94940236
   0.88639918  0.77158754  0.04992768
unknown system                          
           1
     8.261340    4.779443    0.000000
    -8.261142    4.779104    0.000000
     0.000000    0.000000   30.000000
   V    Mo   W    S 
   3   3   3  18
Direct configuration=     6
   0.01059168  0.67717953 -0.00000067
   0.66591329  0.67390125 -0.00037237
   1.00728820  0.33255889  0.00037169
   0.01430867  0.00672393  0.00017571
   0.33990010  0.68091539 -0.00017704
   0.33429934  0.00090899 -0.00000563
   0.32476101  0.31862999 -0.00008725
   0.65195037 -0.00844944  0.00009018
   0.65457299  0.32117685  0.00000010
   0.10862552  0.22567767  0.94714590
   0.22358553  0.11141769  0.05458332
   0.10560740  0.55349251  0.95008601
   0.21816185  0.44248098  0.05043903
   0.10797087  0.88211420  0.94734368
   0.21545507  0.77465143  0.05266631
   0.44293143  0.22166196  0.94589148
   0.55497892  0.10959675  0.05412603
   0.44858253  0.55654952  0.94987220
   0.55697979  0.44917330  0.05050178
   0.44473273  0.89022094  0.94542710
   0.55897555  0.77533762  0.05282821
   0.78257142  0.22367233  0.94948809
   0.88990609  0.11530888  0.05013207
   0.78002525  0.55946575  0.95182045
   0.89283755  0.44667477  0.04817784
   0.77581563  0.88485920  0.94956965
   0.88688567  0.77231357  0.04990604
unknown system                          
           1
     8.258973    4.780671    0.000000
    -8.257248    4.777692    0.000000
     0.000000    0.000000   30.000000
   V    Mo   W    S 
   3   3   3  18
Direct configuration=     7
   0.01059986  0.67718763 -0.00000067
   0.66591400  0.67391084 -0.00037273
   1.00729813  0.33255938  0.00037206
   0.01432206  0.00673019  0.00017575
   0.33990577  0.68092851 -0.00017705
   0.33430420  0.00091381 -0.00000560
   0.32475458  0.31861362 -0.00008702
   0.65193412 -0.00845522  0.00008994
   0.65456013  0.32116383  0.00000010
   0.10862664  0.22567705  0.94714452
   0.22358629  0.11141502  0.05458527
   0.10561018  0.55349413  0.95008648
   0.21816713  0.44248377  0.05043766
   0.10797316  0.88211649  0.94734296
   0.21545735  0.77465371  0.05266703
   0.44292932  0.22166046  0.94588953
   0.55497739  0.10959460  0.05412798
   0.44857730  0.55654587  0.94987428
   0.55697678  0.44917041  0.05050077
   0.44473012  0.89022177  0.94542509
   0.55897486  0.77533871  0.05282963
   0.78256855  0.22366931  0.94948913
   0.88990247  0.11530373  0.05012993
   0.78002345  0.55946290  0.95182278
   0.89283472  0.44667287  0.04817547
   0.77581853  0.88486467  0.94957100
   0.88688736  0.77231638  0.04990558
unknown system                          
           1
     8.260775    4.784985    0.000000
    -8.257985    4.780160    0.000000
     0.000000    0.000000   30.000000
   V    Mo   W    S 
   3   3   3  18
Direct configuration=     8
   0.01065352  0.67745046 -0.00000393
   0.66576695  0.67455104 -0.00039002
   1.00759322  0.33255021  0.00036772
   0.01475699  0.00686481  0.00017631
   0.34073704  0.68163846 -0.00017539
   0.33457089  0.00126635  0.00000254
   0.32464822  0.31794721 -0.00007657
   0.65119784 -0.00919618  0.00007768
   0.65392342  0.32074419 -0.00000276
   0.10869197  0.22565010  0.94709373
   0.22360607  0.11134901  0.05465069
   0.10572847  0.55355304  0.95008324
   0.21840416  0.44260714  0.05041449
   0.10805913  0.88223360  0.94730120
   0.21554129  0.77471837  0.05269377
   0.44280250  0.22158728  0.94580756
   0.55491974  0.10950173  0.05419782
   0.44855539  0.55647879  0.94995708
   0.55691836  0.44922526  0.05045556
   0.44465348  0.89023313  0.94535030
   0.55902026  0.77530589  0.05285867
   0.78248232  0.22356366  0.94950660
   0.88974092  0.11508398  0.05008720
   0.77989897  0.55945357  0.95189849
   0.89273684  0.44662280  0.04815002
   0.77582832  0.88489253  0.94963792
   0.88677817  0.77233804  0.04988000
unknown system                          
           1
     8.260442    4.781310    0.000000
    -8.260544    4.781489    0.000000
     0.000000    0.000000   30.000000
   V    Mo   W    S 
   3   3   3  18
Direct configuration=     9
   0.01045103  0.67753530 -0.00000822
   0.66552081  0.67539504 -0.00039833
   1.00789532  0.33262383  0.00037012
   0.01495746  0.00687957  0.00018500
   0.34175644  0.68221170 -0.00017892
   0.33476291  0.00170841  0.00002795
   0.32463612  0.31741868 -0.00006546
   0.65067605 -0.01007334  0.00005859
   0.65340327  0.32049922 -0.00000475
   0.10880439  0.22561872  0.94710004
   0.22359106  0.11125297  0.05468948
   0.10588332  0.55359208  0.95012883
   0.21863489  0.44269760  0.05035486
   0.10815674  0.88237746  0.94728568
   0.21565534  0.77474127  0.05265794
   0.44269973  0.22153137  0.94572748
   0.55493147  0.10942295  0.05421263
   0.44864610  0.55642361  0.95004912
   0.55690159  0.44937450  0.05037944
   0.44458963  0.89026854  0.94528869
   0.55912314  0.77520064  0.05292799
   0.78235669  0.22344661  0.94957297
   0.88955439  0.11487746  0.05001533
   0.77967453  0.55949282  0.95199562
   0.89260996  0.44653203  0.04811319
   0.77582814  0.88487789  0.94968245
   0.88651393  0.77228754  0.04983218
unknown system                          
           1
     8.251093    4.770035    0.000000
    -8.251232    4.770288    0.000000
     0.000000    0.000000   30.000000
   V    Mo   W    S 
   3   3   3  18
Direct configuration=    10
   0.01193495  0.67852296 -0.00000061
   0.66600660  0.67550473 -0.00043002
   1.00890835  0.33263932  0.00042890
   0.01653064  0.00775401  0.00018169
   0.34090994  0.68312660 -0.00018025
   0.33510508  0.00171487 -0.00000430
   0.32370539  0.31590540 -0.00004882
   0.64923410 -0.00947500  0.00005010
   0.65242616  0.31902143 -0.00000216
   0.10880106  0.22557577  0.94690716
   0.22370842  0.11098865  0.05491400
   0.10605804  0.55375750  0.95014983
   0.21902222  0.44294019  0.05023044
   0.10833794  0.88247852  0.94721591
   0.21581461  0.77501678  0.05279627
   0.44257953  0.22141103  0.94556454
   0.55472472  0.10923995  0.05445486
   0.44774632  0.55596178  0.95020023
   0.55649265  0.44871784  0.05034666
   0.44430986  0.89035418  0.94509060
   0.55886776  0.77551255  0.05307247
   0.78211710  0.22318204  0.94964633
   0.88931929  0.11447636  0.04979945
   0.77973311  0.55901486  0.95219109
   0.89238464  0.44637573  0.04780722
   0.77628349  0.88573343  0.94977726
   0.88715247  0.77276298  0.04984106
unknown system                          
           1
     8.258856    4.778430    0.000000
    -8.258988    4.778672    0.000000
     0.000000    0.000000   30.000000
   V    Mo   W    S 
   3   3   3  18
Direct configuration=    11
   0.01037139  0.67684068  0.00001030
   0.66590580  0.67250695 -0.00041032
   1.00645590  0.33198756  0.00036450
   0.01419014  0.00697996  0.00017739
   0.33924348  0.68045729 -0.00015520
   0.33451589  0.00073870  0.00002074
   0.32484298  0.31918203 -0.00004040
   0.65241578 -0.00755002  0.00005968
   0.65520639  0.32168434  0.00000895
   0.10852784  0.22573682  0.94704069
   0.22361543  0.11159761  0.05453657
   0.10559175  0.55360088  0.94994227
   0.21792513  0.44250155  0.05054875
   0.10798487  0.88212252  0.94727916
   0.21543879  0.77477530  0.05279391
   0.44292413  0.22160895  0.94590089
   0.55479218  0.10961421  0.05420444
   0.44847813  0.55672919  0.94969800
   0.55696237  0.44907490  0.05066331
   0.44485950  0.89012325  0.94542554
   0.55889051  0.77533615  0.05273329
   0.78266877  0.22376954  0.94929206
   0.89012450  0.11535308  0.05035867
   0.78030400  0.55943346  0.95159870
   0.89295541  0.44678811  0.04836545
   0.77578538  0.88469163  0.94960039
   0.88723801  0.77252982  0.04998218
unknown system                          
           1
     8.255434    4.779380    0.000000
    -8.255288    4.779142    0.000000
     0.000000    0.000000   30.000000
   V    Mo   W    S 
   3   3   3  18
Direct configuration=    12
   0.01032602  0.67703626 -0.00000070
   0.66542269  0.67271830 -0.00042272
   1.00663108  0.33154650  0.00036513
   0.01501226  0.00757746  0.00014090
   0.34024627  0.68147575 -0.00016043
   0.33502504  0.00125109 -0.00000793
   0.32462816  0.31838194 -0.00007366
   0.65148845 -0.00806235  0.00005552
   0.65442649  0.32110595  0.00000965
   0.10867716  0.22578194  0.94695248
   0.22368036  0.11139154  0.05473383
   0.10590444  0.55371493  0.95001040
   0.21821850  0.44270757  0.05044956
   0.10827253  0.88245096  0.94725511
   0.21569134  0.77495253  0.05281503
   0.44276886  0.22151597  0.94575090
   0.55480022  0.10951154  0.05434772
   0.44824209  0.55652090  0.94976981
   0.55680892  0.44905905  0.05065923
   0.44467748  0.89021096  0.94524996
   0.55903713  0.77530920  0.05287746
   0.78245021  0.22357568  0.94931939
   0.88982080  0.11493806  0.05030583
   0.78006100  0.55929943  0.95165650
   0.89272829  0.44656049  0.04830590
   0.77600564  0.88494300  0.94968649
   0.88716302  0.77273981  0.04994854
unknown system                          
           1
     8.254858    4.781429    0.000000
    -8.254615    4.781022    0.000000
     0.000000    0.000000   30.000000
   V    Mo   W    S 
   3   3   3  18
Direct configuration=    13
   0.01170382  0.67838688  0.00000553
   0.66563828  0.67414718 -0.00046866
   1.00814526  0.33171435  0.00041925
   0.01689302  0.00831347  0.00014778
   0.34085196  0.68330492 -0.00014784
   0.33547078  0.00165727 -0.00000243
   0.32378035  0.31618725 -0.00005659
   0.64928660 -0.00883175  0.00006502
   0.65255935  0.31922859  0.00001527
   0.10881958  0.22569409  0.94679206
   0.22382829  0.11104421  0.05498175
   0.10614472  0.55385814  0.95010638
   0.21894127  0.44303109  0.05024093
   0.10848415  0.88264929  0.94717988
   0.21590491  0.77517902  0.05288515
   0.44254589  0.22139674  0.94551680
   0.55467283  0.10928258  0.05458210
   0.44756181  0.55599978  0.95011263
   0.55641821  0.44862614  0.05048681
   0.44431395  0.89034647  0.94499137
   0.55893372  0.77552459  0.05300992
   0.78207041  0.22320248  0.94949731
   0.88932683  0.11430818  0.04994751
   0.77984875  0.55890553  0.95203543
   0.89236483  0.44633141  0.04790850
   0.77634062  0.88570889  0.94989230
   0.88736428  0.77301763  0.04985575
unknown system                          
           1
     8.257025    4.782343    0.000000
    -8.256980    4.782279    0.000000
     0.000000    0.000000   30.000000
   V    Mo   W    S 
   3   3   3  18
Direct configuration=    14
   0.01251451  0.67929798  0.00000923
   0.66560492  0.67513099 -0.00050687
   1.00913920  0.33166850  0.00045621
   0.01830996  0.00893447  0.00015771
   0.34157845  0.68476479 -0.00014719
   0.33583894  0.00202940  0.00000652
   0.32320253  0.31459127 -0.00003562
   0.64767465 -0.00951218  0.00005348
   0.65117985  0.31795015  0.00002019
   0.10895854  0.22565263  0.94667110
   0.22394475  0.11079758  0.05516821
   0.10635709  0.55395653  0.95020160
   0.21945468  0.44327808  0.05007200
   0.10867492  0.88283602  0.94712020
   0.21608254  0.77533873  0.05292619
   0.44238899  0.22130715  0.94532638
   0.55460992  0.10913589  0.05475731
   0.44711670  0.55563666  0.95034483
   0.55614454  0.44837771  0.05037636
   0.44407244  0.89046648  0.94478825
   0.55891857  0.77562946  0.05314145
   0.78176658  0.22292709  0.94962870
   0.88894323  0.11381494  0.04970654
   0.77964467  0.55863934  0.95229452
   0.89207633  0.44613021  0.04763271
   0.77659462  0.88622571  0.95004975
   0.88742233  0.77320887  0.04978014
unknown system                          
           1
     8.252343    4.773973    0.000000
    -8.252453    4.774173    0.000000
     0.000000    0.000000   30.000000
   V    Mo   W    S 
   3   3   3  18
Direct configuration=    15
   0.01268551  0.67938969  0.00000899
   0.66576823  0.67529504 -0.00051126
   1.00935534  0.33179754  0.00045964
   0.01841915  0.00897023  0.00015613
   0.34145376  0.68481083 -0.00014728
   0.33588232  0.00204408  0.00000492
   0.32305193  0.31439904 -0.00003589
   0.64749464 -0.00952100  0.00005037
   0.65107670  0.31777099  0.00001717
   0.10893096  0.22564386  0.94665617
   0.22393618  0.11077672  0.05518943
   0.10633169  0.55394297  0.95017888
   0.21947651  0.44327684  0.05007843
   0.10866921  0.88282256  0.94709850
   0.21607593  0.77535466  0.05295856
   0.44237474  0.22129537  0.94530721
   0.55457407  0.10911129  0.05478988
   0.44706458  0.55561296  0.95036994
   0.55613081  0.44834558  0.05036689
   0.44404686  0.89045212  0.94477165
   0.55887893  0.77564229  0.05314370
   0.78178588  0.22291989  0.94963208
   0.88893916  0.11381508  0.04968198
   0.77966700  0.55862452  0.95231402
   0.89208883  0.44613180  0.04761406
   0.77659867  0.88627652  0.95005164
   0.88745687  0.77321298  0.04979409
unknown system                          
           1
     8.246012    4.767937    0.000000
    -8.246516    4.768813    0.000000
     0.000000    0.000000   30.000000
   V    Mo   W    S 
   3   3   3  18
Direct configuration=    16
   0.01048057  0.67725864  0.00001193
   0.66497141  0.67249663 -0.00043442
   1.00651204  0.33113315  0.00040948
   0.01589229  0.00809239  0.00016069
   0.34073128  0.68235119 -0.00014141
   0.33512400  0.00134786  0.00001622
   0.32436099  0.31765856 -0.00001236
   0.65077373 -0.00828868  0.00002332
   0.65411030  0.32082764  0.00001273
   0.10874102  0.22584962  0.94688879
   0.22375250  0.11137190  0.05478914
   0.10605254  0.55379149  0.95013002
   0.21828395  0.44279661  0.05030584
   0.10837680  0.88248299  0.94728572
   0.21574985  0.77501339  0.05273991
   0.44280989  0.22151867  0.94565175
   0.55484150  0.10952517  0.05440931
   0.44799764  0.55637911  0.94976021
   0.55669309  0.44891183  0.05068350
   0.44468187  0.89032068  0.94515833
   0.55910811  0.77541307  0.05298491
   0.78232542  0.22347258  0.94934643
   0.88972832  0.11476448  0.05025811
   0.77999110  0.55921915  0.95171235
   0.89265685  0.44648056  0.04820773
   0.77617960  0.88513153  0.94976577
   0.88728780  0.77289425  0.04987591
unknown system                          
           1
     8.239876    4.764655    0.000000
    -8.239997    4.764864    0.000000
     0.000000    0.000000   30.000000
   V    Mo   W    S 
   3   3   3  18
Direct configuration=    17
   0.00749695  0.67437049 -0.00000046
   0.66285374  0.66808655 -0.00036728
   1.00234367  0.32910157  0.00035935
   0.01408092  0.00833723  0.00009664
   0.34096306  0.68058113 -0.00013114
   0.33470143  0.00085818 -0.00003369
   0.32576535  0.32107245 -0.00009808
   0.65410118 -0.00682334  0.00007046
   0.65760611  0.32435620 -0.00000001
   0.10862441  0.22623448  0.94712822
   0.22372806  0.11198440  0.05451553
   0.10599814  0.55368778  0.95018593
   0.21705053  0.44245559  0.05041521
   0.10821180  0.88229322  0.94753949
   0.21557031  0.77478736  0.05250218
   0.44332059  0.22186962  0.94606992
   0.55525871  0.11002456  0.05400240
   0.44867174  0.55708341  0.94903845
   0.55716665  0.44932084  0.05112132
   0.44533651  0.89032622  0.94547137
   0.55952259  0.77537457  0.05281463
   0.78281592  0.22397810  0.94896843
   0.89046349  0.11550741  0.05093734
   0.78020109  0.55978574  0.95094673
   0.89321144  0.44671163  0.04893482
   0.77591216  0.88399676  0.94961945
   0.88723791  0.77285231  0.04989268
unknown system                          
           1
     8.240240    4.765877    0.000000
    -8.240311    4.765999    0.000000
     0.000000    0.000000   30.000000
   V    Mo   W    S 
   3   3   3  18
Direct configuration=    18
   0.00560067  0.67264377  0.00002146
   0.66035625  0.66431908 -0.00035000
   0.99882620  0.32668318  0.00036669
   0.01426398  0.00941458  0.00014044
   0.34220951  0.68081316 -0.00011442
   0.33425512  0.00028308  0.00000979
   0.32685429  0.32286732  0.00001050
   0.65577349 -0.00585345  0.00001205
   0.65978537  0.32669035  0.00001306
   0.10866115  0.22661908  0.94709199
   0.22406305  0.11245648  0.05434180
   0.10619640  0.55365375  0.95036554
   0.21661095  0.44252441  0.05028539
   0.10821444  0.88238126  0.94771044
   0.21566285  0.77479047  0.05229411
   0.44376506  0.22219452  0.94623119
   0.55556957  0.11048633  0.05381794
   0.44878708  0.55727757  0.94863756
   0.55720277  0.44925260  0.05136664
   0.44581722  0.89064110  0.94556603
   0.55993233  0.77545614  0.05277360
   0.78277560  0.22406073  0.94872324
   0.89061899  0.11553482  0.05133419
   0.78008420  0.55985569  0.95055268
   0.89324829  0.44664808  0.04930998
   0.77591315  0.88345480  0.94979154
   0.88716646  0.77306556  0.04969648
unknown system                          
           1
     8.244987    4.771764    0.000000
    -8.244635    4.771157    0.000000
     0.000000    0.000000   30.000000
   V    Mo   W    S 
   3   3   3  18
Direct configuration=    19
   0.00533524  0.67243279  0.00002072
   0.65955544  0.66338330 -0.00035552
   0.99799021  0.32591174  0.00036409
   0.01472480  0.00992227  0.00013226
   0.34276707  0.68128518 -0.00011405
   0.33412433  0.00010549  0.00000678
   0.32705677  0.32303475  0.00000878
   0.65588359 -0.00569400  0.00000284
   0.66008314  0.32705055  0.00000890
   0.10872191  0.22673608  0.94707012
   0.22421855  0.11253302  0.05436381
   0.10628304  0.55363944  0.95044391
   0.21660239  0.44262431  0.05020718
   0.10822962  0.88244083  0.94774134
   0.21571369  0.77480048  0.05226520
   0.44385110  0.22226955  0.94624821
   0.55564545  0.11058696  0.05380832
   0.44871298  0.55724946  0.94858013
   0.55716012  0.44918508  0.05143352
   0.44589921  0.89078382  0.94553927
   0.56006473  0.77551070  0.05278513
   0.78270185  0.22403186  0.94866592
   0.89056934  0.11542091  0.05139986
   0.78001219  0.55982134  0.95050141
   0.89320214  0.44659187  0.04935913
   0.77598442  0.88340658  0.94989428
   0.88712112  0.77315010  0.04961835
unknown system                          
           1
     8.246162    4.774818    0.000000
    -8.246027    4.774587    0.000000
     0.000000    0.000000   30.000000
   V    Mo   W    S 
   3   3   3  18
Direct configuration=    20
   0.00740486  0.67448510  0.00000130
   0.66105410  0.66675394 -0.00041868
   1.00121512  0.32741426  0.00037120
   0.01602223  0.00984319  0.00009719
   0.34280825  0.68261817 -0.00013873
   0.33472244  0.00075199 -0.00002748
   0.32597597  0.32045645 -0.00007151
   0.65328481 -0.00696241  0.00002217
   0.65727796  0.32428549 -0.00000939
   0.10884621  0.22643052  0.94692856
   0.22417209  0.11195535  0.05469150
   0.10638237  0.55377704  0.95037971
   0.21756143  0.44290763  0.05018140
   0.10839653  0.88261008  0.94756385
   0.21585216  0.77497951  0.05247979
   0.44339626  0.22201800  0.94594605
   0.55537947  0.11015313  0.05415012
   0.44814861  0.55669089  0.94910968
   0.55680548  0.44891945  0.05116549
   0.44531339  0.89071946  0.94526807
   0.55977370  0.77557223  0.05292987
   0.78235063  0.22363405  0.94891916
   0.88996037  0.11478277  0.05092683
   0.77988113  0.55944742  0.95102033
   0.89282135  0.44645739  0.04888050
   0.77620258  0.88429127  0.94996252
   0.88720493  0.77322208  0.04967039
unknown system                          
           1
     8.245961    4.774835    0.000000
    -8.246033    4.774959    0.000000
     0.000000    0.000000   30.000000
   V    Mo   W    S 
   3   3   3  18
Direct configuration=    21
   0.00879414  0.67589167  0.00002104
   0.66101343  0.66802525 -0.00045127
   1.00258919  0.32734073  0.00043005
   0.01806969  0.01068748  0.00012931
   0.34355645  0.68458839 -0.00011427
   0.33507838  0.00110057  0.00001150
   0.32518046  0.31825626 -0.00000332
   0.65109806 -0.00770583  0.00001616
   0.65540288  0.32245961  0.00001641
   0.10902232  0.22633804  0.94676020
   0.22437739  0.11165171  0.05492238
   0.10662665  0.55387586  0.95048591
   0.21828667  0.44327374  0.04992799
   0.10857948  0.88282195  0.94742843
   0.21607566  0.77516498  0.05258210
   0.44316953  0.22183713  0.94568779
   0.55520931  0.10994120  0.05436736
   0.44751280  0.55624805  0.94942971
   0.55646144  0.44859242  0.05100076
   0.44498675  0.89091005  0.94498087
   0.55967600  0.77572640  0.05307331
   0.78200106  0.22330284  0.94908833
   0.88951964  0.11414403  0.05057704
   0.77962324  0.55907540  0.95140013
   0.89244334  0.44618521  0.04847099
   0.77657704  0.88500982  0.95020917
   0.88728347  0.77347148  0.04955180
unknown system                          
           1
     8.255089    4.784499    0.000000
    -8.255190    4.784675    0.000000
     0.000000    0.000000   30.000000
   V    Mo   W    S 
   3   3   3  18
Direct configuration=    22
   0.00838883  0.67549911  0.00002832
   0.66032803  0.66696950 -0.00043775
   1.00161141  0.32664695  0.00043278
   0.01824371  0.01106897  0.00014143
   0.34389153  0.68473806 -0.00010293
   0.33485558  0.00083677  0.00002798
   0.32541750  0.31868060  0.00002016
   0.65150902 -0.00739934  0.00001671
   0.65600514  0.32306364  0.00002485
   0.10904003  0.22647291  0.94677109
   0.22449654  0.11179635  0.05487278
   0.10665008  0.55381984  0.95055344
   0.21812582  0.44328399  0.04986728
   0.10855890  0.88283446  0.94747146
   0.21609166  0.77514092  0.05252604
   0.44329501  0.22191924  0.94574587
   0.55529312  0.11006947  0.05429616
   0.44755705  0.55630051  0.94932362
   0.55647843  0.44857098  0.05107068
   0.44513049  0.89102566  0.94500100
   0.55981219  0.77575027  0.05305183
   0.78199909  0.22334141  0.94902039
   0.88957678  0.11418777  0.05066925
   0.77958879  0.55909553  0.95130275
   0.89246080  0.44615476  0.04855461
   0.77659182  0.88484930  0.95026777
   0.88721712  0.77349681  0.04948235
unknown system                          
           1
     8.254009    4.786812    0.000000
    -8.254097    4.786966    0.000000
     0.000000    0.000000   30.000000
   V    Mo   W    S 
   3   3   3  18
Direct configuration=    23
   0.01004899  0.67722748  0.00001472
   0.65991260  0.66803901 -0.00051657
   1.00288864  0.32620892  0.00046271
   0.02069359  0.01205443  0.00008601
   0.34484793  0.68716489 -0.00012039
   0.33516575  0.00112170 -0.00002461
   0.32465680  0.31628712 -0.00001735
   0.64906417 -0.00819369 -0.00001946
   0.65385119  0.32103777  0.00000140
   0.10928898  0.22637930  0.94660199
   0.22480065  0.11140546  0.05527980
   0.10694269  0.55394809  0.95071393
   0.21899473  0.44381600  0.04955154
   0.10873338  0.88304991  0.94732289
   0.21628748  0.77531133  0.05270932
   0.44301932  0.22171642  0.94547459
   0.55510674  0.10983063  0.05461286
   0.44674749  0.55582393  0.94970211
   0.55612198  0.44824349  0.05095323
   0.44474023  0.89128832  0.94465665
   0.55972743  0.77597366  0.05323654
   0.78164158  0.22300009  0.94919420
   0.88907838  0.11336117  0.05030610
   0.77931804  0.55871793  0.95175201
   0.89209096  0.44587450  0.04809233
   0.77710695  0.88570782  0.95063265
   0.88733780  0.77381877  0.04934071
unknown system                          
           1
     8.257669    4.792760    0.000000
    -8.257726    4.792860    0.000000
     0.000000    0.000000   30.000000
   V    Mo   W    S 
   3   3   3  18
Direct configuration=    24
   0.01108543  0.67832329  0.00002801
   0.65923491  0.66820985 -0.00054670
   1.00328866  0.32553978  0.00050022
   0.02236987  0.01283189  0.00009892
   0.34556922  0.68878383 -0.00010552
   0.33525895  0.00119399 -0.00000698
   0.32429931  0.31494482  0.00001989
   0.64768951 -0.00855228 -0.00002031
   0.65260370  0.31990291  0.00001909
   0.10947757  0.22635838  0.94650162
   0.22505568  0.11125115  0.05545282
   0.10715501  0.55402318  0.95085853
   0.21949672  0.44416922  0.04927556
   0.10883847  0.88319312  0.94722825
   0.21643945  0.77542214  0.05278449
   0.44289426  0.22160845  0.94532586
   0.55501027  0.10972644  0.05473826
   0.44619566  0.55554672  0.94990367
   0.55589979  0.44800752  0.05088142
   0.44457066  0.89152116  0.94445377