   27   27  100    1
  0.9710400E+02  0.1002848E-08  0.1002848E-08  0.3000000E-08  0.5000000E-15
  1.000000000000000E-004
  CAR 
 unknown system                          
    159     34    120
 
  0.0000000E+00  0.0000000E+00  0.0000000E+00  0.1562500E-01
    1      -17.805706   1.000000
    2      -16.703096   1.000000
    3      -16.651771   1.000000
    4      -16.576268   1.000000
    5      -16.503283   1.000000
    6      -16.448726   1.000000
    7      -16.400961   1.000000
    8      -16.300427   1.000000
    9      -16.167085   1.000000
   10      -16.131648   1.000000
   11      -16.026916   1.000000
   12      -15.944071   1.000000
   13      -15.862009   1.000000
   14      -15.770059   1.000000
   15      -15.584482   1.000000
   16      -15.487572   1.000000
   17      -15.457001   1.000000
   18      -15.224244   1.000000
   19       -9.370906   1.000000
   20       -9.004162   1.000000
   21       -8.916741   1.000000
   22       -8.830836   1.000000
   23       -8.691259   1.000000
   24       -8.663064   1.000000
   25       -8.594846   1.000000
   26       -8.555914   1.000000
   27       -8.532826   1.000000
   28       -8.438457   1.000000
   29       -8.408710   1.000000
   30       -8.402585   1.000000
   31       -8.318641   1.000000
   32       -8.189397   1.000000
   33       -8.096422   1.000000
   34       -8.034097   1.000000
   35       -7.863700   1.000000
   36       -7.742656   1.000000
   37       -7.713866   1.000000
   38       -7.568110   1.000000
   39       -7.493785   1.000000
   40       -7.430842   1.000000
   41       -7.364710   1.000000
   42       -7.158495   1.000000
   43       -7.129376   1.000000
   44       -6.942196   1.000000
   45       -6.848347   1.000000
   46       -6.807081   1.000000
   47       -6.744492   1.000000
   48       -6.702101   1.000000
   49       -6.611444   1.000000
   50       -6.467350   1.000000
   51       -6.448207   1.000000
   52       -6.381353   1.000000
   53       -6.306988   1.000000
   54       -6.182442   1.000000
   55       -6.158667   1.000000
   56       -6.043773   1.000000
   57       -6.003996   1.000000
   58       -5.940589   1.000000
   59       -5.760143   1.000000
   60       -5.705990   1.000000
   61       -5.369934   1.000000
   62       -5.323155   1.000000
   63       -5.287687   1.000000
   64       -5.211789   1.000000
   65       -5.020608   1.000000
   66       -4.999294   1.000000
   67       -4.914853   1.000000
   68       -4.862295   1.000000
   69       -4.825439   1.000000
   70       -4.685458   1.000000
   71       -4.583841   1.000000
   72       -4.544460   1.000000
   73       -4.501546   1.000000
   74       -4.425768   1.000000
   75       -4.296440   1.000000
   76       -3.955669   0.999981
   77       -3.754670   0.996519
   78       -3.661045   0.979158
   79       -3.526270   0.860743
   80       -3.439568   0.681031
   81       -3.247383   0.187172
   82       -2.902592   0.000440
   83       -2.679853   0.000000
   84       -2.618574   0.000000
   85       -2.504759   0.000000
   86       -2.492775   0.000000
   87       -2.351377   0.000000
   88       -2.296271   0.000000
   89       -2.252016   0.000000
   90       -2.051080   0.000000
   91       -1.853858   0.000000
   92       -1.540073   0.000000
   93       -1.486250   0.000000
   94       -1.357241   0.000000
   95       -1.273180   0.000000
   96       -1.155823   0.000000
   97       -0.947819   0.000000
   98       -0.855029   0.000000
   99       -0.750510   0.000000
  100       -0.643218   0.000000
  101       -0.592617   0.000000
  102       -0.566775   0.000000
  103       -0.457469   0.000000
  104       -0.276335   0.000000
  105       -0.170602   0.000000
  106       -0.036851   0.000000
  107       -0.009118   0.000000
  108        0.029229   0.000000
  109        0.118705   0.000000
  110        0.216999   0.000000
  111        0.378989   0.000000
  112        0.437996   0.000000
  113        0.551441   0.000000
  114        0.798989   0.000000
  115        0.855644   0.000000
  116        0.992957   0.000000
  117        1.185442   0.000000
  118        1.644112   0.000000
  119        1.834789   0.000000
  120        2.151336   0.000000
 
  0.1250000E+00  0.2775558E-16  0.0000000E+00  0.3125000E-01
    1      -17.781266   1.000000
    2      -16.772977   1.000000
    3      -16.667871   1.000000
    4      -16.607927   1.000000
    5      -16.565403   1.000000
    6      -16.425109   1.000000
    7      -16.348926   1.000000
    8      -16.303954   1.000000
    9      -16.165063   1.000000
   10      -16.077769   1.000000
   11      -16.004472   1.000000
   12      -15.929706   1.000000
   13      -15.835611   1.000000
   14      -15.756369   1.000000
   15      -15.597517   1.000000
   16      -15.497825   1.000000
   17      -15.463003   1.000000
   18      -15.232989   1.000000
   19       -9.373876   1.000000
   20       -9.123766   1.000000
   21       -8.994769   1.000000
   22       -8.952629   1.000000
   23       -8.734763   1.000000
   24       -8.682355   1.000000
   25       -8.626367   1.000000
   26       -8.576423   1.000000
   27       -8.506594   1.000000
   28       -8.478999   1.000000
   29       -8.402902   1.000000
   30       -8.262887   1.000000
   31       -8.201219   1.000000
   32       -8.129827   1.000000
   33       -8.009143   1.000000
   34       -7.876271   1.000000
   35       -7.862188   1.000000
   36       -7.749520   1.000000
   37       -7.683831   1.000000
   38       -7.571679   1.000000
   39       -7.484867   1.000000
   40       -7.383740   1.000000
   41       -7.342779   1.000000
   42       -7.186571   1.000000
   43       -7.153392   1.000000
   44       -6.989266   1.000000
   45       -6.920282   1.000000
   46       -6.841258   1.000000
   47       -6.761432   1.000000
   48       -6.654479   1.000000
   49       -6.597517   1.000000
   50       -6.500667   1.000000
   51       -6.434889   1.000000
   52       -6.335141   1.000000
   53       -6.293672   1.000000
   54       -6.181994   1.000000
   55       -6.169918   1.000000
   56       -6.081139   1.000000
   57       -5.976730   1.000000
   58       -5.905970   1.000000
   59       -5.737682   1.000000
   60       -5.650753   1.000000
   61       -5.419319   1.000000
   62       -5.360688   1.000000
   63       -5.329459   1.000000
   64       -5.223907   1.000000
   65       -5.115861   1.000000
   66       -5.019937   1.000000
   67       -4.989952   1.000000
   68       -4.920602   1.000000
   69       -4.812483   1.000000
   70       -4.720503   1.000000
   71       -4.606376   1.000000
   72       -4.464856   1.000000
   73       -4.369512   1.000000
   74       -4.312582   1.000000
   75       -4.236035   1.000000
   76       -3.948945   0.999977
   77       -3.803124   0.998822
   78       -3.713111   0.991910
   79       -3.630837   0.965853
   80       -3.504448   0.823647
   81       -3.093548   0.024069
   82       -2.887604   0.000299
   83       -2.698557   0.000001
   84       -2.644831   0.000000
   85       -2.540295   0.000000
   86       -2.461589   0.000000
   87       -2.344770   0.000000
   88       -2.271884   0.000000
   89       -2.242308   0.000000
   90       -2.063134   0.000000
   91       -1.775378   0.000000
   92       -1.537797   0.000000
   93       -1.502021   0.000000
   94       -1.356352   0.000000
   95       -1.252042   0.000000
   96       -1.147056   0.000000
   97       -0.954417   0.000000
   98       -0.854293   0.000000
   99       -0.778645   0.000000
  100       -0.709530   0.000000
  101       -0.631575   0.000000
  102       -0.593418   0.000000
  103       -0.540533   0.000000
  104       -0.335647   0.000000
  105       -0.220991   0.000000
  106       -0.108343   0.000000
  107       -0.030686   0.000000
  108        0.030914   0.000000
  109        0.088816   0.000000
  110        0.218779   0.000000
  111        0.346493   0.000000
  112        0.461546   0.000000
  113        0.538783   0.000000
  114        0.856053   0.000000
  115        0.937758   0.000000
  116        1.035787   0.000000
  117        1.210499   0.000000
  118        1.688373   0.000000
  119        1.873614   0.000000
  120        2.186664   0.000000
 
  0.2500000E+00  0.5551115E-16  0.0000000E+00  0.3125000E-01
    1      -17.710024   1.000000
    2      -16.960250   1.000000
    3      -16.688307   1.000000
    4      -16.649864   1.000000
    5      -16.620403   1.000000
    6      -16.415104   1.000000
    7      -16.331758   1.000000
    8      -16.243434   1.000000
    9      -16.101915   1.000000
   10      -16.059771   1.000000
   11      -15.992514   1.000000
   12      -15.856917   1.000000
   13      -15.772842   1.000000
   14      -15.726784   1.000000
   15      -15.625434   1.000000
   16      -15.511185   1.000000
   17      -15.482066   1.000000
   18      -15.256926   1.000000
   19       -9.509197   1.000000
   20       -9.273448   1.000000
   21       -9.101160   1.000000
   22       -9.034604   1.000000
   23       -8.869412   1.000000
   24       -8.779585   1.000000
   25       -8.609237   1.000000
   26       -8.550022   1.000000
   27       -8.462579   1.000000
   28       -8.399449   1.000000
   29       -8.325827   1.000000
   30       -8.175700   1.000000
   31       -8.141431   1.000000
   32       -8.095492   1.000000
   33       -7.967420   1.000000
   34       -7.822521   1.000000
   35       -7.719547   1.000000
   36       -7.642270   1.000000
   37       -7.570008   1.000000
   38       -7.528233   1.000000
   39       -7.422704   1.000000
   40       -7.356898   1.000000
   41       -7.319718   1.000000
   42       -7.190373   1.000000
   43       -7.109009   1.000000
   44       -7.062454   1.000000
   45       -6.986670   1.000000
   46       -6.827164   1.000000
   47       -6.752771   1.000000
   48       -6.696330   1.000000
   49       -6.615688   1.000000
   50       -6.497448   1.000000
   51       -6.411132   1.000000
   52       -6.320389   1.000000
   53       -6.248362   1.000000
   54       -6.172302   1.000000
   55       -6.124885   1.000000
   56       -6.060613   1.000000
   57       -5.968637   1.000000
   58       -5.882421   1.000000
   59       -5.721761   1.000000
   60       -5.655983   1.000000
   61       -5.580642   1.000000
   62       -5.509122   1.000000
   63       -5.429658   1.000000
   64       -5.325970   1.000000
   65       -5.202949   1.000000
   66       -5.129802   1.000000
   67       -4.972619   1.000000
   68       -4.868130   1.000000
   69       -4.762155   1.000000
   70       -4.745966   1.000000
   71       -4.546834   1.000000
   72       -4.371607   1.000000
   73       -4.311264   1.000000
   74       -4.204763   1.000000
   75       -4.141273   1.000000
   76       -4.059093   0.999999
   77       -3.897815   0.999897
   78       -3.776095   0.997815
   79       -3.625579   0.962940
   80       -3.500206   0.815769
   81       -2.969576   0.002167
   82       -2.884131   0.000273
   83       -2.751162   0.000005
   84       -2.703994   0.000001
   85       -2.513019   0.000000
   86       -2.443343   0.000000
   87       -2.306652   0.000000
   88       -2.261587   0.000000
   89       -2.183304   0.000000
   90       -2.048543   0.000000
   91       -1.669978   0.000000
   92       -1.538867   0.000000
   93       -1.504427   0.000000
   94       -1.343253   0.000000
   95       -1.220478   0.000000
   96       -1.140766   0.000000
   97       -0.988983   0.000000
   98       -0.902923   0.000000
   99       -0.853920   0.000000
  100       -0.801709   0.000000
  101       -0.744239   0.000000
  102       -0.673720   0.000000
  103       -0.650954   0.000000
  104       -0.432668   0.000000
  105       -0.369084   0.000000
  106       -0.158493   0.000000
  107       -0.109727   0.000000
  108       -0.046533   0.000000
  109        0.020382   0.000000
  110        0.162478   0.000000
  111        0.289611   0.000000
  112        0.462557   0.000000
  113        0.616198   0.000000
  114        0.948852   0.000000
  115        1.051363   0.000000
  116        1.170843   0.000000
  117        1.300625   0.000000
  118        1.811922   0.000000
  119        1.984979   0.000000
  120        2.291412   0.000000
 
  0.3750000E+00  0.0000000E+00  0.0000000E+00  0.3125000E-01
    1      -17.602193   1.000000
    2      -17.160530   1.000000
    3      -16.728056   1.000000
    4      -16.679198   1.000000
    5      -16.614939   1.000000
    6      -16.452206   1.000000
    7      -16.296541   1.000000
    8      -16.199406   1.000000
    9      -16.068629   1.000000
   10      -16.026467   1.000000
   11      -15.936930   1.000000
   12      -15.830138   1.000000
   13      -15.776985   1.000000
   14      -15.664531   1.000000
   15      -15.656262   1.000000
   16      -15.522776   1.000000
   17      -15.472638   1.000000
   18      -15.288033   1.000000
   19       -9.708792   1.000000
   20       -9.347326   1.000000
   21       -9.154966   1.000000
   22       -9.008143   1.000000
   23       -8.968890   1.000000
   24       -8.857905   1.000000
   25       -8.586410   1.000000
   26       -8.483340   1.000000
   27       -8.413594   1.000000
   28       -8.342944   1.000000
   29       -8.267231   1.000000
   30       -8.197745   1.000000
   31       -8.131167   1.000000
   32       -8.063082   1.000000
   33       -7.991798   1.000000
   34       -7.829343   1.000000
   35       -7.726560   1.000000
   36       -7.585292   1.000000
   37       -7.554367   1.000000
   38       -7.458905   1.000000
   39       -7.444715   1.000000
   40       -7.294579   1.000000
   41       -7.217223   1.000000
   42       -7.102509   1.000000
   43       -7.055612   1.000000
   44       -6.994965   1.000000
   45       -6.878936   1.000000
   46       -6.797864   1.000000
   47       -6.728987   1.000000
   48       -6.692026   1.000000
   49       -6.603477   1.000000
   50       -6.498380   1.000000
   51       -6.408496   1.000000
   52       -6.277770   1.000000
   53       -6.217306   1.000000
   54       -6.153687   1.000000
   55       -6.081718   1.000000
   56       -6.047659   1.000000
   57       -5.959716   1.000000
   58       -5.923148   1.000000
   59       -5.902722   1.000000
   60       -5.770134   1.000000
   61       -5.710846   1.000000
   62       -5.598974   1.000000
   63       -5.520974   1.000000
   64       -5.360876   1.000000
   65       -5.275996   1.000000
   66       -5.060399   1.000000
   67       -4.951482   1.000000
   68       -4.832487   1.000000
   69       -4.766975   1.000000
   70       -4.705430   1.000000
   71       -4.653597   1.000000
   72       -4.442269   1.000000
   73       -4.339680   1.000000
   74       -4.222161   1.000000
   75       -4.069017   1.000000
   76       -4.014370   0.999997
   77       -3.823140   0.999271
   78       -3.752694   0.996370
   79       -3.593675   0.940653
   80       -3.461115   0.733340
   81       -3.022834   0.006640
   82       -2.877526   0.000229
   83       -2.769878   0.000010
   84       -2.702084   0.000001
   85       -2.476717   0.000000
   86       -2.441949   0.000000
   87       -2.267785   0.000000
   88       -2.245024   0.000000
   89       -2.107828   0.000000
   90       -2.004047   0.000000
   91       -1.662614   0.000000
   92       -1.544562   0.000000
   93       -1.457376   0.000000
   94       -1.304915   0.000000
   95       -1.232277   0.000000
   96       -1.164971   0.000000
   97       -1.077088   0.000000
   98       -0.988422   0.000000
   99       -0.920504   0.000000
  100       -0.869488   0.000000
  101       -0.779775   0.000000
  102       -0.756879   0.000000
  103       -0.691389   0.000000
  104       -0.544654   0.000000
  105       -0.455257   0.000000
  106       -0.242117   0.000000
  107       -0.205360   0.000000
  108       -0.124655   0.000000
  109       -0.027457   0.000000
  110        0.059664   0.000000
  111        0.286480   0.000000
  112        0.492813   0.000000
  113        0.660891   0.000000
  114        1.038000   0.000000
  115        1.090582   0.000000
  116        1.310848   0.000000
  117        1.414526   0.000000
  118        1.996978   0.000000
  119        2.159006   0.000000
  120        2.462090   0.000000
 
  0.5000000E+00  0.1110223E-15  0.0000000E+00  0.1562500E-01
    1      -17.520905   1.000000
    2      -17.275224   1.000000
    3      -16.743227   1.000000
    4      -16.691383   1.000000
    5      -16.605049   1.000000
    6      -16.470931   1.000000
    7      -16.281196   1.000000
    8      -16.194039   1.000000
    9      -16.060170   1.000000
   10      -15.996472   1.000000
   11      -15.886386   1.000000
   12      -15.834710   1.000000
   13      -15.800960   1.000000
   14      -15.695947   1.000000
   15      -15.595598   1.000000
   16      -15.565293   1.000000
   17      -15.440491   1.000000
   18      -15.306249   1.000000
   19       -9.785239   1.000000
   20       -9.381751   1.000000
   21       -9.173127   1.000000
   22       -9.011594   1.000000
   23       -8.961136   1.000000
   24       -8.876128   1.000000
   25       -8.573081   1.000000
   26       -8.513442   1.000000
   27       -8.390479   1.000000
   28       -8.317263   1.000000
   29       -8.229603   1.000000
   30       -8.176896   1.000000
   31       -8.138212   1.000000
   32       -8.043407   1.000000
   33       -7.996143   1.000000
   34       -7.844365   1.000000
   35       -7.747858   1.000000
   36       -7.660715   1.000000
   37       -7.554522   1.000000
   38       -7.504453   1.000000
   39       -7.408712   1.000000
   40       -7.303469   1.000000
   41       -7.159407   1.000000
   42       -7.019819   1.000000
   43       -6.965139   1.000000
   44       -6.898553   1.000000
   45       -6.791983   1.000000
   46       -6.735042   1.000000
   47       -6.704907   1.000000
   48       -6.632429   1.000000
   49       -6.580711   1.000000
   50       -6.546912   1.000000
   51       -6.515605   1.000000
   52       -6.385106   1.000000
   53       -6.252179   1.000000
   54       -6.166540   1.000000
   55       -6.088178   1.000000
   56       -6.052331   1.000000
   57       -5.987060   1.000000
   58       -5.865771   1.000000
   59       -5.823446   1.000000
   60       -5.717528   1.000000
   61       -5.690944   1.000000
   62       -5.650717   1.000000
   63       -5.609767   1.000000
   64       -5.429392   1.000000
   65       -5.364410   1.000000
   66       -5.049664   1.000000
   67       -4.966287   1.000000
   68       -4.936824   1.000000
   69       -4.759550   1.000000
   70       -4.689007   1.000000
   71       -4.610350   1.000000
   72       -4.424547   1.000000
   73       -4.385456   1.000000
   74       -4.276525   1.000000
   75       -4.021799   0.999998
   76       -3.929769   0.999959
   77       -3.827388   0.999343
   78       -3.720587   0.993008
   79       -3.593393   0.940418
   80       -3.413653   0.613073
   81       -3.090760   0.022974
   82       -2.866420   0.000170
   83       -2.768374   0.000010
   84       -2.696801   0.000001
   85       -2.463008   0.000000
   86       -2.441557   0.000000
   87       -2.254487   0.000000
   88       -2.232489   0.000000
   89       -2.073247   0.000000
   90       -1.975478   0.000000
   91       -1.683136   0.000000
   92       -1.532677   0.000000
   93       -1.446891   0.000000
   94       -1.279070   0.000000
   95       -1.255828   0.000000
   96       -1.192367   0.000000
   97       -1.124319   0.000000
   98       -1.020456   0.000000
   99       -0.937713   0.000000
  100       -0.893748   0.000000
  101       -0.793067   0.000000
  102       -0.759965   0.000000
  103       -0.680168   0.000000
  104       -0.635412   0.000000
  105       -0.475738   0.000000
  106       -0.277848   0.000000
  107       -0.261066   0.000000
  108       -0.147053   0.000000
  109       -0.036794   0.000000
  110        0.018342   0.000000
  111        0.283280   0.000000
  112        0.507968   0.000000
  113        0.678175   0.000000
  114        1.066412   0.000000
  115        1.106114   0.000000
  116        1.356974   0.000000
  117        1.466277   0.000000
  118        2.218059   0.000000
  119        2.248250   0.000000
  120        2.375075   0.000000
 
  0.0000000E+00  0.1250000E+00  0.0000000E+00  0.3125000E-01
    1      -17.781372   1.000000
    2      -16.789352   1.000000
    3      -16.685960   1.000000
    4      -16.565386   1.000000
    5      -16.544486   1.000000
    6      -16.460074   1.000000
    7      -16.348812   1.000000
    8      -16.290399   1.000000
    9      -16.136795   1.000000
   10      -16.092029   1.000000
   11      -16.013206   1.000000
   12      -15.939759   1.000000
   13      -15.842440   1.000000
   14      -15.755967   1.000000
   15      -15.600777   1.000000
   16      -15.491155   1.000000
   17      -15.468117   1.000000
   18      -15.228459   1.000000
   19       -9.377379   1.000000
   20       -9.114535   1.000000
   21       -8.978913   1.000000
   22       -8.954343   1.000000
   23       -8.791328   1.000000
   24       -8.670993   1.000000
   25       -8.625681   1.000000
   26       -8.543675   1.000000
   27       -8.509743   1.000000
   28       -8.478830   1.000000
   29       -8.388226   1.000000
   30       -8.251262   1.000000
   31       -8.185662   1.000000
   32       -8.132996   1.000000
   33       -8.043720   1.000000
   34       -7.929907   1.000000
   35       -7.810503   1.000000
   36       -7.701374   1.000000
   37       -7.655528   1.000000
   38       -7.599955   1.000000
   39       -7.555916   1.000000
   40       -7.458630   1.000000
   41       -7.311578   1.000000
   42       -7.170529   1.000000
   43       -7.123781   1.000000
   44       -7.017989   1.000000
   45       -6.892287   1.000000
   46       -6.798338   1.000000
   47       -6.737178   1.000000
   48       -6.638743   1.000000
   49       -6.572216   1.000000
   50       -6.477654   1.000000
   51       -6.406406   1.000000
   52       -6.378862   1.000000
   53       -6.363780   1.000000
   54       -6.214643   1.000000
   55       -6.166449   1.000000
   56       -6.110395   1.000000
   57       -5.997253   1.000000
   58       -5.875666   1.000000
   59       -5.756125   1.000000
   60       -5.664315   1.000000
   61       -5.407953   1.000000
   62       -5.355970   1.000000
   63       -5.344871   1.000000
   64       -5.241451   1.000000
   65       -5.114260   1.000000
   66       -5.058040   1.000000
   67       -4.954447   1.000000
   68       -4.847242   1.000000
   69       -4.757586   1.000000
   70       -4.702773   1.000000
   71       -4.631562   1.000000
   72       -4.462439   1.000000
   73       -4.399899   1.000000
   74       -4.354847   1.000000
   75       -4.232149   1.000000
   76       -3.986873   0.999993
   77       -3.792415   0.998489
   78       -3.761675   0.997004
   79       -3.613738   0.955637
   80       -3.380997   0.522497
   81       -3.180369   0.086562
   82       -2.896447   0.000376
   83       -2.692206   0.000001
   84       -2.592852   0.000000
   85       -2.511626   0.000000
   86       -2.460796   0.000000
   87       -2.345906   0.000000
   88       -2.281407   0.000000
   89       -2.211158   0.000000
   90       -2.041150   0.000000
   91       -1.854383   0.000000
   92       -1.540612   0.000000
   93       -1.484677   0.000000
   94       -1.363356   0.000000
   95       -1.263660   0.000000
   96       -1.144446   0.000000
   97       -0.965138   0.000000
   98       -0.863326   0.000000
   99       -0.785157   0.000000
  100       -0.721234   0.000000
  101       -0.621654   0.000000
  102       -0.610040   0.000000
  103       -0.507351   0.000000
  104       -0.345432   0.000000
  105       -0.259067   0.000000
  106       -0.123697   0.000000
  107       -0.012748   0.000000
  108        0.060963   0.000000
  109        0.129224   0.000000
  110        0.247249   0.000000
  111        0.410471   0.000000
  112        0.454851   0.000000
  113        0.532083   0.000000
  114        0.868069   0.000000
  115        0.882247   0.000000
  116        1.009922   0.000000
  117        1.176353   0.000000
  118        1.686233   0.000000
  119        1.875165   0.000000
  120        2.186016   0.000000
 
  0.1250000E+00  0.1250000E+00  0.0000000E+00  0.3125000E-01
    1      -17.733959   1.000000
    2      -16.889471   1.000000
    3      -16.770932   1.000000
    4      -16.637347   1.000000
    5      -16.487833   1.000000
    6      -16.437218   1.000000
    7      -16.333615   1.000000
    8      -16.296192   1.000000
    9      -16.101083   1.000000
   10      -16.019315   1.000000
   11      -15.990941   1.000000
   12      -15.938857   1.000000
   13      -15.798191   1.000000
   14      -15.732559   1.000000
   15      -15.622593   1.000000
   16      -15.504327   1.000000
   17      -15.482842   1.000000
   18      -15.238194   1.000000
   19       -9.429035   1.000000
   20       -9.231408   1.000000
   21       -9.156259   1.000000
   22       -9.049233   1.000000
   23       -8.807982   1.000000
   24       -8.663665   1.000000
   25       -8.598066   1.000000
   26       -8.554866   1.000000
   27       -8.494692   1.000000
   28       -8.446978   1.000000
   29       -8.303015   1.000000
   30       -8.220618   1.000000
   31       -8.148500   1.000000
   32       -8.091095   1.000000
   33       -7.977529   1.000000
   34       -7.855405   1.000000
   35       -7.800198   1.000000
   36       -7.680467   1.000000
   37       -7.598374   1.000000
   38       -7.552673   1.000000
   39       -7.441430   1.000000
   40       -7.352514   1.000000
   41       -7.278714   1.000000
   42       -7.229885   1.000000
   43       -7.165197   1.000000
   44       -7.056517   1.000000
   45       -6.902259   1.000000
   46       -6.805377   1.000000
   47       -6.773253   1.000000
   48       -6.656059   1.000000
   49       -6.564160   1.000000
   50       -6.495504   1.000000
   51       -6.425548   1.000000
   52       -6.350983   1.000000
   53       -6.270063   1.000000
   54       -6.231707   1.000000
   55       -6.150700   1.000000
   56       -6.098802   1.000000
   57       -6.003334   1.000000
   58       -5.877894   1.000000
   59       -5.773329   1.000000
   60       -5.605207   1.000000
   61       -5.523914   1.000000
   62       -5.506522   1.000000
   63       -5.330867   1.000000
   64       -5.268432   1.000000
   65       -5.149000   1.000000
   66       -5.135818   1.000000
   67       -5.016538   1.000000
   68       -4.885922   1.000000
   69       -4.822185   1.000000
   70       -4.651167   1.000000
   71       -4.512252   1.000000
   72       -4.362294   1.000000
   73       -4.334291   1.000000
   74       -4.275530   1.000000
   75       -4.179036   1.000000
   76       -4.059960   0.999999
   77       -3.916662   0.999940
   78       -3.777448   0.997880
   79       -3.605889   0.950185
   80       -3.481482   0.778447
   81       -3.020731   0.006368
   82       -2.872230   0.000199
   83       -2.699170   0.000001
   84       -2.644908   0.000000
   85       -2.490830   0.000000
   86       -2.453503   0.000000
   87       -2.320596   0.000000
   88       -2.250913   0.000000
   89       -2.172189   0.000000
   90       -2.043405   0.000000
   91       -1.794467   0.000000
   92       -1.522347   0.000000
   93       -1.500167   0.000000
   94       -1.366401   0.000000
   95       -1.242516   0.000000
   96       -1.134815   0.000000
   97       -0.981241   0.000000
   98       -0.895130   0.000000
   99       -0.841143   0.000000
  100       -0.813822   0.000000
  101       -0.704466   0.000000
  102       -0.662342   0.000000
  103       -0.620074   0.000000
  104       -0.419122   0.000000
  105       -0.318055   0.000000
  106       -0.161364   0.000000
  107       -0.096749   0.000000
  108       -0.007499   0.000000
  109        0.131092   0.000000
  110        0.218469   0.000000
  111        0.318007   0.000000
  112        0.492968   0.000000
  113        0.575397   0.000000
  114        0.916437   0.000000
  115        1.001946   0.000000
  116        1.114337   0.000000
  117        1.200041   0.000000
  118        1.768622   0.000000
  119        1.952579   0.000000
  120        2.255663   0.000000
 
  0.2500000E+00  0.1250000E+00  0.0000000E+00  0.3125000E-01
    1      -17.643494   1.000000
    2      -17.052869   1.000000
    3      -16.880082   1.000000
    4      -16.630332   1.000000
    5      -16.496678   1.000000
    6      -16.426139   1.000000
    7      -16.304877   1.000000
    8      -16.252994   1.000000
    9      -16.090767   1.000000
   10      -16.003389   1.000000
   11      -15.942386   1.000000
   12      -15.888851   1.000000
   13      -15.759069   1.000000
   14      -15.706835   1.000000
   15      -15.646497   1.000000
   16      -15.509663   1.000000
   17      -15.491906   1.000000
   18      -15.259681   1.000000
   19       -9.598481   1.000000
   20       -9.384619   1.000000
   21       -9.257604   1.000000
   22       -9.064226   1.000000
   23       -8.839369   1.000000
   24       -8.667503   1.000000
   25       -8.574725   1.000000
   26       -8.492042   1.000000
   27       -8.399010   1.000000
   28       -8.370003   1.000000
   29       -8.312979   1.000000
   30       -8.237714   1.000000
   31       -8.120949   1.000000
   32       -8.085695   1.000000
   33       -7.968817   1.000000
   34       -7.915615   1.000000
   35       -7.810308   1.000000
   36       -7.669760   1.000000
   37       -7.462701   1.000000
   38       -7.442719   1.000000
   39       -7.347463   1.000000
   40       -7.323563   1.000000
   41       -7.223414   1.000000
   42       -7.174696   1.000000
   43       -7.111095   1.000000
   44       -7.001044   1.000000
   45       -6.906690   1.000000
   46       -6.815804   1.000000
   47       -6.741399   1.000000