<?xml version="1.0" encoding="ISO-8859-1"?>
<modeling>
 <generator>
  <i name="program" type="string">vasp </i>
  <i name="version" type="string">5.4.1  </i>
  <i name="subversion" type="string">05Feb16 (build Jul 05 2020 17:13:04) complex                          parallel </i>
  <i name="platform" type="string">IFC91_ompi </i>
  <i name="date" type="string">2024 07 24 </i>
  <i name="time" type="string">07:07:36 </i>
 </generator>
 <incar>
  <i type="int" name="ISTART">     0</i>
  <i type="string" name="PREC">normal</i>
  <i type="string" name="ALGO"> Normal</i>
  <i type="int" name="ISPIN">     1</i>
  <i type="int" name="ICHARG">     2</i>
  <i type="int" name="IBRION">     1</i>
  <i type="int" name="NSW">   100</i>
  <i type="int" name="ISIF">     3</i>
  <i type="int" name="ISYM">     0</i>
  <i name="SYMPREC">      0.00000001</i>
  <i name="POTIM">      0.50000000</i>
  <i type="logical" name="LREAL"> F  </i>
  <i type="logical" name="LPLANE"> F  </i>
  <i type="int" name="ISMEAR">     0</i>
  <i type="logical" name="LWAVE"> F  </i>
  <i type="logical" name="LCHARG"> F  </i>
  <v type="int" name="KPOINT_BSE">    -1     0     0     0</v>
 </incar>
 <kpoints>
  <generation param="Gamma">
   <v type="int" name="divisions">       8        8        1 </v>
   <v name="usershift">      0.00000000       0.00000000       0.00000000 </v>
   <v name="genvec1">      0.12500000       0.00000000       0.00000000 </v>
   <v name="genvec2">     -0.00000000       0.12500000       0.00000000 </v>
   <v name="genvec3">      0.00000000       0.00000000       1.00000000 </v>
   <v name="shift">      0.00000000       0.00000000       0.00000000 </v>
  </generation>
  <varray name="kpointlist" >
   <v>       0.00000000       0.00000000       0.00000000 </v>
   <v>       0.12500000       0.00000000       0.00000000 </v>
   <v>       0.25000000       0.00000000       0.00000000 </v>
   <v>       0.37500000       0.00000000       0.00000000 </v>
   <v>       0.50000000       0.00000000       0.00000000 </v>
   <v>       0.00000000       0.12500000       0.00000000 </v>
   <v>       0.12500000       0.12500000       0.00000000 </v>
   <v>       0.25000000       0.12500000       0.00000000 </v>
   <v>       0.37500000       0.12500000       0.00000000 </v>
   <v>       0.50000000       0.12500000       0.00000000 </v>
   <v>      -0.37500000       0.12500000       0.00000000 </v>
   <v>      -0.25000000       0.12500000       0.00000000 </v>
   <v>      -0.12500000       0.12500000       0.00000000 </v>
   <v>       0.00000000       0.25000000       0.00000000 </v>
   <v>       0.12500000       0.25000000       0.00000000 </v>
   <v>       0.25000000       0.25000000       0.00000000 </v>
   <v>       0.37500000       0.25000000       0.00000000 </v>
   <v>       0.50000000       0.25000000       0.00000000 </v>
   <v>      -0.37500000       0.25000000       0.00000000 </v>
   <v>      -0.25000000       0.25000000       0.00000000 </v>
   <v>      -0.12500000       0.25000000       0.00000000 </v>
   <v>      -0.00000000       0.37500000       0.00000000 </v>
   <v>       0.12500000       0.37500000       0.00000000 </v>
   <v>       0.25000000       0.37500000       0.00000000 </v>
   <v>       0.37500000       0.37500000       0.00000000 </v>
   <v>       0.50000000       0.37500000       0.00000000 </v>
   <v>      -0.37500000       0.37500000       0.00000000 </v>
   <v>      -0.25000000       0.37500000       0.00000000 </v>
   <v>      -0.12500000       0.37500000       0.00000000 </v>
   <v>       0.00000000       0.50000000       0.00000000 </v>
   <v>       0.12500000       0.50000000       0.00000000 </v>
   <v>       0.25000000       0.50000000       0.00000000 </v>
   <v>       0.37500000       0.50000000       0.00000000 </v>
   <v>       0.50000000       0.50000000       0.00000000 </v>
  </varray>
  <varray name="weights" >
   <v>       0.01562500 </v>
   <v>       0.03125000 </v>
   <v>       0.03125000 </v>
   <v>       0.03125000 </v>
   <v>       0.01562500 </v>
   <v>       0.03125000 </v>
   <v>       0.03125000 </v>
   <v>       0.03125000 </v>
   <v>       0.03125000 </v>
   <v>       0.03125000 </v>
   <v>       0.03125000 </v>
   <v>       0.03125000 </v>
   <v>       0.03125000 </v>
   <v>       0.03125000 </v>
   <v>       0.03125000 </v>
   <v>       0.03125000 </v>
   <v>       0.03125000 </v>
   <v>       0.03125000 </v>
   <v>       0.03125000 </v>
   <v>       0.03125000 </v>
   <v>       0.03125000 </v>
   <v>       0.03125000 </v>
   <v>       0.03125000 </v>
   <v>       0.03125000 </v>
   <v>       0.03125000 </v>
   <v>       0.03125000 </v>
   <v>       0.03125000 </v>
   <v>       0.03125000 </v>
   <v>       0.03125000 </v>
   <v>       0.01562500 </v>
   <v>       0.03125000 </v>
   <v>       0.03125000 </v>
   <v>       0.03125000 </v>
   <v>       0.01562500 </v>
  </varray>
 </kpoints>
 <parameters>
  <separator name="general" >
   <i type="string" name="SYSTEM">unknown system</i>
   <i type="logical" name="LCOMPAT"> F  </i>
  </separator>
  <separator name="electronic" >
   <i type="string" name="PREC">normal</i>
   <i name="ENMAX">    280.00000000</i>
   <i name="ENAUG">    373.43800000</i>
   <i name="EDIFF">      0.00010000</i>
   <i type="int" name="IALGO">    38</i>
   <i type="int" name="IWAVPR">    11</i>
   <i type="int" name="NBANDS">   120</i>
   <i name="NELECT">    159.00000000</i>
   <i type="int" name="TURBO">     0</i>
   <i type="int" name="IRESTART">     0</i>
   <i type="int" name="NREBOOT">     0</i>
   <i type="int" name="NMIN">     0</i>
   <i name="EREF">      0.00000000</i>
   <separator name="electronic smearing" >
    <i type="int" name="ISMEAR">     0</i>
    <i name="SIGMA">      0.20000000</i>
    <i name="KSPACING">      0.50000000</i>
    <i type="logical" name="KGAMMA"> T  </i>
   </separator>
   <separator name="electronic projectors" >
    <i type="logical" name="LREAL"> F  </i>
    <v name="ROPT">      0.00000000      0.00000000      0.00000000      0.00000000</v>
    <i type="int" name="LMAXPAW">  -100</i>
    <i type="int" name="LMAXMIX">     2</i>
    <i type="logical" name="NLSPLINE"> F  </i>
   </separator>
   <separator name="electronic startup" >
    <i type="int" name="ISTART">     0</i>
    <i type="int" name="ICHARG">     2</i>
    <i type="int" name="INIWAV">     1</i>
   </separator>
   <separator name="electronic spin" >
    <i type="int" name="ISPIN">     1</i>
    <i type="logical" name="LNONCOLLINEAR"> F  </i>
    <v name="MAGMOM">      1.00000000      1.00000000      1.00000000      1.00000000      1.00000000      1.00000000      1.00000000      1.00000000      1.00000000      1.00000000      1.00000000      1.00000000      1.00000000      1.00000000      1.00000000      1.00000000      1.00000000      1.00000000      1.00000000      1.00000000
      1.00000000      1.00000000      1.00000000      1.00000000      1.00000000      1.00000000      1.00000000</v>
    <i name="NUPDOWN">     -1.00000000</i>
    <i type="logical" name="LSORBIT"> F  </i>
    <v name="SAXIS">      0.00000000      0.00000000      1.00000000</v>
    <i type="logical" name="LSPIRAL"> F  </i>
    <v name="QSPIRAL">      0.00000000      0.00000000      0.00000000</v>
    <i type="logical" name="LZEROZ"> F  </i>
   </separator>
   <separator name="electronic exchange-correlation" >
    <i type="logical" name="LASPH"> F  </i>
    <i type="logical" name="LMETAGGA"> F  </i>
   </separator>
   <separator name="electronic convergence" >
    <i type="int" name="NELM">    60</i>
    <i type="int" name="NELMDL">    -5</i>
    <i type="int" name="NELMIN">     2</i>
    <i name="ENINI">    280.00000000</i>
    <separator name="electronic convergence detail" >
     <i type="logical" name="LDIAG"> T  </i>
     <i type="logical" name="LSUBROT"> F  </i>
     <i name="WEIMIN">      0.00100000</i>
     <i name="EBREAK">      0.00000021</i>
     <i name="DEPER">      0.30000000</i>
     <i type="int" name="NRMM">     4</i>
     <i name="TIME">      0.40000000</i>
    </separator>
   </separator>
   <separator name="electronic mixer" >
    <i name="AMIX">      0.40000000</i>
    <i name="BMIX">      1.00000000</i>
    <i name="AMIN">      0.10000000</i>
    <i name="AMIX_MAG">      1.60000000</i>
    <i name="BMIX_MAG">      1.00000000</i>
    <separator name="electronic mixer details" >
     <i type="int" name="IMIX">     4</i>
     <i type="logical" name="MIXFIRST"> F  </i>
     <i type="int" name="MAXMIX">   -45</i>
     <i name="WC">    100.00000000</i>
     <i type="int" name="INIMIX">     1</i>
     <i type="int" name="MIXPRE">     1</i>
     <i type="int" name="MREMOVE">     5</i>
    </separator>
   </separator>
   <separator name="electronic dipolcorrection" >
    <i type="logical" name="LDIPOL"> F  </i>
    <i type="logical" name="LMONO"> F  </i>
    <i type="int" name="IDIPOL">     0</i>
    <i name="EPSILON">      1.00000000</i>
    <v name="DIPOL">   -100.00000000   -100.00000000   -100.00000000</v>
    <i name="EFIELD">      0.00000000</i>
   </separator>
  </separator>
  <separator name="grids" >
   <i type="int" name="NGX">    42</i>
   <i type="int" name="NGY">    42</i>
   <i type="int" name="NGZ">   126</i>
   <i type="int" name="NGXF">    84</i>
   <i type="int" name="NGYF">    84</i>
   <i type="int" name="NGZF">   252</i>
   <i type="logical" name="ADDGRID"> F  </i>
  </separator>
  <separator name="ionic" >
   <i type="int" name="NSW">   100</i>
   <i type="int" name="IBRION">     1</i>
   <i type="int" name="ISIF">     3</i>
   <i name="PSTRESS">      0.00000000</i>
   <i name="EDIFFG">      0.00100000</i>
   <i type="int" name="NFREE">     0</i>
   <i name="POTIM">      0.50000000</i>
   <i name="SMASS">     -3.00000000</i>
   <i name="SCALEE">      1.00000000</i>
  </separator>
  <separator name="ionic md" >
   <i name="TEBEG">      0.00010000</i>
   <i name="TEEND">      0.00010000</i>
   <i type="int" name="NBLOCK">     1</i>
   <i type="int" name="KBLOCK">   100</i>
   <i type="int" name="NPACO">   256</i>
   <i name="APACO">     16.00000000</i>
  </separator>
  <separator name="symmetry" >
   <i type="int" name="ISYM">     0</i>
   <i name="SYMPREC">      0.00000001</i>
  </separator>
  <separator name="dos" >
   <i type="logical" name="LORBIT"> F  </i>
   <v name="RWIGS">     -1.00000000     -1.00000000     -1.00000000     -1.00000000</v>
   <i type="int" name="NEDOS">   301</i>
   <i name="EMIN">     10.00000000</i>
   <i name="EMAX">    -10.00000000</i>
   <i name="EFERMI">      0.00000000</i>
  </separator>
  <separator name="writing" >
   <i type="int" name="NWRITE">     2</i>
   <i type="logical" name="LWAVE"> F  </i>
   <i type="logical" name="LCHARG"> F  </i>
   <i type="logical" name="LPARD"> F  </i>
   <i type="logical" name="LVTOT"> F  </i>
   <i type="logical" name="LVHAR"> F  </i>
   <i type="logical" name="LELF"> F  </i>
   <i type="logical" name="LOPTICS"> F  </i>
   <v name="STM">      0.00000000      0.00000000      0.00000000      0.00000000      0.00000000      0.00000000      0.00000000</v>
  </separator>
  <separator name="performance" >
   <i type="int" name="NPAR">    40</i>
   <i type="int" name="NSIM">     4</i>
   <i type="int" name="NBLK">    -1</i>
   <i type="logical" name="LPLANE"> F  </i>
   <i type="logical" name="LSCALAPACK"> T  </i>
   <i type="logical" name="LSCAAWARE"> F  </i>
   <i type="logical" name="LSCALU"> F  </i>
   <i type="logical" name="LASYNC"> F  </i>
   <i type="logical" name="LORBITALREAL"> F  </i>
  </separator>
  <separator name="miscellaneous" >
   <i type="int" name="IDIOT">     3</i>
   <i type="logical" name="LMUSIC"> F  </i>
   <v name="POMASS">     50.94100000     95.94000000    183.85000000     32.06600000</v>
   <v name="DARWINR">      0.00000000      0.00000000      0.00000000      0.00000000</v>
   <v name="DARWINV">      1.00000000      1.00000000      1.00000000      1.00000000</v>
   <i type="logical" name="LCORR"> T  </i>
  </separator>
  <i type="logical" name="GGA_COMPAT"> T  </i>
  <i type="logical" name="LBERRY"> F  </i>
  <i type="int" name="ICORELEVEL">     0</i>
  <i type="logical" name="LDAU"> F  </i>
  <i type="int" name="I_CONSTRAINED_M">     0</i>
  <separator name="electronic exchange-correlation" >
   <i type="string" name="GGA">--</i>
   <i type="int" name="VOSKOWN">     0</i>
   <i type="logical" name="LHFCALC"> F  </i>
   <i type="string" name="PRECFOCK"></i>
   <i type="logical" name="LSYMGRAD"> F  </i>
   <i type="logical" name="LHFONE"> F  </i>
   <i type="logical" name="LRHFCALC"> F  </i>
   <i type="logical" name="LTHOMAS"> F  </i>
   <i type="logical" name="LMODELHF"> F  </i>
   <i name="ENCUT4O">     -1.00000000</i>
   <i type="int" name="EXXOEP">     0</i>
   <i type="int" name="FOURORBIT">     0</i>
   <i name="AEXX">      0.00000000</i>
   <i name="HFALPHA">      0.00000000</i>
   <i name="MCALPHA">      0.00000000</i>
   <i name="ALDAX">      1.00000000</i>
   <i name="AGGAX">      1.00000000</i>
   <i name="ALDAC">      1.00000000</i>
   <i name="AGGAC">      1.00000000</i>
   <i type="int" name="NKREDX">     1</i>
   <i type="int" name="NKREDY">     1</i>
   <i type="int" name="NKREDZ">     1</i>
   <i type="logical" name="SHIFTRED"> F  </i>
   <i type="logical" name="ODDONLY"> F  </i>
   <i type="logical" name="EVENONLY"> F  </i>
   <i type="int" name="LMAXFOCK">     0</i>
   <i type="int" name="NMAXFOCKAE">     0</i>
   <i type="logical" name="LFOCKAEDFT"> F  </i>
   <i name="HFSCREEN">      0.00000000</i>
   <i name="HFSCREENC">      0.00000000</i>
   <i type="int" name="NBANDSGWLOW">     0</i>
  </separator>
  <separator name="vdW DFT" >
   <i type="logical" name="LUSE_VDW"> F  </i>
   <i name="Zab_VDW">     -0.84910000</i>
   <i name="PARAM1">      0.12340000</i>
   <i name="PARAM2">      1.00000000</i>
   <i name="PARAM3">      0.00000000</i>
  </separator>
  <separator name="model GW" >
   <i type="int" name="MODEL_GW">     0</i>
   <i name="MODEL_EPS0">     58.26239943</i>
   <i name="MODEL_ALPHA">      1.00000000</i>
  </separator>
  <separator name="linear response parameters" >
   <i type="logical" name="LEPSILON"> F  </i>
   <i type="logical" name="LRPA"> F  </i>
   <i type="logical" name="LNABLA"> F  </i>
   <i type="logical" name="LVEL"> F  </i>
   <i type="int" name="KINTER">     0</i>
   <i name="CSHIFT">      0.10000000</i>
   <i name="OMEGAMAX">     -1.00000000</i>
   <i name="DEG_THRESHOLD">      0.00200000</i>
  </separator>
  <separator name="orbital magnetization" >
   <i type="logical" name="NUCIND"> F  </i>
   <v name="MAGPOS">      0.00000000      0.00000000      0.00000000</v>
   <i type="logical" name="LNICSALL"> T  </i>
   <i type="logical" name="ORBITALMAG"> F  </i>
   <i type="logical" name="LMAGBLOCH"> F  </i>
   <i type="logical" name="LCHIMAG"> F  </i>
   <i type="logical" name="LGAUGE"> T  </i>
   <i type="int" name="MAGATOM">     0</i>
   <v name="MAGDIPOL">      0.00000000      0.00000000      0.00000000</v>
   <v name="AVECCONST">      0.00000000      0.00000000      0.00000000</v>
  </separator>
  <separator name="response functions" >
   <i type="logical" name="LADDER"> F  </i>
   <i type="logical" name="LFXC"> F  </i>
   <i type="logical" name="LHARTREE"> T  </i>
   <i type="int" name="IBSE">     0</i>
   <v type="int" name="KPOINT">    -1     0     0     0</v>
   <i type="logical" name="LTCTE"> F  </i>
   <i type="logical" name="LTETE"> F  </i>
   <i type="logical" name="LTRIPLET"> F  </i>
   <i type="logical" name="LFXCEPS"> F  </i>
   <i type="logical" name="LFXHEG"> F  </i>
   <i type="int" name="NATURALO">     0</i>
   <i type="logical" name="L2ORDER"> F  </i>
   <i type="logical" name="LUSEW"> F  </i>
   <i name="ENCUTGW">     -2.00000000</i>
   <i name="ENCUTGWSOFT">     -2.00000000</i>
   <i name="ENCUTLF">     -1.00000000</i>
   <i type="int" name="LMAXMP2">    -1</i>
   <i name="SCISSOR">      0.00000000</i>
   <i type="int" name="NOMEGA">     0</i>
   <i type="int" name="NOMEGAR">     0</i>
   <i type="int" name="NBANDSGW">    -1</i>
   <i type="int" name="NBANDSO">    -1</i>
   <i type="int" name="NBANDSV">    -1</i>
   <i type="int" name="NELM">     1</i>
   <i type="int" name="NELMHF">     1</i>
   <i type="int" name="DIM">     3</i>
   <i type="int" name="ANTIRES">     0</i>
   <i name="OMEGAMAX">    -30.00000000</i>
   <i name="OMEGAMIN">    -30.00000000</i>
   <i name="OMEGATL">   -200.00000000</i>
   <i type="int" name="OMEGAGRID">     0</i>
   <i name="CSHIFT">     -0.10000000</i>
   <i type="logical" name="SELFENERGY"> F  </i>
   <i type="logical" name="LSPECTRAL"> F  </i>
   <i type="logical" name="LSPECTRALGW"> F  </i>
   <i type="logical" name="LSINGLES"> F  </i>
   <i type="logical" name="LFERMIGW"> F  </i>
   <i type="logical" name="ODDONLYGW"> F  </i>
   <i type="logical" name="EVENONLYGW"> F  </i>
   <i type="int" name="NKREDLFX">     1</i>
   <i type="int" name="NKREDLFY">     1</i>
   <i type="int" name="NKREDLFZ">     1</i>
   <i type="int" name="MAXMEM">  1800</i>
   <i type="int" name="TELESCOPE">     0</i>
   <i type="int" name="TAUPAR">     1</i>
   <i type="int" name="OMEGAPAR">    -1</i>
   <i name="LAMBDA">      1.00000000</i>
  </separator>
  <separator name="External order field" >
   <i name="OFIELD_KAPPA">      0.00000000</i>
   <v name="OFIELD_K">      0.00000000      0.00000000      0.00000000</v>
   <i name="OFIELD_Q6_NEAR">      0.00000000</i>
   <i name="OFIELD_Q6_FAR">      0.00000000</i>
   <i name="OFIELD_A">      0.00000000</i>
  </separator>
 </parameters>
 <atominfo>
  <atoms>      27 </atoms>
  <types>       4 </types>
  <array name="atoms" >
   <dimension dim="1">ion</dimension>
   <field type="string">element</field>
   <field type="int">atomtype</field>
   <set>
    <rc><c>V </c><c>   1</c></rc>
    <rc><c>V </c><c>   1</c></rc>
    <rc><c>V </c><c>   1</c></rc>
    <rc><c>Mo</c><c>   2</c></rc>
    <rc><c>Mo</c><c>   2</c></rc>
    <rc><c>Mo</c><c>   2</c></rc>
    <rc><c>W </c><c>   3</c></rc>
    <rc><c>W </c><c>   3</c></rc>
    <rc><c>W </c><c>   3</c></rc>
    <rc><c>S </c><c>   4</c></rc>
    <rc><c>S </c><c>   4</c></rc>
    <rc><c>S </c><c>   4</c></rc>
    <rc><c>S </c><c>   4</c></rc>
    <rc><c>S </c><c>   4</c></rc>
    <rc><c>S </c><c>   4</c></rc>
    <rc><c>S </c><c>   4</c></rc>
    <rc><c>S </c><c>   4</c></rc>
    <rc><c>S </c><c>   4</c></rc>
    <rc><c>S </c><c>   4</c></rc>
    <rc><c>S </c><c>   4</c></rc>
    <rc><c>S </c><c>   4</c></rc>
    <rc><c>S </c><c>   4</c></rc>
    <rc><c>S </c><c>   4</c></rc>
    <rc><c>S </c><c>   4</c></rc>
    <rc><c>S </c><c>   4</c></rc>
    <rc><c>S </c><c>   4</c></rc>
    <rc><c>S </c><c>   4</c></rc>
   </set>
  </array>
  <array name="atomtypes" >
   <dimension dim="1">type</dimension>
   <field type="int">atomspertype</field>
   <field type="string">element</field>
   <field>mass</field>
   <field>valence</field>
   <field type="string">pseudopotential</field>
   <set>
    <rc><c>   3</c><c>V </c><c>     50.94100000</c><c>      5.00000000</c><c> PAW_PBE V 08Apr2002                    </c></rc>
    <rc><c>   3</c><c>Mo</c><c>     95.94000000</c><c>      6.00000000</c><c> PAW_PBE Mo 08Apr2002                   </c></rc>
    <rc><c>   3</c><c>W </c><c>    183.85000000</c><c>      6.00000000</c><c> PAW_PBE W 08Apr2002                    </c></rc>
    <rc><c>  18</c><c>S </c><c>     32.06600000</c><c>      6.00000000</c><c>  PAW_PBE S 17Jan2003                   </c></rc>
   </set>
  </array>
 </atominfo>
 <structure name="initialpos" >
  <crystal>
   <varray name="basis" >
    <v>       8.66999996       5.03999989       0.00000000 </v>
    <v>      -8.66999982       5.04000013       0.00000000 </v>
    <v>       0.00000000       0.00000000      30.00000000 </v>
   </varray>
   <i name="volume">   2621.80797419 </i>
   <varray name="rec_basis" >
    <v>       0.05767013       0.09920635       0.00000000 </v>
    <v>      -0.05767013       0.09920635       0.00000000 </v>
    <v>       0.00000000       0.00000000       0.03333333 </v>
   </varray>
  </crystal>
  <varray name="positions" >
   <v>       0.66666669       0.66666669       0.00000000 </v>
   <v>       1.00000000       0.33333334       0.00000000 </v>
   <v>       0.00000000       0.66666669       0.00000000 </v>
   <v>       0.00000000       0.00000000       0.00000000 </v>
   <v>       0.33333334       0.33333334       0.00000000 </v>
   <v>       0.66666669       0.00000000       0.00000000 </v>
   <v>       0.33333334       0.00000000       0.00000000 </v>
   <v>       0.33333334       0.66666669       0.00000000 </v>
   <v>       0.66666669       0.33333334       0.00000000 </v>
   <v>       0.11068511       0.22244981       0.95539999 </v>
   <v>       0.22244981       0.11068511       0.04460000 </v>
   <v>       0.11068511       0.55578315       0.95539999 </v>
   <v>       0.22244981       0.44401845       0.04460000 </v>
   <v>       0.11068511       0.88911647       0.95539999 </v>
   <v>       0.22244981       0.77735180       0.04460000 </v>
   <v>       0.44401845       0.22244981       0.95539999 </v>
   <v>       0.55578315       0.11068511       0.04460000 </v>
   <v>       0.44401845       0.55578315       0.95539999 </v>
   <v>       0.55578315       0.44401845       0.04460000 </v>
   <v>       0.44401845       0.88911647       0.95539999 </v>
   <v>       0.55578315       0.77735180       0.04460000 </v>
   <v>       0.77735180       0.22244981       0.95539999 </v>
   <v>       0.88911647       0.11068511       0.04460000 </v>
   <v>       0.77735180       0.55578315       0.95539999 </v>
   <v>       0.88911647       0.44401845       0.04460000 </v>
   <v>       0.77735180       0.88911647       0.95539999 </v>
   <v>       0.88911647       0.77735180       0.04460000 </v>
  </varray>
 </structure>
 <calculation>
  <scstep>
   <time name="dav">   21.97   22.02</time>
   <time name="total">   22.01   22.07</time>
   <energy>
    <i name="alphaZ">     81.65567618 </i>
    <i name="ewald">  41890.25209520 </i>
    <i name="hartreedc"> -47722.88714023 </i>
    <i name="XCdc">   -242.92854899 </i>
    <i name="pawpsdc">   3467.42045192 </i>
    <i name="pawaedc">  -2871.19716117 </i>
    <i name="eentropy">     -0.53121790 </i>
    <i name="bandstr">   -243.40300885 </i>
    <i name="atom">   6761.44252427 </i>
    <i name="e_fr_energy">   1119.82367043 </i>
    <i name="e_wo_entrp">   1120.35488833 </i>
    <i name="e_0_energy">   1120.08927938 </i>
   </energy>
  </scstep>
  <scstep>
   <time name="dav">   28.48   28.55</time>
   <time name="total">   28.48   28.55</time>
   <energy>
    <i name="e_fr_energy">     -6.37456280 </i>
    <i name="e_wo_entrp">     -6.16710777 </i>
    <i name="e_0_energy">     -6.27083529 </i>
   </energy>
  </scstep>
  <scstep>
   <time name="dav">   27.50   27.57</time>
   <time name="total">   27.50   27.57</time>
   <energy>
    <i name="e_fr_energy">   -200.12148709 </i>
    <i name="e_wo_entrp">   -199.86395905 </i>
    <i name="e_0_energy">   -199.99272307 </i>
   </energy>
  </scstep>
  <scstep>
   <time name="dav">   30.23   30.30</time>
   <time name="total">   30.23   30.31</time>
   <energy>
    <i name="e_fr_energy">   -209.00778113 </i>
    <i name="e_wo_entrp">   -208.72263024 </i>
    <i name="e_0_energy">   -208.86520568 </i>
   </energy>
  </scstep>
  <scstep>
   <time name="dav">   28.30   28.37</time>
   <time name="total">   28.77   28.84</time>
   <energy>
    <i name="e_fr_energy">   -209.31146813 </i>
    <i name="e_wo_entrp">   -209.02949925 </i>
    <i name="e_0_energy">   -209.17048369 </i>
   </energy>
  </scstep>
  <scstep>
   <time name="dav">   30.71   30.78</time>
   <time name="total">   31.21   31.29</time>
   <energy>
    <i name="e_fr_energy">   -237.17771544 </i>
    <i name="e_wo_entrp">   -236.90266941 </i>
    <i name="e_0_energy">   -237.04019243 </i>
   </energy>
  </scstep>
  <scstep>
   <time name="dav">   32.61   32.69</time>
   <time name="total">   33.11   33.20</time>
   <energy>
    <i name="e_fr_energy">   -196.49181849 </i>
    <i name="e_wo_entrp">   -196.16495115 </i>
    <i name="e_0_energy">   -196.32838482 </i>
   </energy>
  </scstep>
  <scstep>
   <time name="dav">   29.63   29.71</time>
   <time name="total">   30.15   30.23</time>
   <energy>
    <i name="e_fr_energy">   -189.44322698 </i>
    <i name="e_wo_entrp">   -189.15104495 </i>
    <i name="e_0_energy">   -189.29713596 </i>
   </energy>
  </scstep>
  <scstep>
   <time name="dav">   30.60   30.67</time>
   <time name="total">   31.12   31.20</time>
   <energy>
    <i name="e_fr_energy">   -188.23635024 </i>
    <i name="e_wo_entrp">   -187.91624936 </i>
    <i name="e_0_energy">   -188.07629980 </i>
   </energy>
  </scstep>
  <scstep>
   <time name="dav">   32.49   32.57</time>
   <time name="total">   33.02   33.11</time>
   <energy>
    <i name="e_fr_energy">   -187.08105075 </i>
    <i name="e_wo_entrp">   -186.73424883 </i>
    <i name="e_0_energy">   -186.90764979 </i>
   </energy>
  </scstep>
  <scstep>
   <time name="dav">   32.96   33.04</time>
   <time name="total">   33.49   33.58</time>
   <energy>
    <i name="e_fr_energy">   -187.03319745 </i>
    <i name="e_wo_entrp">   -186.68538537 </i>
    <i name="e_0_energy">   -186.85929141 </i>
   </energy>
  </scstep>
  <scstep>
   <time name="dav">   31.37   31.45</time>
   <time name="total">   31.91   31.99</time>
   <energy>
    <i name="e_fr_energy">   -187.17319248 </i>
    <i name="e_wo_entrp">   -186.83467703 </i>
    <i name="e_0_energy">   -187.00393475 </i>
   </energy>
  </scstep>
  <scstep>
   <time name="dav">   32.33   32.41</time>
   <time name="total">   32.87   32.96</time>
   <energy>
    <i name="e_fr_energy">   -186.93015490 </i>
    <i name="e_wo_entrp">   -186.59568865 </i>
    <i name="e_0_energy">   -186.76292177 </i>
   </energy>
  </scstep>
  <scstep>
   <time name="dav">   32.70   32.78</time>
   <time name="total">   33.24   33.32</time>
   <energy>
    <i name="e_fr_energy">   -186.88067872 </i>
    <i name="e_wo_entrp">   -186.53696603 </i>
    <i name="e_0_energy">   -186.70882238 </i>
   </energy>
  </scstep>
  <scstep>
   <time name="dav">   30.74   30.82</time>
   <time name="total">   31.28   31.36</time>
   <energy>
    <i name="e_fr_energy">   -186.87954953 </i>
    <i name="e_wo_entrp">   -186.53433793 </i>
    <i name="e_0_energy">   -186.70694373 </i>
   </energy>
  </scstep>
  <scstep>
   <time name="dav">   32.32   32.39</time>
   <time name="total">   32.85   32.94</time>
   <energy>
    <i name="e_fr_energy">   -186.87503527 </i>
    <i name="e_wo_entrp">   -186.52973871 </i>
    <i name="e_0_energy">   -186.70238699 </i>
   </energy>
  </scstep>
  <scstep>
   <time name="dav">   31.51   31.59</time>
   <time name="total">   32.05   32.13</time>
   <energy>
    <i name="e_fr_energy">   -186.87146780 </i>
    <i name="e_wo_entrp">   -186.52851410 </i>
    <i name="e_0_energy">   -186.69999095 </i>
   </energy>
  </scstep>
  <scstep>
   <time name="dav">   29.57   29.64</time>
   <time name="total">   30.11   30.19</time>
   <energy>
    <i name="e_fr_energy">   -186.87129886 </i>
    <i name="e_wo_entrp">   -186.52798644 </i>
    <i name="e_0_energy">   -186.69964265 </i>
   </energy>
  </scstep>
  <scstep>
   <time name="dav">   28.29   28.36</time>
   <time name="total">   28.83   28.90</time>
   <energy>
    <i name="e_fr_energy">   -186.87093354 </i>
    <i name="e_wo_entrp">   -186.52746056 </i>
    <i name="e_0_energy">   -186.69919705 </i>
   </energy>
  </scstep>
  <scstep>
   <time name="dav">   24.12   24.18</time>
   <time name="total">   24.66   24.73</time>
   <energy>
    <i name="e_fr_energy">   -186.87165673 </i>
    <i name="e_wo_entrp">   -186.52843888 </i>
    <i name="e_0_energy">   -186.70004781 </i>
   </energy>
  </scstep>
  <scstep>
   <time name="dav">   22.10   22.15</time>
   <time name="total">   22.63   22.70</time>
   <energy>
    <i name="e_fr_energy">   -186.87220794 </i>
    <i name="e_wo_entrp">   -186.52898657 </i>
    <i name="e_0_energy">   -186.70059725 </i>
   </energy>
  </scstep>
  <scstep>
   <time name="dav">   20.60   20.65</time>
   <time name="total">   21.13   21.19</time>
   <energy>
    <i name="e_fr_energy">   -186.87341016 </i>
    <i name="e_wo_entrp">   -186.53015907 </i>
    <i name="e_0_energy">   -186.70178462 </i>
   </energy>
  </scstep>
  <scstep>
   <time name="dav">   20.66   20.71</time>
   <time name="total">   21.19   21.25</time>
   <energy>
    <i name="e_fr_energy">   -186.87463653 </i>
    <i name="e_wo_entrp">   -186.53145482 </i>
    <i name="e_0_energy">   -186.70304567 </i>
   </energy>
  </scstep>
  <scstep>
   <time name="dav">   18.60   18.64</time>
   <time name="total">   19.13   19.19</time>
   <energy>
    <i name="e_fr_energy">   -186.87522697 </i>
    <i name="e_wo_entrp">   -186.53202814 </i>
    <i name="e_0_energy">   -186.70362755 </i>
   </energy>
  </scstep>
  <scstep>
   <time name="dav">   16.81   16.86</time>
   <time name="total">   17.35   17.40</time>
   <energy>
    <i name="e_fr_energy">   -186.87560650 </i>
    <i name="e_wo_entrp">   -186.53236596 </i>
    <i name="e_0_energy">   -186.70398623 </i>
   </energy>
  </scstep>
  <scstep>
   <time name="dav">   18.81   18.86</time>
   <time name="total">   19.34   19.40</time>
   <energy>
    <i name="e_fr_energy">   -186.87583039 </i>
    <i name="e_wo_entrp">   -186.53260369 </i>
    <i name="e_0_energy">   -186.70421704 </i>
   </energy>
  </scstep>
  <scstep>
   <time name="dav">   19.71   19.76</time>
   <time name="total">   19.75   19.80</time>
   <energy>
    <i name="alphaZ">     81.65567618 </i>
    <i name="ewald">  41890.25209520 </i>
    <i name="hartreedc"> -47833.01775718 </i>
    <i name="XCdc">   -231.60091916 </i>
    <i name="pawpsdc">   4192.11954709 </i>
    <i name="pawaedc">  -3610.13732961 </i>
    <i name="eentropy">     -0.34322191 </i>
    <i name="bandstr">  -1437.24654301 </i>
    <i name="atom">   6761.44252427 </i>
    <i name="e_fr_energy">   -186.87592814 </i>
    <i name="e_wo_entrp">   -186.53270623 </i>
    <i name="e_0_energy">   -186.70431718 </i>
   </energy>
  </scstep>
  <structure>
   <crystal>
    <varray name="basis" >
     <v>       8.66999996       5.03999989       0.00000000 </v>
     <v>      -8.66999982       5.04000013       0.00000000 </v>
     <v>       0.00000000       0.00000000      30.00000000 </v>
    </varray>
    <i name="volume">   2621.80797419 </i>
    <varray name="rec_basis" >
     <v>       0.05767013       0.09920635       0.00000000 </v>
     <v>      -0.05767013       0.09920635       0.00000000 </v>
     <v>       0.00000000       0.00000000       0.03333333 </v>
    </varray>
   </crystal>
   <varray name="positions" >
    <v>       0.66666669       0.66666669       0.00000000 </v>
    <v>       1.00000000       0.33333334       0.00000000 </v>
    <v>       0.00000000       0.66666669       0.00000000 </v>
    <v>       0.00000000       0.00000000       0.00000000 </v>
    <v>       0.33333334       0.33333334       0.00000000 </v>
    <v>       0.66666669       0.00000000       0.00000000 </v>
    <v>       0.33333334       0.00000000       0.00000000 </v>
    <v>       0.33333334       0.66666669       0.00000000 </v>
    <v>       0.66666669       0.33333334       0.00000000 </v>
    <v>       0.11068511       0.22244981       0.95539999 </v>
    <v>       0.22244981       0.11068511       0.04460000 </v>
    <v>       0.11068511       0.55578315       0.95539999 </v>
    <v>       0.22244981       0.44401845       0.04460000 </v>
    <v>       0.11068511       0.88911647       0.95539999 </v>
    <v>       0.22244981       0.77735180       0.04460000 </v>
    <v>       0.44401845       0.22244981       0.95539999 </v>
    <v>       0.55578315       0.11068511       0.04460000 </v>
    <v>       0.44401845       0.55578315       0.95539999 </v>
    <v>       0.55578315       0.44401845       0.04460000 </v>
    <v>       0.44401845       0.88911647       0.95539999 </v>
    <v>       0.55578315       0.77735180       0.04460000 </v>
    <v>       0.77735180       0.22244981       0.95539999 </v>
    <v>       0.88911647       0.11068511       0.04460000 </v>
    <v>       0.77735180       0.55578315       0.95539999 </v>
    <v>       0.88911647       0.44401845       0.04460000 </v>
    <v>       0.77735180       0.88911647       0.95539999 </v>
    <v>       0.88911647       0.77735180       0.04460000 </v>
   </varray>
  </structure>
  <varray name="forces" >
   <v>      -0.16111583       0.17800254       0.11659220 </v>
   <v>       0.37225351      -0.19548250      -0.10156351 </v>
   <v>      -0.20585644       0.04331935       0.01466008 </v>
   <v>      -0.27040930       0.08482304       0.01997311 </v>
   <v>       0.01858791      -0.28585897      -0.09306301 </v>
   <v>       0.25900476       0.14005457       0.07050714 </v>
   <v>      -0.31511643       0.14008568      -0.02068559 </v>
   <v>       0.30025458       0.03688963      -0.05606233 </v>
   <v>      -0.00173188      -0.16058912       0.03201689 </v>
   <v>      -0.77497831       0.01556534      -2.16129881 </v>
   <v>       0.06196900      -0.01327432       2.90082260 </v>
   <v>      -0.22735659      -0.53107606      -1.40775839 </v>
   <v>      -0.63057061      -0.54536084       2.13595207 </v>
   <v>       0.62520198      -0.53587766      -2.13743498 </v>
   <v>      -0.46988515      -0.55008892       2.15222199 </v>
   <v>       0.25824723      -0.01553500      -2.95183849 </v>
   <v>      -0.24823581      -0.01826577       2.91821245 </v>
   <v>       0.35861804       0.68303226      -2.15587504 </v>
   <v>      -0.36807162       0.72856288       2.13816402 </v>
   <v>       0.03576234      -0.13726967      -2.84783181 </v>
   <v>       0.68674943      -0.13683854       2.16981493 </v>
   <v>       0.37273375       0.73474240      -2.16367413 </v>
   <v>      -0.52482037       0.68173127       2.17932065 </v>
   <v>      -0.23718470       0.52348633      -1.40922564 </v>
   <v>       0.23110834       0.51726513       1.38972003 </v>
   <v>       0.53804475      -0.68933953      -2.15107587 </v>
   <v>       0.31679743      -0.69270351       1.41940946 </v>
  </varray>
  <varray name="stress" >
   <v>       7.28571405      -0.08790868      -1.54573300 </v>
   <v>      -0.08790855       4.46659602      -0.06268852 </v>
   <v>      -1.54573315      -0.06268863      30.30587785 </v>
  </varray>
  <energy>
   <i name="e_fr_energy">   -186.87592814 </i>
   <i name="e_wo_entrp">   -186.70431718 </i>
   <i name="e_0_energy">     -0.34322191 </i>
  </energy>
  <time name="totalsc">  789.24  791.36</time>
 </calculation>
 <calculation>
  <scstep>
   <time name="dav">   21.85   21.91</time>
   <time name="total">   22.40   22.45</time>
   <energy>
    <i name="alphaZ">     78.92179839 </i>
    <i name="ewald">  39380.07818460 </i>
    <i name="hartreedc"> -45337.59151031 </i>
    <i name="XCdc">   -239.05665330 </i>
    <i name="pawpsdc">   4192.09101791 </i>
    <i name="pawaedc">  -3610.10916769 </i>
    <i name="eentropy">     -0.28173344 </i>
    <i name="bandstr">  -1412.99364622 </i>
    <i name="atom">   6761.44252427 </i>
    <i name="e_fr_energy">   -187.49918579 </i>
    <i name="e_wo_entrp">   -187.21745235 </i>
    <i name="e_0_energy">   -187.35831907 </i>
   </energy>
  </scstep>
  <scstep>
   <time name="dav">   30.22   30.30</time>
   <time name="total">   30.76   30.84</time>
   <energy>
    <i name="e_fr_energy">   -189.35992531 </i>
    <i name="e_wo_entrp">   -189.03539592 </i>
    <i name="e_0_energy">   -189.19766061 </i>
   </energy>
  </scstep>
  <scstep>
   <time name="dav">   30.24   30.31</time>
   <time name="total">   30.79   30.87</time>
   <energy>
    <i name="e_fr_energy">   -189.37895734 </i>
    <i name="e_wo_entrp">   -189.11331226 </i>
    <i name="e_0_energy">   -189.24613480 </i>
   </energy>
  </scstep>
  <scstep>
   <time name="dav">   30.27   30.34</time>
   <time name="total">   30.81   30.89</time>
   <energy>
    <i name="e_fr_energy">   -188.75556092 </i>
    <i name="e_wo_entrp">   -188.47267053 </i>
    <i name="e_0_energy">   -188.61411573 </i>
   </energy>
  </scstep>
  <scstep>
   <time name="dav">   28.61   28.68</time>
   <time name="total">   29.15   29.23</time>
   <energy>
    <i name="e_fr_energy">   -188.79789071 </i>
    <i name="e_wo_entrp">   -188.51753350 </i>
    <i name="e_0_energy">   -188.65771210 </i>
   </energy>
  </scstep>
  <scstep>
   <time name="dav">   31.13   31.21</time>
   <time name="total">   31.67   31.76</time>
   <energy>
    <i name="e_fr_energy">   -188.76283201 </i>
    <i name="e_wo_entrp">   -188.47432597 </i>
    <i name="e_0_energy">   -188.61857899 </i>
   </energy>
  </scstep>
  <scstep>
   <time name="dav">   31.12   31.20</time>
   <time name="total">   31.67   31.75</time>
   <energy>
    <i name="e_fr_energy">   -188.69002451 </i>
    <i name="e_wo_entrp">   -188.40879155 </i>
    <i name="e_0_energy">   -188.54940803 </i>
   </energy>
  </scstep>
  <scstep>
   <time name="dav">   28.81   28.88</time>
   <time name="total">   29.35   29.43</time>
   <energy>
    <i name="e_fr_energy">   -188.67494291 </i>
    <i name="e_wo_entrp">   -188.39188103 </i>
    <i name="e_0_energy">   -188.53341197 </i>
   </energy>
  </scstep>
  <scstep>
   <time name="dav">   30.14   30.21</time>
   <time name="total">   30.68   30.77</time>
   <energy>
    <i name="e_fr_energy">   -188.66985514 </i>
    <i name="e_wo_entrp">   -188.38913756 </i>
    <i name="e_0_energy">   -188.52949635 </i>
   </energy>
  </scstep>
  <scstep>
   <time name="dav">   32.28   32.36</time>
   <time name="total">   32.82   32.91</time>
   <energy>
    <i name="e_fr_energy">   -188.66831075 </i>
    <i name="e_wo_entrp">   -188.38779756 </i>
    <i name="e_0_energy">   -188.52805415 </i>
   </energy>
  </scstep>
  <scstep>
   <time name="dav">   31.36   31.44</time>
   <time name="total">   31.91   32.21</time>
   <energy>
    <i name="e_fr_energy">   -188.66767436 </i>
    <i name="e_wo_entrp">   -188.38803824 </i>
    <i name="e_0_energy">   -188.52785630 </i>
   </energy>
  </scstep>
  <scstep>
   <time name="dav">   28.93   29.00</time>
   <time name="total">   28.97   29.05</time>
   <energy>
    <i name="alphaZ">     78.92179839 </i>
    <i name="ewald">  39380.07818460 </i>
    <i name="hartreedc"> -45348.52721508 </i>
    <i name="XCdc">   -237.96767095 </i>
    <i name="pawpsdc">   3952.78075206 </i>
    <i name="pawaedc">  -3367.31984822 </i>
    <i name="eentropy">     -0.27959764 </i>
    <i name="bandstr">  -1407.79658512 </i>
    <i name="atom">   6761.44252427 </i>
    <i name="e_fr_energy">   -188.66765769 </i>
    <i name="e_wo_entrp">   -188.38806005 </i>
    <i name="e_0_energy">   -188.52785887 </i>
   </energy>
  </scstep>
  <structure>
   <crystal>
    <varray name="basis" >
     <v>       8.85339687       5.10359248       0.00000000 </v>
     <v>      -8.85598762       5.10804968       0.00000000 </v>
     <v>       0.00000000       0.00000000      30.00000000 </v>
    </varray>
    <i name="volume">   2712.62828912 </i>
    <varray name="rec_basis" >
     <v>       0.05649189       0.09794177       0.00000000 </v>
     <v>      -0.05644259       0.09791312       0.00000000 </v>
     <v>       0.00000000       0.00000000       0.03333333 </v>
    </varray>
   </crystal>
   <varray name="positions" >
    <v>       0.66707035       0.66796685       0.00018749 </v>
    <v>       1.00010009       0.33136210      -0.00016332 </v>
    <v>      -0.00036540       0.66744674       0.00002357 </v>
    <v>      -0.00034636       0.00115828       0.00003212 </v>
    <v>       0.33201694       0.33191351      -0.00014965 </v>
    <v>       0.66805758      -0.00005029       0.00011338 </v>
    <v>       0.33312709       0.00154715      -0.00003326 </v>
    <v>       0.33434525       0.66600788      -0.00009015 </v>
    <v>       0.66589329       0.33256959       0.00005149 </v>
    <v>       0.10860349       0.22468042       0.95192443 </v>
    <v>       0.22255869       0.11044917       0.04926478 </v>
    <v>       0.10751085       0.55387398       0.95313619 </v>
    <v>       0.21808538       0.44316272       0.04803480 </v>
    <v>       0.10985982       0.88481236       0.95196281 </v>
    <v>       0.21850980       0.77602638       0.04806096 </v>
    <v>       0.44466259       0.22165697       0.95065317 </v>
    <v>       0.55500510       0.11128832       0.04929274 </v>
    <v>       0.44828516       0.55805440       0.95193315 </v>
    <v>       0.55824600       0.44852937       0.04803836 </v>
    <v>       0.44346098       0.88836000       0.95082042 </v>
    <v>       0.55703889       0.77478624       0.04808925 </v>
    <v>       0.78190526       0.22492927       0.95192061 </v>
    <v>       0.89091908       0.11540799       0.04810454 </v>
    <v>       0.77919730       0.55894843       0.95313383 </v>
    <v>       0.89223507       0.44585109       0.04683479 </v>
    <v>       0.77554956       0.88432038       0.95194087 </v>
    <v>       0.88668258       0.77315515       0.04688253 </v>
   </varray>
  </structure>
  <varray name="forces" >
   <v>      -0.22036060       0.15725992       0.03989682 </v>
   <v>       0.33950396      -0.19089985      -0.02945431 </v>
   <v>      -0.13760499       0.08032123       0.01586855 </v>
   <v>      -0.22371871       0.23323827      -0.00256774 </v>
   <v>       0.20978546      -0.35499561       0.03488176 </v>
   <v>       0.13559120       0.04898209      -0.04291203 </v>
   <v>      -0.32096382       0.31961777      -0.00195127 </v>
   <v>       0.22769996       0.16177637      -0.08852407 </v>
   <v>      -0.00744007      -0.44983890       0.09904912 </v>
   <v>      -0.08031090      -0.01070448      -0.21512120 </v>
   <v>       0.12676986      -0.00875425       0.13816722 </v>
   <v>       0.06920285       0.06586706       0.18764686 </v>
   <v>      -0.09467801       0.04775522      -0.06176796 </v>
   <v>       0.06250608       0.04619222       0.04167917 </v>
   <v>       0.06262086       0.06861666      -0.16793134 </v>
   <v>       0.10068515      -0.00103703      -0.15306301 </v>
   <v>      -0.10080438      -0.00494577       0.03196994 </v>
   <v>      -0.09841607       0.05370942       0.03349858 </v>
   <v>       0.11543661       0.05348630      -0.10853372 </v>
   <v>      -0.07315655      -0.10299789       0.11303492 </v>
   <v>       0.00712067      -0.09988315       0.11341970 </v>
   <v>      -0.10466644       0.07564449       0.02936256 </v>
   <v>      -0.03414105       0.08000908       0.15296693 </v>
   <v>       0.05438681      -0.07956165       0.15613499 </v>
   <v>      -0.05221692      -0.07895791      -0.23028234 </v>
   <v>       0.04543399      -0.06545845      -0.04759635 </v>
   <v>      -0.00826495      -0.04444113      -0.03787178 </v>
  </varray>
  <varray name="stress" >
   <v>     -20.00229820      -0.00190064       0.04153099 </v>
   <v>      -0.00190056     -19.59659710       0.03190765 </v>
   <v>       0.04153096       0.03190774      -1.80518174 </v>
  </varray>
  <energy>
   <i name="e_fr_energy">   -188.66765769 </i>
   <i name="e_wo_entrp">   -188.52785887 </i>
   <i name="e_0_energy">     -0.27959764 </i>
  </energy>
  <time name="totalsc">  403.21  404.49</time>
 </calculation>
 <calculation>
  <scstep>
   <time name="dav">   24.00   24.06</time>
   <time name="total">   24.53   24.59</time>
   <energy>
    <i name="alphaZ">     82.34562590 </i>
    <i name="ewald">  41302.72821827 </i>
    <i name="hartreedc"> -47301.69765034 </i>
    <i name="XCdc">   -233.85015314 </i>
    <i name="pawpsdc">   3950.51905883 </i>
    <i name="pawaedc">  -3365.03236784 </i>
    <i name="eentropy">     -0.23304469 </i>
    <i name="bandstr">  -1386.80667301 </i>
    <i name="atom">   6761.44252427 </i>
    <i name="e_fr_energy">   -190.58446173 </i>
    <i name="e_wo_entrp">   -190.35141705 </i>
    <i name="e_0_energy">   -190.46793939 </i>
   </energy>
  </scstep>
  <scstep>
   <time name="dav">   27.62   27.68</time>
   <time name="total">   28.14   28.21</time>
   <energy>
    <i name="e_fr_energy">   -190.56449674 </i>
    <i name="e_wo_entrp">   -190.33638732 </i>
    <i name="e_0_energy">   -190.45044203 </i>
   </energy>
  </scstep>
  <scstep>
   <time name="dav">   30.23   30.30</time>
   <time name="total">   30.75   30.84</time>
   <energy>
    <i name="e_fr_energy">   -190.05978923 </i>
    <i name="e_wo_entrp">   -189.81114628 </i>
    <i name="e_0_energy">   -189.93546776 </i>
   </energy>
  </scstep>
  <scstep>
   <time name="dav">   30.94   31.02</time>
   <time name="total">   31.48   31.56</time>
   <energy>
    <i name="e_fr_energy">   -189.85405265 </i>
    <i name="e_wo_entrp">   -189.62526617 </i>
    <i name="e_0_energy">   -189.73965941 </i>
   </energy>
  </scstep>
  <scstep>
   <time name="dav">   27.75   27.81</time>
   <time name="total">   28.28   28.35</time>
   <energy>
    <i name="e_fr_energy">   -189.78770236 </i>
    <i name="e_wo_entrp">   -189.54548589 </i>
    <i name="e_0_energy">   -189.66659413 </i>
   </energy>
  </scstep>
  <scstep>
   <time name="dav">   30.96   31.04</time>
   <time name="total">   31.49   31.58</time>
   <energy>
    <i name="e_fr_energy">   -189.75822380 </i>
    <i name="e_wo_entrp">   -189.52570444 </i>
    <i name="e_0_energy">   -189.64196412 </i>
   </energy>
  </scstep>
  <scstep>
   <time name="dav">   30.84   30.92</time>
   <time name="total">   31.37   31.45</time>
   <energy>
    <i name="e_fr_energy">   -189.75037041 </i>
    <i name="e_wo_entrp">   -189.51547510 </i>
    <i name="e_0_energy">   -189.63292276 </i>
   </energy>
  </scstep>
  <scstep>
   <time name="dav">   27.80   27.87</time>
   <time name="total">   28.33   28.40</time>
   <energy>
    <i name="e_fr_energy">   -189.75035952 </i>
    <i name="e_wo_entrp">   -189.51579328 </i>
    <i name="e_0_energy">   -189.63307640 </i>
   </energy>
  </scstep>
  <scstep>
   <time name="dav">   26.76   26.83</time>
   <time name="total">   27.29   27.36</time>
   <energy>
    <i name="e_fr_energy">   -189.75095344 </i>
    <i name="e_wo_entrp">   -189.51609709 </i>
    <i name="e_0_energy">   -189.63352527 </i>
   </energy>
  </scstep>
  <scstep>
   <time name="dav">   26.68   26.75</time>
   <time name="total">   27.21   27.29</time>
   <energy>
    <i name="e_fr_energy">   -189.75081509 </i>
    <i name="e_wo_entrp">   -189.51589779 </i>
    <i name="e_0_energy">   -189.63335644 </i>
   </energy>
  </scstep>
  <scstep>
   <time name="dav">   24.24   24.30</time>
   <time name="total">   24.77   24.84</time>
   <energy>
    <i name="e_fr_energy">   -189.75049359 </i>
    <i name="e_wo_entrp">   -189.51562843 </i>
    <i name="e_0_energy">   -189.63306101 </i>
   </energy>
  </scstep>
  <scstep>
   <time name="dav">   17.93   17.98</time>
   <time name="total">   17.97   18.02</time>
   <energy>
    <i name="alphaZ">     82.34562590 </i>
    <i name="ewald">  41302.72821827 </i>
    <i name="hartreedc"> -47274.97618884 </i>
    <i name="XCdc">   -235.24530124 </i>
    <i name="pawpsdc">   4038.48400772 </i>
    <i name="pawaedc">  -3454.18739979 </i>
    <i name="eentropy">     -0.23484703 </i>
    <i name="bandstr">  -1410.10714849 </i>
    <i name="atom">   6761.44252427 </i>
    <i name="e_fr_energy">   -189.75050922 </i>
    <i name="e_wo_entrp">   -189.51566219 </i>
    <i name="e_0_energy">   -189.63308571 </i>
   </energy>
  </scstep>
  <structure>
   <crystal>
    <varray name="basis" >
     <v>       8.66547046       4.99744642       0.00000000 </v>
     <v>      -8.66802682       5.00184665       0.00000000 </v>
     <v>       0.00000000       0.00000000      30.00000000 </v>
    </varray>
    <i name="volume">   2599.84061808 </i>
    <varray name="rec_basis" >
     <v>       0.05771715       0.10002183       0.00000000 </v>
     <v>      -0.05766638       0.09999233       0.00000000 </v>
     <v>       0.00000000       0.00000000       0.03333333 </v>
    </varray>
   </crystal>
   <varray name="positions" >
    <v>       0.66712034       0.66843789       0.00021000 </v>
    <v>       1.00010825       0.33072152      -0.00017994 </v>
    <v>      -0.00036382       0.66771125       0.00003253 </v>
    <v>      -0.00017366       0.00175842       0.00003067 </v>
    <v>       0.33162912       0.33112494      -0.00012998 </v>
    <v>       0.66826838      -0.00009864       0.00008918 </v>
    <v>       0.33334999       0.00238329      -0.00003436 </v>
    <v>       0.33483105       0.66605845      -0.00014009 </v>
    <v>       0.66514062       0.33183135       0.00010736 </v>
    <v>       0.10850898       0.22473939       0.95180309 </v>
    <v>       0.22266537       0.11031358       0.04934271 </v>
    <v>       0.10768617       0.55391701       0.95324204 </v>
    <v>       0.21807402       0.44333227       0.04799996 </v>
    <v>       0.10999614       0.88482919       0.95198632 </v>
    <v>       0.21868339       0.77608026       0.04796624 </v>
    <v>       0.44475712       0.22155909       0.95056683 </v>
    <v>       0.55490054       0.11137641       0.04931078 </v>
    <v>       0.44828010       0.55823739       0.95195205 </v>
    <v>       0.55844501       0.44850774       0.04797713 </v>
    <v>       0.44322034       0.88825922       0.95088418 </v>
    <v>       0.55688015       0.77461395       0.04815323 </v>
    <v>       0.78193058       0.22515457       0.95193717 </v>
    <v>       0.89101905       0.11557317       0.04819082 </v>
    <v>       0.77911743       0.55876466       0.95322190 </v>
    <v>       0.89205428       0.44577014       0.04670489 </v>
    <v>       0.77548450       0.88416852       0.95191402 </v>
    <v>       0.88660103       0.77308941       0.04686117 </v>
   </varray>
  </structure>
  <varray name="forces" >
   <v>      -0.26578422       0.13999035       0.01164728 </v>
   <v>       0.34305509      -0.18194987      -0.00295638 </v>
   <v>      -0.11441411       0.10793119       0.01101352 </v>
   <v>      -0.19439233       0.27559180      -0.00996981 </v>
   <v>       0.27443317      -0.37333076       0.04898042 </v>
   <v>       0.09646376      -0.00421460      -0.05230530 </v>
   <v>      -0.31751483       0.37294043      -0.00054117 </v>
   <v>       0.19974140       0.20295193      -0.06847289 </v>
   <v>      -0.02130805      -0.54129672       0.08350591 </v>
   <v>      -0.14647143      -0.01186845      -0.72604780 </v>
   <v>       0.03859339      -0.02038067       0.70197830 </v>
   <v>      -0.01074103      -0.06748563      -0.25978622 </v>
   <v>      -0.08964411      -0.07604344       0.42264422 </v>
   <v>       0.04959960      -0.08200172      -0.44790993 </v>
   <v>      -0.00463915      -0.04559178       0.31647888 </v>
   <v>       0.02092473       0.00572381      -0.73916876 </v>
   <v>      -0.01548889      -0.01812554       0.59754238 </v>
   <v>       0.04488393       0.10907809      -0.45767371 </v>
   <v>      -0.01225791       0.10914608       0.38159336 </v>
   <v>      -0.04569735      -0.03920583      -0.42463120 </v>
   <v>       0.11644313      -0.02739377       0.62976837 </v>
   <v>       0.00569012       0.13498390      -0.46765226 </v>
   <v>      -0.07381638       0.14555021       0.65024539 </v>
   <v>      -0.02081537       0.04426128      -0.28363076 </v>
   <v>       0.02891915       0.05499025       0.21057944 </v>
   <v>       0.09319921      -0.12110257      -0.53247077 </v>
   <v>       0.02103849      -0.09314798       0.40723950 </v>
  </varray>
  <varray name="stress" >
   <v>     -10.17241730       0.02539248       0.01118163 </v>
   <v>       0.02539254      -9.86334177       0.05185744 </v>
   <v>       0.01118161       0.05185735       6.50558235 </v>
  </varray>
  <energy>
   <i name="e_fr_energy">   -189.75050922 </i>
   <i name="e_wo_entrp">   -189.63308571 </i>
   <i name="e_0_energy">     -0.23484703 </i>
  </energy>
  <time name="totalsc">  374.00  375.00</time>
 </calculation>
 <calculation>
  <scstep>
   <time name="dav">   21.86   21.91</time>
   <time name="total">   22.38   22.43</time>
   <energy>
    <i name="alphaZ">     85.80605828 </i>
    <i name="ewald">  42825.07562800 </i>
    <i name="hartreedc"> -48841.68936729 </i>
    <i name="XCdc">   -232.97398528 </i>
    <i name="pawpsdc">   4038.63175142 </i>
    <i name="pawaedc">  -3454.33296574 </i>
    <i name="eentropy">     -0.19149613 </i>
    <i name="bandstr">  -1373.05556783 </i>
    <i name="atom">   6761.44252427 </i>
    <i name="e_fr_energy">   -191.28742029 </i>
    <i name="e_wo_entrp">   -191.09592416 </i>
    <i name="e_0_energy">   -191.19167223 </i>
   </energy>
  </scstep>
  <scstep>
   <time name="dav">   32.60   32.68</time>
   <time name="total">   33.11   33.20</time>
   <energy>
    <i name="e_fr_energy">   -191.17932778 </i>
    <i name="e_wo_entrp">   -190.98068630 </i>
    <i name="e_0_energy">   -191.08000704 </i>
   </energy>
  </scstep>
  <scstep>
   <time name="dav">   29.02   29.09</time>
   <time name="total">   29.53   29.61</time>
   <energy>
    <i name="e_fr_energy">   -191.22789941 </i>
    <i name="e_wo_entrp">   -191.01653305 </i>
    <i name="e_0_energy">   -191.12221623 </i>
   </energy>
  </scstep>
  <scstep>
   <time name="dav">   30.71   30.78</time>
   <time name="total">   31.22   31.30</time>
   <energy>
    <i name="e_fr_energy">   -190.90413903 </i>
    <i name="e_wo_entrp">   -190.69441248 </i>
    <i name="e_0_energy">   -190.79927575 </i>
   </energy>
  </scstep>
  <scstep>
   <time name="dav">   28.01   28.08</time>
   <time name="total">   28.53   28.61</time>
   <energy>
    <i name="e_fr_energy">   -190.89096763 </i>
    <i name="e_wo_entrp">   -190.70518870 </i>
    <i name="e_0_energy">   -190.79807817 </i>
   </energy>
  </scstep>
  <scstep>
   <time name="dav">   28.15   28.22</time>
   <time name="total">   28.66   28.74</time>
   <energy>
    <i name="e_fr_energy">   -190.70876586 </i>
    <i name="e_wo_entrp">   -190.51105613 </i>
    <i name="e_0_energy">   -190.60991100 </i>
   </energy>
  </scstep>
  <scstep>
   <time name="dav">   28.40   28.47</time>
   <time name="total">   28.92   28.99</time>
   <energy>
    <i name="e_fr_energy">   -190.70714849 </i>
    <i name="e_wo_entrp">   -190.51057732 </i>
    <i name="e_0_energy">   -190.60886291 </i>
   </energy>
  </scstep>
  <scstep>
   <time name="dav">   26.00   26.06</time>
   <time name="total">   26.51   26.58</time>
   <energy>
    <i name="e_fr_energy">   -190.70375548 </i>
    <i name="e_wo_entrp">   -190.50660333 </i>
    <i name="e_0_energy">   -190.60517940 </i>
   </energy>
  </scstep>
  <scstep>
   <time name="dav">   30.48   30.55</time>
   <time name="total">   31.00   31.08</time>
   <energy>
    <i name="e_fr_energy">   -190.70438868 </i>
    <i name="e_wo_entrp">   -190.50727642 </i>
    <i name="e_0_energy">   -190.60583255 </i>
   </energy>
  </scstep>
  <scstep>
   <time name="dav">   27.26   27.33</time>
   <time name="total">   27.77   27.85</time>
   <energy>
    <i name="e_fr_energy">   -190.70410259 </i>
    <i name="e_wo_entrp">   -190.50699794 </i>
    <i name="e_0_energy">   -190.60555026 </i>
   </energy>
  </scstep>
  <scstep>
   <time name="dav">   26.04   26.10</time>
   <time name="total">   26.55   26.62</time>
   <energy>
    <i name="e_fr_energy">   -190.70395936 </i>
    <i name="e_wo_entrp">   -190.50686475 </i>
    <i name="e_0_energy">   -190.60541206 </i>
   </energy>
  </scstep>
  <scstep>
   <time name="dav">   20.14   20.19</time>
   <time name="total">   20.17   20.23</time>
   <energy>
    <i name="alphaZ">     85.80605828 </i>
    <i name="ewald">  42825.07562800 </i>
    <i name="hartreedc"> -48813.21480130 </i>
    <i name="XCdc">   -234.30523500 </i>
    <i name="pawpsdc">   4062.81766605 </i>
    <i name="pawaedc">  -3478.68479545 </i>
    <i name="eentropy">     -0.19717651 </i>
    <i name="bandstr">  -1399.44383545 </i>
    <i name="atom">   6761.44252427 </i>
    <i name="e_fr_energy">   -190.70396710 </i>
    <i name="e_wo_entrp">   -190.50679059 </i>
    <i name="e_0_energy">   -190.60537885 </i>
   </energy>
  </scstep>
  <structure>
   <crystal>
    <varray name="basis" >
     <v>       8.48551261       4.89919460       0.00000000 </v>
     <v>      -8.48664971       4.90113942       0.00000000 </v>
     <v>       0.00000000       0.00000000      30.00000000 </v>
    </varray>
    <i name="volume">   2494.99286212 </i>
    <varray name="rec_basis" >
     <v>       0.05893170       0.10204418       0.00000000 </v>
     <v>      -0.05890832       0.10203050       0.00000000 </v>
     <v>       0.00000000       0.00000000       0.03333333 </v>
    </varray>
   </crystal>
   <varray name="positions" >
    <v>       0.66692815       0.67029370       0.00021010 </v>
    <v>       1.00023599       0.32836417      -0.00016357 </v>
    <v>       0.00000034       0.66883407       0.00005117 </v>
    <v>       0.00099588       0.00424572       0.00000379 </v>
    <v>       0.33033222       0.32766285      -0.00001680 </v>
    <v>       0.66840134      -0.00054919      -0.00002688 </v>
    <v>       0.33467406       0.00598766      -0.00003429 </v>
    <v>       0.33688356       0.66674972      -0.00026457 </v>
    <v>       0.66143082       0.32831622       0.00026673 </v>
    <v>       0.10780810       0.22528550       0.94986937 </v>
    <v>       0.22252146       0.11014469       0.05127156 </v>
    <v>       0.10677808       0.55331640       0.95232567 </v>
    <v>       0.21697361       0.44286443       0.04928423 </v>
    <v>       0.10932428       0.88383680       0.95064544 </v>
    <v>       0.21800018       0.77562400       0.04903112 </v>
    <v>       0.44477062       0.22165083       0.94854223 </v>
    <v>       0.55482109       0.11116356       0.05102530 </v>
    <v>       0.44946823       0.55868959       0.95058966 </v>
    <v>       0.55903846       0.44955639       0.04918142 </v>
    <v>       0.44300871       0.88829841       0.94955063 </v>
    <v>       0.55746695       0.77404639       0.04989259 </v>
    <v>       0.78310179       0.22596727       0.95054921 </v>
    <v>       0.89176915       0.11696958       0.04995633 </v>
    <v>       0.77951960       0.55953298       0.95226276 </v>
    <v>       0.89295304       0.44622686       0.04751401 </v>
    <v>       0.77499354       0.88286809       0.95040241 </v>
    <v>       0.88601518       0.77226776       0.04808027 </v>
   </varray>
  </structure>
  <varray name="forces" >
   <v>      -0.30546166       0.18444923      -0.04331621 </v>
   <v>       0.30548851      -0.14382517       0.04971124 </v>
   <v>      -0.08637605       0.09858724       0.00447311 </v>
   <v>      -0.14754330       0.28672405      -0.01586710 </v>
   <v>       0.36575206      -0.41078585       0.02392358 </v>
   <v>       0.08503668      -0.04928650      -0.02904155 </v>
   <v>      -0.35179035       0.41158523       0.00640477 </v>
   <v>       0.16790490       0.21498199      -0.01838644 </v>
   <v>      -0.04730191      -0.56392672       0.02397645 </v>
   <v>      -0.02931142       0.00007400      -0.55317442 </v>
   <v>      -0.02288158      -0.05198202       0.54746390 </v>
   <v>       0.02983975      -0.02873744      -0.18344769 </v>
   <v>       0.00830656      -0.02513847       0.22470016 </v>
   <v>      -0.02979812       0.01268864      -0.29630491 </v>
   <v>      -0.00789718       0.03804108       0.17107777 </v>
   <v>      -0.03474744       0.00173409      -0.60184133 </v>
   <v>       0.04499716      -0.05146278       0.45571541 </v>
   <v>       0.08732536       0.00230708      -0.26324456 </v>
   <v>      -0.02485691       0.00047487       0.24238940 </v>
   <v>      -0.04182498       0.01373505      -0.26351894 </v>
   <v>       0.05173440       0.03316689       0.47015909 </v>
   <v>       0.00515011       0.03417317      -0.30186634 </v>
   <v>      -0.02675070       0.04456416       0.44159324 </v>
   <v>      -0.00474834      -0.03433968      -0.14061507 </v>
   <v>       0.01332878      -0.03763159       0.09372165 </v>
   <v>       0.05024978       0.00488157      -0.36914194 </v>
   <v>      -0.05382412       0.01494788       0.32445673 </v>
  </varray>
  <varray name="stress" >
   <v>      -5.87115802      -0.10226049      -0.04488011 </v>
   <v>      -0.10226037      -5.84058014      -0.04593958 </v>
   <v>      -0.04487993      -0.04593959       4.50623418 </v>
  </varray>
  <energy>
   <i name="e_fr_energy">   -190.70396710 </i>
   <i name="e_wo_entrp">   -190.60537885 </i>
   <i name="e_0_energy">     -0.19717651 </i>
  </energy>
  <time name="totalsc">  376.77  377.77</time>
 </calculation>
 <calculation>
  <scstep>
   <time name="dav">   21.88   21.93</time>
   <time name="total">   22.39   22.44</time>
   <energy>
    <i name="alphaZ">     90.30400557 </i>
    <i name="ewald">  44721.74932649 </i>
    <i name="hartreedc"> -50766.88475430 </i>
    <i name="XCdc">   -231.74887376 </i>
    <i name="pawpsdc">   4062.79242597 </i>
    <i name="pawaedc">  -3478.65540629 </i>
    <i name="eentropy">     -0.17797068 </i>
    <i name="bandstr">  -1350.94611184 </i>
    <i name="atom">   6761.44252427 </i>
    <i name="e_fr_energy">   -192.12483458 </i>
    <i name="e_wo_entrp">   -191.94686390 </i>
    <i name="e_0_energy">   -192.03584924 </i>
   </energy>
  </scstep>
  <scstep>
   <time name="dav">   29.99   30.06</time>
   <time name="total">   30.49   30.57</time>
   <energy>
    <i name="e_fr_energy">   -191.96824985 </i>
    <i name="e_wo_entrp">   -191.76864891 </i>
    <i name="e_0_energy">   -191.86844938 </i>
   </energy>
  </scstep>
  <scstep>
   <time name="dav">   30.14   30.22</time>
   <time name="total">   30.64   30.72</time>
   <energy>
    <i name="e_fr_energy">   -192.42464156 </i>
    <i name="e_wo_entrp">   -192.23332961 </i>
    <i name="e_0_energy">   -192.32898559 </i>
   </energy>
  </scstep>
  <scstep>
   <time name="dav">   30.25   30.32</time>
   <time name="total">   30.75   30.84</time>
   <energy>
    <i name="e_fr_energy">   -191.54565871 </i>
    <i name="e_wo_entrp">   -191.36508839 </i>
    <i name="e_0_energy">   -191.45537355 </i>
   </energy>
  </scstep>
  <scstep>
   <time name="dav">   29.33   29.40</time>
   <time name="total">   29.84   29.92</time>
   <energy>
    <i name="e_fr_energy">   -191.51776987 </i>
    <i name="e_wo_entrp">   -191.32000958 </i>
    <i name="e_0_energy">   -191.41888973 </i>
   </energy>
  </scstep>
  <scstep>
   <time name="dav">   30.01   30.08</time>
   <time name="total">   30.51   30.60</time>
   <energy>
    <i name="e_fr_energy">   -191.37563922 </i>
    <i name="e_wo_entrp">   -191.19266629 </i>
    <i name="e_0_energy">   -191.28415276 </i>
   </energy>
  </scstep>
  <scstep>
   <time name="dav">   29.55   29.62</time>
   <time name="total">   30.06   30.14</time>
   <energy>
    <i name="e_fr_energy">   -191.35049885 </i>
    <i name="e_wo_entrp">   -191.16494465 </i>
    <i name="e_0_energy">   -191.25772175 </i>
   </energy>
  </scstep>
  <scstep>
   <time name="dav">   29.79   29.87</time>
   <time name="total">   30.29   30.37</time>
   <energy>
    <i name="e_fr_energy">   -191.34905244 </i>
    <i name="e_wo_entrp">   -191.16176250 </i>
    <i name="e_0_energy">   -191.25540747 </i>
   </energy>
  </scstep>
  <scstep>
   <time name="dav">   28.59   28.66</time>
   <time name="total">   29.09   29.17</time>
   <energy>
    <i name="e_fr_energy">   -191.34335035 </i>
    <i name="e_wo_entrp">   -191.15697283 </i>
    <i name="e_0_energy">   -191.25016159 </i>
   </energy>
  </scstep>
  <scstep>
   <time name="dav">   28.90   28.97</time>
   <time name="total">   29.40   29.48</time>
   <energy>
    <i name="e_fr_energy">   -191.34347323 </i>
    <i name="e_wo_entrp">   -191.15677222 </i>
    <i name="e_0_energy">   -191.25012273 </i>
   </energy>
  </scstep>
  <scstep>
   <time name="dav">   27.23   27.29</time>
   <time name="total">   27.73   27.81</time>
   <energy>
    <i name="e_fr_energy">   -191.34334534 </i>
    <i name="e_wo_entrp">   -191.15633395 </i>
    <i name="e_0_energy">   -191.24983965 </i>
   </energy>
  </scstep>
  <scstep>
   <time name="dav">   19.86   19.91</time>
   <time name="total">   19.90   19.95</time>
   <energy>
    <i name="alphaZ">     90.30400557 </i>
    <i name="ewald">  44721.74932649 </i>
    <i name="hartreedc"> -50731.68828023 </i>
    <i name="XCdc">   -233.33977655 </i>
    <i name="pawpsdc">   4084.92567448 </i>
    <i name="pawaedc">  -3500.86768276 </i>
    <i name="eentropy">     -0.18688850 </i>
    <i name="bandstr">  -1383.68220923 </i>
    <i name="atom">   6761.44252427 </i>
    <i name="e_fr_energy">   -191.34330646 </i>
    <i name="e_wo_entrp">   -191.15641796 </i>
    <i name="e_0_energy">   -191.24986221 </i>
   </energy>
  </scstep>
  <structure>
   <crystal>
    <varray name="basis" >
     <v>       8.26776713       4.77154669       0.00000000 </v>
     <v>      -8.27426934       4.78278276       0.00000000 </v>
     <v>       0.00000000       0.00000000      30.00000000 </v>
    </varray>
    <i name="volume">   2370.71989880 </i>
    <varray name="rec_basis" >
     <v>       0.06052317       0.10470578       0.00000000 </v>
     <v>      -0.06038098       0.10462350       0.00000000 </v>
     <v>       0.00000000       0.00000000       0.03333333 </v>
    </varray>
   </crystal>
   <varray name="positions" >
    <v>       0.66686208       0.67473066       0.00003449 </v>
    <v>       1.00064968       0.32426599       0.00003767 </v>
    <v>       0.00072223       0.67078254       0.00006811 </v>
    <v>       0.00363584       0.00901408      -0.00006537 </v>
    <v>       0.32785914       0.31984968       0.00010914 </v>
    <v>       0.66826104      -0.00180893      -0.00016796 </v>
    <v>       0.33742198       0.01375137      -0.00001049 </v>
    <v>       0.34088293       0.66834966      -0.00034688 </v>
    <v>       0.65378038       0.32134861       0.00038167 </v>
    <v>       0.10734258       0.22570468       0.94699261 </v>
    <v>       0.22163164       0.10976895       0.05416871 </v>
    <v>       0.10599030       0.55245259       0.95107817 </v>
    <v>       0.21617255       0.44211969       0.05080492 </v>
    <v>       0.10877810       0.88360984       0.94885224 </v>
    <v>       0.21782238       0.77578622       0.05030369 </v>
    <v>       0.44448518       0.22203371       0.94540952 </v>
    <v>       0.55460652       0.11012263       0.05354219 </v>
    <v>       0.45068375       0.55822962       0.94890644 </v>
    <v>       0.55900925       0.45030270       0.05074794 </v>
    <v>       0.44302162       0.88883013       0.94783729 </v>
    <v>       0.55862359       0.77394832       0.05242820 </v>
    <v>       0.78410908       0.22651806       0.94871791 </v>
    <v>       0.89238854       0.11820630       0.05238271 </v>
    <v>       0.77941387       0.55978715       0.95116150 </v>
    <v>       0.89329240       0.44606231       0.04841029 </v>
    <v>       0.77516137       0.88205831       0.94830979 </v>
    <v>       0.88560642       0.77238959       0.04990543 </v>
   </varray>
  </structure>
  <varray name="forces" >
   <v>      -0.26645589       0.32542579      -0.00810608 </v>
   <v>       0.18423476      -0.08046272      -0.01238781 </v>
   <v>      -0.06300688       0.05982314       0.00472515 </v>
   <v>      -0.00624935       0.09415570       0.02495074 </v>
   <v>       0.23985759      -0.23390107      -0.05964270 </v>
   <v>       0.06608543      -0.09369686       0.02926405 </v>
   <v>      -0.18732126       0.16183130       0.08746703 </v>
   <v>       0.03813645       0.20106229      -0.01683640 </v>
   <v>      -0.03872185      -0.32926881      -0.02142975 </v>
   <v>       0.07860669       0.02680288      -0.14636669 </v>
   <v>      -0.01245921      -0.09832497       0.23549922 </v>
   <v>       0.08320827       0.03186273       0.07057835 </v>
   <v>       0.15801458       0.05462824      -0.07421838 </v>
   <v>      -0.07746840       0.15927184      -0.02456845 </v>
   <v>      -0.00902670       0.18018754      -0.07647474 </v>
   <v>      -0.07631956      -0.02359998      -0.34047177 </v>
   <v>       0.07213019      -0.10428339       0.16964821 </v>
   <v>       0.09555664      -0.11848632       0.08889650 </v>
   <v>       0.00409530      -0.13320059      -0.09214988 </v>
   <v>      -0.10716134       0.03903270       0.01422807 </v>
   <v>      -0.01459806       0.07598378       0.14997674 </v>
   <v>      -0.02931334      -0.07616571       0.00767490 </v>
   <v>       0.02628686      -0.05150253       0.08611654 </v>
   <v>      -0.00293548      -0.12935782       0.11809845 </v>
   <v>      -0.01446531      -0.17910184      -0.13382402 </v>
   <v>      -0.02721538       0.14895793      -0.11117177 </v>
   <v>      -0.11349480       0.09232674       0.03052451 </v>
  </varray>
  <varray name="stress" >
   <v>      -0.22303853      -0.22202171       0.17969609 </v>
   <v>      -0.22202188       0.16304356      -0.24844348 </v>
   <v>       0.17969578      -0.24844358      -0.48472345 </v>
  </varray>
  <energy>
   <i name="e_fr_energy">   -191.34330646 </i>
   <i name="e_wo_entrp">   -191.24986221 </i>
   <i name="e_0_energy">     -0.18688850 </i>
  </energy>
  <time name="totalsc">  383.42  384.44</time>
 </calculation>
 <calculation>
  <scstep>
   <time name="dav">   21.90   21.95</time>
   <time name="total">   22.41   22.46</time>
   <energy>
    <i name="alphaZ">     90.35823304 </i>
    <i name="ewald">  44722.64148747 </i>
    <i name="hartreedc"> -50734.01482288 </i>
    <i name="XCdc">   -233.39844752 </i>
    <i name="pawpsdc">   4084.80716665 </i>
    <i name="pawaedc">  -3500.74465969 </i>
    <i name="eentropy">     -0.18973839 </i>
    <i name="bandstr">  -1382.29709388 </i>
    <i name="atom">   6761.44252427 </i>
    <i name="e_fr_energy">   -191.39535092 </i>
    <i name="e_wo_entrp">   -191.20561253 </i>
    <i name="e_0_energy">   -191.30048172 </i>
   </energy>
  </scstep>
  <scstep>
   <time name="dav">   30.53   30.60</time>
   <time name="total">   31.03   31.11</time>
   <energy>
    <i name="e_fr_energy">   -191.45654322 </i>
    <i name="e_wo_entrp">   -191.25424427 </i>
    <i name="e_0_energy">   -191.35539375 </i>
   </energy>
  </scstep>
  <scstep>
   <time name="dav">   29.47   29.54</time>
   <time name="total">   29.97   30.05</time>
   <energy>
    <i name="e_fr_energy">   -191.40653289 </i>
    <i name="e_wo_entrp">   -191.21635041 </i>
    <i name="e_0_energy">   -191.31144165 </i>
   </energy>
  </scstep>
  <scstep>
   <time name="dav">   28.42   28.49</time>
   <time name="total">   28.92   29.00</time>
   <energy>
    <i name="e_fr_energy">   -191.40677014 </i>
    <i name="e_wo_entrp">   -191.21507599 </i>
    <i name="e_0_energy">   -191.31092307 </i>
   </energy>
  </scstep>
  <scstep>
   <time name="dav">   28.59   28.66</time>
   <time name="total">   29.09   29.17</time>
   <energy>
    <i name="e_fr_energy">   -191.40302455 </i>
    <i name="e_wo_entrp">   -191.21148138 </i>
    <i name="e_0_energy">   -191.30725297 </i>
   </energy>
  </scstep>
  <scstep>
   <time name="dav">   28.46   28.53</time>
   <time name="total">   28.97   29.04</time>
   <energy>
    <i name="e_fr_energy">   -191.40304899 </i>
    <i name="e_wo_entrp">   -191.21120304 </i>
    <i name="e_0_energy">   -191.30712601 </i>
   </energy>
  </scstep>
  <scstep>
   <time name="dav">   29.19   29.26</time>
   <time name="total">   29.69   29.77</time>
   <energy>
    <i name="e_fr_energy">   -191.40306606 </i>
    <i name="e_wo_entrp">   -191.21143353 </i>
    <i name="e_0_energy">   -191.30724979 </i>
   </energy>
  </scstep>
  <scstep>
   <time name="dav">   25.52   25.58</time>
   <time name="total">   26.02   26.09</time>
   <energy>
    <i name="e_fr_energy">   -191.40251246 </i>
    <i name="e_wo_entrp">   -191.21082673 </i>
    <i name="e_0_energy">   -191.30666959 </i>
   </energy>
  </scstep>
  <scstep>
   <time name="dav">   17.63   17.68</time>
   <time name="total">   17.67   17.72</time>
   <energy>
    <i name="alphaZ">     90.35823304 </i>
    <i name="ewald">  44722.64148747 </i>
    <i name="hartreedc"> -50734.53387855 </i>
    <i name="XCdc">   -233.39502969 </i>
    <i name="pawpsdc">   4082.19845830 </i>
    <i name="pawaedc">  -3498.09306856 </i>
    <i name="eentropy">     -0.19168227 </i>
    <i name="bandstr">  -1381.82957010 </i>
    <i name="atom">   6761.44252427 </i>
    <i name="e_fr_energy">   -191.40252608 </i>
    <i name="e_wo_entrp">   -191.21084382 </i>
    <i name="e_0_energy">   -191.30668495 </i>
   </energy>
  </scstep>
  <structure>
   <crystal>
    <varray name="basis" >
     <v>       8.25805280       4.76759511       0.00000000 </v>
     <v>      -8.27035517       4.78888515       0.00000000 </v>
     <v>       0.00000000       0.00000000      30.00000000 </v>
    </varray>
    <i name="volume">   2369.29713810 </i>
    <varray name="rec_basis" >
     <v>       0.06063678       0.10471910       0.00000000 </v>
     <v>      -0.06036721       0.10456332       0.00000000 </v>
     <v>       0.00000000       0.00000000       0.03333333 </v>
    </varray>
   </crystal>
   <varray name="positions" >
    <v>       0.66774604       0.67727057       0.00001861 </v>
    <v>       1.00079035       0.32324052       0.00002017 </v>
    <v>       0.00085477       0.67130867       0.00007612 </v>
    <v>       0.00414344       0.00958940      -0.00002533 </v>
    <v>       0.32733092       0.31781218       0.00001302 </v>
    <v>       0.66797069      -0.00250874      -0.00012203 </v>
    <v>       0.33774004       0.01525942       0.00013385 </v>
    <v>       0.34209559       0.66929928      -0.00037586 </v>
    <v>       0.65184859       0.31965927       0.00034821 </v>
    <v>       0.10770706       0.22561675       0.94670420 </v>
    <v>       0.22107230       0.10929357       0.05460458 </v>
    <v>       0.10638639       0.55235387       0.95117164 </v>
    <v>       0.21691073       0.44191647       0.05071038 </v>
    <v>       0.10935774       0.88465504       0.94878037 </v>
    <v>       0.21871911       0.77674318       0.05020158 </v>
    <v>       0.44413031       0.22214595       0.94479728 </v>
    <v>       0.55428069       0.10935285       0.05386408 </v>
    <v>       0.45037944       0.55732699       0.94902274 </v>
    <v>       0.55833354       0.44961821       0.05062430 </v>
    <v>       0.44290467       0.88935968       0.94782994 </v>
    <v>       0.55899312       0.77438179       0.05271759 </v>
    <v>       0.78364721       0.22622135       0.94869843 </v>
    <v>       0.89221212       0.11788421       0.05256545 </v>
    <v>       0.77873792       0.55913719       0.95133506 </v>
    <v>       0.89233449       0.44518129       0.04820774 </v>
    <v>       0.77585042       0.88289277       0.94809098 </v>
    <v>       0.88573677       0.77320271       0.04998679 </v>
   </varray>
  </structure>
  <varray name="forces" >
   <v>      -0.24429613       0.35016650      -0.02056764 </v>
   <v>       0.18814970      -0.07295333       0.00326390 </v>
   <v>      -0.07004703       0.05521663      -0.02257917 </v>
   <v>      -0.00755001       0.08597552       0.01416082 </v>
   <v>       0.23520106      -0.27593215      -0.01570201 </v>
   <v>       0.07449232      -0.09749635       0.01809565 </v>
   <v>      -0.20307550       0.18270652       0.02516688 </v>
   <v>       0.02946091       0.22179172      -0.03103351 </v>
   <v>      -0.02136794      -0.36428774      -0.01085633 </v>
   <v>       0.05449807      -0.00138281      -0.10164690 </v>
   <v>      -0.01802739      -0.06646762       0.15834304 </v>
   <v>       0.05992166       0.02582013       0.11035985 </v>
   <v>       0.10591701       0.04975378      -0.11917701 </v>
   <v>      -0.03985819       0.10219094       0.00890482 </v>
   <v>      -0.00443142       0.11392632      -0.05644040 </v>
   <v>      -0.02343529      -0.05097336      -0.20754934 </v>
   <v>       0.04476931      -0.06583128       0.09743043 </v>
   <v>       0.07485598      -0.05749047       0.12756435 </v>
   <v>      -0.01516247      -0.07815839      -0.13952987 </v>
   <v>      -0.08054322       0.02246682       0.03989905 </v>
   <v>      -0.00943188       0.05795808       0.12635879 </v>
   <v>      -0.00947679      -0.05875032       0.02823056 </v>
   <v>       0.00586777      -0.02633535       0.04190229 </v>
   <v>      -0.01275492      -0.08527493       0.14550937 </v>
   <v>      -0.01113934      -0.12598118      -0.16194912 </v>
   <v>      -0.02635658       0.10350161      -0.08423856 </v>
   <v>      -0.07617968       0.05584072       0.02608005 </v>
  </varray>
  <varray name="stress" >
   <v>      -0.02134718      -0.04069628       0.02779812 </v>
   <v>      -0.04069617      -0.02979517      -0.09092450 </v>
   <v>       0.02779813      -0.09092450      -1.29232626 </v>
  </varray>
  <energy>
   <i name="e_fr_energy">   -191.40252608 </i>
   <i name="e_wo_entrp">   -191.30668495 </i>
   <i name="e_0_energy">     -0.19168227 </i>
  </energy>
  <time name="totalsc">  286.27  287.03</time>
 </calculation>
 <calculation>
  <scstep>
   <time name="dav">   21.92   21.97</time>
   <time name="total">   22.42   22.47</time>
   <energy>
    <i name="alphaZ">     90.39061561 </i>
    <i name="ewald">  44739.84135079 </i>
    <i name="hartreedc"> -50751.90903695 </i>
    <i name="XCdc">   -233.36621564 </i>
    <i name="pawpsdc">   4082.15970798 </i>
    <i name="pawaedc">  -3498.05346624 </i>
    <i name="eentropy">     -0.19190974 </i>
    <i name="bandstr">  -1381.77811727 </i>
    <i name="atom">   6761.44252427 </i>
    <i name="e_fr_energy">   -191.46454718 </i>
    <i name="e_wo_entrp">   -191.27263744 </i>
    <i name="e_0_energy">   -191.36859231 </i>
   </energy>
  </scstep>
  <scstep>
   <time name="dav">   31.94   32.02</time>
   <time name="total">   32.45   32.53</time>
   <energy>
    <i name="e_fr_energy">   -191.56105717 </i>
    <i name="e_wo_entrp">   -191.34425549 </i>
    <i name="e_0_energy">   -191.45265633 </i>
   </energy>
  </scstep>
  <scstep>
   <time name="dav">   29.78   29.85</time>
   <time name="total">   30.28   30.36</time>
   <energy>
    <i name="e_fr_energy">   -191.47753988 </i>
    <i name="e_wo_entrp">   -191.28444446 </i>
    <i name="e_0_energy">   -191.38099217 </i>
   </energy>
  </scstep>
  <scstep>
   <time name="dav">   28.92   28.99</time>
   <time name="total">   29.42   29.50</time>
   <energy>
    <i name="e_fr_energy">   -191.47707010 </i>
    <i name="e_wo_entrp">   -191.28216372 </i>
    <i name="e_0_energy">   -191.37961691 </i>
   </energy>
  </scstep>
  <scstep>
   <time name="dav">   28.91   28.98</time>
   <time name="total">   29.41   29.49</time>
   <energy>
    <i name="e_fr_energy">   -191.47130029 </i>
    <i name="e_wo_entrp">   -191.27615847 </i>
    <i name="e_0_energy">   -191.37372938 </i>
   </energy>
  </scstep>
  <scstep>
   <time name="dav">   28.57   28.64</time>
   <time name="total">   29.07   29.15</time>
   <energy>
    <i name="e_fr_energy">   -191.47141874 </i>
    <i name="e_wo_entrp">   -191.27567847 </i>
    <i name="e_0_energy">   -191.37354860 </i>
   </energy>
  </scstep>
  <scstep>
   <time name="dav">   28.09   28.16</time>
   <time name="total">   28.59   28.67</time>
   <energy>
    <i name="e_fr_energy">   -191.47085574 </i>
    <i name="e_wo_entrp">   -191.27535120 </i>
    <i name="e_0_energy">   -191.37310347 </i>
   </energy>
  </scstep>
  <scstep>
   <time name="dav">   25.45   25.51</time>
   <time name="total">   25.95   26.02</time>
   <energy>
    <i name="e_fr_energy">   -191.47026921 </i>
    <i name="e_wo_entrp">   -191.27464693 </i>
    <i name="e_0_energy">   -191.37245807 </i>
   </energy>
  </scstep>
  <scstep>
[...]
      <set comment="kpoint 31">
       <r>  -17.5241    1.0000 </r>
       <r>  -17.2636    1.0000 </r>
       <r>  -16.8878    1.0000 </r>
       <r>  -16.6294    1.0000 </r>
       <r>  -16.4854    1.0000 </r>
       <r>  -16.4143    1.0000 </r>
       <r>  -16.3158    1.0000 </r>
       <r>  -16.1912    1.0000 </r>
       <r>  -16.0724    1.0000 </r>
       <r>  -16.0035    1.0000 </r>
       <r>  -15.9211    1.0000 </r>
       <r>  -15.8618    1.0000 </r>
       <r>  -15.7783    1.0000 </r>
       <r>  -15.6938    1.0000 </r>
       <r>  -15.6465    1.0000 </r>
       <r>  -15.5501    1.0000 </r>
       <r>  -15.4684    1.0000 </r>
       <r>  -15.2609    1.0000 </r>
       <r>   -9.7155    1.0000 </r>
       <r>   -9.4530    1.0000 </r>
       <r>   -9.3192    1.0000 </r>
       <r>   -9.0307    1.0000 </r>
       <r>   -8.8781    1.0000 </r>
       <r>   -8.7436    1.0000 </r>
       <r>   -8.5320    1.0000 </r>
       <r>   -8.4176    1.0000 </r>
       <r>   -8.3661    1.0000 </r>
       <r>   -8.3009    1.0000 </r>
       <r>   -8.2847    1.0000 </r>
       <r>   -8.2356    1.0000 </r>
       <r>   -8.1258    1.0000 </r>
       <r>   -8.0830    1.0000 </r>
       <r>   -8.0023    1.0000 </r>
       <r>   -7.9572    1.0000 </r>
       <r>   -7.7984    1.0000 </r>
       <r>   -7.6588    1.0000 </r>
       <r>   -7.5512    1.0000 </r>
       <r>   -7.4088    1.0000 </r>
       <r>   -7.3083    1.0000 </r>
       <r>   -7.2104    1.0000 </r>
       <r>   -7.1387    1.0000 </r>
       <r>   -7.0835    1.0000 </r>
       <r>   -7.0028    1.0000 </r>
       <r>   -6.9677    1.0000 </r>
       <r>   -6.8851    1.0000 </r>
       <r>   -6.7996    1.0000 </r>
       <r>   -6.7174    1.0000 </r>
       <r>   -6.6289    1.0000 </r>
       <r>   -6.5342    1.0000 </r>
       <r>   -6.4661    1.0000 </r>
       <r>   -6.3918    1.0000 </r>
       <r>   -6.3649    1.0000 </r>
       <r>   -6.2491    1.0000 </r>
       <r>   -6.1965    1.0000 </r>
       <r>   -6.1435    1.0000 </r>
       <r>   -6.0734    1.0000 </r>
       <r>   -5.9733    1.0000 </r>
       <r>   -5.9562    1.0000 </r>
       <r>   -5.9121    1.0000 </r>
       <r>   -5.8122    1.0000 </r>
       <r>   -5.7207    1.0000 </r>
       <r>   -5.6235    1.0000 </r>
       <r>   -5.5316    1.0000 </r>
       <r>   -5.4510    1.0000 </r>
       <r>   -5.2693    1.0000 </r>
       <r>   -5.0803    1.0000 </r>
       <r>   -5.0324    1.0000 </r>
       <r>   -4.8737    1.0000 </r>
       <r>   -4.8232    1.0000 </r>
       <r>   -4.7017    1.0000 </r>
       <r>   -4.4420    1.0000 </r>
       <r>   -4.3970    1.0000 </r>
       <r>   -4.3034    1.0000 </r>
       <r>   -4.2527    1.0000 </r>
       <r>   -4.1778    1.0000 </r>
       <r>   -4.1069    1.0000 </r>
       <r>   -3.8791    0.9998 </r>
       <r>   -3.7082    0.9911 </r>
       <r>   -3.5873    0.9351 </r>
       <r>   -3.2966    0.2944 </r>
       <r>   -3.0413    0.0095 </r>
       <r>   -2.8723    0.0002 </r>
       <r>   -2.6887    0.0000 </r>
       <r>   -2.5980    0.0000 </r>
       <r>   -2.5016    0.0000 </r>
       <r>   -2.3720    0.0000 </r>
       <r>   -2.2540    0.0000 </r>
       <r>   -2.1443    0.0000 </r>
       <r>   -2.0279    0.0000 </r>
       <r>   -1.8950    0.0000 </r>
       <r>   -1.7080    0.0000 </r>
       <r>   -1.6057    0.0000 </r>
       <r>   -1.5106    0.0000 </r>
       <r>   -1.4446    0.0000 </r>
       <r>   -1.3083    0.0000 </r>
       <r>   -1.2560    0.0000 </r>
       <r>   -1.1449    0.0000 </r>
       <r>   -1.0733    0.0000 </r>
       <r>   -0.9551    0.0000 </r>
       <r>   -0.8944    0.0000 </r>
       <r>   -0.8382    0.0000 </r>
       <r>   -0.7202    0.0000 </r>
       <r>   -0.5924    0.0000 </r>
       <r>   -0.5730    0.0000 </r>
       <r>   -0.4673    0.0000 </r>
       <r>   -0.3260    0.0000 </r>
       <r>   -0.2751    0.0000 </r>
       <r>   -0.0720    0.0000 </r>
       <r>    0.0572    0.0000 </r>
       <r>    0.2397    0.0000 </r>
       <r>    0.3542    0.0000 </r>
       <r>    0.5478    0.0000 </r>
       <r>    0.6609    0.0000 </r>
       <r>    0.9877    0.0000 </r>
       <r>    1.1053    0.0000 </r>
       <r>    1.1299    0.0000 </r>
       <r>    1.2848    0.0000 </r>
       <r>    2.1201    0.0000 </r>
       <r>    2.2928    0.0000 </r>
       <r>    2.3800    0.0000 </r>
      </set>
      <set comment="kpoint 32">
       <r>  -17.5339    1.0000 </r>
       <r>  -17.1868    1.0000 </r>
       <r>  -17.0103    1.0000 </r>
       <r>  -16.6199    1.0000 </r>
       <r>  -16.4657    1.0000 </r>
       <r>  -16.3453    1.0000 </r>
       <r>  -16.2771    1.0000 </r>
       <r>  -16.2027    1.0000 </r>
       <r>  -16.1491    1.0000 </r>
       <r>  -16.0371    1.0000 </r>
       <r>  -15.9169    1.0000 </r>
       <r>  -15.8601    1.0000 </r>
       <r>  -15.7552    1.0000 </r>
       <r>  -15.6883    1.0000 </r>
       <r>  -15.6432    1.0000 </r>
       <r>  -15.5581    1.0000 </r>
       <r>  -15.4490    1.0000 </r>
       <r>  -15.2664    1.0000 </r>
       <r>   -9.6684    1.0000 </r>
       <r>   -9.5621    1.0000 </r>
       <r>   -9.3926    1.0000 </r>
       <r>   -9.0132    1.0000 </r>
       <r>   -8.7202    1.0000 </r>
       <r>   -8.6212    1.0000 </r>
       <r>   -8.5204    1.0000 </r>
       <r>   -8.4794    1.0000 </r>
       <r>   -8.4097    1.0000 </r>
       <r>   -8.3394    1.0000 </r>
       <r>   -8.2274    1.0000 </r>
       <r>   -8.2110    1.0000 </r>
       <r>   -8.1615    1.0000 </r>
       <r>   -8.1313    1.0000 </r>
       <r>   -8.0574    1.0000 </r>
       <r>   -7.9710    1.0000 </r>
       <r>   -7.8243    1.0000 </r>
       <r>   -7.6041    1.0000 </r>
       <r>   -7.5272    1.0000 </r>
       <r>   -7.3928    1.0000 </r>
       <r>   -7.3464    1.0000 </r>
       <r>   -7.2474    1.0000 </r>
       <r>   -7.2061    1.0000 </r>
       <r>   -7.1167    1.0000 </r>
       <r>   -7.0172    1.0000 </r>
       <r>   -6.9511    1.0000 </r>
       <r>   -6.8738    1.0000 </r>
       <r>   -6.7971    1.0000 </r>
       <r>   -6.6887    1.0000 </r>
       <r>   -6.6416    1.0000 </r>
       <r>   -6.4765    1.0000 </r>
       <r>   -6.4423    1.0000 </r>
       <r>   -6.4006    1.0000 </r>
       <r>   -6.3284    1.0000 </r>
       <r>   -6.2612    1.0000 </r>
       <r>   -6.2102    1.0000 </r>
       <r>   -6.1346    1.0000 </r>
       <r>   -6.0155    1.0000 </r>
       <r>   -6.0014    1.0000 </r>
       <r>   -5.9166    1.0000 </r>
       <r>   -5.8506    1.0000 </r>
       <r>   -5.7503    1.0000 </r>
       <r>   -5.6871    1.0000 </r>
       <r>   -5.5731    1.0000 </r>
       <r>   -5.5005    1.0000 </r>
       <r>   -5.4679    1.0000 </r>
       <r>   -5.3302    1.0000 </r>
       <r>   -5.1788    1.0000 </r>
       <r>   -5.1293    1.0000 </r>
       <r>   -4.9487    1.0000 </r>
       <r>   -4.8446    1.0000 </r>
       <r>   -4.6615    1.0000 </r>
       <r>   -4.5245    1.0000 </r>
       <r>   -4.4327    1.0000 </r>
       <r>   -4.2920    1.0000 </r>
       <r>   -4.2408    1.0000 </r>
       <r>   -4.1270    1.0000 </r>
       <r>   -4.0030    1.0000 </r>
       <r>   -3.8489    0.9996 </r>
       <r>   -3.6960    0.9888 </r>
       <r>   -3.5834    0.9316 </r>
       <r>   -3.2517    0.1955 </r>
       <r>   -3.0898    0.0226 </r>
       <r>   -2.8699    0.0002 </r>
       <r>   -2.7466    0.0000 </r>
       <r>   -2.6053    0.0000 </r>
       <r>   -2.5608    0.0000 </r>
       <r>   -2.4420    0.0000 </r>
       <r>   -2.2992    0.0000 </r>
       <r>   -2.1547    0.0000 </r>
       <r>   -2.0059    0.0000 </r>
       <r>   -1.8950    0.0000 </r>
       <r>   -1.6835    0.0000 </r>
       <r>   -1.5847    0.0000 </r>
       <r>   -1.4934    0.0000 </r>
       <r>   -1.4225    0.0000 </r>
       <r>   -1.2887    0.0000 </r>
       <r>   -1.2536    0.0000 </r>
       <r>   -1.1018    0.0000 </r>
       <r>   -1.0216    0.0000 </r>
       <r>   -0.9600    0.0000 </r>
       <r>   -0.8979    0.0000 </r>
       <r>   -0.8171    0.0000 </r>
       <r>   -0.7001    0.0000 </r>
       <r>   -0.6068    0.0000 </r>
       <r>   -0.5753    0.0000 </r>
       <r>   -0.4754    0.0000 </r>
       <r>   -0.3249    0.0000 </r>
       <r>   -0.2448    0.0000 </r>
       <r>   -0.0605    0.0000 </r>
       <r>    0.0324    0.0000 </r>
       <r>    0.1966    0.0000 </r>
       <r>    0.3378    0.0000 </r>
       <r>    0.5317    0.0000 </r>
       <r>    0.6385    0.0000 </r>
       <r>    0.9966    0.0000 </r>
       <r>    1.1056    0.0000 </r>
       <r>    1.1744    0.0000 </r>
       <r>    1.2581    0.0000 </r>
       <r>    2.0948    0.0000 </r>
       <r>    2.2569    0.0000 </r>
       <r>    2.5586    0.0000 </r>
      </set>
      <set comment="kpoint 33">
       <r>  -17.5168    1.0000 </r>
       <r>  -17.2590    1.0000 </r>
       <r>  -16.9048    1.0000 </r>
       <r>  -16.6084    1.0000 </r>
       <r>  -16.5048    1.0000 </r>
       <r>  -16.4431    1.0000 </r>
       <r>  -16.2760    1.0000 </r>
       <r>  -16.2094    1.0000 </r>
       <r>  -16.1293    1.0000 </r>
       <r>  -16.0390    1.0000 </r>
       <r>  -15.8667    1.0000 </r>
       <r>  -15.8234    1.0000 </r>
       <r>  -15.7351    1.0000 </r>
       <r>  -15.6902    1.0000 </r>
       <r>  -15.6607    1.0000 </r>
       <r>  -15.5598    1.0000 </r>
       <r>  -15.4537    1.0000 </r>
       <r>  -15.2821    1.0000 </r>
       <r>   -9.7591    1.0000 </r>
       <r>   -9.4636    1.0000 </r>
       <r>   -9.3240    1.0000 </r>
       <r>   -9.0098    1.0000 </r>
       <r>   -8.8037    1.0000 </r>
       <r>   -8.7017    1.0000 </r>
       <r>   -8.6122    1.0000 </r>
       <r>   -8.5587    1.0000 </r>
       <r>   -8.4200    1.0000 </r>
       <r>   -8.2964    1.0000 </r>
       <r>   -8.2131    1.0000 </r>
       <r>   -8.1815    1.0000 </r>
       <r>   -8.1048    1.0000 </r>
       <r>   -8.0446    1.0000 </r>
       <r>   -8.0029    1.0000 </r>
       <r>   -7.9296    1.0000 </r>
       <r>   -7.7833    1.0000 </r>
       <r>   -7.6269    1.0000 </r>
       <r>   -7.5501    1.0000 </r>
       <r>   -7.4685    1.0000 </r>
       <r>   -7.4360    1.0000 </r>
       <r>   -7.2917    1.0000 </r>
       <r>   -7.1190    1.0000 </r>
       <r>   -7.0706    1.0000 </r>
       <r>   -6.9869    1.0000 </r>
       <r>   -6.9371    1.0000 </r>
       <r>   -6.8475    1.0000 </r>
       <r>   -6.7744    1.0000 </r>
       <r>   -6.6727    1.0000 </r>
       <r>   -6.6233    1.0000 </r>
       <r>   -6.5274    1.0000 </r>
       <r>   -6.4629    1.0000 </r>
       <r>   -6.4009    1.0000 </r>
       <r>   -6.3156    1.0000 </r>
       <r>   -6.2622    1.0000 </r>
       <r>   -6.1429    1.0000 </r>
       <r>   -6.1124    1.0000 </r>
       <r>   -6.0553    1.0000 </r>
       <r>   -5.9830    1.0000 </r>
       <r>   -5.8977    1.0000 </r>
       <r>   -5.8710    1.0000 </r>
       <r>   -5.7971    1.0000 </r>
       <r>   -5.7236    1.0000 </r>
       <r>   -5.6529    1.0000 </r>
       <r>   -5.5346    1.0000 </r>
       <r>   -5.4393    1.0000 </r>
       <r>   -5.3785    1.0000 </r>
       <r>   -5.1855    1.0000 </r>
       <r>   -5.0321    1.0000 </r>
       <r>   -4.9253    1.0000 </r>
       <r>   -4.8039    1.0000 </r>
       <r>   -4.7028    1.0000 </r>
       <r>   -4.6132    1.0000 </r>
       <r>   -4.3824    1.0000 </r>
       <r>   -4.3044    1.0000 </r>
       <r>   -4.2510    1.0000 </r>
       <r>   -4.0661    1.0000 </r>
       <r>   -3.9149    0.9999 </r>
       <r>   -3.7868    0.9983 </r>
       <r>   -3.7560    0.9966 </r>
       <r>   -3.5534    0.8989 </r>
       <r>   -3.3811    0.5228 </r>
       <r>   -3.0045    0.0046 </r>
       <r>   -2.8768    0.0002 </r>
       <r>   -2.8344    0.0001 </r>
       <r>   -2.6347    0.0000 </r>
       <r>   -2.5973    0.0000 </r>
       <r>   -2.4953    0.0000 </r>
       <r>   -2.3368    0.0000 </r>
       <r>   -2.1647    0.0000 </r>
       <r>   -1.9831    0.0000 </r>
       <r>   -1.8759    0.0000 </r>
       <r>   -1.6616    0.0000 </r>
       <r>   -1.5730    0.0000 </r>
       <r>   -1.4650    0.0000 </r>
       <r>   -1.3683    0.0000 </r>
       <r>   -1.2869    0.0000 </r>
       <r>   -1.2356    0.0000 </r>
       <r>   -1.1055    0.0000 </r>
       <r>   -1.0208    0.0000 </r>
       <r>   -0.9282    0.0000 </r>
       <r>   -0.8612    0.0000 </r>
       <r>   -0.7827    0.0000 </r>
       <r>   -0.6986    0.0000 </r>
       <r>   -0.6289    0.0000 </r>
       <r>   -0.5528    0.0000 </r>
       <r>   -0.4766    0.0000 </r>
       <r>   -0.3775    0.0000 </r>
       <r>   -0.2806    0.0000 </r>
       <r>   -0.1473    0.0000 </r>
       <r>    0.0399    0.0000 </r>
       <r>    0.1721    0.0000 </r>
       <r>    0.3450    0.0000 </r>
       <r>    0.5834    0.0000 </r>
       <r>    0.6541    0.0000 </r>
       <r>    0.9381    0.0000 </r>
       <r>    1.1655    0.0000 </r>
       <r>    1.2009    0.0000 </r>
       <r>    1.2972    0.0000 </r>
       <r>    2.1326    0.0000 </r>
       <r>    2.2823    0.0000 </r>
       <r>    2.3978    0.0000 </r>
      </set>
      <set comment="kpoint 34">
       <r>  -17.4967    1.0000 </r>
       <r>  -17.3148    1.0000 </r>
       <r>  -16.7668    1.0000 </r>
       <r>  -16.6320    1.0000 </r>
       <r>  -16.5913    1.0000 </r>
       <r>  -16.4910    1.0000 </r>
       <r>  -16.2501    1.0000 </r>
       <r>  -16.2251    1.0000 </r>
       <r>  -16.1270    1.0000 </r>
       <r>  -16.0305    1.0000 </r>
       <r>  -15.8487    1.0000 </r>
       <r>  -15.7707    1.0000 </r>
       <r>  -15.7335    1.0000 </r>
       <r>  -15.6931    1.0000 </r>
       <r>  -15.6670    1.0000 </r>
       <r>  -15.5662    1.0000 </r>
       <r>  -15.4661    1.0000 </r>
       <r>  -15.2909    1.0000 </r>
       <r>   -9.8003    1.0000 </r>
       <r>   -9.3809    1.0000 </r>
       <r>   -9.2346    1.0000 </r>
       <r>   -9.0365    1.0000 </r>
       <r>   -8.9417    1.0000 </r>
       <r>   -8.7648    1.0000 </r>
       <r>   -8.6253    1.0000 </r>
       <r>   -8.5920    1.0000 </r>
       <r>   -8.4020    1.0000 </r>
       <r>   -8.3473    1.0000 </r>
       <r>   -8.1964    1.0000 </r>
       <r>   -8.1608    1.0000 </r>
       <r>   -8.0528    1.0000 </r>
       <r>   -8.0332    1.0000 </r>
       <r>   -7.8990    1.0000 </r>
       <r>   -7.8390    1.0000 </r>
       <r>   -7.7842    1.0000 </r>
       <r>   -7.6520    1.0000 </r>
       <r>   -7.5678    1.0000 </r>
       <r>   -7.5574    1.0000 </r>
       <r>   -7.4964    1.0000 </r>
       <r>   -7.2781    1.0000 </r>
       <r>   -7.1079    1.0000 </r>
       <r>   -7.0542    1.0000 </r>
       <r>   -6.9358    1.0000 </r>
       <r>   -6.9234    1.0000 </r>
       <r>   -6.7808    1.0000 </r>
       <r>   -6.6881    1.0000 </r>
       <r>   -6.6523    1.0000 </r>
       <r>   -6.6073    1.0000 </r>
       <r>   -6.5744    1.0000 </r>
       <r>   -6.5361    1.0000 </r>
       <r>   -6.4015    1.0000 </r>
       <r>   -6.3680    1.0000 </r>
       <r>   -6.2977    1.0000 </r>
       <r>   -6.2026    1.0000 </r>
       <r>   -6.1400    1.0000 </r>
       <r>   -5.9596    1.0000 </r>
       <r>   -5.9323    1.0000 </r>
       <r>   -5.9068    1.0000 </r>
       <r>   -5.8892    1.0000 </r>
       <r>   -5.8128    1.0000 </r>
       <r>   -5.7488    1.0000 </r>
       <r>   -5.6399    1.0000 </r>
       <r>   -5.5901    1.0000 </r>
       <r>   -5.5394    1.0000 </r>
       <r>   -5.3805    1.0000 </r>
       <r>   -5.0648    1.0000 </r>
       <r>   -5.0354    1.0000 </r>
       <r>   -4.8892    1.0000 </r>
       <r>   -4.8159    1.0000 </r>
       <r>   -4.7068    1.0000 </r>
       <r>   -4.5985    1.0000 </r>
       <r>   -4.3524    1.0000 </r>
       <r>   -4.2905    1.0000 </r>
       <r>   -4.2840    1.0000 </r>
       <r>   -4.0007    1.0000 </r>
       <r>   -3.9927    1.0000 </r>
       <r>   -3.7870    0.9983 </r>
       <r>   -3.6750    0.9836 </r>
       <r>   -3.5623    0.9096 </r>
       <r>   -3.4585    0.7272 </r>
       <r>   -2.9356    0.0010 </r>
       <r>   -2.9188    0.0007 </r>
       <r>   -2.8693    0.0002 </r>
       <r>   -2.6524    0.0000 </r>
       <r>   -2.6110    0.0000 </r>
       <r>   -2.5137    0.0000 </r>
       <r>   -2.3498    0.0000 </r>
       <r>   -2.1667    0.0000 </r>
       <r>   -1.9752    0.0000 </r>
       <r>   -1.8613    0.0000 </r>
       <r>   -1.6500    0.0000 </r>
       <r>   -1.5706    0.0000 </r>
       <r>   -1.4514    0.0000 </r>
       <r>   -1.3330    0.0000 </r>
       <r>   -1.2910    0.0000 </r>
       <r>   -1.2257    0.0000 </r>
       <r>   -1.1252    0.0000 </r>
       <r>   -1.0288    0.0000 </r>
       <r>   -0.8952    0.0000 </r>
       <r>   -0.8511    0.0000 </r>
       <r>   -0.7713    0.0000 </r>
       <r>   -0.6843    0.0000 </r>
       <r>   -0.6496    0.0000 </r>
       <r>   -0.5300    0.0000 </r>
       <r>   -0.4604    0.0000 </r>
       <r>   -0.4108    0.0000 </r>
       <r>   -0.3370    0.0000 </r>
       <r>   -0.1985    0.0000 </r>
       <r>    0.0342    0.0000 </r>
       <r>    0.1825    0.0000 </r>
       <r>    0.3426    0.0000 </r>
       <r>    0.6255    0.0000 </r>
       <r>    0.6688    0.0000 </r>
       <r>    0.9150    0.0000 </r>
       <r>    1.1750    0.0000 </r>
       <r>    1.2230    0.0000 </r>
       <r>    1.3283    0.0000 </r>
       <r>    2.2251    0.0000 </r>
       <r>    2.2422    0.0000 </r>
       <r>    2.3563    0.0000 </r>
      </set>
     </set>
    </set>
   </array>
  </eigenvalues>
  <separator name="orbital magnetization" >
   <v name="MAGDIPOLOUT">      0.00000000      0.00000000      0.00000000</v>
  </separator>
 </calculation>
 <structure name="finalpos" >
  <crystal>
   <varray name="basis" >
    <v>       8.33349745       4.79651297       0.00000000 </v>
    <v>      -8.36482238       4.85058582       0.00000000 </v>
    <v>       0.00000000       0.00000000      30.00000000 </v>
   </varray>
   <i name="volume">   2416.32970514 </i>
   <varray name="rec_basis" >
    <v>       0.06022257       0.10385365       0.00000000 </v>
    <v>      -0.05955122       0.10346474       0.00000000 </v>
    <v>       0.00000000       0.00000000       0.03333333 </v>
   </varray>
  </crystal>
  <varray name="positions" >
   <v>       0.68045582       0.70356029       0.00064291 </v>
   <v>       0.99686725       0.30349620      -0.00117446 </v>
   <v>      -0.03422908       0.65140682      -0.00002733 </v>
   <v>       0.00932132       0.01217546       0.00046624 </v>
   <v>       0.31554370       0.29730184      -0.00149964 </v>
   <v>       0.67255642      -0.00576860      -0.00039598 </v>
   <v>       0.34076603       0.02413497       0.00145445 </v>
   <v>       0.36744630       0.70259477       0.00072773 </v>
   <v>       0.64155335       0.30683956      -0.00033792 </v>
   <v>       0.10736518       0.22076203       0.94438576 </v>
   <v>       0.21906483       0.10511107       0.05670648 </v>
   <v>       0.11309842       0.55526784       0.95744719 </v>
   <v>       0.22230843       0.44469033       0.04546642 </v>
   <v>       0.11120196       0.88040227       0.95186854 </v>
   <v>       0.21506573       0.77531034       0.04764108 </v>
   <v>       0.43891837       0.21781885       0.94260229 </v>
   <v>       0.55517997       0.10675538       0.05429772 </v>
   <v>       0.44969271       0.55657882       0.95414105 </v>
   <v>       0.55544476       0.45137263       0.04509405 </v>
   <v>       0.45004798       0.89989859       0.94707066 </v>
   <v>       0.56856266       0.78424063       0.05595509 </v>
   <v>       0.78443287       0.22845732       0.94844607 </v>
   <v>       0.89502363       0.11565815       0.05384175 </v>
   <v>       0.76703096       0.55809601       0.95089510 </v>
   <v>       0.88642336       0.43571484       0.04627356 </v>
   <v>       0.78375163       0.89174384       0.94642466 </v>
   <v>       0.88531989       0.77459420       0.05158644 </v>
  </varray>
 </structure>
</modeling>
