 vasp.5.4.1 05Feb16 (build Jul 05 2020 17:13:04) complex                        
  
 executed on           IFC91_ompi date 2024.05.19  15:06:00
 running on   40 total cores
 distrk:  each k-point on   40 cores,    1 groups
 distr:  one band on NCORES_PER_BAND=   1 cores,   40 groups


--------------------------------------------------------------------------------------------------------


 INCAR:
 POTCAR:   PAW_PBE V 08Apr2002                    
 POTCAR:   PAW_PBE Mo 08Apr2002                   
 POTCAR:   PAW_PBE W 08Apr2002                    
 POTCAR:    PAW_PBE S 17Jan2003                   

 ----------------------------------------------------------------------------- 
|                                                                             |
|           W    W    AA    RRRRR   N    N  II  N    N   GGGG   !!!           |
|           W    W   A  A   R    R  NN   N  II  NN   N  G    G  !!!           |
|           W    W  A    A  R    R  N N  N  II  N N  N  G       !!!           |
|           W WW W  AAAAAA  RRRRR   N  N N  II  N  N N  G  GGG   !            |
|           WW  WW  A    A  R   R   N   NN  II  N   NN  G    G                |
|           W    W  A    A  R    R  N    N  II  N    N   GGGG   !!!           |
|                                                                             |
|      For optimal performance we recommend to set                            |
|        NCORE= 4 - approx SQRT( number of cores)                             |
|      NCORE specifies how many cores store one orbital (NPAR=cpu/NCORE).     |
|      This setting can  greatly improve the performance of VASP for DFT.     |
|      The default, NPAR=number of cores might be grossly inefficient         |
|      on modern multi-core architectures or massively parallel machines.     |
|      Do your own testing !!!!                                               |
|      Unfortunately you need to use the default for GW and RPA calculations. |
|      (for HF NCORE is supported but not extensively tested yet)             |
|                                                                             |
 ----------------------------------------------------------------------------- 

 POTCAR:   PAW_PBE V 08Apr2002                    
   VRHFIN =V: p6 d4 s1                                                          
   LEXCH  = PE                                                                  
   EATOM  =   170.8679 eV,   12.5584 Ry                                         
                                                                                
   TITEL  = PAW_PBE V 08Apr2002                                                 
   LULTRA =        F    use ultrasoft PP ?                                      
   IUNSCR =        1    unscreen: 0-lin 1-nonlin 2-no                           
   RPACOR =    2.000    partial core radius                                     
   POMASS =   50.941; ZVAL   =    5.000    mass and valenz                      
   RCORE  =    2.700    outmost cutoff radius                                   
   RWIGS  =    2.500; RWIGS  =    1.323    wigner-seitz radius (au A)           
   ENMAX  =  192.543; ENMIN  =  144.408 eV                                      
   RCLOC  =    1.779    cutoff for local pot                                    
   LCOR   =        T    correct aug charges                                     
   LPAW   =        T    paw PP                                                  
   EAUG   =  358.662                                                            
   DEXC   =    -.034                                                            
   RMAX   =    3.323    core radius for proj-oper                               
   RAUG   =    1.300    factor for augmentation sphere                          
   RDEP   =    2.762    radius for radial grids                                 
   QCUT   =   -3.762; QGAM   =    7.524    optimization parameters              
                                                                                
   Description                                                                  
     l     E      TYP  RCUT    TYP  RCUT                                        
     2   .000     23  2.700                                                     
     2   .000     23  2.700                                                     
     0   .000     23  2.700                                                     
     0  2.000     23  2.700                                                     
     1   .000     23  2.700                                                     
     1  2.000     23  2.700                                                     
     3   .000      7   .000                                                     
  local pseudopotential read in
  partial core-charges read in
  atomic valenz-charges read in
  non local Contribution for L=           2  read in
    real space projection operators read in
  non local Contribution for L=           2  read in
    real space projection operators read in
  non local Contribution for L=           0  read in
    real space projection operators read in
  non local Contribution for L=           0  read in
    real space projection operators read in
  non local Contribution for L=           1  read in
    real space projection operators read in
  non local Contribution for L=           1  read in
    real space projection operators read in
    PAW grid and wavefunctions read in
 
   number of l-projection  operators is LMAX  =           6
   number of lm-projection operators is LMMAX =          18
 
 POTCAR:   PAW_PBE Mo 08Apr2002                   
   VRHFIN =Mo: 4p5s4d                                                           
   LEXCH  = PE                                                                  
   EATOM  =   217.5180 eV,   15.9871 Ry                                         
                                                                                
   TITEL  = PAW_PBE Mo 08Apr2002                                                
   LULTRA =        F    use ultrasoft PP ?                                      
   IUNSCR =        1    unscreen: 0-lin 1-nonlin 2-no                           
   RPACOR =    2.200    partial core radius                                     
   POMASS =   95.940; ZVAL   =    6.000    mass and valenz                      
   RCORE  =    2.750    outmost cutoff radius                                   
   RWIGS  =    2.750; RWIGS  =    1.455    wigner-seitz radius (au A)           
   ENMAX  =  224.584; ENMIN  =  168.438 eV                                      
   RCLOC  =    2.111    cutoff for local pot                                    
   LCOR   =        T    correct aug charges                                     
   LPAW   =        T    paw PP                                                  
   EAUG   =  345.278                                                            
   DEXC   =    -.088                                                            
   RMAX   =    3.077    core radius for proj-oper                               
   RAUG   =    1.300    factor for augmentation sphere                          
   RDEP   =    2.815    radius for radial grids                                 
   QCUT   =   -4.063; QGAM   =    8.126    optimization parameters              
                                                                                
   Description                                                                  
     l     E      TYP  RCUT    TYP  RCUT                                        
     2   .000     23  2.500                                                     
     2   .000     23  2.500                                                     
     0   .000     23  2.600                                                     
     0  1.000     23  2.600                                                     
     1   .400     23  2.750                                                     
     1  2.000     23  2.750                                                     
     3   .000      7   .000                                                     
  local pseudopotential read in
  partial core-charges read in
  atomic valenz-charges read in
  non local Contribution for L=           2  read in
    real space projection operators read in
  non local Contribution for L=           2  read in
    real space projection operators read in
  non local Contribution for L=           0  read in
    real space projection operators read in
  non local Contribution for L=           0  read in
    real space projection operators read in
  non local Contribution for L=           1  read in
    real space projection operators read in
  non local Contribution for L=           1  read in
    real space projection operators read in
    PAW grid and wavefunctions read in
 
   number of l-projection  operators is LMAX  =           6
   number of lm-projection operators is LMMAX =          18
 
 POTCAR:   PAW_PBE W 08Apr2002                    
   VRHFIN =W : 6s5d                                                             
   LEXCH  = PE                                                                  
   EATOM  =   204.6100 eV,   15.0384 Ry                                         
                                                                                
   TITEL  = PAW_PBE W 08Apr2002                                                 
   LULTRA =        F    use ultrasoft PP ?                                      
   IUNSCR =        1    unscreen: 0-lin 1-nonlin 2-no                           
   RPACOR =    2.330    partial core radius                                     
   POMASS =  183.850; ZVAL   =    6.000    mass and valenz                      
   RCORE  =    2.750    outmost cutoff radius                                   
   RWIGS  =    2.750; RWIGS  =    1.455    wigner-seitz radius (au A)           
   ENMAX  =  223.057; ENMIN  =  167.293 eV                                      
   RCLOC  =    2.147    cutoff for local pot                                    
   LCOR   =        T    correct aug charges                                     
   LPAW   =        T    paw PP                                                  
   EAUG   =  373.438                                                            
   DEXC   =    -.060                                                            
   RMAX   =    3.087    core radius for proj-oper                               
   RAUG   =    1.300    factor for augmentation sphere                          
   RDEP   =    2.886    radius for radial grids                                 
   QCUT   =   -4.049; QGAM   =    8.098    optimization parameters              
                                                                                
   Description                                                                  
     l     E      TYP  RCUT    TYP  RCUT                                        
     2   .000     23  2.500                                                     
     2   .000     23  2.500                                                     
     0   .000     23  2.500                                                     
     0   .000     23  2.500                                                     
     1   .200     23  2.750                                                     
     1  2.000     23  2.750                                                     
     3   .000      7   .000                                                     
  local pseudopotential read in
  partial core-charges read in
  atomic valenz-charges read in
  non local Contribution for L=           2  read in
    real space projection operators read in
  non local Contribution for L=           2  read in
    real space projection operators read in
  non local Contribution for L=           0  read in
    real space projection operators read in
  non local Contribution for L=           0  read in
    real space projection operators read in
  non local Contribution for L=           1  read in
    real space projection operators read in
  non local Contribution for L=           1  read in
    real space projection operators read in
    PAW grid and wavefunctions read in
 
   number of l-projection  operators is LMAX  =           6
   number of lm-projection operators is LMMAX =          18
 
 POTCAR:    PAW_PBE S 17Jan2003                   
   VRHFIN =S : s2p4                                                             
   LEXCH  = PE                                                                  
   EATOM  =   276.8230 eV,   20.3459 Ry                                         
                                                                                
   TITEL  = PAW_PBE S 17Jan2003                                                 
   LULTRA =        F    use ultrasoft PP ?                                      
   IUNSCR =        1    unscreen: 0-lin 1-nonlin 2-no                           
   RPACOR =    1.500    partial core radius                                     
   POMASS =   32.066; ZVAL   =    6.000    mass and valenz                      
   RCORE  =    1.900    outmost cutoff radius                                   
   RWIGS  =    2.200; RWIGS  =    1.164    wigner-seitz radius (au A)           
   ENMAX  =  280.000; ENMIN  =  194.016 eV                                      
   ICORE  =        2    local potential                                         
   LCOR   =        T    correct aug charges                                     
   LPAW   =        T    paw PP                                                  
   EAUG   =  335.092                                                            
   DEXC   =     .000                                                            
   RMAX   =    2.867    core radius for proj-oper                               
   RAUG   =    1.300    factor for augmentation sphere                          
   RDEP   =    1.954    radius for radial grids                                 
   QCUT   =   -4.360; QGAM   =    8.721    optimization parameters              
                                                                                
   Description                                                                  
     l     E      TYP  RCUT    TYP  RCUT                                        
     0   .000     23  1.900                                                     
     0   .000     23  1.900                                                     
     1   .000     23  1.900                                                     
     1   .000     23  1.900                                                     
     2   .000     23  1.900                                                     
  local pseudopotential read in
  partial core-charges read in
  atomic valenz-charges read in
  non local Contribution for L=           0  read in
    real space projection operators read in
  non local Contribution for L=           0  read in
    real space projection operators read in
  non local Contribution for L=           1  read in
    real space projection operators read in
  non local Contribution for L=           1  read in
    real space projection operators read in
    PAW grid and wavefunctions read in
 
   number of l-projection  operators is LMAX  =           4
   number of lm-projection operators is LMMAX =           8
 

 ----------------------------------------------------------------------------- 
|                                                                             |
|  ADVICE TO THIS USER RUNNING 'VASP/VAMP'   (HEAR YOUR MASTER'S VOICE ...):  |
|                                                                             |
|      You have a (more or less) 'large supercell' and for larger cells       |
|      it might be more efficient to use real space projection operators      |
|      So try LREAL= Auto  in the INCAR   file.                               |
|      Mind: If you want to do a very accurate calculations keep the          |
|      reciprocal projection scheme          (i.e. LREAL=.FALSE.)             |
|                                                                             |
 ----------------------------------------------------------------------------- 

 PAW_PBE V 08Apr2002                    :
 energy of atom  1       EATOM= -170.8679
 kinetic energy error for atom=    0.0047 (will be added to EATOM!!)
 PAW_PBE Mo 08Apr2002                   :
 energy of atom  2       EATOM= -217.5180
 kinetic energy error for atom=    0.0215 (will be added to EATOM!!)
 PAW_PBE W 08Apr2002                    :
 energy of atom  3       EATOM= -204.6100
 kinetic energy error for atom=    0.0205 (will be added to EATOM!!)
  PAW_PBE S 17Jan2003                   :
 energy of atom  4       EATOM= -276.8230
 kinetic energy error for atom=    0.0122 (will be added to EATOM!!)
 
 
 POSCAR: crystal structure from VMoWS2 with Hexag
  positions in cartesian coordinates
  No initial velocities read in
 exchange correlation table for  LEXCH =        8
   RHO(1)=    0.500       N(1)  =     2000
   RHO(2)=  100.500       N(2)  =     4000
 


--------------------------------------------------------------------------------------------------------


 ion  position               nearest neighbor table
   1  0.667  0.667  0.000-  21 2.34  24 2.34  27 2.36  26 2.36  19 2.36  18 2.36
   2  0.333  0.667  0.000-  15 2.34  18 2.34  20 2.36  21 2.36  13 2.36  12 2.36
   3  0.667  0.000  0.000-  17 2.34  26 2.34  23 2.36  22 2.36  21 2.36  20 2.36
   4  0.333  0.000  0.000-  11 2.34  20 2.34  17 2.36  16 2.36  15 2.36  14 2.36   5 3.34   6 3.34
                             8 3.36   9 3.36
   5  0.333  0.333  0.000-  13 2.34  16 2.34  19 2.36  18 2.36  11 2.36  10 2.36   4 3.34   7 3.34
                             9 3.34   6 3.36
   6  0.000  0.000  0.000-  23 2.34  14 2.34  11 2.36  10 2.36  27 2.36  26 2.36   8 3.34   7 3.34
                             4 3.34   5 3.36
   7  1.000  0.333  0.000-  25 2.34  10 2.34  13 2.36  12 2.36  22 2.36  23 2.36   9 3.34   8 3.34
                             6 3.34   5 3.34
   8  0.000  0.667  0.000-  27 2.34  12 2.34  14 2.36  15 2.36  24 2.36  25 2.36   6 3.34   7 3.34
                             4 3.36   9 3.36
   9  0.667  0.333  0.000-  19 2.34  22 2.34  25 2.36  24 2.36  17 2.36  16 2.36   7 3.34   5 3.34
                             8 3.36   4 3.36
  10  0.111  0.222  0.955-   7 2.34   6 2.36   5 2.36
  11  0.222  0.111  0.045-   4 2.34   6 2.36   5 2.36
  12  0.111  0.556  0.955-   8 2.34   7 2.36   2 2.36
  13  0.222  0.444  0.045-   5 2.34   7 2.36   2 2.36
  14  0.111  0.889  0.955-   6 2.34   8 2.36   4 2.36
  15  0.222  0.777  0.045-   2 2.34   8 2.36   4 2.36
  16  0.444  0.222  0.955-   5 2.34   4 2.36   9 2.36
  17  0.556  0.111  0.045-   3 2.34   4 2.36   9 2.36
  18  0.444  0.556  0.955-   2 2.34   5 2.36   1 2.36
  19  0.556  0.444  0.045-   9 2.34   5 2.36   1 2.36
  20  0.444  0.889  0.955-   4 2.34   2 2.36   3 2.36
  21  0.556  0.777  0.045-   1 2.34   2 2.36   3 2.36
  22  0.777  0.222  0.955-   9 2.34   3 2.36   7 2.36
  23  0.889  0.111  0.045-   6 2.34   3 2.36   7 2.36
  24  0.777  0.556  0.955-   1 2.34   9 2.36   8 2.36
  25  0.889  0.444  0.045-   7 2.34   9 2.36   8 2.36
  26  0.777  0.889  0.955-   3 2.34   1 2.36   6 2.36
  27  0.889  0.777  0.045-   8 2.34   1 2.36   6 2.36
 

IMPORTANT INFORMATION: All symmetrisations will be switched off!
NOSYMM: (Re-)initialisation of all symmetry stuff for point group C_1.

 
 
 KPOINTS: K-POINTS 	#supercell of CrS2 in hexagona

Automatic generation of k-mesh.
Space group operators:
 irot       det(A)        alpha          n_x          n_y          n_z        tau_x        tau_y        tau_z
    1     1.000000     0.000000     1.000000     0.000000     0.000000     0.000000     0.000000     0.000000
 
 Subroutine IBZKPT returns following result:
 ===========================================
 
 Found     34 irreducible k-points:
 
 Following reciprocal coordinates:
            Coordinates               Weight
  0.000000  0.000000  0.000000      1.000000
  0.125000  0.000000  0.000000      2.000000
  0.250000  0.000000  0.000000      2.000000
  0.375000  0.000000  0.000000      2.000000
  0.500000  0.000000  0.000000      1.000000
  0.000000  0.125000  0.000000      2.000000
  0.125000  0.125000  0.000000      2.000000
  0.250000  0.125000  0.000000      2.000000
  0.375000  0.125000  0.000000      2.000000
  0.500000  0.125000  0.000000      2.000000
 -0.375000  0.125000  0.000000      2.000000
 -0.250000  0.125000  0.000000      2.000000
 -0.125000  0.125000  0.000000      2.000000
  0.000000  0.250000  0.000000      2.000000
  0.125000  0.250000  0.000000      2.000000
  0.250000  0.250000  0.000000      2.000000
  0.375000  0.250000  0.000000      2.000000
  0.500000  0.250000  0.000000      2.000000
 -0.375000  0.250000  0.000000      2.000000
 -0.250000  0.250000  0.000000      2.000000
 -0.125000  0.250000  0.000000      2.000000
 -0.000000  0.375000  0.000000      2.000000
  0.125000  0.375000  0.000000      2.000000
  0.250000  0.375000  0.000000      2.000000
  0.375000  0.375000  0.000000      2.000000
  0.500000  0.375000  0.000000      2.000000
 -0.375000  0.375000  0.000000      2.000000
 -0.250000  0.375000  0.000000      2.000000
 -0.125000  0.375000  0.000000      2.000000
  0.000000  0.500000  0.000000      1.000000
  0.125000  0.500000  0.000000      2.000000
  0.250000  0.500000  0.000000      2.000000
  0.375000  0.500000  0.000000      2.000000
  0.500000  0.500000  0.000000      1.000000
 
 Following cartesian coordinates:
            Coordinates               Weight
  0.000000  0.000000  0.000000      1.000000
  0.007209  0.012401  0.000000      2.000000
  0.014418  0.024802  0.000000      2.000000
  0.021626  0.037202  0.000000      2.000000
  0.028835  0.049603  0.000000      1.000000
 -0.007209  0.012401  0.000000      2.000000
  0.000000  0.024802  0.000000      2.000000
  0.007209  0.037202  0.000000      2.000000
  0.014418  0.049603  0.000000      2.000000
  0.021626  0.062004  0.000000      2.000000
 -0.028835 -0.024802  0.000000      2.000000
 -0.021626 -0.012401  0.000000      2.000000
 -0.014418  0.000000  0.000000      2.000000
 -0.014418  0.024802  0.000000      2.000000
 -0.007209  0.037202  0.000000      2.000000
  0.000000  0.049603  0.000000      2.000000
  0.007209  0.062004  0.000000      2.000000
  0.014418  0.074405  0.000000      2.000000
 -0.036044 -0.012401  0.000000      2.000000
 -0.028835  0.000000  0.000000      2.000000
 -0.021626  0.012401  0.000000      2.000000
 -0.021626  0.037202  0.000000      2.000000
 -0.014418  0.049603  0.000000      2.000000
 -0.007209  0.062004  0.000000      2.000000
  0.000000  0.074405  0.000000      2.000000
  0.007209  0.086806  0.000000      2.000000
 -0.043253  0.000000  0.000000      2.000000
 -0.036044  0.012401  0.000000      2.000000
 -0.028835  0.024802  0.000000      2.000000
 -0.028835  0.049603  0.000000      1.000000
 -0.021626  0.062004  0.000000      2.000000
 -0.014418  0.074405  0.000000      2.000000
 -0.007209  0.086806  0.000000      2.000000
  0.000000  0.099206  0.000000      1.000000
 


--------------------------------------------------------------------------------------------------------




 Dimension of arrays:
   k-points           NKPTS =     34   k-points in BZ     NKDIM =     34   number of bands    NBANDS=    120
   number of dos      NEDOS =    301   number of ions     NIONS =     27
   non local maximal  LDIM  =      6   non local SUM 2l+1 LMDIM =     18
   total plane-waves  NPLWV = 222264
   max r-space proj   IRMAX =      1   max aug-charges    IRDMAX=   5642
   dimension x,y,z NGX =    42 NGY =   42 NGZ =  126
   dimension x,y,z NGXF=    84 NGYF=   84 NGZF=  252
   support grid    NGXF=    84 NGYF=   84 NGZF=  252
   ions per type =               3   3   3  18
 NGX,Y,Z   is equivalent  to a cutoff of   6.96,  6.96,  6.98 a.u.
 NGXF,Y,Z  is equivalent  to a cutoff of  13.92, 13.92, 13.96 a.u.


 I would recommend the setting:
   dimension x,y,z NGX =    41 NGY =   41 NGZ =  123
 SYSTEM =  unknown system                          
 POSCAR =  crystal structure from VMoWS2 with Hexag

 Startparameter for this run:
   NWRITE =      2    write-flag & timer
   PREC   = normal    normal or accurate (medium, high low for compatibility)
   ISTART =      0    job   : 0-new  1-cont  2-samecut
   ICHARG =      2    charge: 1-file 2-atom 10-const
   ISPIN  =      1    spin polarized calculation?
   LNONCOLLINEAR =      F non collinear calculations
   LSORBIT =      F    spin-orbit coupling
   INIWAV =      1    electr: 0-lowe 1-rand  2-diag
   LASPH  =      F    aspherical Exc in radial PAW
   METAGGA=      F    non-selfconsistent MetaGGA calc.

 Electronic Relaxation 1
   ENCUT  =  280.0 eV  20.58 Ry    4.54 a.u.  13.68 13.68 40.93*2*pi/ulx,y,z
   ENINI  =  280.0     initial cutoff
   ENAUG  =  373.4 eV  augmentation charge cutoff
   NELM   =     60;   NELMIN=  2; NELMDL= -5     # of ELM steps 
   EDIFF  = 0.1E-03   stopping-criterion for ELM
   LREAL  =      F    real-space projection
   NLSPLINE    = F    spline interpolate recip. space projectors
   LCOMPAT=      F    compatible to vasp.4.4
   GGA_COMPAT  = T    GGA compatible to vasp.4.4-vasp.4.6
   LMAXPAW     = -100 max onsite density
   LMAXMIX     =    2 max onsite mixed and CHGCAR
   VOSKOWN=      0    Vosko Wilk Nusair interpolation
   ROPT   =    0.00000   0.00000   0.00000   0.00000
 Ionic relaxation
   EDIFFG = 0.1E-02   stopping-criterion for IOM
   NSW    =    100    number of steps for IOM
   NBLOCK =      1;   KBLOCK =    100    inner block; outer block 
   IBRION =      1    ionic relax: 0-MD 1-quasi-New 2-CG
   NFREE  =      0    steps in history (QN), initial steepest desc. (CG)
   ISIF   =      3    stress and relaxation
   IWAVPR =     11    prediction:  0-non 1-charg 2-wave 3-comb
   ISYM   =      0    0-nonsym 1-usesym 2-fastsym
   LCORR  =      T    Harris-Foulkes like correction to forces

   POTIM  = 0.5000    time-step for ionic-motion
   TEIN   =    0.0    initial temperature
   TEBEG  =    0.0;   TEEND  =   0.0 temperature during run
   SMASS  =  -3.00    Nose mass-parameter (am)
   estimated Nose-frequenzy (Omega)   =  0.10E-29 period in steps =****** mass=  -0.230E-26a.u.
   SCALEE = 1.0000    scale energy and forces
   NPACO  =    256;   APACO  = 16.0  distance and # of slots for P.C.
   PSTRESS=    0.0 pullay stress

  Mass of Ions in am
   POMASS =  50.94 95.94183.85 32.07
  Ionic Valenz
   ZVAL   =   5.00  6.00  6.00  6.00
  Atomic Wigner-Seitz radii
   RWIGS  =  -1.00 -1.00 -1.00 -1.00
  virtual crystal weights 
   VCA    =   1.00  1.00  1.00  1.00
   NELECT =     159.0000    total number of electrons
   NUPDOWN=      -1.0000    fix difference up-down

 DOS related values:
   EMIN   =  10.00;   EMAX   =-10.00  energy-range for DOS
   EFERMI =   0.00
   ISMEAR =     0;   SIGMA  =   0.20  broadening in eV -4-tet -1-fermi 0-gaus

 Electronic relaxation 2 (details)
   IALGO  =     38    algorithm
   LDIAG  =      T    sub-space diagonalisation (order eigenvalues)
   LSUBROT=      F    optimize rotation matrix (better conditioning)
   TURBO    =      0    0=normal 1=particle mesh
   IRESTART =      0    0=no restart 2=restart with 2 vectors
   NREBOOT  =      0    no. of reboots
   NMIN     =      0    reboot dimension
   EREF     =   0.00    reference energy to select bands
   IMIX   =      4    mixing-type and parameters
     AMIX     =   0.40;   BMIX     =  1.00
     AMIX_MAG =   1.60;   BMIX_MAG =  1.00
     AMIN     =   0.10
     WC   =   100.;   INIMIX=   1;  MIXPRE=   1;  MAXMIX= -45

 Intra band minimization:
   WEIMIN = 0.0010     energy-eigenvalue tresh-hold
   EBREAK =  0.21E-06  absolut break condition
   DEPER  =   0.30     relativ break condition  

   TIME   =   0.40     timestep for ELM

  volume/ion in A,a.u.               =      97.10       655.29
  Fermi-wavevector in a.u.,A,eV,Ry     =   0.643191  1.215456  5.628665  0.413695
  Thomas-Fermi vector in A             =   1.710110
 
 Write flags
   LWAVE  =      F    write WAVECAR
   LCHARG =      F    write CHGCAR
   LVTOT  =      F    write LOCPOT, total local potential
   LVHAR  =      F    write LOCPOT, Hartree potential only
   LELF   =      F    write electronic localiz. function (ELF)
   LORBIT =      0    0 simple, 1 ext, 2 COOP (PROOUT)


 Dipole corrections
   LMONO  =      F    monopole corrections only (constant potential shift)
   LDIPOL =      F    correct potential (dipole corrections)
   IDIPOL =      0    1-x, 2-y, 3-z, 4-all directions 
   EPSILON=  1.0000000 bulk dielectric constant

 Exchange correlation treatment:
   GGA     =    --    GGA type
   LEXCH   =     8    internal setting for exchange type
   VOSKOWN=      0    Vosko Wilk Nusair interpolation
   LHFCALC =     F    Hartree Fock is set to
   LHFONE  =     F    Hartree Fock one center treatment
   AEXX    =    0.0000 exact exchange contribution

 Linear response parameters
   LEPSILON=     F    determine dielectric tensor
   LRPA    =     F    only Hartree local field effects (RPA)
   LNABLA  =     F    use nabla operator in PAW spheres
   LVEL    =     F    velocity operator in full k-point grid
   LINTERFAST=   F  fast interpolation
   KINTER  =     0    interpolate to denser k-point grid
   CSHIFT  =0.1000    complex shift for real part using Kramers Kronig
   OMEGAMAX=  -1.0    maximum frequency
   DEG_THRESHOLD= 0.2000000E-02 threshold for treating states as degnerate
   RTIME   =    0.100 relaxation time in fs

 Orbital magnetization related:
   ORBITALMAG=     F  switch on orbital magnetization
   LCHIMAG   =     F  perturbation theory with respect to B field
   DQ        =  0.001000  dq finite difference perturbation B field



--------------------------------------------------------------------------------------------------------


 quasi-Newton-method for relaxation of ions
 charge density and potential will be updated during run
 non-spin polarized calculation
 Variant of blocked Davidson
 Davidson routine will perform the subspace rotation
 perform sub-space diagonalisation
    after iterative eigenvector-optimisation
 modified Broyden-mixing scheme, WC =      100.0
 initial mixing is a Kerker type mixing with AMIX =  0.4000 and BMIX =      1.0000
 Hartree-type preconditioning will be used
 using additional bands           40
 reciprocal scheme for non local part
 use partial core corrections
 calculate Harris-corrections to forces 
   (improved forces if not selfconsistent)
 use gradient corrections 
 use of overlap-Matrix (Vanderbilt PP)
 Gauss-broadening in eV      SIGMA  =   0.20


--------------------------------------------------------------------------------------------------------


  energy-cutoff  :      280.00
  volume of cell :     2621.81
      direct lattice vectors                 reciprocal lattice vectors
     8.669999960  5.039999894  0.000000000     0.057670129  0.099206348  0.000000000
    -8.669999821  5.040000133  0.000000000    -0.057670126  0.099206350  0.000000000
     0.000000000  0.000000000 30.000000000     0.000000000  0.000000000  0.033333333

  length of vectors
    10.028484344 10.028484344 30.000000000     0.114750788  0.114750788  0.033333333


 
 k-points in units of 2pi/SCALE and weight: K-POINTS 	#supercell of CrS2 in hexagona
   0.00000000  0.00000000  0.00000000       0.016
   0.00720877  0.01240079  0.00000000       0.031
   0.01441753  0.02480159  0.00000000       0.031
   0.02162630  0.03720238  0.00000000       0.031
   0.02883506  0.04960317  0.00000000       0.016
  -0.00720877  0.01240079  0.00000000       0.031
   0.00000000  0.02480159  0.00000000       0.031
   0.00720877  0.03720238  0.00000000       0.031
   0.01441753  0.04960317  0.00000000       0.031
   0.02162630  0.06200397  0.00000000       0.031
  -0.02883506 -0.02480159  0.00000000       0.031
  -0.02162630 -0.01240079  0.00000000       0.031
  -0.01441753  0.00000000  0.00000000       0.031
  -0.01441753  0.02480159  0.00000000       0.031
  -0.00720877  0.03720238  0.00000000       0.031
   0.00000000  0.04960317  0.00000000       0.031
   0.00720877  0.06200397  0.00000000       0.031
   0.01441753  0.07440476  0.00000000       0.031
  -0.03604383 -0.01240079  0.00000000       0.031
  -0.02883506  0.00000000  0.00000000       0.031
  -0.02162630  0.01240079  0.00000000       0.031
  -0.02162630  0.03720238  0.00000000       0.031
  -0.01441753  0.04960317  0.00000000       0.031
  -0.00720877  0.06200397  0.00000000       0.031
   0.00000000  0.07440476  0.00000000       0.031
   0.00720877  0.08680556  0.00000000       0.031
  -0.04325260  0.00000000  0.00000000       0.031
  -0.03604383  0.01240079  0.00000000       0.031
  -0.02883506  0.02480159  0.00000000       0.031
  -0.02883506  0.04960317  0.00000000       0.016
  -0.02162630  0.06200397  0.00000000       0.031
  -0.01441753  0.07440476  0.00000000       0.031
  -0.00720876  0.08680556  0.00000000       0.031
   0.00000000  0.09920635  0.00000000       0.016
 
 k-points in reciprocal lattice and weights: K-POINTS 	#supercell of CrS2 in hexagona
   0.00000000  0.00000000  0.00000000       0.016
   0.12500000  0.00000000  0.00000000       0.031
   0.25000000  0.00000000  0.00000000       0.031
   0.37500000  0.00000000  0.00000000       0.031
   0.50000000  0.00000000  0.00000000       0.016
   0.00000000  0.12500000  0.00000000       0.031
   0.12500000  0.12500000  0.00000000       0.031
   0.25000000  0.12500000  0.00000000       0.031
   0.37500000  0.12500000  0.00000000       0.031
   0.50000000  0.12500000  0.00000000       0.031
  -0.37500000  0.12500000  0.00000000       0.031
  -0.25000000  0.12500000  0.00000000       0.031
  -0.12500000  0.12500000  0.00000000       0.031
   0.00000000  0.25000000  0.00000000       0.031
   0.12500000  0.25000000  0.00000000       0.031
   0.25000000  0.25000000  0.00000000       0.031
   0.37500000  0.25000000  0.00000000       0.031
   0.50000000  0.25000000  0.00000000       0.031
  -0.37500000  0.25000000  0.00000000       0.031
  -0.25000000  0.25000000  0.00000000       0.031
  -0.12500000  0.25000000  0.00000000       0.031
  -0.00000000  0.37500000  0.00000000       0.031
   0.12500000  0.37500000  0.00000000       0.031
   0.25000000  0.37500000  0.00000000       0.031
   0.37500000  0.37500000  0.00000000       0.031
   0.50000000  0.37500000  0.00000000       0.031
  -0.37500000  0.37500000  0.00000000       0.031
  -0.25000000  0.37500000  0.00000000       0.031
  -0.12500000  0.37500000  0.00000000       0.031
   0.00000000  0.50000000  0.00000000       0.016
   0.12500000  0.50000000  0.00000000       0.031
   0.25000000  0.50000000  0.00000000       0.031
   0.37500000  0.50000000  0.00000000       0.031
   0.50000000  0.50000000  0.00000000       0.016
 
 position of ions in fractional coordinates (direct lattice) 
   0.66666669  0.66666669  0.00000000
   0.33333334  0.66666669  0.00000000
   0.66666669  0.00000000  0.00000000
   0.33333334  0.00000000  0.00000000
   0.33333334  0.33333334  0.00000000
   0.00000000  0.00000000  0.00000000
   1.00000000  0.33333334  0.00000000
   0.00000000  0.66666669  0.00000000
   0.66666669  0.33333334  0.00000000
   0.11068511  0.22244981  0.95539999
   0.22244981  0.11068511  0.04460000
   0.11068511  0.55578315  0.95539999
   0.22244981  0.44401845  0.04460000
   0.11068511  0.88911647  0.95539999
   0.22244981  0.77735180  0.04460000
   0.44401845  0.22244981  0.95539999
   0.55578315  0.11068511  0.04460000
   0.44401845  0.55578315  0.95539999
   0.55578315  0.44401845  0.04460000
   0.44401845  0.88911647  0.95539999
   0.55578315  0.77735180  0.04460000
   0.77735180  0.22244981  0.95539999
   0.88911647  0.11068511  0.04460000
   0.77735180  0.55578315  0.95539999
   0.88911647  0.44401845  0.04460000
   0.77735180  0.88911647  0.95539999
   0.88911647  0.77735180  0.04460000
 
 position of ions in cartesian coordinates  (Angst):
   0.00000009  6.72000022  0.00000000
  -2.88999998  5.04000020  0.00000000
   5.78000015  3.36000003  0.00000000
   2.89000007  1.68000002  0.00000000
   0.00000005  3.36000011  0.00000000
   0.00000000  0.00000000  0.00000000
   5.77999993  6.71999999  0.00000000
  -5.78000005  3.36000019  0.00000000
   2.89000012  5.04000012  0.00000000
  -0.96899991  1.67900001 28.66199970
   0.96899995  1.67899998  1.33799996
  -3.85899993  3.35900011 28.66199970
  -1.92100007  3.35900008  1.33799996
  -6.74899970  5.03900005 28.66199970
  -4.81100010  5.03900017  1.33799996
   1.92100017  3.35900003 28.66199970
   3.85900003  3.35900000  1.33799996
  -0.96899986  5.03900012 28.66199970
   0.96900000  5.03900009  1.33799996
  -3.85899963  6.71900006 28.66199970
  -1.92100003  6.71900019  1.33799996
   4.81100024  5.03900004 28.66199970
   6.74899984  5.03899987  1.33799996
   1.92100021  6.71900014 28.66199970
   3.85899981  6.71899996  1.33799996
  -0.96899956  8.39900008 28.66199970
   0.96899979  8.39900005  1.33799996
 


--------------------------------------------------------------------------------------------------------


 k-point  1 :   0.0000 0.0000 0.0000  plane waves:   27959
 k-point  2 :   0.1250 0.0000 0.0000  plane waves:   27889
 k-point  3 :   0.2500 0.0000 0.0000  plane waves:   27875
 k-point  4 :   0.3750 0.0000 0.0000  plane waves:   27893
 k-point  5 :   0.5000 0.0000 0.0000  plane waves:   27932
 k-point  6 :   0.0000 0.1250 0.0000  plane waves:   27889
 k-point  7 :   0.1250 0.1250 0.0000  plane waves:   27906
 k-point  8 :   0.2500 0.1250 0.0000  plane waves:   27898
 k-point  9 :   0.3750 0.1250 0.0000  plane waves:   27888
 k-point 10 :   0.5000 0.1250 0.0000  plane waves:   27873
 k-point 11 :  -0.3750 0.1250 0.0000  plane waves:   27874
 k-point 12 :  -0.2500 0.1250 0.0000  plane waves:   27895
 k-point 13 :  -0.1250 0.1250 0.0000  plane waves:   27879
 k-point 14 :   0.0000 0.2500 0.0000  plane waves:   27875
 k-point 15 :   0.1250 0.2500 0.0000  plane waves:   27898
 k-point 16 :   0.2500 0.2500 0.0000  plane waves:   27920
 k-point 17 :   0.3750 0.2500 0.0000  plane waves:   27901
 k-point 18 :   0.5000 0.2500 0.0000  plane waves:   27875
 k-point 19 :  -0.3750 0.2500 0.0000  plane waves:   27894
 k-point 20 :  -0.2500 0.2500 0.0000  plane waves:   27870
 k-point 21 :  -0.1250 0.2500 0.0000  plane waves:   27895
 k-point 22 :  -0.0000 0.3750 0.0000  plane waves:   27893
 k-point 23 :   0.1250 0.3750 0.0000  plane waves:   27888
 k-point 24 :   0.2500 0.3750 0.0000  plane waves:   27901
 k-point 25 :   0.3750 0.3750 0.0000  plane waves:   27860
 k-point 26 :   0.5000 0.3750 0.0000  plane waves:   27895
 k-point 27 :  -0.3750 0.3750 0.0000  plane waves:   27858
 k-point 28 :  -0.2500 0.3750 0.0000  plane waves:   27894
 k-point 29 :  -0.1250 0.3750 0.0000  plane waves:   27874
 k-point 30 :   0.0000 0.5000 0.0000  plane waves:   27932
 k-point 31 :   0.1250 0.5000 0.0000  plane waves:   27873
 k-point 32 :   0.2500 0.5000 0.0000  plane waves:   27875
 k-point 33 :   0.3750 0.5000 0.0000  plane waves:   27895
 k-point 34 :   0.5000 0.5000 0.0000  plane waves:   27910

 maximum and minimum number of plane-waves per node :     27959    27858

 maximum number of plane-waves:     27959
 maximum index in each direction: 
   IXMAX=   14   IYMAX=   13   IZMAX=   40
   IXMIN=  -14   IYMIN=  -14   IZMIN=  -40

 WARNING: aliasing errors must be expected set NGX to  58 to avoid them
 WARNING: aliasing errors must be expected set NGY to  56 to avoid them
 WARNING: aliasing errors must be expected set NGZ to 162 to avoid them
 aliasing errors are usually negligible using standard VASP settings
 and one can safely disregard these warnings

 serial   3D FFT for wavefunctions

 total amount of memory used by VASP on root node   650782. kBytes
========================================================================

   base      :      30000. kBytes
   nonl-proj :     559647. kBytes
   fftplans  :       2414. kBytes
   grid      :      12150. kBytes
   one-center:        419. kBytes
   wavefun   :      46152. kBytes
 
     INWAV:  cpu time    0.0000: real time    0.0000
 Broyden mixing: mesh for mixing (old mesh)
   NGX = 27   NGY = 27   NGZ = 81
  (NGX  = 84   NGY  = 84   NGZ  =252)
  gives a total of  59049 points

 initial charge density was supplied:
 charge density of overlapping atoms calculated
 number of electron     159.0000000 magnetization 
 keeping initial charge density in first step


--------------------------------------------------------------------------------------------------------


 Maximum index for augmentation-charges          148 (set IRDMAX)


--------------------------------------------------------------------------------------------------------


 First call to EWALD:  gamma=   0.129
 Maximum number of real-space cells 4x 4x 2
 Maximum number of reciprocal cells 2x 2x 5

 FEWALD executed in parallel
    FEWALD:  cpu time    0.0022: real time    0.0023


----------------------------------------- Iteration    1(   1)  ---------------------------------------


    POTLOK:  cpu time    0.0479: real time    0.0482
    SETDIJ:  cpu time    0.0041: real time    0.0042
     EDDAV:  cpu time   30.7514: real time   30.8292
       DOS:  cpu time    0.0019: real time    0.0020
    --------------------------------------------
      LOOP:  cpu time   30.8124: real time   30.8927

 eigenvalue-minimisations  :  8160
 total energy-change (2. order) : 0.1124385E+04  (-0.3586431E+04)
 number of electron     159.0000000 magnetization 
 augmentation part      159.0000000 magnetization 

 Free energy of the ion-electron system (eV)
  ---------------------------------------------------
  alpha Z        PSCENC =        81.65567618
  Ewald energy   TEWEN  =     41891.17177386
  -Hartree energ DENC   =    -47723.81765302
  -exchange      EXHF   =         0.00000000
  -V(xc)+E(xc)   XCENC  =      -242.92463166
  PAW double counting   =      3467.42045192    -2871.19716117
  entropy T*S    EENTRO =        -0.52574106
  eigenvalues    EBANDS =      -238.83983622
  atomic energy  EATOM  =      6761.44252427
  Solvation  Ediel_sol  =         0.00000000
  ---------------------------------------------------
  free energy    TOTEN  =      1124.38540310 eV

  energy without entropy =     1124.91114416  energy(sigma->0) =     1124.64827363


--------------------------------------------------------------------------------------------------------




----------------------------------------- Iteration    1(   2)  ---------------------------------------


     EDDAV:  cpu time   40.5566: real time   40.6546
       DOS:  cpu time    0.0015: real time    0.0015
    --------------------------------------------
      LOOP:  cpu time   40.5591: real time   40.6648

 eigenvalue-minimisations  : 11400
 total energy-change (2. order) :-0.1128790E+04  (-0.1087156E+04)
 number of electron     159.0000000 magnetization 
 augmentation part      159.0000000 magnetization 

 Free energy of the ion-electron system (eV)
  ---------------------------------------------------
  alpha Z        PSCENC =        81.65567618
  Ewald energy   TEWEN  =     41891.17177386
  -Hartree energ DENC   =    -47723.81765302
  -exchange      EXHF   =         0.00000000
  -V(xc)+E(xc)   XCENC  =      -242.92463166
  PAW double counting   =      3467.42045192    -2871.19716117
  entropy T*S    EENTRO =        -0.19955557
  eigenvalues    EBANDS =     -1367.95596475
  atomic energy  EATOM  =      6761.44252427
  Solvation  Ediel_sol  =         0.00000000
  ---------------------------------------------------
  free energy    TOTEN  =        -4.40453994 eV

  energy without entropy =       -4.20498437  energy(sigma->0) =       -4.30476215


--------------------------------------------------------------------------------------------------------




----------------------------------------- Iteration    1(   3)  ---------------------------------------


     EDDAV:  cpu time   39.0039: real time   39.0984
       DOS:  cpu time    0.0018: real time    0.0018
    --------------------------------------------
      LOOP:  cpu time   39.0069: real time   39.1087

 eigenvalue-minimisations  : 10920
 total energy-change (2. order) :-0.1955934E+03  (-0.1883227E+03)
 number of electron     159.0000000 magnetization 
 augmentation part      159.0000000 magnetization 

 Free energy of the ion-electron system (eV)
  ---------------------------------------------------
  alpha Z        PSCENC =        81.65567618
  Ewald energy   TEWEN  =     41891.17177386
  -Hartree energ DENC   =    -47723.81765302
  -exchange      EXHF   =         0.00000000
  -V(xc)+E(xc)   XCENC  =      -242.92463166
  PAW double counting   =      3467.42045192    -2871.19716117
  entropy T*S    EENTRO =        -0.28747881
  eigenvalues    EBANDS =     -1563.46142391
  atomic energy  EATOM  =      6761.44252427
  Solvation  Ediel_sol  =         0.00000000
  ---------------------------------------------------
  free energy    TOTEN  =      -199.99792234 eV

  energy without entropy =     -199.71044354  energy(sigma->0) =     -199.85418294


--------------------------------------------------------------------------------------------------------




----------------------------------------- Iteration    1(   4)  ---------------------------------------


     EDDAV:  cpu time   42.0747: real time   42.1759
       DOS:  cpu time    0.0020: real time    0.0020
    --------------------------------------------
      LOOP:  cpu time   42.0779: real time   42.1887

 eigenvalue-minimisations  : 11960
 total energy-change (2. order) :-0.8902862E+01  (-0.8641514E+01)
 number of electron     159.0000000 magnetization 
 augmentation part      159.0000000 magnetization 

 Free energy of the ion-electron system (eV)
  ---------------------------------------------------
  alpha Z        PSCENC =        81.65567618
  Ewald energy   TEWEN  =     41891.17177386
  -Hartree energ DENC   =    -47723.81765302
  -exchange      EXHF   =         0.00000000
  -V(xc)+E(xc)   XCENC  =      -242.92463166
  PAW double counting   =      3467.42045192    -2871.19716117
  entropy T*S    EENTRO =        -0.32075463
  eigenvalues    EBANDS =     -1572.33100976
  atomic energy  EATOM  =      6761.44252427
  Solvation  Ediel_sol  =         0.00000000
  ---------------------------------------------------
  free energy    TOTEN  =      -208.90078401 eV

  energy without entropy =     -208.58002938  energy(sigma->0) =     -208.74040670


--------------------------------------------------------------------------------------------------------




----------------------------------------- Iteration    1(   5)  ---------------------------------------


     EDDAV:  cpu time   40.4511: real time   40.5478
       DOS:  cpu time    0.0019: real time    0.0019
    CHARGE:  cpu time    0.5868: real time    0.5882
    MIXING:  cpu time    0.0030: real time    0.0031
    --------------------------------------------
      LOOP:  cpu time   41.0441: real time   41.1513

 eigenvalue-minimisations  : 11440
 total energy-change (2. order) :-0.3233379E+00  (-0.3224507E+00)
 number of electron     159.0000110 magnetization 
 augmentation part       -9.8071614 magnetization 

 Broyden mixing:
  rms(total) = 0.27436E+01    rms(broyden)= 0.27432E+01
  rms(prec ) = 0.29281E+01
  weight for this iteration     100.00

 Free energy of the ion-electron system (eV)
  ---------------------------------------------------
  alpha Z        PSCENC =        81.65567618
  Ewald energy   TEWEN  =     41891.17177386
  -Hartree energ DENC   =    -47723.81765302
  -exchange      EXHF   =         0.00000000
  -V(xc)+E(xc)   XCENC  =      -242.92463166
  PAW double counting   =      3467.42045192    -2871.19716117
  entropy T*S    EENTRO =        -0.31752094
  eigenvalues    EBANDS =     -1572.65758130
  atomic energy  EATOM  =      6761.44252427
  Solvation  Ediel_sol  =         0.00000000
  ---------------------------------------------------
  free energy    TOTEN  =      -209.22412187 eV

  energy without entropy =     -208.90660093  energy(sigma->0) =     -209.06536140


--------------------------------------------------------------------------------------------------------




----------------------------------------- Iteration    1(   6)  ---------------------------------------


    POTLOK:  cpu time    0.0487: real time    0.0489
    SETDIJ:  cpu time    0.0036: real time    0.0036
     EDDAV:  cpu time   43.6420: real time   43.7468
       DOS:  cpu time    0.0016: real time    0.0016
    CHARGE:  cpu time    0.5853: real time    0.5867
    MIXING:  cpu time    0.0025: real time    0.0033
    --------------------------------------------
      LOOP:  cpu time   44.2851: real time   44.4023

 eigenvalue-minimisations  : 12520
 total energy-change (2. order) :-0.2749371E+02  (-0.1123034E+02)
 number of electron     159.0000105 magnetization 
 augmentation part        7.0921516 magnetization 

 Broyden mixing:
  rms(total) = 0.59214E+01    rms(broyden)= 0.59207E+01
  rms(prec ) = 0.65287E+01
  weight for this iteration     100.00

 eigenvalues of (default mixing * dielectric matrix)
  average eigenvalue GAMMA=   0.2940
  0.2940

 Free energy of the ion-electron system (eV)
  ---------------------------------------------------
  alpha Z        PSCENC =        81.65567618
  Ewald energy   TEWEN  =     41891.17177386
  -Hartree energ DENC   =    -47701.71203153
  -exchange      EXHF   =         0.00000000
  -V(xc)+E(xc)   XCENC  =      -233.61298342
  PAW double counting   =      3675.78119842    -3081.88615979
  entropy T*S    EENTRO =        -0.25622276
  eigenvalues    EBANDS =     -1629.30160823
  atomic energy  EATOM  =      6761.44252427
  Solvation  Ediel_sol  =         0.00000000
  ---------------------------------------------------
  free energy    TOTEN  =      -236.71783301 eV

  energy without entropy =     -236.46161025  energy(sigma->0) =     -236.58972163


--------------------------------------------------------------------------------------------------------




----------------------------------------- Iteration    1(   7)  ---------------------------------------


    POTLOK:  cpu time    0.0689: real time    0.0699
    SETDIJ:  cpu time    0.0055: real time    0.0055
     EDDAV:  cpu time   46.8214: real time   46.9332
       DOS:  cpu time    0.0019: real time    0.0019
    CHARGE:  cpu time    0.5985: real time    0.6000
    MIXING:  cpu time    0.0019: real time    0.0019
    --------------------------------------------
      LOOP:  cpu time   47.5004: real time   47.7337

 eigenvalue-minimisations  : 13520
 total energy-change (2. order) : 0.3986848E+02  (-0.1766811E+02)
 number of electron     159.0000086 magnetization 
 augmentation part       -6.2258192 magnetization 

 Broyden mixing:
  rms(total) = 0.20362E+01    rms(broyden)= 0.20343E+01
  rms(prec ) = 0.22635E+01
  weight for this iteration     100.00

 eigenvalues of (default mixing * dielectric matrix)
  average eigenvalue GAMMA=   0.5420
  0.8739  0.2101

 Free energy of the ion-electron system (eV)
  ---------------------------------------------------
  alpha Z        PSCENC =        81.65567618
  Ewald energy   TEWEN  =     41891.17177386
  -Hartree energ DENC   =    -47738.99692086
  -exchange      EXHF   =         0.00000000
  -V(xc)+E(xc)   XCENC  =      -234.99199648
  PAW double counting   =      3763.58745752    -3177.62385225
  entropy T*S    EENTRO =        -0.32033065
  eigenvalues    EBANDS =     -1542.77368244
  atomic energy  EATOM  =      6761.44252427
  Solvation  Ediel_sol  =         0.00000000
  ---------------------------------------------------
  free energy    TOTEN  =      -196.84935086 eV

  energy without entropy =     -196.52902021  energy(sigma->0) =     -196.68918553


--------------------------------------------------------------------------------------------------------




----------------------------------------- Iteration    1(   8)  ---------------------------------------


    POTLOK:  cpu time    0.0452: real time    0.0453
    SETDIJ:  cpu time    0.0034: real time    0.0034
     EDDAV:  cpu time   41.5557: real time   41.6550
       DOS:  cpu time    0.0022: real time    0.0022
    CHARGE:  cpu time    0.6117: real time    0.6131
    MIXING:  cpu time    0.0018: real time    0.0018
    --------------------------------------------
      LOOP:  cpu time   42.2213: real time   42.3322

 eigenvalue-minimisations  : 11800
 total energy-change (2. order) : 0.6877262E+01  (-0.1783490E+01)
 number of electron     159.0000095 magnetization 
 augmentation part       -6.4886369 magnetization 

 Broyden mixing:
  rms(total) = 0.13445E+01    rms(broyden)= 0.13441E+01
  rms(prec ) = 0.14639E+01
  weight for this iteration     100.00

 eigenvalues of (default mixing * dielectric matrix)
  average eigenvalue GAMMA=   0.5410
  1.0702  0.2413  0.3116

 Free energy of the ion-electron system (eV)
  ---------------------------------------------------
  alpha Z        PSCENC =        81.65567618
  Ewald energy   TEWEN  =     41891.17177386
  -Hartree energ DENC   =    -47762.24510128
  -exchange      EXHF   =         0.00000000
  -V(xc)+E(xc)   XCENC  =      -235.02935199
  PAW double counting   =      3904.62804745    -3320.28658125
  entropy T*S    EENTRO =        -0.31030870
  eigenvalues    EBANDS =     -1510.99876750
  atomic energy  EATOM  =      6761.44252427
  Solvation  Ediel_sol  =         0.00000000
  ---------------------------------------------------
  free energy    TOTEN  =      -189.97208896 eV

  energy without entropy =     -189.66178027  energy(sigma->0) =     -189.81693462


--------------------------------------------------------------------------------------------------------




----------------------------------------- Iteration    1(   9)  ---------------------------------------


    POTLOK:  cpu time    0.0452: real time    0.0453
    SETDIJ:  cpu time    0.0033: real time    0.0033
     EDDAV:  cpu time   43.7020: real time   43.8080
       DOS:  cpu time    0.0018: real time    0.0018
    CHARGE:  cpu time    0.6156: real time    0.6171
    MIXING:  cpu time    0.0019: real time    0.0020
    --------------------------------------------
      LOOP:  cpu time   44.3713: real time   44.4905

 eigenvalue-minimisations  : 12520
 total energy-change (2. order) : 0.1728915E+01  (-0.3377642E+00)
 number of electron     159.0000091 magnetization 
 augmentation part       -5.7120772 magnetization 

 Broyden mixing:
  rms(total) = 0.95004E+00    rms(broyden)= 0.94979E+00
  rms(prec ) = 0.10238E+01
  weight for this iteration     100.00

 eigenvalues of (default mixing * dielectric matrix)
  average eigenvalue GAMMA=   0.7351
  1.8023  0.6139  0.2201  0.3043

 Free energy of the ion-electron system (eV)
  ---------------------------------------------------
  alpha Z        PSCENC =        81.65567618
  Ewald energy   TEWEN  =     41891.17177386
  -Hartree energ DENC   =    -47766.10235069
  -exchange      EXHF   =         0.00000000
  -V(xc)+E(xc)   XCENC  =      -234.30440029
  PAW double counting   =      3963.42666565    -3379.79497735
  entropy T*S    EENTRO =        -0.34657752
  eigenvalues    EBANDS =     -1505.39150833
  atomic energy  EATOM  =      6761.44252427
  Solvation  Ediel_sol  =         0.00000000
  ---------------------------------------------------
  free energy    TOTEN  =      -188.24317421 eV

  energy without entropy =     -187.89659670  energy(sigma->0) =     -188.06988546


--------------------------------------------------------------------------------------------------------




----------------------------------------- Iteration    1(  10)  ---------------------------------------


    POTLOK:  cpu time    0.0495: real time    0.0496
    SETDIJ:  cpu time    0.0033: real time    0.0034
     EDDAV:  cpu time   46.5075: real time   46.6192
       DOS:  cpu time    0.0020: real time    0.0020
    CHARGE:  cpu time    0.6626: real time    0.6642
    MIXING:  cpu time    0.0018: real time    0.0018
    --------------------------------------------
      LOOP:  cpu time   47.2283: real time   47.3438

 eigenvalue-minimisations  : 13480
 total energy-change (2. order) : 0.1329916E+01  (-0.1714231E+00)
 number of electron     159.0000092 magnetization 
 augmentation part       -4.2716999 magnetization 

 Broyden mixing:
  rms(total) = 0.19916E+00    rms(broyden)= 0.19872E+00
  rms(prec ) = 0.20617E+00
  weight for this iteration     100.00

 eigenvalues of (default mixing * dielectric matrix)
  average eigenvalue GAMMA=   0.9532
  1.8063  1.8063  0.6379  0.2210  0.2944

 Free energy of the ion-electron system (eV)
  ---------------------------------------------------
  alpha Z        PSCENC =        81.65567618
  Ewald energy   TEWEN  =     41891.17177386
  -Hartree energ DENC   =    -47780.45081535
  -exchange      EXHF   =         0.00000000
  -V(xc)+E(xc)   XCENC  =      -232.58098891
  PAW double counting   =      4105.30479877    -3523.44697858
  entropy T*S    EENTRO =        -0.35260016
  eigenvalues    EBANDS =     -1489.65664798
  atomic energy  EATOM  =      6761.44252427
  Solvation  Ediel_sol  =         0.00000000
  ---------------------------------------------------
  free energy    TOTEN  =      -186.91325792 eV

  energy without entropy =     -186.56065775  energy(sigma->0) =     -186.73695783


--------------------------------------------------------------------------------------------------------




----------------------------------------- Iteration    1(  11)  ---------------------------------------


    POTLOK:  cpu time    0.0442: real time    0.0443
    SETDIJ:  cpu time    0.0032: real time    0.0033
     EDDAV:  cpu time   46.7816: real time   46.8954
       DOS:  cpu time    0.0018: real time    0.0018
    CHARGE:  cpu time    0.6650: real time    0.6666
    MIXING:  cpu time    0.0019: real time    0.0019
    --------------------------------------------
      LOOP:  cpu time   47.4992: real time   47.6251

 eigenvalue-minimisations  : 13560
 total energy-change (2. order) :-0.1014162E-01  (-0.4059458E-01)
 number of electron     159.0000087 magnetization 
 augmentation part       -4.6290989 magnetization 

 Broyden mixing:
  rms(total) = 0.30227E+00    rms(broyden)= 0.30222E+00
  rms(prec ) = 0.33464E+00
  weight for this iteration     100.00

 eigenvalues of (default mixing * dielectric matrix)
  average eigenvalue GAMMA=   0.9379
  2.1114  1.7719  0.6130  0.6130  0.2206  0.2976

 Free energy of the ion-electron system (eV)
  ---------------------------------------------------
  alpha Z        PSCENC =        81.65567618
  Ewald energy   TEWEN  =     41891.17177386
  -Hartree energ DENC   =    -47795.10871589
  -exchange      EXHF   =         0.00000000
  -V(xc)+E(xc)   XCENC  =      -232.12017485
  PAW double counting   =      4172.47528465    -3590.72940097
  entropy T*S    EENTRO =        -0.33458648
  eigenvalues    EBANDS =     -1475.37578030
  atomic energy  EATOM  =      6761.44252427
  Solvation  Ediel_sol  =         0.00000000
  ---------------------------------------------------
  free energy    TOTEN  =      -186.92339954 eV

  energy without entropy =     -186.58881305  energy(sigma->0) =     -186.75610629


--------------------------------------------------------------------------------------------------------




----------------------------------------- Iteration    1(  12)  ---------------------------------------


    POTLOK:  cpu time    0.0423: real time    0.0424
    SETDIJ:  cpu time    0.0036: real time    0.0036
     EDDAV:  cpu time   41.7735: real time   41.8741
       DOS:  cpu time    0.0017: real time    0.0017
    CHARGE:  cpu time    0.6405: real time    0.6420
    MIXING:  cpu time    0.0020: real time    0.0020
    --------------------------------------------
      LOOP:  cpu time   42.4649: real time   42.5775

 eigenvalue-minimisations  : 11920
 total energy-change (2. order) :-0.5995252E-02  (-0.3743240E-01)
 number of electron     159.0000089 magnetization 
 augmentation part       -4.2213380 magnetization 

 Broyden mixing:
  rms(total) = 0.38194E+00    rms(broyden)= 0.38175E+00
  rms(prec ) = 0.42071E+00
  weight for this iteration     100.00

 eigenvalues of (default mixing * dielectric matrix)
  average eigenvalue GAMMA=   0.8629
  2.2689  1.6938  0.7882  0.6432  0.2207  0.2968  0.1284

 Free energy of the ion-electron system (eV)
  ---------------------------------------------------
  alpha Z        PSCENC =        81.65567618
  Ewald energy   TEWEN  =     41891.17177386
  -Hartree energ DENC   =    -47800.36153310
  -exchange      EXHF   =         0.00000000
  -V(xc)+E(xc)   XCENC  =      -231.95212394
  PAW double counting   =      4187.15646072    -3605.36263343
  entropy T*S    EENTRO =        -0.34078037
  eigenvalues    EBANDS =     -1470.33875897
  atomic energy  EATOM  =      6761.44252427
  Solvation  Ediel_sol  =         0.00000000
  ---------------------------------------------------
  free energy    TOTEN  =      -186.92939479 eV

  energy without entropy =     -186.58861441  energy(sigma->0) =     -186.75900460


--------------------------------------------------------------------------------------------------------




----------------------------------------- Iteration    1(  13)  ---------------------------------------


    POTLOK:  cpu time    0.0425: real time    0.0426
    SETDIJ:  cpu time    0.0041: real time    0.0041
     EDDAV:  cpu time   44.2077: real time   44.3133
       DOS:  cpu time    0.0016: real time    0.0016
    CHARGE:  cpu time    0.6461: real time    0.6476
    MIXING:  cpu time    0.0020: real time    0.0020
    --------------------------------------------
      LOOP:  cpu time   44.9054: real time   45.0230

 eigenvalue-minimisations  : 12760
 total energy-change (2. order) : 0.1058970E+00  (-0.2567885E-01)
 number of electron     159.0000089 magnetization 
 augmentation part       -4.1134420 magnetization 

 Broyden mixing:
  rms(total) = 0.87789E-01    rms(broyden)= 0.87361E-01
  rms(prec ) = 0.98285E-01
  weight for this iteration     100.00

 eigenvalues of (default mixing * dielectric matrix)
  average eigenvalue GAMMA=   0.8103
  2.2735  1.7181  0.8560  0.6283  0.2206  0.2976  0.3703  0.1178

 Free energy of the ion-electron system (eV)
  ---------------------------------------------------
  alpha Z        PSCENC =        81.65567618
  Ewald energy   TEWEN  =     41891.17177386
  -Hartree energ DENC   =    -47802.86982869
  -exchange      EXHF   =         0.00000000
  -V(xc)+E(xc)   XCENC  =      -231.88322895
  PAW double counting   =      4191.71587043    -3609.89095922
  entropy T*S    EENTRO =        -0.34549269
  eigenvalues    EBANDS =     -1467.81983297
  atomic energy  EATOM  =      6761.44252427
  Solvation  Ediel_sol  =         0.00000000
  ---------------------------------------------------
  free energy    TOTEN  =      -186.82349779 eV

  energy without entropy =     -186.47800509  energy(sigma->0) =     -186.65075144


--------------------------------------------------------------------------------------------------------




----------------------------------------- Iteration    1(  14)  ---------------------------------------


    POTLOK:  cpu time    0.0425: real time    0.0426
    SETDIJ:  cpu time    0.0034: real time    0.0035
     EDDAV:  cpu time   43.8036: real time   43.9087
       DOS:  cpu time    0.0010: real time    0.0018
    CHARGE:  cpu time    0.6586: real time    0.6602
    MIXING:  cpu time    0.0023: real time    0.0023
    --------------------------------------------
      LOOP:  cpu time   44.5136: real time   44.6309

 eigenvalue-minimisations  : 12600
 total energy-change (2. order) : 0.7085273E-02  (-0.1568181E-02)
 number of electron     159.0000089 magnetization 
 augmentation part       -4.1430955 magnetization 

 Broyden mixing:
  rms(total) = 0.48071E-01    rms(broyden)= 0.48025E-01
  rms(prec ) = 0.54490E-01
  weight for this iteration     100.00

 eigenvalues of (default mixing * dielectric matrix)
  average eigenvalue GAMMA=   0.8403
  2.2583  1.9104  1.1717  0.6644  0.6644  0.2206  0.2968  0.2581  0.1180

 Free energy of the ion-electron system (eV)
  ---------------------------------------------------
  alpha Z        PSCENC =        81.65567618
  Ewald energy   TEWEN  =     41891.17177386
  -Hartree energ DENC   =    -47804.86032307
  -exchange      EXHF   =         0.00000000
  -V(xc)+E(xc)   XCENC  =      -231.85695800
  PAW double counting   =      4192.47792134    -3610.62404945
  entropy T*S    EENTRO =        -0.34535950
  eigenvalues    EBANDS =     -1465.87761814
  atomic energy  EATOM  =      6761.44252427
  Solvation  Ediel_sol  =         0.00000000
  ---------------------------------------------------
  free energy    TOTEN  =      -186.81641251 eV

  energy without entropy =     -186.47105301  energy(sigma->0) =     -186.64373276


--------------------------------------------------------------------------------------------------------




----------------------------------------- Iteration    1(  15)  ---------------------------------------


    POTLOK:  cpu time    0.0435: real time    0.0436
    SETDIJ:  cpu time    0.0032: real time    0.0032
     EDDAV:  cpu time   45.2891: real time   45.3972
       DOS:  cpu time    0.0016: real time    0.0016
    CHARGE:  cpu time    0.6759: real time    0.6775
    MIXING:  cpu time    0.0024: real time    0.0023
    --------------------------------------------
      LOOP:  cpu time   46.0170: real time   46.1368

 eigenvalue-minimisations  : 13080
 total energy-change (2. order) : 0.1405426E-02  (-0.1118145E-02)
 number of electron     159.0000089 magnetization 
 augmentation part       -4.2094078 magnetization 

 Broyden mixing:
  rms(total) = 0.49655E-01    rms(broyden)= 0.49624E-01
  rms(prec ) = 0.55481E-01
  weight for this iteration     100.00

 eigenvalues of (default mixing * dielectric matrix)
  average eigenvalue GAMMA=   0.8107
  2.1653  2.1653  1.3003  0.6850  0.6850  0.2206  0.2978  0.2978  0.1178  0.1720

 Free energy of the ion-electron system (eV)
  ---------------------------------------------------
  alpha Z        PSCENC =        81.65567618
  Ewald energy   TEWEN  =     41891.17177386
  -Hartree energ DENC   =    -47809.41388144
  -exchange      EXHF   =         0.00000000
  -V(xc)+E(xc)   XCENC  =      -231.79949491
  PAW double counting   =      4193.64086243    -3611.72650606
  entropy T*S    EENTRO =        -0.34416025
  eigenvalues    EBANDS =     -1461.44180115
  atomic energy  EATOM  =      6761.44252427
  Solvation  Ediel_sol  =         0.00000000
  ---------------------------------------------------
  free energy    TOTEN  =      -186.81500709 eV

  energy without entropy =     -186.47084683  energy(sigma->0) =     -186.64292696


--------------------------------------------------------------------------------------------------------




----------------------------------------- Iteration    1(  16)  ---------------------------------------


    POTLOK:  cpu time    0.0459: real time    0.0460
    SETDIJ:  cpu time    0.0032: real time    0.0032
     EDDAV:  cpu time   44.7218: real time   44.8295
       DOS:  cpu time    0.0010: real time    0.0018
    CHARGE:  cpu time    0.6728: real time    0.6744
    MIXING:  cpu time    0.0024: real time    0.0024
    --------------------------------------------
      LOOP:  cpu time   45.4493: real time   45.5685

 eigenvalue-minimisations  : 12840
 total energy-change (2. order) : 0.1166327E-02  (-0.8709982E-03)
 number of electron     159.0000089 magnetization 
 augmentation part       -4.2190940 magnetization 

 Broyden mixing:
  rms(total) = 0.34132E-01    rms(broyden)= 0.34100E-01
  rms(prec ) = 0.38681E-01
  weight for this iteration     100.00

 eigenvalues of (default mixing * dielectric matrix)
  average eigenvalue GAMMA=   0.8481
  2.3320  2.3320  1.3592  1.0002  0.6446  0.6446  0.2971  0.2206  0.2561  0.1176
  0.1251

 Free energy of the ion-electron system (eV)
  ---------------------------------------------------
  alpha Z        PSCENC =        81.65567618
  Ewald energy   TEWEN  =     41891.17177386
  -Hartree energ DENC   =    -47811.37944255
  -exchange      EXHF   =         0.00000000
  -V(xc)+E(xc)   XCENC  =      -231.77551249
  PAW double counting   =      4194.02635281    -3612.08960085
  entropy T*S    EENTRO =        -0.34401048
  eigenvalues    EBANDS =     -1459.52160150
  atomic energy  EATOM  =      6761.44252427
  Solvation  Ediel_sol  =         0.00000000
  ---------------------------------------------------
  free energy    TOTEN  =      -186.81384076 eV

  energy without entropy =     -186.46983028  energy(sigma->0) =     -186.64183552


--------------------------------------------------------------------------------------------------------




----------------------------------------- Iteration    1(  17)  ---------------------------------------


    POTLOK:  cpu time    0.0428: real time    0.0429
    SETDIJ:  cpu time    0.0032: real time    0.0032
     EDDAV:  cpu time   44.3318: real time   44.4378
       DOS:  cpu time    0.0016: real time    0.0016
    CHARGE:  cpu time    0.6557: real time    0.6573
    MIXING:  cpu time    0.0024: real time    0.0024
    --------------------------------------------
      LOOP:  cpu time   45.0389: real time   45.1571

 eigenvalue-minimisations  : 12720
 total energy-change (2. order) : 0.1391972E-02  (-0.2798362E-03)
 number of electron     159.0000089 magnetization 
 augmentation part       -4.1947553 magnetization 

 Broyden mixing:
  rms(total) = 0.90429E-02    rms(broyden)= 0.90172E-02
  rms(prec ) = 0.12198E-01
  weight for this iteration     100.00

 eigenvalues of (default mixing * dielectric matrix)
  average eigenvalue GAMMA=   0.8357
  2.3646  2.3646  1.3538  1.1284  0.6649  0.6649  0.4735  0.2970  0.2206  0.2540
  0.1176  0.1245

 Free energy of the ion-electron system (eV)
  ---------------------------------------------------
  alpha Z        PSCENC =        81.65567618
  Ewald energy   TEWEN  =     41891.17177386
  -Hartree energ DENC   =    -47815.63722365
  -exchange      EXHF   =         0.00000000
  -V(xc)+E(xc)   XCENC  =      -231.72748992
  PAW double counting   =      4194.44571000    -3612.46985557
  entropy T*S    EENTRO =        -0.34442511
  eigenvalues    EBANDS =     -1455.34913885
  atomic energy  EATOM  =      6761.44252427
  Solvation  Ediel_sol  =         0.00000000
  ---------------------------------------------------
  free energy    TOTEN  =      -186.81244879 eV

  energy without entropy =     -186.46802368  energy(sigma->0) =     -186.64023623


--------------------------------------------------------------------------------------------------------




----------------------------------------- Iteration    1(  18)  ---------------------------------------


    POTLOK:  cpu time    0.0430: real time    0.0450
    SETDIJ:  cpu time    0.0032: real time    0.0032
     EDDAV:  cpu time   40.2835: real time   40.3805
       DOS:  cpu time    0.0022: real time    0.0029
    --------------------------------------------
      LOOP:  cpu time   40.3359: real time   40.4432

 eigenvalue-minimisations  : 11360
 total energy-change (2. order) : 0.3033218E-04  (-0.6687432E-04)
 number of electron     159.0000089 magnetization 
 augmentation part       -4.1947553 magnetization 

 Free energy of the ion-electron system (eV)
  ---------------------------------------------------
  alpha Z        PSCENC =        81.65567618
  Ewald energy   TEWEN  =     41891.17177386
  -Hartree energ DENC   =    -47817.78748968
  -exchange      EXHF   =         0.00000000
  -V(xc)+E(xc)   XCENC  =      -231.70670962
  PAW double counting   =      4194.29165273    -3612.30682380
  entropy T*S    EENTRO =        -0.34446633
  eigenvalues    EBANDS =     -1453.22855605
  atomic energy  EATOM  =      6761.44252427
  Solvation  Ediel_sol  =         0.00000000
  ---------------------------------------------------
  free energy    TOTEN  =      -186.81241845 eV

  energy without entropy =     -186.46795213  energy(sigma->0) =     -186.64018529


--------------------------------------------------------------------------------------------------------




 average (electrostatic) potential at core
  the test charge radii are     1.2064  1.2296  1.1823  0.9698
  (the norm of the test charge is              1.0000)
       1 -50.0905       2 -50.0872       3 -50.0875       4 -47.5714       5 -47.5681
       6 -47.5679       7 -49.9845       8 -50.0016       9 -50.0008      10 -95.3817
      11 -95.2894      12 -95.3173      13 -95.2483      14 -95.3826      15 -95.2456
      16 -95.3825      17 -95.2453      18 -95.0534      19 -95.2522      20 -95.0576
      21 -94.9009      22 -95.3163      23 -95.2473      24 -95.3133      25 -95.5666
      26 -95.0528      27 -95.2514
 
 
 
 E-fermi :  -3.4242     XC(G=0):  -2.4981     alpha+bet : -2.1596


 k-point     1 :       0.0000    0.0000    0.0000
  band No.  band energies     occupation 
      1     -18.3538      2.00000
      2     -17.1889      2.00000
      3     -17.1755      2.00000
      4     -17.1520      2.00000
      5     -16.9517      2.00000
      6     -16.9203      2.00000
      7     -16.9068      2.00000
      8     -16.5849      2.00000
      9     -16.4527      2.00000
     10     -16.4516      2.00000
     11     -16.4179      2.00000
     12     -16.4137      2.00000
     13     -16.4125      2.00000
     14     -16.3531      2.00000
     15     -16.2399      2.00000
     16     -16.0057      2.00000
     17     -16.0047      2.00000
     18     -15.7742      2.00000
     19      -9.7117      2.00000
     20      -9.5570      2.00000
     21      -9.5440      2.00000
     22      -9.3414      2.00000
     23      -9.2798      2.00000
     24      -9.2726      2.00000
     25      -9.2289      2.00000
     26      -8.9485      2.00000
     27      -8.8890      2.00000
     28      -8.8763      2.00000
     29      -8.7468      2.00000
     30      -8.7459      2.00000
     31      -8.6958      2.00000
     32      -8.4415      2.00000
     33      -8.4366      2.00000
     34      -8.4096      2.00000
     35      -8.2903      2.00000
     36      -8.2869      2.00000
     37      -8.2777      2.00000
     38      -8.2692      2.00000
     39      -8.2095      2.00000
     40      -8.0404      2.00000
     41      -7.9507      2.00000
     42      -7.9395      2.00000
     43      -7.9247      2.00000
     44      -7.6425      2.00000
     45      -7.6265      2.00000
     46      -7.4894      2.00000
     47      -7.4840      2.00000
     48      -7.3797      2.00000
     49      -7.3130      2.00000
     50      -7.1383      2.00000
     51      -7.1275      2.00000
     52      -6.7148      2.00000
     53      -6.6681      2.00000
     54      -6.6441      2.00000
     55      -6.5789      2.00000
     56      -6.5756      2.00000
     57      -6.5507      2.00000
     58      -5.8392      2.00000
     59      -5.8045      2.00000
     60      -5.7591      2.00000
     61      -5.6676      2.00000
     62      -5.6207      2.00000
     63      -5.6187      2.00000
     64      -5.5345      2.00000
     65      -5.4465      2.00000
     66      -5.4456      2.00000
     67      -5.4030      2.00000
     68      -5.3371      2.00000
     69      -5.3368      2.00000
     70      -5.2018      2.00000
     71      -4.4134      2.00000
     72      -4.4017      2.00000
     73      -4.3414      2.00000
     74      -4.1864      2.00000
     75      -4.1805      2.00000
     76      -3.9999      1.99995
     77      -3.9999      1.99995
     78      -3.9769      1.99991
     79      -3.9523      1.99981
     80      -3.9315      1.99967
     81      -3.3363      0.53410
     82      -3.3351      0.52884
     83      -2.8996      0.00021
     84      -2.7989      0.00001
     85      -2.7592      0.00000
     86      -2.7536      0.00000
     87      -2.6104      0.00000
     88      -2.6097      0.00000
     89      -2.6000      0.00000
     90      -2.4827      0.00000
     91      -2.4094      0.00000
     92      -2.4046      0.00000
     93      -2.2445      0.00000
     94      -2.1907      0.00000
     95      -2.1896      0.00000
     96      -2.1750      0.00000
     97      -1.9631      0.00000
     98      -1.9431      0.00000
     99      -1.9342      0.00000
    100      -0.7665      0.00000
    101      -0.7295      0.00000
    102      -0.7113      0.00000
    103      -0.6494      0.00000
    104      -0.4272      0.00000
    105      -0.3873      0.00000
    106       0.2545      0.00000
    107       0.2595      0.00000
    108       0.3195      0.00000
    109       0.3640      0.00000
    110       0.5456      0.00000
    111       0.5922      0.00000
    112       0.7111      0.00000
    113       0.8419      0.00000
    114       0.8564      0.00000
    115       0.9526      0.00000
    116       1.0105      0.00000
    117       1.0357      0.00000
    118       1.2829      0.00000
    119       1.3543      0.00000
    120       1.9165      0.00000

 k-point     2 :       0.1250    0.0000    0.0000
  band No.  band energies     occupation 
      1     -18.3324      2.00000
      2     -17.3455      2.00000
      3     -17.1825      2.00000
      4     -17.0929      2.00000
      5     -16.9405      2.00000
      6     -16.8911      2.00000
      7     -16.8743      2.00000
      8     -16.5843      2.00000
      9     -16.4870      2.00000
     10     -16.4637      2.00000
     11     -16.4199      2.00000
     12     -16.4064      2.00000
     13     -16.3693      2.00000
     14     -16.3178      2.00000
     15     -16.2445      2.00000
     16     -16.0116      2.00000
     17     -16.0080      2.00000
     18     -15.7789      2.00000
     19      -9.7866      2.00000
     20      -9.6533      2.00000
     21      -9.5865      2.00000
     22      -9.3721      2.00000
     23      -9.2800      2.00000
     24      -9.2409      2.00000
     25      -9.1641      2.00000
     26      -9.0261      2.00000
     27      -8.9410      2.00000
     28      -8.8936      2.00000
     29      -8.7357      2.00000
     30      -8.6366      2.00000
     31      -8.6030      2.00000
     32      -8.4532      2.00000
     33      -8.4159      2.00000
     34      -8.3832      2.00000
     35      -8.3286      2.00000
     36      -8.2818      2.00000
     37      -8.2581      2.00000
     38      -8.2531      2.00000
     39      -8.1876      2.00000
     40      -8.0361      2.00000
     41      -7.9145      2.00000
     42      -7.8651      2.00000
     43      -7.8353      2.00000
     44      -7.6654      2.00000
     45      -7.6202      2.00000
     46      -7.4722      2.00000
     47      -7.4620      2.00000
     48      -7.3456      2.00000
     49      -7.3343      2.00000
     50      -7.1474      2.00000
     51      -7.1296      2.00000
     52      -6.7977      2.00000
     53      -6.7370      2.00000
     54      -6.6895      2.00000
     55      -6.6062      2.00000
     56      -6.4474      2.00000
     57      -6.4158      2.00000
     58      -5.9425      2.00000
     59      -5.9164      2.00000
     60      -5.8344      2.00000
     61      -5.7663      2.00000
     62      -5.6750      2.00000
     63      -5.6708      2.00000
     64      -5.6129      2.00000
     65      -5.5263      2.00000
     66      -5.5171      2.00000
     67      -5.3515      2.00000
     68      -5.2252      2.00000
     69      -5.2053      2.00000
     70      -5.0485      2.00000
     71      -4.5715      2.00000
     72      -4.4897      2.00000
     73      -4.3096      2.00000
     74      -4.1994      2.00000
     75      -4.1615      2.00000
     76      -4.0435      1.99999
     77      -3.9812      1.99992
     78      -3.9395      1.99973
[...]
    104      -0.5765      0.00000
    105      -0.5095      0.00000
    106      -0.4671      0.00000
    107      -0.2867      0.00000
    108      -0.2659      0.00000
    109      -0.0551      0.00000
    110       0.1612      0.00000
    111       0.5459      0.00000
    112       0.6692      0.00000
    113       0.9092      0.00000
    114       0.9689      0.00000
    115       1.0691      0.00000
    116       1.1891      0.00000
    117       1.3652      0.00000
    118       2.1301      0.00000
    119       2.2811      0.00000
    120       2.3910      0.00000

 k-point    34 :       0.5000    0.5000    0.0000
  band No.  band energies     occupation 
      1     -17.4303      2.00000
      2     -17.3368      2.00000
      3     -16.7274      2.00000
      4     -16.6925      2.00000
      5     -16.5208      2.00000
      6     -16.3471      2.00000
      7     -16.2414      2.00000
      8     -16.1972      2.00000
      9     -16.0327      2.00000
     10     -16.0058      2.00000
     11     -15.9168      2.00000
     12     -15.9046      2.00000
     13     -15.7792      2.00000
     14     -15.7268      2.00000
     15     -15.6030      2.00000
     16     -15.5924      2.00000
     17     -15.5090      2.00000
     18     -15.4817      2.00000
     19      -9.7600      2.00000
     20      -9.2845      2.00000
     21      -9.1403      2.00000
     22      -9.0442      2.00000
     23      -8.8976      2.00000
     24      -8.7757      2.00000
     25      -8.5566      2.00000
     26      -8.5320      2.00000
     27      -8.4003      2.00000
     28      -8.3152      2.00000
     29      -8.2806      2.00000
     30      -8.1795      2.00000
     31      -8.0913      2.00000
     32      -8.0171      2.00000
     33      -7.8888      2.00000
     34      -7.8665      2.00000
     35      -7.7524      2.00000
     36      -7.6185      2.00000
     37      -7.4782      2.00000
     38      -7.4333      2.00000
     39      -7.4291      2.00000
     40      -7.1965      2.00000
     41      -7.1311      2.00000
     42      -7.0831      2.00000
     43      -6.9891      2.00000
     44      -6.9324      2.00000
     45      -6.7629      2.00000
     46      -6.7192      2.00000
     47      -6.6992      2.00000
     48      -6.6247      2.00000
     49      -6.5250      2.00000
     50      -6.4223      2.00000
     51      -6.3853      2.00000
     52      -6.3622      2.00000
     53      -6.3380      2.00000
     54      -6.2691      2.00000
     55      -6.1758      2.00000
     56      -6.0370      2.00000
     57      -6.0320      2.00000
     58      -6.0191      2.00000
     59      -5.9478      2.00000
     60      -5.8755      2.00000
     61      -5.7732      2.00000
     62      -5.6836      2.00000
     63      -5.6402      2.00000
     64      -5.4884      2.00000
     65      -5.3278      2.00000
     66      -5.0816      2.00000
     67      -4.9907      2.00000
     68      -4.9659      2.00000
     69      -4.8117      2.00000
     70      -4.6874      2.00000
     71      -4.6458      2.00000
     72      -4.4064      2.00000
     73      -4.3819      2.00000
     74      -4.2918      2.00000
     75      -4.2873      2.00000
     76      -4.1024      2.00000
     77      -3.6709      1.99987
     78      -3.5300      1.99538
     79      -3.2698      1.67938
     80      -3.0999      0.83512
     81      -2.8770      0.07437
     82      -2.7762      0.01253
     83      -2.7559      0.00827
     84      -2.6958      0.00217
     85      -2.6309      0.00042
     86      -2.5560      0.00005
     87      -2.4017      0.00000
     88      -2.0932      0.00000
     89      -1.9755      0.00000
     90      -1.9617      0.00000
     91      -1.8113      0.00000
     92      -1.7490      0.00000
     93      -1.5975      0.00000
     94      -1.4990      0.00000
     95      -1.1963      0.00000
     96      -1.1321      0.00000
     97      -1.0417      0.00000
     98      -0.9423      0.00000
     99      -0.9375      0.00000
    100      -0.7713      0.00000
    101      -0.7663      0.00000
    102      -0.7504      0.00000
    103      -0.6546      0.00000
    104      -0.5785      0.00000
    105      -0.5699      0.00000
    106      -0.5117      0.00000
    107      -0.2548      0.00000
    108      -0.2053      0.00000
    109      -0.0910      0.00000
    110       0.2828      0.00000
    111       0.4200      0.00000
    112       0.6582      0.00000
    113       0.9193      0.00000
    114       0.9904      0.00000
    115       1.0762      0.00000
    116       1.2074      0.00000
    117       1.3935      0.00000
    118       2.2108      0.00000
    119       2.2419      0.00000
    120       2.3586      0.00000


--------------------------------------------------------------------------------------------------------


 soft charge-density along one line, spin component           1
         0         1         2         3         4         5         6         7         8         9
 total charge-density along one line
 
 pseudopotential strength for first ion, spin component:           1
 -7.290  -0.049  -0.000  -0.000  -0.000   0.695   0.014   0.000
 -0.049  -7.231  -0.000   0.000   0.000   0.014   0.677   0.000
 -0.000  -0.000  -7.189  -0.025  -0.019   0.000   0.000   0.666
 -0.000   0.000  -0.025  -7.209  -0.029   0.000  -0.000   0.007
 -0.000   0.000  -0.019  -0.029  -7.293   0.000  -0.000   0.006
  0.695   0.014   0.000   0.000   0.000   0.327  -0.004  -0.000
  0.014   0.677   0.000  -0.000  -0.000  -0.004   0.332  -0.000
  0.000   0.000   0.666   0.007   0.006  -0.000  -0.000   0.334
  0.000  -0.000   0.007   0.670   0.010  -0.000   0.000  -0.002
  0.000  -0.000   0.006   0.010   0.696  -0.000   0.000  -0.002
 -0.000   0.000  -0.016   0.014  -0.005   0.000  -0.000   0.003
 -0.000   0.000  -0.006   0.004  -0.001   0.000  -0.000   0.001
 -0.002  -0.003   0.000   0.000   0.000   0.001   0.000  -0.000
  0.000  -0.000  -0.000   0.001  -0.000  -0.000   0.000  -0.000
 -0.000   0.000  -0.000  -0.003   0.003   0.000  -0.000  -0.000
 -0.001  -0.001   0.000   0.000   0.000   0.000  -0.000  -0.000
  0.000  -0.000   0.002   0.001  -0.000  -0.000   0.000  -0.001
 -0.000   0.000  -0.000  -0.001   0.003   0.000  -0.000   0.000
 total augmentation occupancy for first ion, spin component:           1
  0.838   0.107  -0.000  -0.000  -0.000   0.419   0.236  -0.000  -0.000   0.000   0.000   0.000  -0.068   0.000   0.000  -0.002
  0.107   1.113  -0.000  -0.000  -0.000   0.232   0.602   0.000  -0.000  -0.000   0.000   0.000  -0.047   0.001   0.000  -0.002
 -0.000  -0.000   0.721  -0.043  -0.062  -0.000   0.000   0.264   0.006  -0.015   0.169  -0.001   0.000   0.019   0.005  -0.000
 -0.000  -0.000  -0.043   1.076  -0.196  -0.000  -0.000   0.002   0.635  -0.270  -0.028  -0.005   0.001  -0.003  -0.047   0.000
 -0.000  -0.000  -0.062  -0.196   0.786   0.000  -0.000  -0.018  -0.269   0.409   0.002   0.005   0.000   0.002   0.045  -0.000
  0.419   0.232  -0.000  -0.000   0.000   0.375   0.212  -0.000  -0.000  -0.000  -0.000   0.000  -0.017   0.000   0.000  -0.003
  0.236   0.602   0.000  -0.000  -0.000   0.212   0.540  -0.000  -0.000  -0.000  -0.000   0.000  -0.040   0.001   0.000  -0.003
 -0.000   0.000   0.264   0.002  -0.018  -0.000  -0.000   0.239   0.007  -0.007   0.006   0.003   0.000   0.007  -0.002   0.000
 -0.000  -0.000   0.006   0.635  -0.269  -0.000  -0.000   0.007   0.570  -0.244  -0.015  -0.006   0.000   0.004  -0.057   0.000
  0.000  -0.000  -0.015  -0.270   0.409  -0.000  -0.000  -0.007  -0.244   0.379   0.034   0.004  -0.000  -0.008   0.025  -0.000
  0.000   0.000   0.169  -0.028   0.002  -0.000  -0.000   0.006  -0.015   0.034   1.377   0.130   0.000  -0.070  -0.009   0.000
  0.000   0.000  -0.001  -0.005   0.005   0.000   0.000   0.003  -0.006   0.004   0.130   0.025   0.000  -0.004   0.001   0.000
 -0.068  -0.047   0.000   0.001   0.000  -0.017  -0.040   0.000   0.000  -0.000   0.000   0.000   0.344   0.000   0.000   0.025
  0.000   0.001   0.019  -0.003   0.002   0.000   0.001   0.007   0.004  -0.008  -0.070  -0.004   0.000   0.404  -0.016   0.000
  0.000   0.000   0.005  -0.047   0.045   0.000   0.000  -0.002  -0.057   0.025  -0.009   0.001   0.000  -0.016   0.353   0.000
 -0.002  -0.002  -0.000   0.000  -0.000  -0.003  -0.003   0.000   0.000  -0.000   0.000   0.000   0.025   0.000   0.000   0.003
  0.000   0.000   0.000  -0.002  -0.000   0.000   0.000   0.001  -0.001  -0.000  -0.003  -0.001   0.000   0.028  -0.001   0.000
  0.000   0.000   0.001  -0.002  -0.000   0.000   0.000   0.000  -0.004   0.002  -0.000   0.000   0.000  -0.001   0.027   0.000


------------------------ aborting loop because EDIFF is reached ----------------------------------------


    CHARGE:  cpu time    0.5758: real time    0.5771
    FORLOC:  cpu time    0.0135: real time    0.0135
    FORNL :  cpu time    8.9949: real time    9.0164
    STRESS:  cpu time   46.1844: real time   46.2947
    FORCOR:  cpu time    0.0526: real time    0.0527
    FORHAR:  cpu time    0.0190: real time    0.0190
    MIXING:  cpu time    0.0013: real time    0.0013
    OFIELD:  cpu time    0.0000: real time    0.0000

  FORCE on cell =-STRESS in cart. coord.  units (eV):
  Direction    XX          YY          ZZ          XY          YZ          ZX
  --------------------------------------------------------------------------------------
  Alpha Z    88.20986    88.20986    88.20986
  Ewald   48750.99062 48751.52628-53688.53894     0.00522    -0.05138    -0.17047
  Hartree 49467.47976 49467.85305-49114.42904     0.07528    -0.01856    -0.04352
  E(xc)    -609.90021  -609.91471  -616.99674    -0.00287     0.00083     0.01126
  Local  ************************100245.10716    -0.10678     0.07882     0.25236
  n-local  1214.90397  1214.71926  1250.42644    -0.01215    -0.00612     0.00838
  augment  -212.31485  -212.23512  -215.10291     0.01001     0.00172    -0.01534
  Kinetic  2012.55359  2012.82467  2049.38088     0.01815    -0.01238    -0.07498
  Fock        0.00000     0.00000     0.00000     0.00000     0.00000     0.00000
  -------------------------------------------------------------------------------------
  Total       0.24994     0.30676    -1.94328    -0.01313    -0.00708    -0.03232
  in kB       0.16499     0.20250    -1.28285    -0.00867    -0.00468    -0.02133
  external pressure =       -0.31 kB  Pullay stress =        0.00 kB


 VOLUME and BASIS-vectors are now :
 -----------------------------------------------------------------------------
  energy-cutoff  :      280.00
  volume of cell :     2427.00
      direct lattice vectors                 reciprocal lattice vectors
     8.369544292  4.833291057  0.000000000     0.059738631  0.103452259  0.000000000
    -8.369294075  4.832858895  0.000000000    -0.059743973  0.103455352  0.000000000
     0.000000000  0.000000000 30.000000000     0.000000000  0.000000000  0.033333333

  length of vectors
     9.664883553  9.664450756 30.000000000     0.119461601  0.119466950  0.033333333


 FORCES acting on ions
    electron-ion (+dipol)            ewald-force                    non-local-force                 convergence-correction
 -----------------------------------------------------------------------------------------------
   -.534E+00 0.139E+00 0.869E+01   -.634E-01 -.107E+00 -.902E+01   0.528E+00 0.102E-01 0.332E+00   0.422E-01 -.314E-01 0.110E-01
   0.810E+00 0.696E-01 0.928E+01   -.565E+00 0.499E+00 -.963E+01   -.223E+00 -.504E+00 0.336E+00   0.204E-01 -.689E-01 0.632E-02
   0.885E+00 0.430E-01 0.920E+01   -.646E+00 -.540E+00 -.955E+01   -.216E+00 0.511E+00 0.333E+00   0.232E-01 0.910E-03 0.290E-02
   -.324E+02 0.311E-01 -.111E+01   0.319E+02 0.873E-02 0.126E+01   0.522E+00 -.913E-03 -.165E+00   -.852E-01 -.373E-01 0.906E-02
   0.160E+02 -.277E+02 -.133E+01   -.157E+02 0.272E+02 0.149E+01   -.294E+00 0.485E+00 -.173E+00   -.356E-02 -.965E-02 0.127E-01
   0.159E+02 0.276E+02 -.138E+01   -.156E+02 -.271E+02 0.154E+01   -.297E+00 -.492E+00 -.174E+00   0.628E-01 0.484E-01 0.104E-01
   0.346E+02 -.856E-01 -.835E+01   -.351E+02 -.388E-02 0.871E+01   0.501E+00 -.610E-02 -.370E+00   -.836E-02 0.872E-01 0.735E-03
   -.175E+02 0.299E+02 -.843E+01   0.177E+02 -.303E+02 0.880E+01   -.254E+00 0.426E+00 -.372E+00   0.112E-01 -.205E-01 -.128E-02
   -.174E+02 -.299E+02 -.839E+01   0.177E+02 0.303E+02 0.876E+01   -.249E+00 -.429E+00 -.371E+00   -.693E-01 0.542E-01 0.599E-03
   0.188E+02 -.532E-01 0.621E+03   -.200E+02 0.256E-01 -.624E+03   0.113E+01 -.413E-02 0.358E+01   0.296E-01 0.316E-01 0.105E-01
   -.675E-01 -.475E-02 -.634E+03   0.992E-01 0.538E-02 0.638E+03   -.358E-01 -.443E-02 -.348E+01   -.367E-02 0.294E-02 -.105E-01
   0.786E+01 0.130E+02 0.530E+03   -.732E+01 -.120E+02 -.534E+03   -.529E+00 -.916E+00 0.448E+01   -.107E-01 -.204E-01 0.129E-01
   0.185E+02 -.174E+02 -.571E+03   -.193E+02 0.170E+02 0.575E+03   0.818E+00 0.393E+00 -.376E+01   0.230E-01 -.459E-02 0.425E-02
   -.969E+01 0.164E+02 0.621E+03   0.103E+02 -.173E+02 -.624E+03   -.583E+00 0.953E+00 0.358E+01   -.638E-02 0.968E-02 0.113E-01
   -.247E+02 0.695E+01 -.570E+03   0.247E+02 -.785E+01 0.574E+03   -.158E-01 0.921E+00 -.377E+01   -.265E-01 -.222E-01 0.257E-01
   -.964E+01 -.164E+02 0.621E+03   0.103E+02 0.174E+02 -.624E+03   -.578E+00 -.952E+00 0.358E+01   -.451E-01 -.142E-01 0.195E-02
   -.246E+02 -.691E+01 -.570E+03   0.247E+02 0.785E+01 0.574E+03   -.818E-02 -.921E+00 -.377E+01   -.141E+00 -.201E-01 0.122E+00
   0.402E+01 -.732E+01 0.533E+03   -.445E+01 0.802E+01 -.536E+03   0.418E+00 -.657E+00 0.343E+01   0.245E-01 -.425E-01 -.213E-02
   0.584E+01 -.246E+02 -.571E+03   -.506E+01 0.251E+02 0.575E+03   -.771E+00 -.476E+00 -.376E+01   -.147E-01 -.179E-01 0.104E-01
   -.821E+01 0.944E-01 0.531E+03   0.902E+01 0.403E-01 -.534E+03   -.741E+00 0.906E-02 0.348E+01   -.817E-01 -.137E+00 -.117E+00
   0.508E+00 0.162E+00 -.521E+03   -.569E+00 -.306E-01 0.525E+03   -.167E-01 0.972E-03 -.407E+01   0.751E-01 -.128E+00 0.988E-01
   0.797E+01 -.131E+02 0.530E+03   -.735E+01 0.120E+02 -.534E+03   -.526E+00 0.912E+00 0.449E+01   -.848E-01 0.157E+00 -.943E-01
   0.184E+02 0.172E+02 -.572E+03   -.194E+02 -.170E+02 0.575E+03   0.817E+00 -.394E+00 -.376E+01   0.924E-01 0.119E+00 0.109E+00
   -.153E+02 0.363E-01 0.530E+03   0.143E+02 -.406E-01 -.534E+03   0.104E+01 0.607E-03 0.450E+01   0.191E-01 0.484E-02 0.114E-01
   0.683E-01 -.214E-01 -.464E+03   -.503E-01 -.202E-01 0.469E+03   -.321E-02 0.432E-03 -.512E+01   -.161E-01 0.411E-01 -.235E-01
   0.395E+01 0.736E+01 0.533E+03   -.452E+01 -.802E+01 -.536E+03   0.411E+00 0.665E+00 0.342E+01   0.163E+00 0.525E-02 -.984E-01
   0.573E+01 0.246E+02 -.571E+03   -.499E+01 -.251E+02 0.575E+03   -.766E+00 0.482E+00 -.376E+01   0.288E-01 0.143E-01 0.174E-01
 -----------------------------------------------------------------------------------------------
   -.874E-01 -.120E-01 0.120E+01   -.568E-13 -.142E-13 -.568E-12   0.720E-01 0.118E-01 -.134E+01   0.175E-01 0.284E-02 0.141E+00
 
 
 POSITION                                       TOTAL-FORCE (eV/Angst)
 -----------------------------------------------------------------------------------
      0.03062      6.44463     -0.04758        -0.027583      0.009810      0.006691
     -2.79879      4.80197     -0.05007         0.041335     -0.004642     -0.005027
      5.57128      3.25256     -0.04974         0.046453      0.014705     -0.006602
      2.59755      1.61043      0.00889        -0.031833      0.001596     -0.005272
      0.09284      3.05965      0.00960        -0.002050     -0.002792     -0.002620
      0.09236      0.16019      0.00973        -0.007065     -0.002433     -0.001808
      5.90395      6.44366      0.02974         0.001521     -0.008409     -0.009400
     -5.74206      3.50203      0.03028        -0.002124      0.002618     -0.007294
      2.62740      4.55185      0.03022         0.003822     -0.008293     -0.005717
     -0.89022      1.61028     28.31049        -0.000591     -0.000138      0.014776
      0.92854      1.61015      1.72458        -0.007757     -0.000955      0.003214
     -3.72027      3.21957     28.56872         0.005468      0.008203      0.007292
     -1.83582      3.26525      1.55301        -0.000732     -0.004159     -0.004759
     -6.52945      4.86615     28.31041        -0.001015     -0.002145      0.015911
     -4.62424      4.87650      1.54945        -0.005356      0.006098     -0.020639
      1.84003      3.18764     28.31036        -0.001426      0.001471      0.016322
      3.74493      3.17723      1.54932        -0.000193     -0.006702     -0.025710
     -0.93434      4.84251     28.57392         0.007734     -0.005458      0.005736
      0.87908      4.83314      1.55142        -0.000561     -0.005303     -0.014801
     -3.70960      6.44335     28.57975        -0.007850      0.006566      0.047821
     -1.85956      6.44328      1.40736        -0.002091      0.004775     -0.002522
      4.64929      4.83424     28.56826         0.009172     -0.012747      0.012845
      6.53344      4.78870      1.55335        -0.004338     -0.000101     -0.006473
      1.86093      6.44358     28.56802        -0.011293      0.001000      0.010849
      3.71976      6.44357      1.22567        -0.001406     -0.000163     -0.019213
     -0.93438      8.04429     28.57284        -0.001177      0.003364      0.007744
      0.87927      8.05343      1.55199         0.000935      0.004231     -0.011343
 -----------------------------------------------------------------------------------
    total drift:                                0.002154      0.002703      0.009604


--------------------------------------------------------------------------------------------------------



  FREE ENERGIE OF THE ION-ELECTRON SYSTEM (eV)
  ---------------------------------------------------
  free  energy   TOTEN  =      -192.21163087 eV

  energy  without entropy=     -191.99870661  energy(sigma->0) =     -192.10516874
 
 d Force = 0.4043176E-03[ 0.223E-03, 0.586E-03]  d Energy = 0.4962244E-03-0.919E-04
 d Force = 0.2895149E+00[ 0.291E+00, 0.288E+00]  d Ewald  = 0.1331346E+02-0.130E+02


--------------------------------------------------------------------------------------------------------


    POTLOK:  cpu time    0.0441: real time    0.0442


--------------------------------------------------------------------------------------------------------


 Quasi-Newton relaxation of ions (Broydens 2nd method)
  g(Force)  = 0.620E-03   g(Stress)= 0.280E-03

 retain information from N=  2 steps
 eigenvalues of (default step * inverse Hessian matrix)
  average eigenvalue of G=   3.4476
 eigenvalue spectrum of G is  3.4476  3.4476


--------------------------------------------------------------------------------------------------------


  
 reached required accuracy - stopping structural energy minimisation
     LOOP+:  cpu time  159.3127: real time  159.7094
    4ORBIT:  cpu time    0.0000: real time    0.0000

 total amount of memory used by VASP on root node   650782. kBytes
========================================================================

   base      :      30000. kBytes
   nonl-proj :     559647. kBytes
   fftplans  :       2414. kBytes
   grid      :      12150. kBytes
   one-center:        419. kBytes
   wavefun   :      46152. kBytes
 
  
  
 General timing and accounting informations for this job:
 ========================================================
  
                  Total CPU time used (sec):     5959.973
                            User time (sec):     5908.543
                          System time (sec):       51.430
                         Elapsed time (sec):     5976.469
  
                   Maximum memory used (kb):      736036.
                   Average memory used (kb):           0.
  
                          Minor page faults:       915388
                          Major page faults:            6
                 Voluntary context switches:         3905
