 vasp.5.4.1 05Feb16 (build Jul 05 2020 17:13:04) complex                        
  
 executed on           IFC91_ompi date 2024.05.20  17:39:01
 running on   40 total cores
 distrk:  each k-point on   40 cores,    1 groups
 distr:  one band on NCORES_PER_BAND=   1 cores,   40 groups


--------------------------------------------------------------------------------------------------------


 INCAR:
 POTCAR:   PAW_PBE V 08Apr2002                    
 POTCAR:   PAW_PBE Mo 08Apr2002                   
 POTCAR:   PAW_PBE W 08Apr2002                    
 POTCAR:    PAW_PBE S 17Jan2003                   

 ----------------------------------------------------------------------------- 
|                                                                             |
|           W    W    AA    RRRRR   N    N  II  N    N   GGGG   !!!           |
|           W    W   A  A   R    R  NN   N  II  NN   N  G    G  !!!           |
|           W    W  A    A  R    R  N N  N  II  N N  N  G       !!!           |
|           W WW W  AAAAAA  RRRRR   N  N N  II  N  N N  G  GGG   !            |
|           WW  WW  A    A  R   R   N   NN  II  N   NN  G    G                |
|           W    W  A    A  R    R  N    N  II  N    N   GGGG   !!!           |
|                                                                             |
|      For optimal performance we recommend to set                            |
|        NCORE= 4 - approx SQRT( number of cores)                             |
|      NCORE specifies how many cores store one orbital (NPAR=cpu/NCORE).     |
|      This setting can  greatly improve the performance of VASP for DFT.     |
|      The default, NPAR=number of cores might be grossly inefficient         |
|      on modern multi-core architectures or massively parallel machines.     |
|      Do your own testing !!!!                                               |
|      Unfortunately you need to use the default for GW and RPA calculations. |
|      (for HF NCORE is supported but not extensively tested yet)             |
|                                                                             |
 ----------------------------------------------------------------------------- 

 POTCAR:   PAW_PBE V 08Apr2002                    
   VRHFIN =V: p6 d4 s1                                                          
   LEXCH  = PE                                                                  
   EATOM  =   170.8679 eV,   12.5584 Ry                                         
                                                                                
   TITEL  = PAW_PBE V 08Apr2002                                                 
   LULTRA =        F    use ultrasoft PP ?                                      
   IUNSCR =        1    unscreen: 0-lin 1-nonlin 2-no                           
   RPACOR =    2.000    partial core radius                                     
   POMASS =   50.941; ZVAL   =    5.000    mass and valenz                      
   RCORE  =    2.700    outmost cutoff radius                                   
   RWIGS  =    2.500; RWIGS  =    1.323    wigner-seitz radius (au A)           
   ENMAX  =  192.543; ENMIN  =  144.408 eV                                      
   RCLOC  =    1.779    cutoff for local pot                                    
   LCOR   =        T    correct aug charges                                     
   LPAW   =        T    paw PP                                                  
   EAUG   =  358.662                                                            
   DEXC   =    -.034                                                            
   RMAX   =    3.323    core radius for proj-oper                               
   RAUG   =    1.300    factor for augmentation sphere                          
   RDEP   =    2.762    radius for radial grids                                 
   QCUT   =   -3.762; QGAM   =    7.524    optimization parameters              
                                                                                
   Description                                                                  
     l     E      TYP  RCUT    TYP  RCUT                                        
     2   .000     23  2.700                                                     
     2   .000     23  2.700                                                     
     0   .000     23  2.700                                                     
     0  2.000     23  2.700                                                     
     1   .000     23  2.700                                                     
     1  2.000     23  2.700                                                     
     3   .000      7   .000                                                     
  local pseudopotential read in
  partial core-charges read in
  atomic valenz-charges read in
  non local Contribution for L=           2  read in
    real space projection operators read in
  non local Contribution for L=           2  read in
    real space projection operators read in
  non local Contribution for L=           0  read in
    real space projection operators read in
  non local Contribution for L=           0  read in
    real space projection operators read in
  non local Contribution for L=           1  read in
    real space projection operators read in
  non local Contribution for L=           1  read in
    real space projection operators read in
    PAW grid and wavefunctions read in
 
   number of l-projection  operators is LMAX  =           6
   number of lm-projection operators is LMMAX =          18
 
 POTCAR:   PAW_PBE Mo 08Apr2002                   
   VRHFIN =Mo: 4p5s4d                                                           
   LEXCH  = PE                                                                  
   EATOM  =   217.5180 eV,   15.9871 Ry                                         
                                                                                
   TITEL  = PAW_PBE Mo 08Apr2002                                                
   LULTRA =        F    use ultrasoft PP ?                                      
   IUNSCR =        1    unscreen: 0-lin 1-nonlin 2-no                           
   RPACOR =    2.200    partial core radius                                     
   POMASS =   95.940; ZVAL   =    6.000    mass and valenz                      
   RCORE  =    2.750    outmost cutoff radius                                   
   RWIGS  =    2.750; RWIGS  =    1.455    wigner-seitz radius (au A)           
   ENMAX  =  224.584; ENMIN  =  168.438 eV                                      
   RCLOC  =    2.111    cutoff for local pot                                    
   LCOR   =        T    correct aug charges                                     
   LPAW   =        T    paw PP                                                  
   EAUG   =  345.278                                                            
   DEXC   =    -.088                                                            
   RMAX   =    3.077    core radius for proj-oper                               
   RAUG   =    1.300    factor for augmentation sphere                          
   RDEP   =    2.815    radius for radial grids                                 
   QCUT   =   -4.063; QGAM   =    8.126    optimization parameters              
                                                                                
   Description                                                                  
     l     E      TYP  RCUT    TYP  RCUT                                        
     2   .000     23  2.500                                                     
     2   .000     23  2.500                                                     
     0   .000     23  2.600                                                     
     0  1.000     23  2.600                                                     
     1   .400     23  2.750                                                     
     1  2.000     23  2.750                                                     
     3   .000      7   .000                                                     
  local pseudopotential read in
  partial core-charges read in
  atomic valenz-charges read in
  non local Contribution for L=           2  read in
    real space projection operators read in
  non local Contribution for L=           2  read in
    real space projection operators read in
  non local Contribution for L=           0  read in
    real space projection operators read in
  non local Contribution for L=           0  read in
    real space projection operators read in
  non local Contribution for L=           1  read in
    real space projection operators read in
  non local Contribution for L=           1  read in
    real space projection operators read in
    PAW grid and wavefunctions read in
 
   number of l-projection  operators is LMAX  =           6
   number of lm-projection operators is LMMAX =          18
 
 POTCAR:   PAW_PBE W 08Apr2002                    
   VRHFIN =W : 6s5d                                                             
   LEXCH  = PE                                                                  
   EATOM  =   204.6100 eV,   15.0384 Ry                                         
                                                                                
   TITEL  = PAW_PBE W 08Apr2002                                                 
   LULTRA =        F    use ultrasoft PP ?                                      
   IUNSCR =        1    unscreen: 0-lin 1-nonlin 2-no                           
   RPACOR =    2.330    partial core radius                                     
   POMASS =  183.850; ZVAL   =    6.000    mass and valenz                      
   RCORE  =    2.750    outmost cutoff radius                                   
   RWIGS  =    2.750; RWIGS  =    1.455    wigner-seitz radius (au A)           
   ENMAX  =  223.057; ENMIN  =  167.293 eV                                      
   RCLOC  =    2.147    cutoff for local pot                                    
   LCOR   =        T    correct aug charges                                     
   LPAW   =        T    paw PP                                                  
   EAUG   =  373.438                                                            
   DEXC   =    -.060                                                            
   RMAX   =    3.087    core radius for proj-oper                               
   RAUG   =    1.300    factor for augmentation sphere                          
   RDEP   =    2.886    radius for radial grids                                 
   QCUT   =   -4.049; QGAM   =    8.098    optimization parameters              
                                                                                
   Description                                                                  
     l     E      TYP  RCUT    TYP  RCUT                                        
     2   .000     23  2.500                                                     
     2   .000     23  2.500                                                     
     0   .000     23  2.500                                                     
     0   .000     23  2.500                                                     
     1   .200     23  2.750                                                     
     1  2.000     23  2.750                                                     
     3   .000      7   .000                                                     
  local pseudopotential read in
  partial core-charges read in
  atomic valenz-charges read in
  non local Contribution for L=           2  read in
    real space projection operators read in
  non local Contribution for L=           2  read in
    real space projection operators read in
  non local Contribution for L=           0  read in
    real space projection operators read in
  non local Contribution for L=           0  read in
    real space projection operators read in
  non local Contribution for L=           1  read in
    real space projection operators read in
  non local Contribution for L=           1  read in
    real space projection operators read in
    PAW grid and wavefunctions read in
 
   number of l-projection  operators is LMAX  =           6
   number of lm-projection operators is LMMAX =          18
 
 POTCAR:    PAW_PBE S 17Jan2003                   
   VRHFIN =S : s2p4                                                             
   LEXCH  = PE                                                                  
   EATOM  =   276.8230 eV,   20.3459 Ry                                         
                                                                                
   TITEL  = PAW_PBE S 17Jan2003                                                 
   LULTRA =        F    use ultrasoft PP ?                                      
   IUNSCR =        1    unscreen: 0-lin 1-nonlin 2-no                           
   RPACOR =    1.500    partial core radius                                     
   POMASS =   32.066; ZVAL   =    6.000    mass and valenz                      
   RCORE  =    1.900    outmost cutoff radius                                   
   RWIGS  =    2.200; RWIGS  =    1.164    wigner-seitz radius (au A)           
   ENMAX  =  280.000; ENMIN  =  194.016 eV                                      
   ICORE  =        2    local potential                                         
   LCOR   =        T    correct aug charges                                     
   LPAW   =        T    paw PP                                                  
   EAUG   =  335.092                                                            
   DEXC   =     .000                                                            
   RMAX   =    2.867    core radius for proj-oper                               
   RAUG   =    1.300    factor for augmentation sphere                          
   RDEP   =    1.954    radius for radial grids                                 
   QCUT   =   -4.360; QGAM   =    8.721    optimization parameters              
                                                                                
   Description                                                                  
     l     E      TYP  RCUT    TYP  RCUT                                        
     0   .000     23  1.900                                                     
     0   .000     23  1.900                                                     
     1   .000     23  1.900                                                     
     1   .000     23  1.900                                                     
     2   .000     23  1.900                                                     
  local pseudopotential read in
  partial core-charges read in
  atomic valenz-charges read in
  non local Contribution for L=           0  read in
    real space projection operators read in
  non local Contribution for L=           0  read in
    real space projection operators read in
  non local Contribution for L=           1  read in
    real space projection operators read in
  non local Contribution for L=           1  read in
    real space projection operators read in
    PAW grid and wavefunctions read in
 
   number of l-projection  operators is LMAX  =           4
   number of lm-projection operators is LMMAX =           8
 

 ----------------------------------------------------------------------------- 
|                                                                             |
|  ADVICE TO THIS USER RUNNING 'VASP/VAMP'   (HEAR YOUR MASTER'S VOICE ...):  |
|                                                                             |
|      You have a (more or less) 'large supercell' and for larger cells       |
|      it might be more efficient to use real space projection operators      |
|      So try LREAL= Auto  in the INCAR   file.                               |
|      Mind: If you want to do a very accurate calculations keep the          |
|      reciprocal projection scheme          (i.e. LREAL=.FALSE.)             |
|                                                                             |
 ----------------------------------------------------------------------------- 

 PAW_PBE V 08Apr2002                    :
 energy of atom  1       EATOM= -170.8679
 kinetic energy error for atom=    0.0047 (will be added to EATOM!!)
 PAW_PBE Mo 08Apr2002                   :
 energy of atom  2       EATOM= -217.5180
 kinetic energy error for atom=    0.0215 (will be added to EATOM!!)
 PAW_PBE W 08Apr2002                    :
 energy of atom  3       EATOM= -204.6100
 kinetic energy error for atom=    0.0205 (will be added to EATOM!!)
  PAW_PBE S 17Jan2003                   :
 energy of atom  4       EATOM= -276.8230
 kinetic energy error for atom=    0.0122 (will be added to EATOM!!)
 
 
 POSCAR: crystal structure from VMoWS2 with Hexag
  positions in cartesian coordinates
  No initial velocities read in
 exchange correlation table for  LEXCH =        8
   RHO(1)=    0.500       N(1)  =     2000
   RHO(2)=  100.500       N(2)  =     4000
 


--------------------------------------------------------------------------------------------------------


 ion  position               nearest neighbor table
   1  0.667  0.333  0.000-  19 2.34  22 2.34  25 2.36  24 2.36  17 2.36  16 2.36
   2  0.667  0.000  0.000-  17 2.34  26 2.34  23 2.36  22 2.36  21 2.36  20 2.36
   3  0.333  0.333  0.000-  13 2.34  16 2.34  19 2.36  18 2.36  11 2.36  10 2.36
   4  0.000  0.667  0.000-  27 2.34  12 2.34  14 2.36  15 2.36  24 2.36  25 2.36   6 3.34   7 3.34
                             8 3.34   5 3.34   9 3.36
   5  0.333  0.667  0.000-  15 2.34  18 2.34  20 2.36  21 2.36  13 2.36  12 2.36   9 3.34   4 3.34
                             6 3.34   8 3.36
   6  0.667  0.667  0.000-  21 2.34  24 2.34  27 2.36  26 2.36  19 2.36  18 2.36   4 3.34   5 3.34
                             7 3.36
   7  0.000  0.000  0.000-  23 2.34  14 2.34  11 2.36  10 2.36  27 2.36  26 2.36   4 3.34   8 3.34
                             9 3.34   6 3.36
   8  1.000  0.333  0.000-  25 2.34  10 2.34  13 2.36  12 2.36  22 2.36  23 2.36   4 3.34   7 3.34
                             5 3.36
   9  0.333  0.000  0.000-  11 2.34  20 2.34  17 2.36  16 2.36  15 2.36  14 2.36   5 3.34   7 3.34
                             4 3.36
  10  0.111  0.222  0.955-   8 2.34   7 2.36   3 2.36
  11  0.222  0.111  0.045-   9 2.34   7 2.36   3 2.36
  12  0.111  0.556  0.955-   4 2.34   8 2.36   5 2.36
  13  0.222  0.444  0.045-   3 2.34   8 2.36   5 2.36
  14  0.111  0.889  0.955-   7 2.34   4 2.36   9 2.36
  15  0.222  0.777  0.045-   5 2.34   4 2.36   9 2.36
  16  0.444  0.222  0.955-   3 2.34   9 2.36   1 2.36
  17  0.556  0.111  0.045-   2 2.34   9 2.36   1 2.36
  18  0.444  0.556  0.955-   5 2.34   3 2.36   6 2.36
  19  0.556  0.444  0.045-   1 2.34   3 2.36   6 2.36
  20  0.444  0.889  0.955-   9 2.34   5 2.36   2 2.36
  21  0.556  0.777  0.045-   6 2.34   5 2.36   2 2.36
  22  0.777  0.222  0.955-   1 2.34   2 2.36   8 2.36
  23  0.889  0.111  0.045-   7 2.34   2 2.36   8 2.36
  24  0.777  0.556  0.955-   6 2.34   1 2.36   4 2.36
  25  0.889  0.444  0.045-   8 2.34   1 2.36   4 2.36
  26  0.777  0.889  0.955-   2 2.34   6 2.36   7 2.36
  27  0.889  0.777  0.045-   4 2.34   6 2.36   7 2.36
 

IMPORTANT INFORMATION: All symmetrisations will be switched off!
NOSYMM: (Re-)initialisation of all symmetry stuff for point group C_1.

 
 
 KPOINTS: K-POINTS 	#supercell of CrS2 in hexagona

Automatic generation of k-mesh.
Space group operators:
 irot       det(A)        alpha          n_x          n_y          n_z        tau_x        tau_y        tau_z
    1     1.000000     0.000000     1.000000     0.000000     0.000000     0.000000     0.000000     0.000000
 
 Subroutine IBZKPT returns following result:
 ===========================================
 
 Found     34 irreducible k-points:
 
 Following reciprocal coordinates:
            Coordinates               Weight
  0.000000  0.000000  0.000000      1.000000
  0.125000  0.000000  0.000000      2.000000
  0.250000  0.000000  0.000000      2.000000
  0.375000  0.000000  0.000000      2.000000
  0.500000  0.000000  0.000000      1.000000
  0.000000  0.125000  0.000000      2.000000
  0.125000  0.125000  0.000000      2.000000
  0.250000  0.125000  0.000000      2.000000
  0.375000  0.125000  0.000000      2.000000
  0.500000  0.125000  0.000000      2.000000
 -0.375000  0.125000  0.000000      2.000000
 -0.250000  0.125000  0.000000      2.000000
 -0.125000  0.125000  0.000000      2.000000
  0.000000  0.250000  0.000000      2.000000
  0.125000  0.250000  0.000000      2.000000
  0.250000  0.250000  0.000000      2.000000
  0.375000  0.250000  0.000000      2.000000
  0.500000  0.250000  0.000000      2.000000
 -0.375000  0.250000  0.000000      2.000000
 -0.250000  0.250000  0.000000      2.000000
 -0.125000  0.250000  0.000000      2.000000
 -0.000000  0.375000  0.000000      2.000000
  0.125000  0.375000  0.000000      2.000000
  0.250000  0.375000  0.000000      2.000000
  0.375000  0.375000  0.000000      2.000000
  0.500000  0.375000  0.000000      2.000000
 -0.375000  0.375000  0.000000      2.000000
 -0.250000  0.375000  0.000000      2.000000
 -0.125000  0.375000  0.000000      2.000000
  0.000000  0.500000  0.000000      1.000000
  0.125000  0.500000  0.000000      2.000000
  0.250000  0.500000  0.000000      2.000000
  0.375000  0.500000  0.000000      2.000000
  0.500000  0.500000  0.000000      1.000000
 
 Following cartesian coordinates:
            Coordinates               Weight
  0.000000  0.000000  0.000000      1.000000
  0.007209  0.012401  0.000000      2.000000
  0.014418  0.024802  0.000000      2.000000
  0.021626  0.037202  0.000000      2.000000
  0.028835  0.049603  0.000000      1.000000
 -0.007209  0.012401  0.000000      2.000000
  0.000000  0.024802  0.000000      2.000000
  0.007209  0.037202  0.000000      2.000000
  0.014418  0.049603  0.000000      2.000000
  0.021626  0.062004  0.000000      2.000000
 -0.028835 -0.024802  0.000000      2.000000
 -0.021626 -0.012401  0.000000      2.000000
 -0.014418  0.000000  0.000000      2.000000
 -0.014418  0.024802  0.000000      2.000000
 -0.007209  0.037202  0.000000      2.000000
  0.000000  0.049603  0.000000      2.000000
  0.007209  0.062004  0.000000      2.000000
  0.014418  0.074405  0.000000      2.000000
 -0.036044 -0.012401  0.000000      2.000000
 -0.028835  0.000000  0.000000      2.000000
 -0.021626  0.012401  0.000000      2.000000
 -0.021626  0.037202  0.000000      2.000000
 -0.014418  0.049603  0.000000      2.000000
 -0.007209  0.062004  0.000000      2.000000
  0.000000  0.074405  0.000000      2.000000
  0.007209  0.086806  0.000000      2.000000
 -0.043253  0.000000  0.000000      2.000000
 -0.036044  0.012401  0.000000      2.000000
 -0.028835  0.024802  0.000000      2.000000
 -0.028835  0.049603  0.000000      1.000000
 -0.021626  0.062004  0.000000      2.000000
 -0.014418  0.074405  0.000000      2.000000
 -0.007209  0.086806  0.000000      2.000000
  0.000000  0.099206  0.000000      1.000000
 


--------------------------------------------------------------------------------------------------------




 Dimension of arrays:
   k-points           NKPTS =     34   k-points in BZ     NKDIM =     34   number of bands    NBANDS=    120
   number of dos      NEDOS =    301   number of ions     NIONS =     27
   non local maximal  LDIM  =      6   non local SUM 2l+1 LMDIM =     18
   total plane-waves  NPLWV = 222264
   max r-space proj   IRMAX =      1   max aug-charges    IRDMAX=   5642
   dimension x,y,z NGX =    42 NGY =   42 NGZ =  126
   dimension x,y,z NGXF=    84 NGYF=   84 NGZF=  252
   support grid    NGXF=    84 NGYF=   84 NGZF=  252
   ions per type =               3   3   3  18
 NGX,Y,Z   is equivalent  to a cutoff of   6.96,  6.96,  6.98 a.u.
 NGXF,Y,Z  is equivalent  to a cutoff of  13.92, 13.92, 13.96 a.u.


 I would recommend the setting:
   dimension x,y,z NGX =    41 NGY =   41 NGZ =  123
 SYSTEM =  unknown system                          
 POSCAR =  crystal structure from VMoWS2 with Hexag

 Startparameter for this run:
   NWRITE =      2    write-flag & timer
   PREC   = normal    normal or accurate (medium, high low for compatibility)
   ISTART =      0    job   : 0-new  1-cont  2-samecut
   ICHARG =      2    charge: 1-file 2-atom 10-const
   ISPIN  =      1    spin polarized calculation?
   LNONCOLLINEAR =      F non collinear calculations
   LSORBIT =      F    spin-orbit coupling
   INIWAV =      1    electr: 0-lowe 1-rand  2-diag
   LASPH  =      F    aspherical Exc in radial PAW
   METAGGA=      F    non-selfconsistent MetaGGA calc.

 Electronic Relaxation 1
   ENCUT  =  280.0 eV  20.58 Ry    4.54 a.u.  13.68 13.68 40.93*2*pi/ulx,y,z
   ENINI  =  280.0     initial cutoff
   ENAUG  =  373.4 eV  augmentation charge cutoff
   NELM   =     60;   NELMIN=  2; NELMDL= -5     # of ELM steps 
   EDIFF  = 0.1E-03   stopping-criterion for ELM
   LREAL  =      F    real-space projection
   NLSPLINE    = F    spline interpolate recip. space projectors
   LCOMPAT=      F    compatible to vasp.4.4
   GGA_COMPAT  = T    GGA compatible to vasp.4.4-vasp.4.6
   LMAXPAW     = -100 max onsite density
   LMAXMIX     =    2 max onsite mixed and CHGCAR
   VOSKOWN=      0    Vosko Wilk Nusair interpolation
   ROPT   =    0.00000   0.00000   0.00000   0.00000
 Ionic relaxation
   EDIFFG = 0.1E-02   stopping-criterion for IOM
   NSW    =    100    number of steps for IOM
   NBLOCK =      1;   KBLOCK =    100    inner block; outer block 
   IBRION =      1    ionic relax: 0-MD 1-quasi-New 2-CG
   NFREE  =      0    steps in history (QN), initial steepest desc. (CG)
   ISIF   =      3    stress and relaxation
   IWAVPR =     11    prediction:  0-non 1-charg 2-wave 3-comb
   ISYM   =      0    0-nonsym 1-usesym 2-fastsym
   LCORR  =      T    Harris-Foulkes like correction to forces

   POTIM  = 0.5000    time-step for ionic-motion
   TEIN   =    0.0    initial temperature
   TEBEG  =    0.0;   TEEND  =   0.0 temperature during run
   SMASS  =  -3.00    Nose mass-parameter (am)
   estimated Nose-frequenzy (Omega)   =  0.10E-29 period in steps =****** mass=  -0.230E-26a.u.
   SCALEE = 1.0000    scale energy and forces
   NPACO  =    256;   APACO  = 16.0  distance and # of slots for P.C.
   PSTRESS=    0.0 pullay stress

  Mass of Ions in am
   POMASS =  50.94 95.94183.85 32.07
  Ionic Valenz
   ZVAL   =   5.00  6.00  6.00  6.00
  Atomic Wigner-Seitz radii
   RWIGS  =  -1.00 -1.00 -1.00 -1.00
  virtual crystal weights 
   VCA    =   1.00  1.00  1.00  1.00
   NELECT =     159.0000    total number of electrons
   NUPDOWN=      -1.0000    fix difference up-down

 DOS related values:
   EMIN   =  10.00;   EMAX   =-10.00  energy-range for DOS
   EFERMI =   0.00
   ISMEAR =     0;   SIGMA  =   0.20  broadening in eV -4-tet -1-fermi 0-gaus

 Electronic relaxation 2 (details)
   IALGO  =     38    algorithm
   LDIAG  =      T    sub-space diagonalisation (order eigenvalues)
   LSUBROT=      F    optimize rotation matrix (better conditioning)
   TURBO    =      0    0=normal 1=particle mesh
   IRESTART =      0    0=no restart 2=restart with 2 vectors
   NREBOOT  =      0    no. of reboots
   NMIN     =      0    reboot dimension
   EREF     =   0.00    reference energy to select bands
   IMIX   =      4    mixing-type and parameters
     AMIX     =   0.40;   BMIX     =  1.00
     AMIX_MAG =   1.60;   BMIX_MAG =  1.00
     AMIN     =   0.10
     WC   =   100.;   INIMIX=   1;  MIXPRE=   1;  MAXMIX= -45

 Intra band minimization:
   WEIMIN = 0.0010     energy-eigenvalue tresh-hold
   EBREAK =  0.21E-06  absolut break condition
   DEPER  =   0.30     relativ break condition  

   TIME   =   0.40     timestep for ELM

  volume/ion in A,a.u.               =      97.10       655.29
  Fermi-wavevector in a.u.,A,eV,Ry     =   0.643191  1.215456  5.628665  0.413695
  Thomas-Fermi vector in A             =   1.710110
 
 Write flags
   LWAVE  =      F    write WAVECAR
   LCHARG =      F    write CHGCAR
   LVTOT  =      F    write LOCPOT, total local potential
   LVHAR  =      F    write LOCPOT, Hartree potential only
   LELF   =      F    write electronic localiz. function (ELF)
   LORBIT =      0    0 simple, 1 ext, 2 COOP (PROOUT)


 Dipole corrections
   LMONO  =      F    monopole corrections only (constant potential shift)
   LDIPOL =      F    correct potential (dipole corrections)
   IDIPOL =      0    1-x, 2-y, 3-z, 4-all directions 
   EPSILON=  1.0000000 bulk dielectric constant

 Exchange correlation treatment:
   GGA     =    --    GGA type
   LEXCH   =     8    internal setting for exchange type
   VOSKOWN=      0    Vosko Wilk Nusair interpolation
   LHFCALC =     F    Hartree Fock is set to
   LHFONE  =     F    Hartree Fock one center treatment
   AEXX    =    0.0000 exact exchange contribution

 Linear response parameters
   LEPSILON=     F    determine dielectric tensor
   LRPA    =     F    only Hartree local field effects (RPA)
   LNABLA  =     F    use nabla operator in PAW spheres
   LVEL    =     F    velocity operator in full k-point grid
   LINTERFAST=   F  fast interpolation
   KINTER  =     0    interpolate to denser k-point grid
   CSHIFT  =0.1000    complex shift for real part using Kramers Kronig
   OMEGAMAX=  -1.0    maximum frequency
   DEG_THRESHOLD= 0.2000000E-02 threshold for treating states as degnerate
   RTIME   =    0.100 relaxation time in fs

 Orbital magnetization related:
   ORBITALMAG=     F  switch on orbital magnetization
   LCHIMAG   =     F  perturbation theory with respect to B field
   DQ        =  0.001000  dq finite difference perturbation B field



--------------------------------------------------------------------------------------------------------


 quasi-Newton-method for relaxation of ions
 charge density and potential will be updated during run
 non-spin polarized calculation
 Variant of blocked Davidson
 Davidson routine will perform the subspace rotation
 perform sub-space diagonalisation
    after iterative eigenvector-optimisation
 modified Broyden-mixing scheme, WC =      100.0
 initial mixing is a Kerker type mixing with AMIX =  0.4000 and BMIX =      1.0000
 Hartree-type preconditioning will be used
 using additional bands           40
 reciprocal scheme for non local part
 use partial core corrections
 calculate Harris-corrections to forces 
   (improved forces if not selfconsistent)
 use gradient corrections 
 use of overlap-Matrix (Vanderbilt PP)
 Gauss-broadening in eV      SIGMA  =   0.20


--------------------------------------------------------------------------------------------------------


  energy-cutoff  :      280.00
  volume of cell :     2621.81
      direct lattice vectors                 reciprocal lattice vectors
     8.669999960  5.039999894  0.000000000     0.057670129  0.099206348  0.000000000
    -8.669999821  5.040000133  0.000000000    -0.057670126  0.099206350  0.000000000
     0.000000000  0.000000000 30.000000000     0.000000000  0.000000000  0.033333333

  length of vectors
    10.028484344 10.028484344 30.000000000     0.114750788  0.114750788  0.033333333


 
 k-points in units of 2pi/SCALE and weight: K-POINTS 	#supercell of CrS2 in hexagona
   0.00000000  0.00000000  0.00000000       0.016
   0.00720877  0.01240079  0.00000000       0.031
   0.01441753  0.02480159  0.00000000       0.031
   0.02162630  0.03720238  0.00000000       0.031
   0.02883506  0.04960317  0.00000000       0.016
  -0.00720877  0.01240079  0.00000000       0.031
   0.00000000  0.02480159  0.00000000       0.031
   0.00720877  0.03720238  0.00000000       0.031
   0.01441753  0.04960317  0.00000000       0.031
   0.02162630  0.06200397  0.00000000       0.031
  -0.02883506 -0.02480159  0.00000000       0.031
  -0.02162630 -0.01240079  0.00000000       0.031
  -0.01441753  0.00000000  0.00000000       0.031
  -0.01441753  0.02480159  0.00000000       0.031
  -0.00720877  0.03720238  0.00000000       0.031
   0.00000000  0.04960317  0.00000000       0.031
   0.00720877  0.06200397  0.00000000       0.031
   0.01441753  0.07440476  0.00000000       0.031
  -0.03604383 -0.01240079  0.00000000       0.031
  -0.02883506  0.00000000  0.00000000       0.031
  -0.02162630  0.01240079  0.00000000       0.031
  -0.02162630  0.03720238  0.00000000       0.031
  -0.01441753  0.04960317  0.00000000       0.031
  -0.00720877  0.06200397  0.00000000       0.031
   0.00000000  0.07440476  0.00000000       0.031
   0.00720877  0.08680556  0.00000000       0.031
  -0.04325260  0.00000000  0.00000000       0.031
  -0.03604383  0.01240079  0.00000000       0.031
  -0.02883506  0.02480159  0.00000000       0.031
  -0.02883506  0.04960317  0.00000000       0.016
  -0.02162630  0.06200397  0.00000000       0.031
  -0.01441753  0.07440476  0.00000000       0.031
  -0.00720876  0.08680556  0.00000000       0.031
   0.00000000  0.09920635  0.00000000       0.016
 
 k-points in reciprocal lattice and weights: K-POINTS 	#supercell of CrS2 in hexagona
   0.00000000  0.00000000  0.00000000       0.016
   0.12500000  0.00000000  0.00000000       0.031
   0.25000000  0.00000000  0.00000000       0.031
   0.37500000  0.00000000  0.00000000       0.031
   0.50000000  0.00000000  0.00000000       0.016
   0.00000000  0.12500000  0.00000000       0.031
   0.12500000  0.12500000  0.00000000       0.031
   0.25000000  0.12500000  0.00000000       0.031
   0.37500000  0.12500000  0.00000000       0.031
   0.50000000  0.12500000  0.00000000       0.031
  -0.37500000  0.12500000  0.00000000       0.031
  -0.25000000  0.12500000  0.00000000       0.031
  -0.12500000  0.12500000  0.00000000       0.031
   0.00000000  0.25000000  0.00000000       0.031
   0.12500000  0.25000000  0.00000000       0.031
   0.25000000  0.25000000  0.00000000       0.031
   0.37500000  0.25000000  0.00000000       0.031
   0.50000000  0.25000000  0.00000000       0.031
  -0.37500000  0.25000000  0.00000000       0.031
  -0.25000000  0.25000000  0.00000000       0.031
  -0.12500000  0.25000000  0.00000000       0.031
  -0.00000000  0.37500000  0.00000000       0.031
   0.12500000  0.37500000  0.00000000       0.031
   0.25000000  0.37500000  0.00000000       0.031
   0.37500000  0.37500000  0.00000000       0.031
   0.50000000  0.37500000  0.00000000       0.031
  -0.37500000  0.37500000  0.00000000       0.031
  -0.25000000  0.37500000  0.00000000       0.031
  -0.12500000  0.37500000  0.00000000       0.031
   0.00000000  0.50000000  0.00000000       0.016
   0.12500000  0.50000000  0.00000000       0.031
   0.25000000  0.50000000  0.00000000       0.031
   0.37500000  0.50000000  0.00000000       0.031
   0.50000000  0.50000000  0.00000000       0.016
 
 position of ions in fractional coordinates (direct lattice) 
   0.66666669  0.33333334  0.00000000
   0.66666669  0.00000000  0.00000000
   0.33333334  0.33333334  0.00000000
   0.00000000  0.66666669  0.00000000
   0.33333334  0.66666669  0.00000000
   0.66666669  0.66666669  0.00000000
   0.00000000  0.00000000  0.00000000
   1.00000000  0.33333334  0.00000000
   0.33333334  0.00000000  0.00000000
   0.11068511  0.22244981  0.95539999
   0.22244981  0.11068511  0.04460000
   0.11068511  0.55578315  0.95539999
   0.22244981  0.44401845  0.04460000
   0.11068511  0.88911647  0.95539999
   0.22244981  0.77735180  0.04460000
   0.44401845  0.22244981  0.95539999
   0.55578315  0.11068511  0.04460000
   0.44401845  0.55578315  0.95539999
   0.55578315  0.44401845  0.04460000
   0.44401845  0.88911647  0.95539999
   0.55578315  0.77735180  0.04460000
   0.77735180  0.22244981  0.95539999
   0.88911647  0.11068511  0.04460000
   0.77735180  0.55578315  0.95539999
   0.88911647  0.44401845  0.04460000
   0.77735180  0.88911647  0.95539999
   0.88911647  0.77735180  0.04460000
 
 position of ions in cartesian coordinates  (Angst):
   2.89000012  5.04000012  0.00000000
   5.78000015  3.36000003  0.00000000
   0.00000005  3.36000011  0.00000000
  -5.78000005  3.36000019  0.00000000
  -2.88999998  5.04000020  0.00000000
   0.00000009  6.72000022  0.00000000
   0.00000000  0.00000000  0.00000000
   5.77999993  6.71999999  0.00000000
   2.89000007  1.68000002  0.00000000
  -0.96899991  1.67900001 28.66199970
   0.96899995  1.67899998  1.33799996
  -3.85899993  3.35900011 28.66199970
  -1.92100007  3.35900008  1.33799996
  -6.74899970  5.03900005 28.66199970
  -4.81100010  5.03900017  1.33799996
   1.92100017  3.35900003 28.66199970
   3.85900003  3.35900000  1.33799996
  -0.96899986  5.03900012 28.66199970
   0.96900000  5.03900009  1.33799996
  -3.85899963  6.71900006 28.66199970
  -1.92100003  6.71900019  1.33799996
   4.81100024  5.03900004 28.66199970
   6.74899984  5.03899987  1.33799996
   1.92100021  6.71900014 28.66199970
   3.85899981  6.71899996  1.33799996
  -0.96899956  8.39900008 28.66199970
   0.96899979  8.39900005  1.33799996
 


--------------------------------------------------------------------------------------------------------


 k-point  1 :   0.0000 0.0000 0.0000  plane waves:   27959
 k-point  2 :   0.1250 0.0000 0.0000  plane waves:   27889
 k-point  3 :   0.2500 0.0000 0.0000  plane waves:   27875
 k-point  4 :   0.3750 0.0000 0.0000  plane waves:   27893
 k-point  5 :   0.5000 0.0000 0.0000  plane waves:   27932
 k-point  6 :   0.0000 0.1250 0.0000  plane waves:   27889
 k-point  7 :   0.1250 0.1250 0.0000  plane waves:   27906
 k-point  8 :   0.2500 0.1250 0.0000  plane waves:   27898
 k-point  9 :   0.3750 0.1250 0.0000  plane waves:   27888
 k-point 10 :   0.5000 0.1250 0.0000  plane waves:   27873
 k-point 11 :  -0.3750 0.1250 0.0000  plane waves:   27874
 k-point 12 :  -0.2500 0.1250 0.0000  plane waves:   27895
 k-point 13 :  -0.1250 0.1250 0.0000  plane waves:   27879
 k-point 14 :   0.0000 0.2500 0.0000  plane waves:   27875
 k-point 15 :   0.1250 0.2500 0.0000  plane waves:   27898
 k-point 16 :   0.2500 0.2500 0.0000  plane waves:   27920
 k-point 17 :   0.3750 0.2500 0.0000  plane waves:   27901
 k-point 18 :   0.5000 0.2500 0.0000  plane waves:   27875
 k-point 19 :  -0.3750 0.2500 0.0000  plane waves:   27894
 k-point 20 :  -0.2500 0.2500 0.0000  plane waves:   27870
 k-point 21 :  -0.1250 0.2500 0.0000  plane waves:   27895
 k-point 22 :  -0.0000 0.3750 0.0000  plane waves:   27893
 k-point 23 :   0.1250 0.3750 0.0000  plane waves:   27888
 k-point 24 :   0.2500 0.3750 0.0000  plane waves:   27901
 k-point 25 :   0.3750 0.3750 0.0000  plane waves:   27860
 k-point 26 :   0.5000 0.3750 0.0000  plane waves:   27895
 k-point 27 :  -0.3750 0.3750 0.0000  plane waves:   27858
 k-point 28 :  -0.2500 0.3750 0.0000  plane waves:   27894
 k-point 29 :  -0.1250 0.3750 0.0000  plane waves:   27874
 k-point 30 :   0.0000 0.5000 0.0000  plane waves:   27932
 k-point 31 :   0.1250 0.5000 0.0000  plane waves:   27873
 k-point 32 :   0.2500 0.5000 0.0000  plane waves:   27875
 k-point 33 :   0.3750 0.5000 0.0000  plane waves:   27895
 k-point 34 :   0.5000 0.5000 0.0000  plane waves:   27910

 maximum and minimum number of plane-waves per node :     27959    27858

 maximum number of plane-waves:     27959
 maximum index in each direction: 
   IXMAX=   14   IYMAX=   13   IZMAX=   40
   IXMIN=  -14   IYMIN=  -14   IZMIN=  -40

 WARNING: aliasing errors must be expected set NGX to  58 to avoid them
 WARNING: aliasing errors must be expected set NGY to  56 to avoid them
 WARNING: aliasing errors must be expected set NGZ to 162 to avoid them
 aliasing errors are usually negligible using standard VASP settings
 and one can safely disregard these warnings

 serial   3D FFT for wavefunctions

 total amount of memory used by VASP on root node   650782. kBytes
========================================================================

   base      :      30000. kBytes
   nonl-proj :     559647. kBytes
   fftplans  :       2414. kBytes
   grid      :      12150. kBytes
   one-center:        419. kBytes
   wavefun   :      46152. kBytes
 
     INWAV:  cpu time    0.0000: real time    0.0000
 Broyden mixing: mesh for mixing (old mesh)
   NGX = 27   NGY = 27   NGZ = 81
  (NGX  = 84   NGY  = 84   NGZ  =252)
  gives a total of  59049 points

 initial charge density was supplied:
 charge density of overlapping atoms calculated
 number of electron     159.0000000 magnetization 
 keeping initial charge density in first step


--------------------------------------------------------------------------------------------------------


 Maximum index for augmentation-charges          139 (set IRDMAX)


--------------------------------------------------------------------------------------------------------


 First call to EWALD:  gamma=   0.129
 Maximum number of real-space cells 4x 4x 2
 Maximum number of reciprocal cells 2x 2x 5

 FEWALD executed in parallel
    FEWALD:  cpu time    0.0022: real time    0.0023


----------------------------------------- Iteration    1(   1)  ---------------------------------------


    POTLOK:  cpu time    0.0488: real time    0.0489
    SETDIJ:  cpu time    0.0051: real time    0.0051
     EDDAV:  cpu time   31.9760: real time   32.0574
       DOS:  cpu time    0.0014: real time    0.0022
    --------------------------------------------
      LOOP:  cpu time   32.0363: real time   32.1226

 eigenvalue-minimisations  :  8160
 total energy-change (2. order) : 0.1124296E+04  (-0.3586420E+04)
 number of electron     159.0000000 magnetization 
 augmentation part      159.0000000 magnetization 

 Free energy of the ion-electron system (eV)
  ---------------------------------------------------
  alpha Z        PSCENC =        81.65567618
  Ewald energy   TEWEN  =     41890.25210944
  -Hartree energ DENC   =    -47722.88005504
  -exchange      EXHF   =         0.00000000
  -V(xc)+E(xc)   XCENC  =      -242.92955953
  PAW double counting   =      3467.42045192    -2871.19716117
  entropy T*S    EENTRO =        -0.53066729
  eigenvalues    EBANDS =      -238.93724603
  atomic energy  EATOM  =      6761.44252427
  Solvation  Ediel_sol  =         0.00000000
  ---------------------------------------------------
  free energy    TOTEN  =      1124.29607274 eV

  energy without entropy =     1124.82674003  energy(sigma->0) =     1124.56140639


--------------------------------------------------------------------------------------------------------




----------------------------------------- Iteration    1(   2)  ---------------------------------------


     EDDAV:  cpu time   42.1623: real time   42.2634
       DOS:  cpu time    0.0016: real time    0.0015
    --------------------------------------------
      LOOP:  cpu time   42.1651: real time   42.2759

 eigenvalue-minimisations  : 11520
 total energy-change (2. order) :-0.1130596E+04  (-0.1091541E+04)
 number of electron     159.0000000 magnetization 
 augmentation part      159.0000000 magnetization 

 Free energy of the ion-electron system (eV)
  ---------------------------------------------------
  alpha Z        PSCENC =        81.65567618
  Ewald energy   TEWEN  =     41890.25210944
  -Hartree energ DENC   =    -47722.88005504
  -exchange      EXHF   =         0.00000000
  -V(xc)+E(xc)   XCENC  =      -242.92955953
  PAW double counting   =      3467.42045192    -2871.19716117
  entropy T*S    EENTRO =        -0.19382332
  eigenvalues    EBANDS =     -1369.87007805
  atomic energy  EATOM  =      6761.44252427
  Solvation  Ediel_sol  =         0.00000000
  ---------------------------------------------------
  free energy    TOTEN  =        -6.29991530 eV

  energy without entropy =       -6.10609199  energy(sigma->0) =       -6.20300365


--------------------------------------------------------------------------------------------------------




----------------------------------------- Iteration    1(   3)  ---------------------------------------


     EDDAV:  cpu time   40.7702: real time   40.8685
       DOS:  cpu time    0.0019: real time    0.0019
    --------------------------------------------
      LOOP:  cpu time   40.7733: real time   40.8816

 eigenvalue-minimisations  : 10880
 total energy-change (2. order) :-0.1937826E+03  (-0.1865937E+03)
 number of electron     159.0000000 magnetization 
 augmentation part      159.0000000 magnetization 

 Free energy of the ion-electron system (eV)
  ---------------------------------------------------
  alpha Z        PSCENC =        81.65567618
  Ewald energy   TEWEN  =     41890.25210944
  -Hartree energ DENC   =    -47722.88005504
  -exchange      EXHF   =         0.00000000
  -V(xc)+E(xc)   XCENC  =      -242.92955953
  PAW double counting   =      3467.42045192    -2871.19716117
  entropy T*S    EENTRO =        -0.27309258
  eigenvalues    EBANDS =     -1563.57337861
  atomic energy  EATOM  =      6761.44252427
  Solvation  Ediel_sol  =         0.00000000
  ---------------------------------------------------
  free energy    TOTEN  =      -200.08248513 eV

  energy without entropy =     -199.80939254  energy(sigma->0) =     -199.94593883


--------------------------------------------------------------------------------------------------------




----------------------------------------- Iteration    1(   4)  ---------------------------------------


     EDDAV:  cpu time   45.4921: real time   45.6025
       DOS:  cpu time    0.0018: real time    0.0018
    --------------------------------------------
      LOOP:  cpu time   45.4961: real time   45.6135

 eigenvalue-minimisations  : 12200
 total energy-change (2. order) :-0.8878612E+01  (-0.8626529E+01)
 number of electron     159.0000000 magnetization 
 augmentation part      159.0000000 magnetization 

 Free energy of the ion-electron system (eV)
  ---------------------------------------------------
  alpha Z        PSCENC =        81.65567618
  Ewald energy   TEWEN  =     41890.25210944
  -Hartree energ DENC   =    -47722.88005504
  -exchange      EXHF   =         0.00000000
  -V(xc)+E(xc)   XCENC  =      -242.92955953
  PAW double counting   =      3467.42045192    -2871.19716117
  entropy T*S    EENTRO =        -0.29932428
  eigenvalues    EBANDS =     -1572.42575882
  atomic energy  EATOM  =      6761.44252427
  Solvation  Ediel_sol  =         0.00000000
  ---------------------------------------------------
  free energy    TOTEN  =      -208.96109704 eV

  energy without entropy =     -208.66177275  energy(sigma->0) =     -208.81143489


--------------------------------------------------------------------------------------------------------




----------------------------------------- Iteration    1(   5)  ---------------------------------------


     EDDAV:  cpu time   43.3063: real time   43.4106
       DOS:  cpu time    0.0028: real time    0.0028
    CHARGE:  cpu time    0.7278: real time    0.7296
    MIXING:  cpu time    0.0030: real time    0.0032
    --------------------------------------------
      LOOP:  cpu time   44.0412: real time   44.1548

 eigenvalue-minimisations  : 11520
 total energy-change (2. order) :-0.3152953E+00  (-0.3144916E+00)
 number of electron     159.0000111 magnetization 
 augmentation part       -9.7945872 magnetization 

 Broyden mixing:
  rms(total) = 0.27461E+01    rms(broyden)= 0.27456E+01
  rms(prec ) = 0.29314E+01
  weight for this iteration     100.00

 Free energy of the ion-electron system (eV)
  ---------------------------------------------------
  alpha Z        PSCENC =        81.65567618
  Ewald energy   TEWEN  =     41890.25210944
  -Hartree energ DENC   =    -47722.88005504
  -exchange      EXHF   =         0.00000000
  -V(xc)+E(xc)   XCENC  =      -242.92955953
  PAW double counting   =      3467.42045192    -2871.19716117
  entropy T*S    EENTRO =        -0.29608166
  eigenvalues    EBANDS =     -1572.74429670
  atomic energy  EATOM  =      6761.44252427
  Solvation  Ediel_sol  =         0.00000000
  ---------------------------------------------------
  free energy    TOTEN  =      -209.27639230 eV

  energy without entropy =     -208.98031064  energy(sigma->0) =     -209.12835147


--------------------------------------------------------------------------------------------------------




----------------------------------------- Iteration    1(   6)  ---------------------------------------


    POTLOK:  cpu time    0.0492: real time    0.0493
    SETDIJ:  cpu time    0.0044: real time    0.0044
     EDDAV:  cpu time   46.9598: real time   47.0738
       DOS:  cpu time    0.0015: real time    0.0015
    CHARGE:  cpu time    0.7319: real time    0.7336
    MIXING:  cpu time    0.0034: real time    0.0034
    --------------------------------------------
      LOOP:  cpu time   47.7515: real time   47.8791

 eigenvalue-minimisations  : 12760
 total energy-change (2. order) :-0.2787249E+02  (-0.1077358E+02)
 number of electron     159.0000106 magnetization 
 augmentation part        7.0822604 magnetization 

 Broyden mixing:
  rms(total) = 0.59372E+01    rms(broyden)= 0.59365E+01
  rms(prec ) = 0.65200E+01
  weight for this iteration     100.00

 eigenvalues of (default mixing * dielectric matrix)
  average eigenvalue GAMMA=   0.2933
  0.2933

 Free energy of the ion-electron system (eV)
  ---------------------------------------------------
  alpha Z        PSCENC =        81.65567618
  Ewald energy   TEWEN  =     41890.25210944
  -Hartree energ DENC   =    -47701.29624353
  -exchange      EXHF   =         0.00000000
  -V(xc)+E(xc)   XCENC  =      -233.63307321
  PAW double counting   =      3676.44978191    -3082.54135067
  entropy T*S    EENTRO =        -0.26879648
  eigenvalues    EBANDS =     -1629.20950682
  atomic energy  EATOM  =      6761.44252427
  Solvation  Ediel_sol  =         0.00000000
  ---------------------------------------------------
  free energy    TOTEN  =      -237.14887891 eV

  energy without entropy =     -236.88008243  energy(sigma->0) =     -237.01448067


--------------------------------------------------------------------------------------------------------




----------------------------------------- Iteration    1(   7)  ---------------------------------------


    POTLOK:  cpu time    0.0430: real time    0.0431
    SETDIJ:  cpu time    0.0040: real time    0.0040
     EDDAV:  cpu time   48.0444: real time   48.1600
       DOS:  cpu time    0.0020: real time    0.0020
    CHARGE:  cpu time    0.7396: real time    0.7413
    MIXING:  cpu time    0.0017: real time    0.0017
    --------------------------------------------
      LOOP:  cpu time   48.8363: real time   48.9647

 eigenvalue-minimisations  : 13120
 total energy-change (2. order) : 0.4048608E+02  (-0.1774012E+02)
 number of electron     159.0000087 magnetization 
 augmentation part       -6.2345708 magnetization 

 Broyden mixing:
  rms(total) = 0.20353E+01    rms(broyden)= 0.20333E+01
  rms(prec ) = 0.22597E+01
  weight for this iteration     100.00

 eigenvalues of (default mixing * dielectric matrix)
  average eigenvalue GAMMA=   0.5409
  0.8706  0.2112

 Free energy of the ion-electron system (eV)
  ---------------------------------------------------
  alpha Z        PSCENC =        81.65567618
  Ewald energy   TEWEN  =     41890.25210944
  -Hartree energ DENC   =    -47738.80516004
  -exchange      EXHF   =         0.00000000
  -V(xc)+E(xc)   XCENC  =      -235.01409512
  PAW double counting   =      3764.23164603    -3178.27331044
  entropy T*S    EENTRO =        -0.33544986
  eigenvalues    EBANDS =     -1541.81673520
  atomic energy  EATOM  =      6761.44252427
  Solvation  Ediel_sol  =         0.00000000
  ---------------------------------------------------
  free energy    TOTEN  =      -196.66279475 eV

  energy without entropy =     -196.32734489  energy(sigma->0) =     -196.49506982


--------------------------------------------------------------------------------------------------------




----------------------------------------- Iteration    1(   8)  ---------------------------------------


    POTLOK:  cpu time    0.0443: real time    0.0453
    SETDIJ:  cpu time    0.0043: real time    0.0043
     EDDAV:  cpu time   43.9944: real time   44.0996
       DOS:  cpu time    0.0017: real time    0.0017
    CHARGE:  cpu time    0.7389: real time    0.7406
    MIXING:  cpu time    0.0018: real time    0.0018
    --------------------------------------------
      LOOP:  cpu time   44.7876: real time   44.9065

 eigenvalue-minimisations  : 11800
 total energy-change (2. order) : 0.6579822E+01  (-0.2031397E+01)
 number of electron     159.0000095 magnetization 
 augmentation part       -6.3945788 magnetization 

 Broyden mixing:
  rms(total) = 0.13714E+01    rms(broyden)= 0.13710E+01
  rms(prec ) = 0.14817E+01
  weight for this iteration     100.00

 eigenvalues of (default mixing * dielectric matrix)
  average eigenvalue GAMMA=   0.5275
  1.0497  0.2565  0.2764

 Free energy of the ion-electron system (eV)
  ---------------------------------------------------
  alpha Z        PSCENC =        81.65567618
  Ewald energy   TEWEN  =     41890.25210944
  -Hartree energ DENC   =    -47761.64891150
  -exchange      EXHF   =         0.00000000
  -V(xc)+E(xc)   XCENC  =      -235.04310528
  PAW double counting   =      3903.03522679    -3318.63438298
  entropy T*S    EENTRO =        -0.26875877
  eigenvalues    EBANDS =     -1510.87335092
  atomic energy  EATOM  =      6761.44252427
  Solvation  Ediel_sol  =         0.00000000
  ---------------------------------------------------
  free energy    TOTEN  =      -190.08297277 eV

  energy without entropy =     -189.81421400  energy(sigma->0) =     -189.94859339


--------------------------------------------------------------------------------------------------------




----------------------------------------- Iteration    1(   9)  ---------------------------------------


    POTLOK:  cpu time    0.0465: real time    0.0466
    SETDIJ:  cpu time    0.0043: real time    0.0043
     EDDAV:  cpu time   45.0553: real time   45.1632
       DOS:  cpu time    0.0025: real time    0.0025
    CHARGE:  cpu time    0.7533: real time    0.7551
    MIXING:  cpu time    0.0019: real time    0.0019
    --------------------------------------------
      LOOP:  cpu time   45.8654: real time   45.9847

 eigenvalue-minimisations  : 12120
 total energy-change (2. order) : 0.1764670E+01  (-0.3509297E+00)
 number of electron     159.0000093 magnetization 
 augmentation part       -5.7220098 magnetization 

 Broyden mixing:
  rms(total) = 0.94037E+00    rms(broyden)= 0.93996E+00
  rms(prec ) = 0.10128E+01
  weight for this iteration     100.00

 eigenvalues of (default mixing * dielectric matrix)
  average eigenvalue GAMMA=   0.6964
  1.7097  0.5772  0.2198  0.2788

 Free energy of the ion-electron system (eV)
  ---------------------------------------------------
  alpha Z        PSCENC =        81.65567618
  Ewald energy   TEWEN  =     41890.25210944
  -Hartree energ DENC   =    -47765.73410303
  -exchange      EXHF   =         0.00000000
  -V(xc)+E(xc)   XCENC  =      -234.36155470
  PAW double counting   =      3961.43151441    -3377.74998257
  entropy T*S    EENTRO =        -0.32930014
  eigenvalues    EBANDS =     -1504.92518655
  atomic energy  EATOM  =      6761.44252427
  Solvation  Ediel_sol  =         0.00000000
  ---------------------------------------------------
  free energy    TOTEN  =      -188.31830268 eV

  energy without entropy =     -187.98900254  energy(sigma->0) =     -188.15365261


--------------------------------------------------------------------------------------------------------




----------------------------------------- Iteration    1(  10)  ---------------------------------------


    POTLOK:  cpu time    0.0429: real time    0.0439
    SETDIJ:  cpu time    0.0042: real time    0.0042
     EDDAV:  cpu time   50.1597: real time   50.2804
       DOS:  cpu time    0.0024: real time    0.0024
    CHARGE:  cpu time    0.8154: real time    0.8173
    MIXING:  cpu time    0.0020: real time    0.0020
    --------------------------------------------
      LOOP:  cpu time   51.0289: real time   51.1617

 eigenvalue-minimisations  : 13200
 total energy-change (2. order) : 0.1191025E+01  (-0.1782874E+00)
 number of electron     159.0000092 magnetization 
 augmentation part       -4.3967113 magnetization 

 Broyden mixing:
  rms(total) = 0.33889E+00    rms(broyden)= 0.33856E+00
  rms(prec ) = 0.37064E+00
  weight for this iteration     100.00

 eigenvalues of (default mixing * dielectric matrix)
  average eigenvalue GAMMA=   0.6967
  1.8726  0.6171  0.5119  0.2240  0.2578

 Free energy of the ion-electron system (eV)
  ---------------------------------------------------
  alpha Z        PSCENC =        81.65567618
  Ewald energy   TEWEN  =     41890.25210944
  -Hartree energ DENC   =    -47777.98969985
  -exchange      EXHF   =         0.00000000
  -V(xc)+E(xc)   XCENC  =      -232.74584794
  PAW double counting   =      4089.50005955    -3507.45721848
  entropy T*S    EENTRO =        -0.34229336
  eigenvalues    EBANDS =     -1491.44258732
  atomic energy  EATOM  =      6761.44252427
  Solvation  Ediel_sol  =         0.00000000
  ---------------------------------------------------
  free energy    TOTEN  =      -187.12727751 eV

  energy without entropy =     -186.78498415  energy(sigma->0) =     -186.95613083


--------------------------------------------------------------------------------------------------------




----------------------------------------- Iteration    1(  11)  ---------------------------------------


    POTLOK:  cpu time    0.0470: real time    0.0471
    SETDIJ:  cpu time    0.0044: real time    0.0044
     EDDAV:  cpu time   48.7564: real time   48.8734
       DOS:  cpu time    0.0016: real time    0.0016
    CHARGE:  cpu time    0.7977: real time    0.7996
    MIXING:  cpu time    0.0019: real time    0.0020
    --------------------------------------------
      LOOP:  cpu time   49.6106: real time   49.7403

 eigenvalue-minimisations  : 12600
 total energy-change (2. order) : 0.1147319E+00  (-0.6559569E-01)
 number of electron     159.0000092 magnetization 
 augmentation part       -4.2809597 magnetization 

 Broyden mixing:
  rms(total) = 0.23592E+00    rms(broyden)= 0.23557E+00
  rms(prec ) = 0.25920E+00
  weight for this iteration     100.00

 eigenvalues of (default mixing * dielectric matrix)
  average eigenvalue GAMMA=   0.8679
  1.9159  1.9159  0.6180  0.2865  0.2216  0.2496

 Free energy of the ion-electron system (eV)
  ---------------------------------------------------
  alpha Z        PSCENC =        81.65567618
  Ewald energy   TEWEN  =     41890.25210944
  -Hartree energ DENC   =    -47784.00155266
  -exchange      EXHF   =         0.00000000
  -V(xc)+E(xc)   XCENC  =      -232.39552560
  PAW double counting   =      4126.87834656    -3545.14070631
  entropy T*S    EENTRO =        -0.34869407
  eigenvalues    EBANDS =     -1485.35472338
  atomic energy  EATOM  =      6761.44252427
  Solvation  Ediel_sol  =         0.00000000
  ---------------------------------------------------
  free energy    TOTEN  =      -187.01254558 eV

  energy without entropy =     -186.66385150  energy(sigma->0) =     -186.83819854


--------------------------------------------------------------------------------------------------------




----------------------------------------- Iteration    1(  12)  ---------------------------------------


    POTLOK:  cpu time    0.0445: real time    0.0446
    SETDIJ:  cpu time    0.0042: real time    0.0042
     EDDAV:  cpu time   50.0100: real time   50.1299
       DOS:  cpu time    0.0021: real time    0.0021
    CHARGE:  cpu time    0.8017: real time    0.8036
    MIXING:  cpu time    0.0023: real time    0.0023
    --------------------------------------------
      LOOP:  cpu time   50.8661: real time   50.9983

 eigenvalue-minimisations  : 13040
 total energy-change (2. order) :-0.1846729E-01  (-0.4613807E-01)
 number of electron     159.0000089 magnetization 
 augmentation part       -4.4706645 magnetization 

 Broyden mixing:
  rms(total) = 0.35306E+00    rms(broyden)= 0.35295E+00
  rms(prec ) = 0.39048E+00
  weight for this iteration     100.00

 eigenvalues of (default mixing * dielectric matrix)
  average eigenvalue GAMMA=   0.7956
  1.9961  1.9961  0.6199  0.2752  0.2752  0.2174  0.1896

 Free energy of the ion-electron system (eV)
  ---------------------------------------------------
  alpha Z        PSCENC =        81.65567618
  Ewald energy   TEWEN  =     41890.25210944
  -Hartree energ DENC   =    -47796.79059395
  -exchange      EXHF   =         0.00000000
  -V(xc)+E(xc)   XCENC  =      -232.07284118
  PAW double counting   =      4179.70376613    -3597.93285993
  entropy T*S    EENTRO =        -0.33360567
  eigenvalues    EBANDS =     -1472.95518817
  atomic energy  EATOM  =      6761.44252427
  Solvation  Ediel_sol  =         0.00000000
  ---------------------------------------------------
  free energy    TOTEN  =      -187.03101286 eV

  energy without entropy =     -186.69740720  energy(sigma->0) =     -186.86421003


--------------------------------------------------------------------------------------------------------




----------------------------------------- Iteration    1(  13)  ---------------------------------------


    POTLOK:  cpu time    0.0453: real time    0.0463
    SETDIJ:  cpu time    0.0045: real time    0.0045
     EDDAV:  cpu time   50.4273: real time   50.5480
       DOS:  cpu time    0.0021: real time    0.0021
    CHARGE:  cpu time    0.7914: real time    0.7933
    MIXING:  cpu time    0.0022: real time    0.0022
    --------------------------------------------
      LOOP:  cpu time   51.2751: real time   51.4088

 eigenvalue-minimisations  : 13160
 total energy-change (2. order) : 0.9738670E-01  (-0.2970727E-01)
 number of electron     159.0000089 magnetization 
 augmentation part       -4.4215224 magnetization 

 Broyden mixing:
  rms(total) = 0.19199E+00    rms(broyden)= 0.19182E+00
  rms(prec ) = 0.21272E+00
  weight for this iteration     100.00

 eigenvalues of (default mixing * dielectric matrix)
  average eigenvalue GAMMA=   0.7773
  2.2756  1.7161  0.7308  0.5907  0.2987  0.2242  0.2419  0.1400

 Free energy of the ion-electron system (eV)
  ---------------------------------------------------
  alpha Z        PSCENC =        81.65567618
  Ewald energy   TEWEN  =     41890.25210944
  -Hartree energ DENC   =    -47799.24367247
  -exchange      EXHF   =         0.00000000
  -V(xc)+E(xc)   XCENC  =      -231.99160510
  PAW double counting   =      4187.45408640    -3605.67226679
  entropy T*S    EENTRO =        -0.33609068
  eigenvalues    EBANDS =     -1470.49438742
  atomic energy  EATOM  =      6761.44252427
  Solvation  Ediel_sol  =         0.00000000
  ---------------------------------------------------
  free energy    TOTEN  =      -186.93362616 eV

  energy without entropy =     -186.59753549  energy(sigma->0) =     -186.76558083


--------------------------------------------------------------------------------------------------------




----------------------------------------- Iteration    1(  14)  ---------------------------------------


    POTLOK:  cpu time    0.0470: real time    0.0479
    SETDIJ:  cpu time    0.0044: real time    0.0044
     EDDAV:  cpu time   49.8605: real time   49.9804
       DOS:  cpu time    0.0025: real time    0.0025
    CHARGE:  cpu time    0.7895: real time    0.7914
    MIXING:  cpu time    0.0035: real time    0.0035
    --------------------------------------------
      LOOP:  cpu time   50.7097: real time   50.8429

 eigenvalue-minimisations  : 12960
 total energy-change (2. order) : 0.2971602E-01  (-0.1079453E-01)
 number of electron     159.0000089 magnetization 
 augmentation part       -4.1745483 magnetization 

 Broyden mixing:
  rms(total) = 0.10254E+00    rms(broyden)= 0.10241E+00
  rms(prec ) = 0.11509E+00
  weight for this iteration     100.00

 eigenvalues of (default mixing * dielectric matrix)
  average eigenvalue GAMMA=   0.7357
  2.2903  1.6479  0.9485  0.6019  0.2987  0.2540  0.2223  0.2223  0.1354

 Free energy of the ion-electron system (eV)
  ---------------------------------------------------
  alpha Z        PSCENC =        81.65567618
  Ewald energy   TEWEN  =     41890.25210944
  -Hartree energ DENC   =    -47802.55436994
  -exchange      EXHF   =         0.00000000
  -V(xc)+E(xc)   XCENC  =      -231.87582042
  PAW double counting   =      4192.33677244    -3610.52983554
  entropy T*S    EENTRO =        -0.34104597
  eigenvalues    EBANDS =     -1467.28992059
  atomic energy  EATOM  =      6761.44252427
  Solvation  Ediel_sol  =         0.00000000
  ---------------------------------------------------
  free energy    TOTEN  =      -186.90391014 eV

  energy without entropy =     -186.56286417  energy(sigma->0) =     -186.73338715


--------------------------------------------------------------------------------------------------------




----------------------------------------- Iteration    1(  15)  ---------------------------------------


    POTLOK:  cpu time    0.0486: real time    0.0487
    SETDIJ:  cpu time    0.0044: real time    0.0044
     EDDAV:  cpu time   48.3183: real time   48.4345
       DOS:  cpu time    0.0018: real time    0.0018
    CHARGE:  cpu time    0.7953: real time    0.7972
    MIXING:  cpu time    0.0026: real time    0.0026
    --------------------------------------------
      LOOP:  cpu time   49.1725: real time   49.3001

 eigenvalue-minimisations  : 12560
 total energy-change (2. order) : 0.5610966E-02  (-0.4517254E-02)
 number of electron     159.0000090 magnetization 
 augmentation part       -4.1168614 magnetization 

 Broyden mixing:
  rms(total) = 0.10046E+00    rms(broyden)= 0.10038E+00
  rms(prec ) = 0.11170E+00
  weight for this iteration     100.00

 eigenvalues of (default mixing * dielectric matrix)
  average eigenvalue GAMMA=   0.6991
  2.2875  1.6352  1.0889  0.5998  0.3471  0.3022  0.2265  0.2361  0.1427  0.1248

 Free energy of the ion-electron system (eV)
  ---------------------------------------------------
  alpha Z        PSCENC =        81.65567618
  Ewald energy   TEWEN  =     41890.25210944
  -Hartree energ DENC   =    -47804.64637199
  -exchange      EXHF   =         0.00000000
  -V(xc)+E(xc)   XCENC  =      -231.83977576
  PAW double counting   =      4192.81972561    -3610.98696384
  entropy T*S    EENTRO =        -0.34300915
  eigenvalues    EBANDS =     -1465.25221394
  atomic energy  EATOM  =      6761.44252427
  Solvation  Ediel_sol  =         0.00000000
  ---------------------------------------------------
  free energy    TOTEN  =      -186.89829917 eV

  energy without entropy =     -186.55529002  energy(sigma->0) =     -186.72679460


--------------------------------------------------------------------------------------------------------




----------------------------------------- Iteration    1(  16)  ---------------------------------------


    POTLOK:  cpu time    0.0497: real time    0.0498
    SETDIJ:  cpu time    0.0043: real time    0.0044
     EDDAV:  cpu time   50.2447: real time   50.3655
       DOS:  cpu time    0.0009: real time    0.0017
    CHARGE:  cpu time    0.7916: real time    0.7935
    MIXING:  cpu time    0.0026: real time    0.0026
    --------------------------------------------
      LOOP:  cpu time   51.0961: real time   51.2298

 eigenvalue-minimisations  : 13120
 total energy-change (2. order) : 0.6482589E-02  (-0.1675742E-02)
 number of electron     159.0000090 magnetization 
 augmentation part       -4.1279170 magnetization 

 Broyden mixing:
  rms(total) = 0.48836E-01    rms(broyden)= 0.48795E-01
  rms(prec ) = 0.55017E-01
  weight for this iteration     100.00

 eigenvalues of (default mixing * dielectric matrix)
  average eigenvalue GAMMA=   0.7657
  2.3684  1.9354  1.4963  0.6940  0.6287  0.3082  0.2688  0.2243  0.2412  0.1385
  0.1188

 Free energy of the ion-electron system (eV)
  ---------------------------------------------------
  alpha Z        PSCENC =        81.65567618
  Ewald energy   TEWEN  =     41890.25210944
  -Hartree energ DENC   =    -47806.18668019
  -exchange      EXHF   =         0.00000000
  -V(xc)+E(xc)   XCENC  =      -231.82030842
  PAW double counting   =      4193.08491259    -3611.23497092
  entropy T*S    EENTRO =        -0.34337385
  eigenvalues    EBANDS =     -1463.74170568
  atomic energy  EATOM  =      6761.44252427
  Solvation  Ediel_sol  =         0.00000000
  ---------------------------------------------------
  free energy    TOTEN  =      -186.89181658 eV

  energy without entropy =     -186.54844273  energy(sigma->0) =     -186.72012966


--------------------------------------------------------------------------------------------------------




----------------------------------------- Iteration    1(  17)  ---------------------------------------


    POTLOK:  cpu time    0.0449: real time    0.0467
    SETDIJ:  cpu time    0.0045: real time    0.0045
     EDDAV:  cpu time   49.1728: real time   49.2909
       DOS:  cpu time    0.0018: real time    0.0018
    CHARGE:  cpu time    0.7975: real time    0.7994
    MIXING:  cpu time    0.0027: real time    0.0027
    --------------------------------------------
      LOOP:  cpu time   50.0276: real time   50.1585

 eigenvalue-minimisations  : 12840
 total energy-change (2. order) : 0.2698637E-02  (-0.7447024E-03)
 number of electron     159.0000090 magnetization 
 augmentation part       -4.1959242 magnetization 

 Broyden mixing:
  rms(total) = 0.17780E-01    rms(broyden)= 0.17716E-01
  rms(prec ) = 0.21651E-01
  weight for this iteration     100.00

 eigenvalues of (default mixing * dielectric matrix)
  average eigenvalue GAMMA=   0.7803
  2.3376  2.3376  1.4388  0.8605  0.6042  0.4935  0.3085  0.2237  0.2574  0.2445
  0.1384  0.1185

 Free energy of the ion-electron system (eV)
  ---------------------------------------------------
  alpha Z        PSCENC =        81.65567618
  Ewald energy   TEWEN  =     41890.25210944
  -Hartree energ DENC   =    -47811.85265890
  -exchange      EXHF   =         0.00000000
  -V(xc)+E(xc)   XCENC  =      -231.74698513
  PAW double counting   =      4194.70927931    -3612.79891803
  entropy T*S    EENTRO =        -0.34130609
  eigenvalues    EBANDS =     -1458.20883900
  atomic energy  EATOM  =      6761.44252427
  Solvation  Ediel_sol  =         0.00000000
  ---------------------------------------------------
  free energy    TOTEN  =      -186.88911795 eV

  energy without entropy =     -186.54781186  energy(sigma->0) =     -186.71846490


--------------------------------------------------------------------------------------------------------




----------------------------------------- Iteration    1(  18)  ---------------------------------------


    POTLOK:  cpu time    0.0442: real time    0.0443
    SETDIJ:  cpu time    0.0041: real time    0.0041
     EDDAV:  cpu time   45.1045: real time   45.2130
       DOS:  cpu time    0.0017: real time    0.0017
    CHARGE:  cpu time    0.7955: real time    0.7974
    MIXING:  cpu time    0.0030: real time    0.0032
    --------------------------------------------
      LOOP:  cpu time   45.9544: real time   46.0765

 eigenvalue-minimisations  : 11560
 total energy-change (2. order) : 0.5320743E-03  (-0.1883201E-03)
 number of electron     159.0000090 magnetization 
 augmentation part       -4.2061866 magnetization 

 Broyden mixing:
  rms(total) = 0.16451E-01    rms(broyden)= 0.16441E-01
  rms(prec ) = 0.19278E-01
  weight for this iteration     100.00

 eigenvalues of (default mixing * dielectric matrix)
  average eigenvalue GAMMA=   0.7871
  2.3689  2.3689  1.2624  1.2624  0.6658  0.6270  0.3877  0.3062  0.2239  0.2585
  0.2432  0.1384  0.1185

 Free energy of the ion-electron system (eV)
  ---------------------------------------------------
  alpha Z        PSCENC =        81.65567618
  Ewald energy   TEWEN  =     41890.25210944
  -Hartree energ DENC   =    -47815.32155903
  -exchange      EXHF   =         0.00000000
  -V(xc)+E(xc)   XCENC  =      -231.71253695
  PAW double counting   =      4194.95962446    -3613.01644883
  entropy T*S    EENTRO =        -0.34119920
  eigenvalues    EBANDS =     -1454.80677620
  atomic energy  EATOM  =      6761.44252427
  Solvation  Ediel_sol  =         0.00000000
  ---------------------------------------------------
  free energy    TOTEN  =      -186.88858587 eV

  energy without entropy =     -186.54738667  energy(sigma->0) =     -186.71798627


--------------------------------------------------------------------------------------------------------




----------------------------------------- Iteration    1(  19)  ---------------------------------------


    POTLOK:  cpu time    0.0462: real time    0.0463
    SETDIJ:  cpu time    0.0044: real time    0.0044
     EDDAV:  cpu time   43.3961: real time   43.4998
       DOS:  cpu time    0.0020: real time    0.0020
    CHARGE:  cpu time    0.7897: real time    0.7916
    MIXING:  cpu time    0.0028: real time    0.0028
    --------------------------------------------
      LOOP:  cpu time   44.2427: real time   44.3590

 eigenvalue-minimisations  : 11000
 total energy-change (2. order) : 0.2096938E-03  (-0.7608785E-04)
 number of electron     159.0000090 magnetization 
 augmentation part       -4.1829779 magnetization 

 Broyden mixing:
  rms(total) = 0.46166E-02    rms(broyden)= 0.46022E-02
  rms(prec ) = 0.75669E-02
  weight for this iteration     100.00

 eigenvalues of (default mixing * dielectric matrix)
  average eigenvalue GAMMA=   0.8827
  2.6851  2.6851  1.5752  1.4919  0.9980  0.6281  0.6281  0.3770  0.3069  0.2239
  0.2587  0.2433  0.1384  0.1185

 Free energy of the ion-electron system (eV)
  ---------------------------------------------------
  alpha Z        PSCENC =        81.65567618
  Ewald energy   TEWEN  =     41890.25210944
  -Hartree energ DENC   =    -47817.78687629
  -exchange      EXHF   =         0.00000000
  -V(xc)+E(xc)   XCENC  =      -231.69201556
  PAW double counting   =      4194.41656688    -3612.45917158
  entropy T*S    EENTRO =        -0.34164260
  eigenvalues    EBANDS =     -1452.37554692
  atomic energy  EATOM  =      6761.44252427
  Solvation  Ediel_sol  =         0.00000000
  ---------------------------------------------------
  free energy    TOTEN  =      -186.88837618 eV

  energy without entropy =     -186.54673357  energy(sigma->0) =     -186.71755488


--------------------------------------------------------------------------------------------------------




----------------------------------------- Iteration    1(  20)  ---------------------------------------


    POTLOK:  cpu time    0.0443: real time    0.0445
    SETDIJ:  cpu time    0.0043: real time    0.0043
     EDDAV:  cpu time   36.7649: real time   36.8535
       DOS:  cpu time    0.0021: real time    0.0021
    CHARGE:  cpu time    0.8076: real time    0.8095
    MIXING:  cpu time    0.0031: real time    0.0031
    --------------------------------------------
      LOOP:  cpu time   37.6276: real time   37.7283

 eigenvalue-minimisations  :  9040
 total energy-change (2. order) :-0.8857161E-03  (-0.8271296E-04)
 number of electron     159.0000090 magnetization 
 augmentation part       -4.1876441 magnetization 

 Broyden mixing:
  rms(total) = 0.42865E-02    rms(broyden)= 0.42855E-02
  rms(prec ) = 0.57155E-02
  weight for this iteration     100.00

 eigenvalues of (default mixing * dielectric matrix)
  average eigenvalue GAMMA=   0.9274
  3.1657  2.5462  1.9031  1.5135  0.9260  0.9260  0.6319  0.6319  0.3771  0.3069
  0.2239  0.2587  0.2433  0.1384  0.1185

 Free energy of the ion-electron system (eV)
  ---------------------------------------------------
  alpha Z        PSCENC =        81.65567618
  Ewald energy   TEWEN  =     41890.25210944
  -Hartree energ DENC   =    -47824.34638716
  -exchange      EXHF   =         0.00000000
  -V(xc)+E(xc)   XCENC  =      -231.63640408
  PAW double counting   =      4193.10394253    -3611.12512624
  entropy T*S    EENTRO =        -0.34132501
  eigenvalues    EBANDS =     -1445.89427181
  atomic energy  EATOM  =      6761.44252427
  Solvation  Ediel_sol  =         0.00000000
  ---------------------------------------------------
  free energy    TOTEN  =      -186.88926189 eV

  energy without entropy =     -186.54793688  energy(sigma->0) =     -186.71859939


--------------------------------------------------------------------------------------------------------




----------------------------------------- Iteration    1(  21)  ---------------------------------------


    POTLOK:  cpu time    0.0454: real time    0.0456
    SETDIJ:  cpu time    0.0046: real time    0.0046
     EDDAV:  cpu time   34.5610: real time   34.6437
       DOS:  cpu time    0.0020: real time    0.0020
    CHARGE:  cpu time    0.7910: real time    0.7928
    MIXING:  cpu time    0.0031: real time    0.0031
    --------------------------------------------
      LOOP:  cpu time   35.4086: real time   35.5043

 eigenvalue-minimisations  :  8280
 total energy-change (2. order) :-0.9425061E-03  (-0.2366038E-04)
 number of electron     159.0000090 magnetization 
 augmentation part       -4.1802244 magnetization 

 Broyden mixing:
  rms(total) = 0.37437E-02    rms(broyden)= 0.37396E-02
  rms(prec ) = 0.47027E-02
  weight for this iteration     100.00

 eigenvalues of (default mixing * dielectric matrix)
  average eigenvalue GAMMA=   0.9554
  3.6213  2.4280  2.1716  1.5938  1.0533  1.0533  0.6356  0.6356  0.4268  0.3772
  0.3069  0.2239  0.2587  0.2432  0.1384  0.1185

 Free energy of the ion-electron system (eV)
  ---------------------------------------------------
  alpha Z        PSCENC =        81.65567618
  Ewald energy   TEWEN  =     41890.25210944
  -Hartree energ DENC   =    -47827.32878926
  -exchange      EXHF   =         0.00000000
  -V(xc)+E(xc)   XCENC  =      -231.61632071
  PAW double counting   =      4192.71106764    -3610.73238166
  entropy T*S    EENTRO =        -0.34145543
  eigenvalues    EBANDS =     -1442.93263488
  atomic energy  EATOM  =      6761.44252427
  Solvation  Ediel_sol  =         0.00000000
  ---------------------------------------------------
  free energy    TOTEN  =      -186.89020440 eV

  energy without entropy =     -186.54874897  energy(sigma->0) =     -186.71947669


--------------------------------------------------------------------------------------------------------




----------------------------------------- Iteration    1(  22)  ---------------------------------------


    POTLOK:  cpu time    0.0451: real time    0.0452
    SETDIJ:  cpu time    0.0044: real time    0.0044
     EDDAV:  cpu time   28.5551: real time   28.6234
       DOS:  cpu time    0.0015: real time    0.0015
    CHARGE:  cpu time    0.7964: real time    0.7983
    MIXING:  cpu time    0.0031: real time    0.0031
    --------------------------------------------
      LOOP:  cpu time   29.4069: real time   29.4880

 eigenvalue-minimisations  :  6320
 total energy-change (2. order) :-0.7491571E-03  (-0.9473498E-05)
 number of electron     159.0000090 magnetization 
 augmentation part       -4.1797811 magnetization 

 Broyden mixing:
  rms(total) = 0.32995E-02    rms(broyden)= 0.32981E-02
  rms(prec ) = 0.39101E-02
  weight for this iteration     100.00

 eigenvalues of (default mixing * dielectric matrix)
  average eigenvalue GAMMA=   1.0811
  4.8486  2.5243  2.5243  1.7228  1.4818  0.9891  0.9891  0.6266  0.6266  0.2239
  0.2432  0.2587  0.3069  0.3815  0.3738  0.1384  0.1185

 Free energy of the ion-electron system (eV)
  ---------------------------------------------------
  alpha Z        PSCENC =        81.65567618
  Ewald energy   TEWEN  =     41890.25210944
  -Hartree energ DENC   =    -47829.27882496
[...]
    104      -0.6272      0.00000
    105      -0.4967      0.00000
    106      -0.3938      0.00000
    107      -0.3273      0.00000
    108      -0.0624      0.00000
    109      -0.0212      0.00000
    110       0.2413      0.00000
    111       0.4578      0.00000
    112       0.5777      0.00000
    113       0.8810      0.00000
    114       0.9428      0.00000
    115       1.0491      0.00000
    116       1.1984      0.00000
    117       1.5221      0.00000
    118       2.1474      0.00000
    119       2.3077      0.00000
    120       2.4144      0.00000

 k-point    34 :       0.5000    0.5000    0.0000
  band No.  band energies     occupation 
      1     -17.4742      2.00000
      2     -17.3774      2.00000
      3     -16.7952      2.00000
      4     -16.6806      2.00000
      5     -16.6477      2.00000
      6     -16.4924      2.00000
      7     -16.3214      2.00000
      8     -16.1863      2.00000
      9     -16.1502      2.00000
     10     -16.0547      2.00000
     11     -15.8259      2.00000
     12     -15.8224      2.00000
     13     -15.7782      2.00000
     14     -15.6800      2.00000
     15     -15.5796      2.00000
     16     -15.4626      2.00000
     17     -15.3514      2.00000
     18     -15.3246      2.00000
     19      -9.8177      2.00000
     20      -9.3749      2.00000
     21      -9.3149      2.00000
     22      -8.9668      2.00000
     23      -8.9343      2.00000
     24      -8.8147      2.00000
     25      -8.6690      2.00000
     26      -8.5921      2.00000
     27      -8.4311      2.00000
     28      -8.2979      2.00000
     29      -8.2321      2.00000
     30      -8.1505      2.00000
     31      -8.1017      2.00000
     32      -8.0196      2.00000
     33      -7.9167      2.00000
     34      -7.8678      2.00000
     35      -7.8520      2.00000
     36      -7.7346      2.00000
     37      -7.6143      2.00000
     38      -7.5148      2.00000
     39      -7.3975      2.00000
     40      -7.3455      2.00000
     41      -7.1178      2.00000
     42      -7.0398      2.00000
     43      -6.9861      2.00000
     44      -6.8648      2.00000
     45      -6.8170      2.00000
     46      -6.7054      2.00000
     47      -6.6184      2.00000
     48      -6.6020      2.00000
     49      -6.5395      2.00000
     50      -6.5119      2.00000
     51      -6.4328      2.00000
     52      -6.3885      2.00000
     53      -6.2834      2.00000
     54      -6.2587      2.00000
     55      -6.1790      2.00000
     56      -6.0395      2.00000
     57      -5.9993      2.00000
     58      -5.8417      2.00000
     59      -5.8227      2.00000
     60      -5.8001      2.00000
     61      -5.6329      2.00000
     62      -5.5942      2.00000
     63      -5.4869      2.00000
     64      -5.4133      2.00000
     65      -5.2145      2.00000
     66      -5.1187      2.00000
     67      -4.9963      2.00000
     68      -4.9060      2.00000
     69      -4.8299      2.00000
     70      -4.6039      2.00000
     71      -4.5610      2.00000
     72      -4.5280      2.00000
     73      -4.3187      2.00000
     74      -4.2877      2.00000
     75      -4.2123      2.00000
     76      -4.0754      2.00000
     77      -3.7980      1.99995
     78      -3.7441      1.99978
     79      -3.6296      1.99604
     80      -3.1128      0.43924
     81      -3.0039      0.12278
     82      -2.9017      0.02343
     83      -2.6964      0.00020
     84      -2.6250      0.00002
     85      -2.5313      0.00000
     86      -2.3485      0.00000
     87      -2.1925      0.00000
     88      -2.1094      0.00000
     89      -2.0104      0.00000
     90      -1.9180      0.00000
     91      -1.7152      0.00000
     92      -1.5001      0.00000
     93      -1.3322      0.00000
     94      -1.3008      0.00000
     95      -1.2402      0.00000
     96      -1.1808      0.00000
     97      -1.0828      0.00000
     98      -0.9828      0.00000
     99      -0.8964      0.00000
    100      -0.8363      0.00000
    101      -0.7959      0.00000
    102      -0.7431      0.00000
    103      -0.6286      0.00000
    104      -0.6048      0.00000
    105      -0.5780      0.00000
    106      -0.4243      0.00000
    107      -0.3346      0.00000
    108      -0.0925      0.00000
    109      -0.0605      0.00000
    110       0.2646      0.00000
    111       0.4424      0.00000
    112       0.5893      0.00000
    113       0.9287      0.00000
    114       0.9516      0.00000
    115       1.0328      0.00000
    116       1.2227      0.00000
    117       1.5774      0.00000
    118       2.2304      0.00000
    119       2.2699      0.00000
    120       2.3944      0.00000


--------------------------------------------------------------------------------------------------------


 soft charge-density along one line, spin component           1
         0         1         2         3         4         5         6         7         8         9
 total charge-density along one line
 
 pseudopotential strength for first ion, spin component:           1
 -7.180  -0.027   0.031  -0.018  -0.002   0.661   0.007  -0.009
 -0.027  -7.091  -0.010  -0.024   0.018   0.007   0.635   0.003
  0.031  -0.010  -7.036  -0.014  -0.012  -0.009   0.003   0.620
 -0.018  -0.024  -0.014  -7.076  -0.010   0.005   0.007   0.004
 -0.002   0.018  -0.012  -0.010  -7.182   0.001  -0.005   0.003
  0.661   0.007  -0.009   0.005   0.001   0.337  -0.002   0.003
  0.007   0.635   0.003   0.007  -0.005  -0.002   0.345  -0.001
 -0.009   0.003   0.620   0.004   0.003   0.003  -0.001   0.349
  0.005   0.007   0.004   0.630   0.004  -0.002  -0.002  -0.001
  0.001  -0.005   0.003   0.004   0.662  -0.000   0.002  -0.001
  0.009   0.006  -0.022   0.007  -0.003  -0.002  -0.002   0.005
  0.003   0.002  -0.007   0.002  -0.001  -0.001  -0.000   0.002
 -0.005  -0.002  -0.002   0.002  -0.006   0.000   0.000  -0.001
  0.002   0.010   0.001  -0.006   0.002  -0.000  -0.000  -0.000
  0.007   0.002   0.002   0.002  -0.005   0.000  -0.000  -0.000
 -0.002  -0.001  -0.001   0.002  -0.004   0.000   0.000   0.000
  0.002   0.008   0.001  -0.004   0.002  -0.000  -0.001  -0.000
  0.005   0.002   0.000   0.002  -0.003  -0.001  -0.000  -0.000
 total augmentation occupancy for first ion, spin component:           1
  0.842   0.125   0.073  -0.012  -0.050   0.446   0.213   0.010   0.003  -0.009  -0.030   0.000  -0.003   0.043  -0.004   0.001
  0.125   1.064  -0.045   0.026   0.011   0.211   0.632  -0.028   0.012  -0.002   0.008  -0.003  -0.041   0.060   0.042  -0.002
  0.073  -0.045   0.888  -0.022  -0.028   0.007  -0.027   0.344   0.021   0.000   0.132   0.005   0.061   0.005  -0.021   0.003
 -0.012   0.026  -0.022   1.054  -0.156   0.002   0.012   0.020   0.654  -0.216  -0.004  -0.000   0.061  -0.037   0.023   0.002
 -0.050   0.011  -0.028  -0.156   0.813  -0.010  -0.001  -0.001  -0.218   0.438  -0.013   0.002   0.027   0.037  -0.003   0.003
  0.446   0.211   0.007   0.002  -0.010   0.381   0.219  -0.002   0.003   0.004   0.011   0.001  -0.015   0.058   0.026   0.000
  0.213   0.632  -0.027   0.012  -0.001   0.219   0.570  -0.016   0.005   0.001  -0.012  -0.003  -0.039   0.082   0.055  -0.003
  0.010  -0.028   0.344   0.020  -0.001  -0.002  -0.016   0.276   0.014  -0.004   0.033   0.009   0.020   0.003  -0.011   0.004
  0.003   0.012   0.021   0.654  -0.218   0.003   0.005   0.014   0.586  -0.219   0.015   0.001   0.054  -0.045   0.032   0.004
 -0.009  -0.002   0.000  -0.216   0.438   0.004   0.001  -0.004  -0.219   0.370   0.013   0.001  -0.022   0.036  -0.012   0.001
 -0.030   0.008   0.132  -0.004  -0.013   0.011  -0.012   0.033   0.015   0.013   1.375   0.140   0.024  -0.009  -0.029   0.002
  0.000  -0.003   0.005  -0.000   0.002   0.001  -0.003   0.009   0.001   0.001   0.140   0.026   0.009   0.000  -0.004   0.001
 -0.003  -0.041   0.061   0.061   0.027  -0.015  -0.039   0.020   0.054  -0.022   0.024   0.009   0.355  -0.000  -0.008   0.027
  0.043   0.060   0.005  -0.037   0.037   0.058   0.082   0.003  -0.045   0.036  -0.009   0.000  -0.000   0.415   0.000   0.000
 -0.004   0.042  -0.021   0.023  -0.003   0.026   0.055  -0.011   0.032  -0.012  -0.029  -0.004  -0.008   0.000   0.354   0.000
  0.001  -0.002   0.003   0.002   0.003   0.000  -0.003   0.004   0.004   0.001   0.002   0.001   0.027   0.000   0.000   0.003
  0.002  -0.002  -0.000  -0.000   0.001   0.004   0.005   0.000  -0.003   0.003  -0.000  -0.000   0.000   0.029  -0.000  -0.000
 -0.003   0.002  -0.002   0.001   0.001  -0.001   0.004  -0.002   0.002   0.001  -0.001  -0.000   0.000  -0.000   0.027   0.000


------------------------ aborting loop because EDIFF is reached ----------------------------------------


    CHARGE:  cpu time    0.5834: real time    0.5848
    FORLOC:  cpu time    0.0138: real time    0.0138
    FORNL :  cpu time    9.0660: real time    9.0876
    STRESS:  cpu time   47.0307: real time   47.1446
    FORCOR:  cpu time    0.0533: real time    0.0540
    FORHAR:  cpu time    0.0197: real time    0.0198
    MIXING:  cpu time    0.0013: real time    0.0013
    OFIELD:  cpu time    0.0000: real time    0.0000

  FORCE on cell =-STRESS in cart. coord.  units (eV):
  Direction    XX          YY          ZZ          XY          YZ          ZX
  --------------------------------------------------------------------------------------
  Alpha Z    89.13109    89.13109    89.13109
  Ewald   49189.99196 49143.34516-54100.28338    37.58330   -18.64159     8.57892
  Hartree 49895.35874 49866.05759-49522.39119    23.53116   -11.41634     6.28995
  E(xc)    -609.60484  -610.81871  -617.65294     1.01144     0.84848    -0.39359
  Local  ************************101060.42537   -52.50195    38.69236   -19.95790
  n-local  1214.01082  1215.79916  1248.39963    -1.32406     2.37542    -1.98498
  augment  -212.95257  -213.07645  -214.87272    -0.66107    -0.84281     0.09673
  Kinetic  2005.96233  2016.51115  2055.14551    -7.66308   -10.88858     7.28098
  Fock        0.00000     0.00000     0.00000     0.00000     0.00000     0.00000
  -------------------------------------------------------------------------------------
  Total      -0.06978     0.00036    -2.09862    -0.02426     0.12695    -0.08989
  in kB      -0.04655     0.00024    -1.39986    -0.01618     0.08468    -0.05996
  external pressure =       -0.48 kB  Pullay stress =        0.00 kB


 VOLUME and BASIS-vectors are now :
 -----------------------------------------------------------------------------
  energy-cutoff  :      280.00
  volume of cell :     2401.92
      direct lattice vectors                 reciprocal lattice vectors
     8.308473464  4.803316889  0.000000000     0.060272558  0.103933816  0.000000000
    -8.321347558  4.825656573  0.000000000    -0.059993535  0.103773018  0.000000000
     0.000000000  0.000000000 30.000000000     0.000000000  0.000000000  0.033333333

  length of vectors
     9.597009140  9.619344393 30.000000000     0.120145825  0.119866857  0.033333333


 FORCES acting on ions
    electron-ion (+dipol)            ewald-force                    non-local-force                 convergence-correction
 -----------------------------------------------------------------------------------------------
   -.114E+02 0.238E+02 -.105E+02   0.118E+02 -.254E+02 0.103E+02   -.449E+00 0.152E+01 0.196E+00   0.477E-01 -.148E-01 0.117E-01
   0.112E+02 -.197E+02 0.204E+02   -.119E+02 0.209E+02 -.202E+02   0.739E+00 -.125E+01 -.223E+00   -.367E-01 0.298E-01 -.347E-01
   -.109E+02 0.190E+02 -.199E+02   0.118E+02 -.201E+02 0.198E+02   -.948E+00 0.107E+01 0.172E+00   0.495E-01 0.341E-01 0.270E-01
   -.239E+00 0.874E+01 -.215E+01   0.196E+00 -.841E+01 0.221E+01   0.364E-01 -.227E+00 -.624E-01   0.388E-02 -.871E-01 0.678E-02
   -.203E+02 -.108E+02 -.102E+01   0.202E+02 0.107E+02 0.108E+01   0.115E+00 0.433E-01 -.493E-01   -.836E-02 0.392E-01 -.110E-01
   0.144E+02 0.144E+02 -.182E+01   -.144E+02 -.143E+02 0.179E+01   0.121E-02 -.583E-01 0.279E-01   0.407E-01 -.213E-01 0.139E-02
   0.235E+02 -.287E+02 0.154E+02   -.241E+02 0.293E+02 -.152E+02   0.682E+00 -.547E+00 -.204E+00   -.281E-01 -.174E-01 0.117E-02
   -.201E+02 0.281E+02 -.112E+02   0.208E+02 -.290E+02 0.110E+02   -.647E+00 0.902E+00 0.152E+00   -.820E-01 -.803E-01 0.323E-02
   0.134E+02 -.337E+02 0.123E+02   -.136E+02 0.346E+02 -.121E+02   0.214E+00 -.101E+01 -.263E+00   0.296E-01 0.663E-01 -.543E-02
   -.551E+01 0.249E+01 0.491E+03   0.532E+01 -.187E+01 -.496E+03   0.209E+00 -.548E+00 0.497E+01   -.230E-01 -.471E-01 -.333E-01
   0.104E+02 -.178E+02 -.506E+03   -.105E+02 0.180E+02 0.511E+03   0.104E+00 -.251E+00 -.502E+01   0.258E-01 0.492E-03 0.210E-01
   -.131E+02 0.152E+02 0.624E+03   0.141E+02 -.158E+02 -.628E+03   -.981E+00 0.629E+00 0.339E+01   -.220E-01 -.264E-01 -.804E-02
   -.196E+02 0.156E+02 -.603E+03   0.203E+02 -.160E+02 0.606E+03   -.674E+00 0.407E+00 -.376E+01   -.292E-01 -.780E-02 0.367E-01
   0.130E+02 -.217E+02 0.626E+03   -.135E+02 0.223E+02 -.630E+03   0.487E+00 -.608E+00 0.374E+01   0.623E-02 -.803E-02 -.204E-01
   0.228E+01 -.176E+02 -.629E+03   -.230E+01 0.186E+02 0.633E+03   0.172E-01 -.900E+00 -.345E+01   -.260E-02 -.701E-02 0.196E-01
   -.186E+00 0.397E+01 0.484E+03   -.252E+00 -.327E+01 -.489E+03   0.300E+00 -.807E+00 0.474E+01   0.118E+00 0.115E+00 0.505E-01
   0.574E+00 -.115E+02 -.484E+03   -.489E+00 0.115E+02 0.489E+03   -.460E-01 -.128E+00 -.479E+01   -.171E-01 0.129E+00 -.974E-01
   -.559E+01 0.657E+01 0.564E+03   0.674E+01 -.852E+01 -.567E+03   -.114E+01 0.188E+01 0.300E+01   -.264E-02 0.550E-01 -.368E-01
   -.558E+01 0.222E+02 -.589E+03   0.577E+01 -.231E+02 0.592E+03   -.356E+00 0.894E+00 -.339E+01   0.157E+00 0.361E-01 -.586E-01
   0.262E+01 -.248E+02 0.602E+03   -.270E+01 0.256E+02 -.606E+03   0.495E-01 -.887E+00 0.374E+01   0.307E-01 0.719E-01 0.377E-01
   0.350E+01 -.568E+01 -.568E+03   -.442E+01 0.741E+01 0.571E+03   0.931E+00 -.178E+01 -.309E+01   -.248E-01 0.547E-01 -.321E-01
   -.561E+01 0.140E+02 0.494E+03   0.556E+01 -.140E+02 -.499E+03   0.158E+00 0.783E-01 0.479E+01   -.104E+00 -.348E-01 0.111E+00
   0.811E+01 -.458E+01 -.488E+03   -.796E+01 0.407E+01 0.494E+03   -.821E-01 0.539E+00 -.505E+01   -.667E-01 -.434E-01 -.258E-01
   -.658E+01 0.202E+02 0.604E+03   0.670E+01 -.216E+02 -.607E+03   -.190E+00 0.152E+01 0.295E+01   0.750E-01 -.102E+00 0.868E-01
   -.101E+02 0.251E+02 -.603E+03   0.106E+02 -.259E+02 0.606E+03   -.413E+00 0.995E+00 -.334E+01   -.673E-01 -.117E+00 -.946E-01
   0.195E+02 -.147E+02 0.606E+03   -.200E+02 0.151E+02 -.610E+03   0.590E+00 -.377E+00 0.389E+01   -.714E-01 -.135E-01 0.314E-01
   0.129E+02 -.868E+01 -.627E+03   -.138E+02 0.925E+01 0.630E+03   0.960E+00 -.528E+00 -.340E+01   0.170E-01 -.292E-01 0.146E-01
 -----------------------------------------------------------------------------------------------
   0.316E+00 -.551E+00 0.350E+00   0.107E-13 -.444E-13 -.114E-12   -.334E+00 0.572E+00 -.346E+00   0.164E-01 -.251E-01 0.230E-02
 
 
 POSITION                                       TOTAL-FORCE (eV/Angst)
 -----------------------------------------------------------------------------------
      2.63186      5.04682      0.04493         0.007441     -0.014555      0.013931
      5.70362      2.92490     -0.07455         0.009042     -0.009780     -0.043359
     -0.16406      3.49947      0.07252        -0.008047      0.015280      0.043899
     -5.55283      3.26116      0.00765        -0.002595      0.016517     -0.001286
     -2.94415      4.72065      0.00282         0.000477     -0.012125     -0.004241
      0.13298      6.53877      0.00386        -0.006500      0.000801     -0.001487
      0.18372     -0.24932     -0.05241         0.004294      0.008262     -0.007462
      5.36362      6.65888      0.04159        -0.003180     -0.007557      0.002156
      2.89382      1.33253     -0.04405        -0.003960      0.005428     -0.007606
     -0.90216      1.63587     28.70781         0.000231      0.019059      0.020195
      0.90284      1.63083      1.34350         0.002061      0.006380      0.002035
     -3.74331      3.22582     28.31579         0.003329     -0.014578      0.012242
     -1.85513      3.24263      1.65184        -0.014245     -0.006029      0.014460
     -6.46072      4.80116     28.28204         0.004496      0.000312     -0.004456
     -4.63260      4.78266      1.69837        -0.002553      0.015475     -0.014020
      1.81958      3.22177     28.72955        -0.019245      0.005366      0.011467
      3.71854      3.21222      1.26856         0.022498     -0.013084     -0.007293
     -0.94929      4.85316     28.49736         0.008834     -0.020362      0.011859
      0.93644      4.82714      1.60775        -0.000241      0.012316      0.019733
     -3.68245      6.41297     28.35022        -0.005149     -0.018364     -0.016675
     -1.84011      6.39254      1.51366        -0.013184      0.009821     -0.015235
      4.60242      4.77724     28.69152         0.003668     -0.001908     -0.006637
      6.44626      4.77719      1.28339        -0.000463     -0.015086     -0.013865
      1.86987      6.40161     28.38233         0.004575     -0.008594      0.015395
      3.65349      6.39067      1.64508        -0.006487      0.013332      0.008518
     -0.92909      8.00101     28.33719         0.025604      0.004116     -0.017741
      0.95083      8.01345      1.69166        -0.010703      0.009557     -0.014525
 -----------------------------------------------------------------------------------
    total drift:                               -0.001064     -0.004337      0.006494


--------------------------------------------------------------------------------------------------------



  FREE ENERGIE OF THE ION-ELECTRON SYSTEM (eV)
  ---------------------------------------------------
  free  energy   TOTEN  =      -192.46328358 eV

  energy  without entropy=     -192.33617298  energy(sigma->0) =     -192.39972828
 
 d Force = 0.6525815E-03[ 0.565E-03, 0.740E-03]  d Energy = 0.7056152E-03-0.530E-04
 d Force = 0.1810442E+01[ 0.181E+01, 0.181E+01]  d Ewald  = 0.1665571E+02-0.148E+02


--------------------------------------------------------------------------------------------------------


    POTLOK:  cpu time    0.0461: real time    0.0462


--------------------------------------------------------------------------------------------------------


 Quasi-Newton relaxation of ions (Broydens 2nd method)
  g(Force)  = 0.664E-03   g(Stress)= 0.108E-04

 retain information from N=  3 steps
 eigenvalues of (default step * inverse Hessian matrix)
  average eigenvalue of G=   2.8584
 eigenvalue spectrum of G is  5.1769  3.1825  0.2158


--------------------------------------------------------------------------------------------------------


  
 reached required accuracy - stopping structural energy minimisation
     LOOP+:  cpu time  163.7571: real time  164.1693
    4ORBIT:  cpu time    0.0000: real time    0.0000

 total amount of memory used by VASP on root node   650782. kBytes
========================================================================

   base      :      30000. kBytes
   nonl-proj :     559647. kBytes
   fftplans  :       2414. kBytes
   grid      :      12150. kBytes
   one-center:        419. kBytes
   wavefun   :      46152. kBytes
 
  
  
 General timing and accounting informations for this job:
 ========================================================
  
                  Total CPU time used (sec):     8884.719
                            User time (sec):     8812.308
                          System time (sec):       72.411
                         Elapsed time (sec):     8908.579
  
                   Maximum memory used (kb):      741464.
                   Average memory used (kb):           0.
  
                          Minor page faults:      1163020
                          Major page faults:            8
                 Voluntary context switches:         5679
