 vasp.5.4.1 05Feb16 (build Jul 05 2020 17:13:04) complex                        
  
 executed on           IFC91_ompi date 2024.08.22  01:45:36
 running on   40 total cores
 distrk:  each k-point on   40 cores,    1 groups
 distr:  one band on NCORES_PER_BAND=   1 cores,   40 groups


--------------------------------------------------------------------------------------------------------


 INCAR:
 POTCAR:   PAW_PBE V 08Apr2002                    
 POTCAR:   PAW_PBE Mo 08Apr2002                   
 POTCAR:   PAW_PBE W 08Apr2002                    
 POTCAR:    PAW_PBE S 17Jan2003                   

 ----------------------------------------------------------------------------- 
|                                                                             |
|           W    W    AA    RRRRR   N    N  II  N    N   GGGG   !!!           |
|           W    W   A  A   R    R  NN   N  II  NN   N  G    G  !!!           |
|           W    W  A    A  R    R  N N  N  II  N N  N  G       !!!           |
|           W WW W  AAAAAA  RRRRR   N  N N  II  N  N N  G  GGG   !            |
|           WW  WW  A    A  R   R   N   NN  II  N   NN  G    G                |
|           W    W  A    A  R    R  N    N  II  N    N   GGGG   !!!           |
|                                                                             |
|      For optimal performance we recommend to set                            |
|        NCORE= 4 - approx SQRT( number of cores)                             |
|      NCORE specifies how many cores store one orbital (NPAR=cpu/NCORE).     |
|      This setting can  greatly improve the performance of VASP for DFT.     |
|      The default, NPAR=number of cores might be grossly inefficient         |
|      on modern multi-core architectures or massively parallel machines.     |
|      Do your own testing !!!!                                               |
|      Unfortunately you need to use the default for GW and RPA calculations. |
|      (for HF NCORE is supported but not extensively tested yet)             |
|                                                                             |
 ----------------------------------------------------------------------------- 

 POTCAR:   PAW_PBE V 08Apr2002                    
   VRHFIN =V: p6 d4 s1                                                          
   LEXCH  = PE                                                                  
   EATOM  =   170.8679 eV,   12.5584 Ry                                         
                                                                                
   TITEL  = PAW_PBE V 08Apr2002                                                 
   LULTRA =        F    use ultrasoft PP ?                                      
   IUNSCR =        1    unscreen: 0-lin 1-nonlin 2-no                           
   RPACOR =    2.000    partial core radius                                     
   POMASS =   50.941; ZVAL   =    5.000    mass and valenz                      
   RCORE  =    2.700    outmost cutoff radius                                   
   RWIGS  =    2.500; RWIGS  =    1.323    wigner-seitz radius (au A)           
   ENMAX  =  192.543; ENMIN  =  144.408 eV                                      
   RCLOC  =    1.779    cutoff for local pot                                    
   LCOR   =        T    correct aug charges                                     
   LPAW   =        T    paw PP                                                  
   EAUG   =  358.662                                                            
   DEXC   =    -.034                                                            
   RMAX   =    3.323    core radius for proj-oper                               
   RAUG   =    1.300    factor for augmentation sphere                          
   RDEP   =    2.762    radius for radial grids                                 
   QCUT   =   -3.762; QGAM   =    7.524    optimization parameters              
                                                                                
   Description                                                                  
     l     E      TYP  RCUT    TYP  RCUT                                        
     2   .000     23  2.700                                                     
     2   .000     23  2.700                                                     
     0   .000     23  2.700                                                     
     0  2.000     23  2.700                                                     
     1   .000     23  2.700                                                     
     1  2.000     23  2.700                                                     
     3   .000      7   .000                                                     
  local pseudopotential read in
  partial core-charges read in
  atomic valenz-charges read in
  non local Contribution for L=           2  read in
    real space projection operators read in
  non local Contribution for L=           2  read in
    real space projection operators read in
  non local Contribution for L=           0  read in
    real space projection operators read in
  non local Contribution for L=           0  read in
    real space projection operators read in
  non local Contribution for L=           1  read in
    real space projection operators read in
  non local Contribution for L=           1  read in
    real space projection operators read in
    PAW grid and wavefunctions read in
 
   number of l-projection  operators is LMAX  =           6
   number of lm-projection operators is LMMAX =          18
 
 POTCAR:   PAW_PBE Mo 08Apr2002                   
   VRHFIN =Mo: 4p5s4d                                                           
   LEXCH  = PE                                                                  
   EATOM  =   217.5180 eV,   15.9871 Ry                                         
                                                                                
   TITEL  = PAW_PBE Mo 08Apr2002                                                
   LULTRA =        F    use ultrasoft PP ?                                      
   IUNSCR =        1    unscreen: 0-lin 1-nonlin 2-no                           
   RPACOR =    2.200    partial core radius                                     
   POMASS =   95.940; ZVAL   =    6.000    mass and valenz                      
   RCORE  =    2.750    outmost cutoff radius                                   
   RWIGS  =    2.750; RWIGS  =    1.455    wigner-seitz radius (au A)           
   ENMAX  =  224.584; ENMIN  =  168.438 eV                                      
   RCLOC  =    2.111    cutoff for local pot                                    
   LCOR   =        T    correct aug charges                                     
   LPAW   =        T    paw PP                                                  
   EAUG   =  345.278                                                            
   DEXC   =    -.088                                                            
   RMAX   =    3.077    core radius for proj-oper                               
   RAUG   =    1.300    factor for augmentation sphere                          
   RDEP   =    2.815    radius for radial grids                                 
   QCUT   =   -4.063; QGAM   =    8.126    optimization parameters              
                                                                                
   Description                                                                  
     l     E      TYP  RCUT    TYP  RCUT                                        
     2   .000     23  2.500                                                     
     2   .000     23  2.500                                                     
     0   .000     23  2.600                                                     
     0  1.000     23  2.600                                                     
     1   .400     23  2.750                                                     
     1  2.000     23  2.750                                                     
     3   .000      7   .000                                                     
  local pseudopotential read in
  partial core-charges read in
  atomic valenz-charges read in
  non local Contribution for L=           2  read in
    real space projection operators read in
  non local Contribution for L=           2  read in
    real space projection operators read in
  non local Contribution for L=           0  read in
    real space projection operators read in
  non local Contribution for L=           0  read in
    real space projection operators read in
  non local Contribution for L=           1  read in
    real space projection operators read in
  non local Contribution for L=           1  read in
    real space projection operators read in
    PAW grid and wavefunctions read in
 
   number of l-projection  operators is LMAX  =           6
   number of lm-projection operators is LMMAX =          18
 
 POTCAR:   PAW_PBE W 08Apr2002                    
   VRHFIN =W : 6s5d                                                             
   LEXCH  = PE                                                                  
   EATOM  =   204.6100 eV,   15.0384 Ry                                         
                                                                                
   TITEL  = PAW_PBE W 08Apr2002                                                 
   LULTRA =        F    use ultrasoft PP ?                                      
   IUNSCR =        1    unscreen: 0-lin 1-nonlin 2-no                           
   RPACOR =    2.330    partial core radius                                     
   POMASS =  183.850; ZVAL   =    6.000    mass and valenz                      
   RCORE  =    2.750    outmost cutoff radius                                   
   RWIGS  =    2.750; RWIGS  =    1.455    wigner-seitz radius (au A)           
   ENMAX  =  223.057; ENMIN  =  167.293 eV                                      
   RCLOC  =    2.147    cutoff for local pot                                    
   LCOR   =        T    correct aug charges                                     
   LPAW   =        T    paw PP                                                  
   EAUG   =  373.438                                                            
   DEXC   =    -.060                                                            
   RMAX   =    3.087    core radius for proj-oper                               
   RAUG   =    1.300    factor for augmentation sphere                          
   RDEP   =    2.886    radius for radial grids                                 
   QCUT   =   -4.049; QGAM   =    8.098    optimization parameters              
                                                                                
   Description                                                                  
     l     E      TYP  RCUT    TYP  RCUT                                        
     2   .000     23  2.500                                                     
     2   .000     23  2.500                                                     
     0   .000     23  2.500                                                     
     0   .000     23  2.500                                                     
     1   .200     23  2.750                                                     
     1  2.000     23  2.750                                                     
     3   .000      7   .000                                                     
  local pseudopotential read in
  partial core-charges read in
  atomic valenz-charges read in
  non local Contribution for L=           2  read in
    real space projection operators read in
  non local Contribution for L=           2  read in
    real space projection operators read in
  non local Contribution for L=           0  read in
    real space projection operators read in
  non local Contribution for L=           0  read in
    real space projection operators read in
  non local Contribution for L=           1  read in
    real space projection operators read in
  non local Contribution for L=           1  read in
    real space projection operators read in
    PAW grid and wavefunctions read in
 
   number of l-projection  operators is LMAX  =           6
   number of lm-projection operators is LMMAX =          18
 
 POTCAR:    PAW_PBE S 17Jan2003                   
   VRHFIN =S : s2p4                                                             
   LEXCH  = PE                                                                  
   EATOM  =   276.8230 eV,   20.3459 Ry                                         
                                                                                
   TITEL  = PAW_PBE S 17Jan2003                                                 
   LULTRA =        F    use ultrasoft PP ?                                      
   IUNSCR =        1    unscreen: 0-lin 1-nonlin 2-no                           
   RPACOR =    1.500    partial core radius                                     
   POMASS =   32.066; ZVAL   =    6.000    mass and valenz                      
   RCORE  =    1.900    outmost cutoff radius                                   
   RWIGS  =    2.200; RWIGS  =    1.164    wigner-seitz radius (au A)           
   ENMAX  =  280.000; ENMIN  =  194.016 eV                                      
   ICORE  =        2    local potential                                         
   LCOR   =        T    correct aug charges                                     
   LPAW   =        T    paw PP                                                  
   EAUG   =  335.092                                                            
   DEXC   =     .000                                                            
   RMAX   =    2.867    core radius for proj-oper                               
   RAUG   =    1.300    factor for augmentation sphere                          
   RDEP   =    1.954    radius for radial grids                                 
   QCUT   =   -4.360; QGAM   =    8.721    optimization parameters              
                                                                                
   Description                                                                  
     l     E      TYP  RCUT    TYP  RCUT                                        
     0   .000     23  1.900                                                     
     0   .000     23  1.900                                                     
     1   .000     23  1.900                                                     
     1   .000     23  1.900                                                     
     2   .000     23  1.900                                                     
  local pseudopotential read in
  partial core-charges read in
  atomic valenz-charges read in
  non local Contribution for L=           0  read in
    real space projection operators read in
  non local Contribution for L=           0  read in
    real space projection operators read in
  non local Contribution for L=           1  read in
    real space projection operators read in
  non local Contribution for L=           1  read in
    real space projection operators read in
    PAW grid and wavefunctions read in
 
   number of l-projection  operators is LMAX  =           4
   number of lm-projection operators is LMMAX =           8
 

 ----------------------------------------------------------------------------- 
|                                                                             |
|  ADVICE TO THIS USER RUNNING 'VASP/VAMP'   (HEAR YOUR MASTER'S VOICE ...):  |
|                                                                             |
|      You have a (more or less) 'large supercell' and for larger cells       |
|      it might be more efficient to use real space projection operators      |
|      So try LREAL= Auto  in the INCAR   file.                               |
|      Mind: If you want to do a very accurate calculations keep the          |
|      reciprocal projection scheme          (i.e. LREAL=.FALSE.)             |
|                                                                             |
 ----------------------------------------------------------------------------- 

 PAW_PBE V 08Apr2002                    :
 energy of atom  1       EATOM= -170.8679
 kinetic energy error for atom=    0.0047 (will be added to EATOM!!)
 PAW_PBE Mo 08Apr2002                   :
 energy of atom  2       EATOM= -217.5180
 kinetic energy error for atom=    0.0215 (will be added to EATOM!!)
 PAW_PBE W 08Apr2002                    :
 energy of atom  3       EATOM= -204.6100
 kinetic energy error for atom=    0.0205 (will be added to EATOM!!)
  PAW_PBE S 17Jan2003                   :
 energy of atom  4       EATOM= -276.8230
 kinetic energy error for atom=    0.0122 (will be added to EATOM!!)
 
 
 POSCAR: crystal structure from VMoWS2 with Hexag
  positions in cartesian coordinates
  No initial velocities read in
 exchange correlation table for  LEXCH =        8
   RHO(1)=    0.500       N(1)  =     2000
   RHO(2)=  100.500       N(2)  =     4000
 


--------------------------------------------------------------------------------------------------------


 ion  position               nearest neighbor table
   1  0.667  0.000  0.000-  17 2.34  26 2.34  23 2.36  22 2.36  21 2.36  20 2.36
   2  0.000  0.000  0.000-  23 2.34  14 2.34  11 2.36  10 2.36  27 2.36  26 2.36
   3  1.000  0.333  0.000-  25 2.34  10 2.34  13 2.36  12 2.36  22 2.36  23 2.36
   4  0.333  0.667  0.000-  15 2.34  18 2.34  20 2.36  21 2.36  13 2.36  12 2.36   6 3.34   7 3.34
                             5 3.34   9 3.34
   5  0.000  0.667  0.000-  27 2.34  12 2.34  14 2.36  15 2.36  24 2.36  25 2.36   9 3.34   4 3.34
                             6 3.36   8 3.36
   6  0.333  0.000  0.000-  11 2.34  20 2.34  17 2.36  16 2.36  15 2.36  14 2.36   4 3.34   7 3.34
                             5 3.36   8 3.36
   7  0.333  0.333  0.000-  13 2.34  16 2.34  19 2.36  18 2.36  11 2.36  10 2.36   4 3.34   6 3.34
                             8 3.34   9 3.36
   8  0.667  0.333  0.000-  19 2.34  22 2.34  25 2.36  24 2.36  17 2.36  16 2.36   9 3.34   7 3.34
                             5 3.36   6 3.36
   9  0.667  0.667  0.000-  21 2.34  24 2.34  27 2.36  26 2.36  19 2.36  18 2.36   5 3.34   8 3.34
                             4 3.34   7 3.36
  10  0.111  0.222  0.955-   3 2.34   2 2.36   7 2.36
  11  0.222  0.111  0.045-   6 2.34   2 2.36   7 2.36
  12  0.111  0.556  0.955-   5 2.34   3 2.36   4 2.36
  13  0.222  0.444  0.045-   7 2.34   3 2.36   4 2.36
  14  0.111  0.889  0.955-   2 2.34   5 2.36   6 2.36
  15  0.222  0.777  0.045-   4 2.34   5 2.36   6 2.36
  16  0.444  0.222  0.955-   7 2.34   6 2.36   8 2.36
  17  0.556  0.111  0.045-   1 2.34   6 2.36   8 2.36
  18  0.444  0.556  0.955-   4 2.34   7 2.36   9 2.36
  19  0.556  0.444  0.045-   8 2.34   7 2.36   9 2.36
  20  0.444  0.889  0.955-   6 2.34   4 2.36   1 2.36
  21  0.556  0.777  0.045-   9 2.34   4 2.36   1 2.36
  22  0.777  0.222  0.955-   8 2.34   1 2.36   3 2.36
  23  0.889  0.111  0.045-   2 2.34   1 2.36   3 2.36
  24  0.777  0.556  0.955-   9 2.34   8 2.36   5 2.36
  25  0.889  0.444  0.045-   3 2.34   8 2.36   5 2.36
  26  0.777  0.889  0.955-   1 2.34   9 2.36   2 2.36
  27  0.889  0.777  0.045-   5 2.34   9 2.36   2 2.36
 

IMPORTANT INFORMATION: All symmetrisations will be switched off!
NOSYMM: (Re-)initialisation of all symmetry stuff for point group C_1.

 
 
 KPOINTS: K-POINTS 	#supercell of CrS2 in hexagona

Automatic generation of k-mesh.
Space group operators:
 irot       det(A)        alpha          n_x          n_y          n_z        tau_x        tau_y        tau_z
    1     1.000000     0.000000     1.000000     0.000000     0.000000     0.000000     0.000000     0.000000
 
 Subroutine IBZKPT returns following result:
 ===========================================
 
 Found     34 irreducible k-points:
 
 Following reciprocal coordinates:
            Coordinates               Weight
  0.000000  0.000000  0.000000      1.000000
  0.125000  0.000000  0.000000      2.000000
  0.250000  0.000000  0.000000      2.000000
  0.375000  0.000000  0.000000      2.000000
  0.500000  0.000000  0.000000      1.000000
  0.000000  0.125000  0.000000      2.000000
  0.125000  0.125000  0.000000      2.000000
  0.250000  0.125000  0.000000      2.000000
  0.375000  0.125000  0.000000      2.000000
  0.500000  0.125000  0.000000      2.000000
 -0.375000  0.125000  0.000000      2.000000
 -0.250000  0.125000  0.000000      2.000000
 -0.125000  0.125000  0.000000      2.000000
  0.000000  0.250000  0.000000      2.000000
  0.125000  0.250000  0.000000      2.000000
  0.250000  0.250000  0.000000      2.000000
  0.375000  0.250000  0.000000      2.000000
  0.500000  0.250000  0.000000      2.000000
 -0.375000  0.250000  0.000000      2.000000
 -0.250000  0.250000  0.000000      2.000000
 -0.125000  0.250000  0.000000      2.000000
 -0.000000  0.375000  0.000000      2.000000
  0.125000  0.375000  0.000000      2.000000
  0.250000  0.375000  0.000000      2.000000
  0.375000  0.375000  0.000000      2.000000
  0.500000  0.375000  0.000000      2.000000
 -0.375000  0.375000  0.000000      2.000000
 -0.250000  0.375000  0.000000      2.000000
 -0.125000  0.375000  0.000000      2.000000
  0.000000  0.500000  0.000000      1.000000
  0.125000  0.500000  0.000000      2.000000
  0.250000  0.500000  0.000000      2.000000
  0.375000  0.500000  0.000000      2.000000
  0.500000  0.500000  0.000000      1.000000
 
 Following cartesian coordinates:
            Coordinates               Weight
  0.000000  0.000000  0.000000      1.000000
  0.007209  0.012401  0.000000      2.000000
  0.014418  0.024802  0.000000      2.000000
  0.021626  0.037202  0.000000      2.000000
  0.028835  0.049603  0.000000      1.000000
 -0.007209  0.012401  0.000000      2.000000
  0.000000  0.024802  0.000000      2.000000
  0.007209  0.037202  0.000000      2.000000
  0.014418  0.049603  0.000000      2.000000
  0.021626  0.062004  0.000000      2.000000
 -0.028835 -0.024802  0.000000      2.000000
 -0.021626 -0.012401  0.000000      2.000000
 -0.014418  0.000000  0.000000      2.000000
 -0.014418  0.024802  0.000000      2.000000
 -0.007209  0.037202  0.000000      2.000000
  0.000000  0.049603  0.000000      2.000000
  0.007209  0.062004  0.000000      2.000000
  0.014418  0.074405  0.000000      2.000000
 -0.036044 -0.012401  0.000000      2.000000
 -0.028835  0.000000  0.000000      2.000000
 -0.021626  0.012401  0.000000      2.000000
 -0.021626  0.037202  0.000000      2.000000
 -0.014418  0.049603  0.000000      2.000000
 -0.007209  0.062004  0.000000      2.000000
  0.000000  0.074405  0.000000      2.000000
  0.007209  0.086806  0.000000      2.000000
 -0.043253  0.000000  0.000000      2.000000
 -0.036044  0.012401  0.000000      2.000000
 -0.028835  0.024802  0.000000      2.000000
 -0.028835  0.049603  0.000000      1.000000
 -0.021626  0.062004  0.000000      2.000000
 -0.014418  0.074405  0.000000      2.000000
 -0.007209  0.086806  0.000000      2.000000
  0.000000  0.099206  0.000000      1.000000
 


--------------------------------------------------------------------------------------------------------




 Dimension of arrays:
   k-points           NKPTS =     34   k-points in BZ     NKDIM =     34   number of bands    NBANDS=    120
   number of dos      NEDOS =    301   number of ions     NIONS =     27
   non local maximal  LDIM  =      6   non local SUM 2l+1 LMDIM =     18
   total plane-waves  NPLWV = 222264
   max r-space proj   IRMAX =      1   max aug-charges    IRDMAX=   5642
   dimension x,y,z NGX =    42 NGY =   42 NGZ =  126
   dimension x,y,z NGXF=    84 NGYF=   84 NGZF=  252
   support grid    NGXF=    84 NGYF=   84 NGZF=  252
   ions per type =               3   3   3  18
 NGX,Y,Z   is equivalent  to a cutoff of   6.96,  6.96,  6.98 a.u.
 NGXF,Y,Z  is equivalent  to a cutoff of  13.92, 13.92, 13.96 a.u.


 I would recommend the setting:
   dimension x,y,z NGX =    41 NGY =   41 NGZ =  123
 SYSTEM =  unknown system                          
 POSCAR =  crystal structure from VMoWS2 with Hexag

 Startparameter for this run:
   NWRITE =      2    write-flag & timer
   PREC   = normal    normal or accurate (medium, high low for compatibility)
   ISTART =      0    job   : 0-new  1-cont  2-samecut
   ICHARG =      2    charge: 1-file 2-atom 10-const
   ISPIN  =      1    spin polarized calculation?
   LNONCOLLINEAR =      F non collinear calculations
   LSORBIT =      F    spin-orbit coupling
   INIWAV =      1    electr: 0-lowe 1-rand  2-diag
   LASPH  =      F    aspherical Exc in radial PAW
   METAGGA=      F    non-selfconsistent MetaGGA calc.

 Electronic Relaxation 1
   ENCUT  =  280.0 eV  20.58 Ry    4.54 a.u.  13.68 13.68 40.93*2*pi/ulx,y,z
   ENINI  =  280.0     initial cutoff
   ENAUG  =  373.4 eV  augmentation charge cutoff
   NELM   =     60;   NELMIN=  2; NELMDL= -5     # of ELM steps 
   EDIFF  = 0.1E-03   stopping-criterion for ELM
   LREAL  =      F    real-space projection
   NLSPLINE    = F    spline interpolate recip. space projectors
   LCOMPAT=      F    compatible to vasp.4.4
   GGA_COMPAT  = T    GGA compatible to vasp.4.4-vasp.4.6
   LMAXPAW     = -100 max onsite density
   LMAXMIX     =    2 max onsite mixed and CHGCAR
   VOSKOWN=      0    Vosko Wilk Nusair interpolation
   ROPT   =    0.00000   0.00000   0.00000   0.00000
 Ionic relaxation
   EDIFFG = 0.1E-02   stopping-criterion for IOM
   NSW    =    100    number of steps for IOM
   NBLOCK =      1;   KBLOCK =    100    inner block; outer block 
   IBRION =      1    ionic relax: 0-MD 1-quasi-New 2-CG
   NFREE  =      0    steps in history (QN), initial steepest desc. (CG)
   ISIF   =      3    stress and relaxation
   IWAVPR =     11    prediction:  0-non 1-charg 2-wave 3-comb
   ISYM   =      0    0-nonsym 1-usesym 2-fastsym
   LCORR  =      T    Harris-Foulkes like correction to forces

   POTIM  = 0.5000    time-step for ionic-motion
   TEIN   =    0.0    initial temperature
   TEBEG  =    0.0;   TEEND  =   0.0 temperature during run
   SMASS  =  -3.00    Nose mass-parameter (am)
   estimated Nose-frequenzy (Omega)   =  0.10E-29 period in steps =****** mass=  -0.230E-26a.u.
   SCALEE = 1.0000    scale energy and forces
   NPACO  =    256;   APACO  = 16.0  distance and # of slots for P.C.
   PSTRESS=    0.0 pullay stress

  Mass of Ions in am
   POMASS =  50.94 95.94183.85 32.07
  Ionic Valenz
   ZVAL   =   5.00  6.00  6.00  6.00
  Atomic Wigner-Seitz radii
   RWIGS  =  -1.00 -1.00 -1.00 -1.00
  virtual crystal weights 
   VCA    =   1.00  1.00  1.00  1.00
   NELECT =     159.0000    total number of electrons
   NUPDOWN=      -1.0000    fix difference up-down

 DOS related values:
   EMIN   =  10.00;   EMAX   =-10.00  energy-range for DOS
   EFERMI =   0.00
   ISMEAR =     0;   SIGMA  =   0.20  broadening in eV -4-tet -1-fermi 0-gaus

 Electronic relaxation 2 (details)
   IALGO  =     38    algorithm
   LDIAG  =      T    sub-space diagonalisation (order eigenvalues)
   LSUBROT=      F    optimize rotation matrix (better conditioning)
   TURBO    =      0    0=normal 1=particle mesh
   IRESTART =      0    0=no restart 2=restart with 2 vectors
   NREBOOT  =      0    no. of reboots
   NMIN     =      0    reboot dimension
   EREF     =   0.00    reference energy to select bands
   IMIX   =      4    mixing-type and parameters
     AMIX     =   0.40;   BMIX     =  1.00
     AMIX_MAG =   1.60;   BMIX_MAG =  1.00
     AMIN     =   0.10
     WC   =   100.;   INIMIX=   1;  MIXPRE=   1;  MAXMIX= -45

 Intra band minimization:
   WEIMIN = 0.0010     energy-eigenvalue tresh-hold
   EBREAK =  0.21E-06  absolut break condition
   DEPER  =   0.30     relativ break condition  

   TIME   =   0.40     timestep for ELM

  volume/ion in A,a.u.               =      97.10       655.29
  Fermi-wavevector in a.u.,A,eV,Ry     =   0.643191  1.215456  5.628665  0.413695
  Thomas-Fermi vector in A             =   1.710110
 
 Write flags
   LWAVE  =      F    write WAVECAR
   LCHARG =      F    write CHGCAR
   LVTOT  =      F    write LOCPOT, total local potential
   LVHAR  =      F    write LOCPOT, Hartree potential only
   LELF   =      F    write electronic localiz. function (ELF)
   LORBIT =      0    0 simple, 1 ext, 2 COOP (PROOUT)


 Dipole corrections
   LMONO  =      F    monopole corrections only (constant potential shift)
   LDIPOL =      F    correct potential (dipole corrections)
   IDIPOL =      0    1-x, 2-y, 3-z, 4-all directions 
   EPSILON=  1.0000000 bulk dielectric constant

 Exchange correlation treatment:
   GGA     =    --    GGA type
   LEXCH   =     8    internal setting for exchange type
   VOSKOWN=      0    Vosko Wilk Nusair interpolation
   LHFCALC =     F    Hartree Fock is set to
   LHFONE  =     F    Hartree Fock one center treatment
   AEXX    =    0.0000 exact exchange contribution

 Linear response parameters
   LEPSILON=     F    determine dielectric tensor
   LRPA    =     F    only Hartree local field effects (RPA)
   LNABLA  =     F    use nabla operator in PAW spheres
   LVEL    =     F    velocity operator in full k-point grid
   LINTERFAST=   F  fast interpolation
   KINTER  =     0    interpolate to denser k-point grid
   CSHIFT  =0.1000    complex shift for real part using Kramers Kronig
   OMEGAMAX=  -1.0    maximum frequency
   DEG_THRESHOLD= 0.2000000E-02 threshold for treating states as degnerate
   RTIME   =    0.100 relaxation time in fs

 Orbital magnetization related:
   ORBITALMAG=     F  switch on orbital magnetization
   LCHIMAG   =     F  perturbation theory with respect to B field
   DQ        =  0.001000  dq finite difference perturbation B field



--------------------------------------------------------------------------------------------------------


 quasi-Newton-method for relaxation of ions
 charge density and potential will be updated during run
 non-spin polarized calculation
 Variant of blocked Davidson
 Davidson routine will perform the subspace rotation
 perform sub-space diagonalisation
    after iterative eigenvector-optimisation
 modified Broyden-mixing scheme, WC =      100.0
 initial mixing is a Kerker type mixing with AMIX =  0.4000 and BMIX =      1.0000
 Hartree-type preconditioning will be used
 using additional bands           40
 reciprocal scheme for non local part
 use partial core corrections
 calculate Harris-corrections to forces 
   (improved forces if not selfconsistent)
 use gradient corrections 
 use of overlap-Matrix (Vanderbilt PP)
 Gauss-broadening in eV      SIGMA  =   0.20


--------------------------------------------------------------------------------------------------------


  energy-cutoff  :      280.00
  volume of cell :     2621.81
      direct lattice vectors                 reciprocal lattice vectors
     8.669999960  5.039999894  0.000000000     0.057670129  0.099206348  0.000000000
    -8.669999821  5.040000133  0.000000000    -0.057670126  0.099206350  0.000000000
     0.000000000  0.000000000 30.000000000     0.000000000  0.000000000  0.033333333

  length of vectors
    10.028484344 10.028484344 30.000000000     0.114750788  0.114750788  0.033333333


 
 k-points in units of 2pi/SCALE and weight: K-POINTS 	#supercell of CrS2 in hexagona
   0.00000000  0.00000000  0.00000000       0.016
   0.00720877  0.01240079  0.00000000       0.031
   0.01441753  0.02480159  0.00000000       0.031
   0.02162630  0.03720238  0.00000000       0.031
   0.02883506  0.04960317  0.00000000       0.016
  -0.00720877  0.01240079  0.00000000       0.031
   0.00000000  0.02480159  0.00000000       0.031
   0.00720877  0.03720238  0.00000000       0.031
   0.01441753  0.04960317  0.00000000       0.031
   0.02162630  0.06200397  0.00000000       0.031
  -0.02883506 -0.02480159  0.00000000       0.031
  -0.02162630 -0.01240079  0.00000000       0.031
  -0.01441753  0.00000000  0.00000000       0.031
  -0.01441753  0.02480159  0.00000000       0.031
  -0.00720877  0.03720238  0.00000000       0.031
   0.00000000  0.04960317  0.00000000       0.031
   0.00720877  0.06200397  0.00000000       0.031
   0.01441753  0.07440476  0.00000000       0.031
  -0.03604383 -0.01240079  0.00000000       0.031
  -0.02883506  0.00000000  0.00000000       0.031
  -0.02162630  0.01240079  0.00000000       0.031
  -0.02162630  0.03720238  0.00000000       0.031
  -0.01441753  0.04960317  0.00000000       0.031
  -0.00720877  0.06200397  0.00000000       0.031
   0.00000000  0.07440476  0.00000000       0.031
   0.00720877  0.08680556  0.00000000       0.031
  -0.04325260  0.00000000  0.00000000       0.031
  -0.03604383  0.01240079  0.00000000       0.031
  -0.02883506  0.02480159  0.00000000       0.031
  -0.02883506  0.04960317  0.00000000       0.016
  -0.02162630  0.06200397  0.00000000       0.031
  -0.01441753  0.07440476  0.00000000       0.031
  -0.00720876  0.08680556  0.00000000       0.031
   0.00000000  0.09920635  0.00000000       0.016
 
 k-points in reciprocal lattice and weights: K-POINTS 	#supercell of CrS2 in hexagona
   0.00000000  0.00000000  0.00000000       0.016
   0.12500000  0.00000000  0.00000000       0.031
   0.25000000  0.00000000  0.00000000       0.031
   0.37500000  0.00000000  0.00000000       0.031
   0.50000000  0.00000000  0.00000000       0.016
   0.00000000  0.12500000  0.00000000       0.031
   0.12500000  0.12500000  0.00000000       0.031
   0.25000000  0.12500000  0.00000000       0.031
   0.37500000  0.12500000  0.00000000       0.031
   0.50000000  0.12500000  0.00000000       0.031
  -0.37500000  0.12500000  0.00000000       0.031
  -0.25000000  0.12500000  0.00000000       0.031
  -0.12500000  0.12500000  0.00000000       0.031
   0.00000000  0.25000000  0.00000000       0.031
   0.12500000  0.25000000  0.00000000       0.031
   0.25000000  0.25000000  0.00000000       0.031
   0.37500000  0.25000000  0.00000000       0.031
   0.50000000  0.25000000  0.00000000       0.031
  -0.37500000  0.25000000  0.00000000       0.031
  -0.25000000  0.25000000  0.00000000       0.031
  -0.12500000  0.25000000  0.00000000       0.031
  -0.00000000  0.37500000  0.00000000       0.031
   0.12500000  0.37500000  0.00000000       0.031
   0.25000000  0.37500000  0.00000000       0.031
   0.37500000  0.37500000  0.00000000       0.031
   0.50000000  0.37500000  0.00000000       0.031
  -0.37500000  0.37500000  0.00000000       0.031
  -0.25000000  0.37500000  0.00000000       0.031
  -0.12500000  0.37500000  0.00000000       0.031
   0.00000000  0.50000000  0.00000000       0.016
   0.12500000  0.50000000  0.00000000       0.031
   0.25000000  0.50000000  0.00000000       0.031
   0.37500000  0.50000000  0.00000000       0.031
   0.50000000  0.50000000  0.00000000       0.016
 
 position of ions in fractional coordinates (direct lattice) 
   0.66666669  0.00000000  0.00000000
   0.00000000  0.00000000  0.00000000
   1.00000000  0.33333334  0.00000000
   0.33333334  0.66666669  0.00000000
   0.00000000  0.66666669  0.00000000
   0.33333334  0.00000000  0.00000000
   0.33333334  0.33333334  0.00000000
   0.66666669  0.33333334  0.00000000
   0.66666669  0.66666669  0.00000000
   0.11068511  0.22244981  0.95539999
   0.22244981  0.11068511  0.04460000
   0.11068511  0.55578315  0.95539999
   0.22244981  0.44401845  0.04460000
   0.11068511  0.88911647  0.95539999
   0.22244981  0.77735180  0.04460000
   0.44401845  0.22244981  0.95539999
   0.55578315  0.11068511  0.04460000
   0.44401845  0.55578315  0.95539999
   0.55578315  0.44401845  0.04460000
   0.44401845  0.88911647  0.95539999
   0.55578315  0.77735180  0.04460000
   0.77735180  0.22244981  0.95539999
   0.88911647  0.11068511  0.04460000
   0.77735180  0.55578315  0.95539999
   0.88911647  0.44401845  0.04460000
   0.77735180  0.88911647  0.95539999
   0.88911647  0.77735180  0.04460000
 
 position of ions in cartesian coordinates  (Angst):
   5.78000015  3.36000003  0.00000000
   0.00000000  0.00000000  0.00000000
   5.77999993  6.71999999  0.00000000
  -2.88999998  5.04000020  0.00000000
  -5.78000005  3.36000019  0.00000000
   2.89000007  1.68000002  0.00000000
   0.00000005  3.36000011  0.00000000
   2.89000012  5.04000012  0.00000000
   0.00000009  6.72000022  0.00000000
  -0.96899991  1.67900001 28.66199970
   0.96899995  1.67899998  1.33799996
  -3.85899993  3.35900011 28.66199970
  -1.92100007  3.35900008  1.33799996
  -6.74899970  5.03900005 28.66199970
  -4.81100010  5.03900017  1.33799996
   1.92100017  3.35900003 28.66199970
   3.85900003  3.35900000  1.33799996
  -0.96899986  5.03900012 28.66199970
   0.96900000  5.03900009  1.33799996
  -3.85899963  6.71900006 28.66199970
  -1.92100003  6.71900019  1.33799996
   4.81100024  5.03900004 28.66199970
   6.74899984  5.03899987  1.33799996
   1.92100021  6.71900014 28.66199970
   3.85899981  6.71899996  1.33799996
  -0.96899956  8.39900008 28.66199970
   0.96899979  8.39900005  1.33799996
 


--------------------------------------------------------------------------------------------------------


 k-point  1 :   0.0000 0.0000 0.0000  plane waves:   27959
 k-point  2 :   0.1250 0.0000 0.0000  plane waves:   27889
 k-point  3 :   0.2500 0.0000 0.0000  plane waves:   27875
 k-point  4 :   0.3750 0.0000 0.0000  plane waves:   27893
 k-point  5 :   0.5000 0.0000 0.0000  plane waves:   27932
 k-point  6 :   0.0000 0.1250 0.0000  plane waves:   27889
 k-point  7 :   0.1250 0.1250 0.0000  plane waves:   27906
 k-point  8 :   0.2500 0.1250 0.0000  plane waves:   27898
 k-point  9 :   0.3750 0.1250 0.0000  plane waves:   27888
 k-point 10 :   0.5000 0.1250 0.0000  plane waves:   27873
 k-point 11 :  -0.3750 0.1250 0.0000  plane waves:   27874
 k-point 12 :  -0.2500 0.1250 0.0000  plane waves:   27895
 k-point 13 :  -0.1250 0.1250 0.0000  plane waves:   27879
 k-point 14 :   0.0000 0.2500 0.0000  plane waves:   27875
 k-point 15 :   0.1250 0.2500 0.0000  plane waves:   27898
 k-point 16 :   0.2500 0.2500 0.0000  plane waves:   27920
 k-point 17 :   0.3750 0.2500 0.0000  plane waves:   27901
 k-point 18 :   0.5000 0.2500 0.0000  plane waves:   27875
 k-point 19 :  -0.3750 0.2500 0.0000  plane waves:   27894
 k-point 20 :  -0.2500 0.2500 0.0000  plane waves:   27870
 k-point 21 :  -0.1250 0.2500 0.0000  plane waves:   27895
 k-point 22 :  -0.0000 0.3750 0.0000  plane waves:   27893
 k-point 23 :   0.1250 0.3750 0.0000  plane waves:   27888
 k-point 24 :   0.2500 0.3750 0.0000  plane waves:   27901
 k-point 25 :   0.3750 0.3750 0.0000  plane waves:   27860
 k-point 26 :   0.5000 0.3750 0.0000  plane waves:   27895
 k-point 27 :  -0.3750 0.3750 0.0000  plane waves:   27858
 k-point 28 :  -0.2500 0.3750 0.0000  plane waves:   27894
 k-point 29 :  -0.1250 0.3750 0.0000  plane waves:   27874
 k-point 30 :   0.0000 0.5000 0.0000  plane waves:   27932
 k-point 31 :   0.1250 0.5000 0.0000  plane waves:   27873
 k-point 32 :   0.2500 0.5000 0.0000  plane waves:   27875
 k-point 33 :   0.3750 0.5000 0.0000  plane waves:   27895
 k-point 34 :   0.5000 0.5000 0.0000  plane waves:   27910

 maximum and minimum number of plane-waves per node :     27959    27858

 maximum number of plane-waves:     27959
 maximum index in each direction: 
   IXMAX=   14   IYMAX=   13   IZMAX=   40
   IXMIN=  -14   IYMIN=  -14   IZMIN=  -40

 WARNING: aliasing errors must be expected set NGX to  58 to avoid them
 WARNING: aliasing errors must be expected set NGY to  56 to avoid them
 WARNING: aliasing errors must be expected set NGZ to 162 to avoid them
 aliasing errors are usually negligible using standard VASP settings
 and one can safely disregard these warnings

 serial   3D FFT for wavefunctions

 total amount of memory used by VASP on root node   650782. kBytes
========================================================================

   base      :      30000. kBytes
   nonl-proj :     559647. kBytes
   fftplans  :       2414. kBytes
   grid      :      12150. kBytes
   one-center:        419. kBytes
   wavefun   :      46152. kBytes
 
     INWAV:  cpu time    0.0000: real time    0.0000
 Broyden mixing: mesh for mixing (old mesh)
   NGX = 27   NGY = 27   NGZ = 81
  (NGX  = 84   NGY  = 84   NGZ  =252)
  gives a total of  59049 points

 initial charge density was supplied:
 charge density of overlapping atoms calculated
 number of electron     159.0000000 magnetization 
 keeping initial charge density in first step


--------------------------------------------------------------------------------------------------------


 Maximum index for augmentation-charges          146 (set IRDMAX)


--------------------------------------------------------------------------------------------------------


 First call to EWALD:  gamma=   0.129
 Maximum number of real-space cells 4x 4x 2
 Maximum number of reciprocal cells 2x 2x 5

 FEWALD executed in parallel
    FEWALD:  cpu time    0.0016: real time    0.0018


----------------------------------------- Iteration    1(   1)  ---------------------------------------


    POTLOK:  cpu time    0.0367: real time    0.0370
    SETDIJ:  cpu time    0.0031: real time    0.0032
     EDDAV:  cpu time   21.8967: real time   21.9526
       DOS:  cpu time    0.0014: real time    0.0015
    --------------------------------------------
      LOOP:  cpu time   21.9396: real time   22.0002

 eigenvalue-minimisations  :  8160
 total energy-change (2. order) : 0.1126075E+04  (-0.3598351E+04)
 number of electron     159.0000000 magnetization 
 augmentation part      159.0000000 magnetization 

 Free energy of the ion-electron system (eV)
  ---------------------------------------------------
  alpha Z        PSCENC =        81.65567618
  Ewald energy   TEWEN  =     41891.17177387
  -Hartree energ DENC   =    -47723.81765316
  -exchange      EXHF   =         0.00000000
  -V(xc)+E(xc)   XCENC  =      -242.92465024
  PAW double counting   =      3467.42045192    -2871.19716117
  entropy T*S    EENTRO =        -0.53092359
  eigenvalues    EBANDS =      -237.14528495
  atomic energy  EATOM  =      6761.44252427
  Solvation  Ediel_sol  =         0.00000000
  ---------------------------------------------------
  free energy    TOTEN  =      1126.07475312 eV

  energy without entropy =     1126.60567671  energy(sigma->0) =     1126.34021492


--------------------------------------------------------------------------------------------------------




----------------------------------------- Iteration    1(   2)  ---------------------------------------


     EDDAV:  cpu time   27.7135: real time   27.7799
       DOS:  cpu time    0.0009: real time    0.0009
    --------------------------------------------
      LOOP:  cpu time   27.7153: real time   27.7875

 eigenvalue-minimisations  : 10960
 total energy-change (2. order) :-0.1124967E+04  (-0.1080353E+04)
 number of electron     159.0000000 magnetization 
 augmentation part      159.0000000 magnetization 

 Free energy of the ion-electron system (eV)
  ---------------------------------------------------
  alpha Z        PSCENC =        81.65567618
  Ewald energy   TEWEN  =     41891.17177387
  -Hartree energ DENC   =    -47723.81765316
  -exchange      EXHF   =         0.00000000
  -V(xc)+E(xc)   XCENC  =      -242.92465024
  PAW double counting   =      3467.42045192    -2871.19716117
  entropy T*S    EENTRO =        -0.19108458
  eigenvalues    EBANDS =     -1362.45186139
  atomic energy  EATOM  =      6761.44252427
  Solvation  Ediel_sol  =         0.00000000
  ---------------------------------------------------
  free energy    TOTEN  =         1.10801569 eV

  energy without entropy =        1.29910027  energy(sigma->0) =        1.20355798


--------------------------------------------------------------------------------------------------------




----------------------------------------- Iteration    1(   3)  ---------------------------------------


     EDDAV:  cpu time   27.6251: real time   27.6917
       DOS:  cpu time    0.0010: real time    0.0010
    --------------------------------------------
      LOOP:  cpu time   27.6272: real time   27.7000

 eigenvalue-minimisations  : 10920
 total energy-change (2. order) :-0.2006264E+03  (-0.1920783E+03)
 number of electron     159.0000000 magnetization 
 augmentation part      159.0000000 magnetization 

 Free energy of the ion-electron system (eV)
  ---------------------------------------------------
  alpha Z        PSCENC =        81.65567618
  Ewald energy   TEWEN  =     41891.17177387
  -Hartree energ DENC   =    -47723.81765316
  -exchange      EXHF   =         0.00000000
  -V(xc)+E(xc)   XCENC  =      -242.92465024
  PAW double counting   =      3467.42045192    -2871.19716117
  entropy T*S    EENTRO =        -0.25076628
  eigenvalues    EBANDS =     -1563.01856772
  atomic energy  EATOM  =      6761.44252427
  Solvation  Ediel_sol  =         0.00000000
  ---------------------------------------------------
  free energy    TOTEN  =      -199.51837234 eV

  energy without entropy =     -199.26760606  energy(sigma->0) =     -199.39298920


--------------------------------------------------------------------------------------------------------




----------------------------------------- Iteration    1(   4)  ---------------------------------------


     EDDAV:  cpu time   30.0315: real time   30.1032
       DOS:  cpu time    0.0010: real time    0.0010
    --------------------------------------------
      LOOP:  cpu time   30.0333: real time   30.1107

 eigenvalue-minimisations  : 12120
 total energy-change (2. order) :-0.9442373E+01  (-0.9140702E+01)
 number of electron     159.0000000 magnetization 
 augmentation part      159.0000000 magnetization 

 Free energy of the ion-electron system (eV)
  ---------------------------------------------------
  alpha Z        PSCENC =        81.65567618
  Ewald energy   TEWEN  =     41891.17177387
  -Hartree energ DENC   =    -47723.81765316
  -exchange      EXHF   =         0.00000000
  -V(xc)+E(xc)   XCENC  =      -242.92465024
  PAW double counting   =      3467.42045192    -2871.19716117
  entropy T*S    EENTRO =        -0.28817683
  eigenvalues    EBANDS =     -1572.42352989
  atomic energy  EATOM  =      6761.44252427
  Solvation  Ediel_sol  =         0.00000000
  ---------------------------------------------------
  free energy    TOTEN  =      -208.96074506 eV

  energy without entropy =     -208.67256823  energy(sigma->0) =     -208.81665664


--------------------------------------------------------------------------------------------------------




----------------------------------------- Iteration    1(   5)  ---------------------------------------


     EDDAV:  cpu time   28.9992: real time   29.0689
       DOS:  cpu time    0.0010: real time    0.0010
    CHARGE:  cpu time    0.4615: real time    0.4626
    MIXING:  cpu time    0.0016: real time    0.0018
    --------------------------------------------
      LOOP:  cpu time   29.4641: real time   29.5409

 eigenvalue-minimisations  : 11560
 total energy-change (2. order) :-0.3371892E+00  (-0.3361618E+00)
 number of electron     159.0000110 magnetization 
 augmentation part       -9.8130901 magnetization 

 Broyden mixing:
  rms(total) = 0.27498E+01    rms(broyden)= 0.27494E+01
  rms(prec ) = 0.29350E+01
  weight for this iteration     100.00

 Free energy of the ion-electron system (eV)
  ---------------------------------------------------
  alpha Z        PSCENC =        81.65567618
  Ewald energy   TEWEN  =     41891.17177387
  -Hartree energ DENC   =    -47723.81765316
  -exchange      EXHF   =         0.00000000
  -V(xc)+E(xc)   XCENC  =      -242.92465024
  PAW double counting   =      3467.42045192    -2871.19716117
  entropy T*S    EENTRO =        -0.28470758
  eigenvalues    EBANDS =     -1572.76418830
  atomic energy  EATOM  =      6761.44252427
  Solvation  Ediel_sol  =         0.00000000
  ---------------------------------------------------
  free energy    TOTEN  =      -209.29793421 eV

  energy without entropy =     -209.01322663  energy(sigma->0) =     -209.15558042


--------------------------------------------------------------------------------------------------------




----------------------------------------- Iteration    1(   6)  ---------------------------------------


    POTLOK:  cpu time    0.0354: real time    0.0354
    SETDIJ:  cpu time    0.0026: real time    0.0026
     EDDAV:  cpu time   31.3538: real time   31.4286
       DOS:  cpu time    0.0002: real time    0.0010
    CHARGE:  cpu time    0.4583: real time    0.4594
    MIXING:  cpu time    0.0019: real time    0.0023
    --------------------------------------------
      LOOP:  cpu time   31.8538: real time   31.9385

 eigenvalue-minimisations  : 12760
 total energy-change (2. order) :-0.2830212E+02  (-0.1053213E+02)
 number of electron     159.0000106 magnetization 
 augmentation part        7.0827751 magnetization 

 Broyden mixing:
  rms(total) = 0.59361E+01    rms(broyden)= 0.59354E+01
  rms(prec ) = 0.65450E+01
  weight for this iteration     100.00

 eigenvalues of (default mixing * dielectric matrix)
  average eigenvalue GAMMA=   0.2942
  0.2942

 Free energy of the ion-electron system (eV)
  ---------------------------------------------------
  alpha Z        PSCENC =        81.65567618
  Ewald energy   TEWEN  =     41891.17177387
  -Hartree energ DENC   =    -47702.07332222
  -exchange      EXHF   =         0.00000000
  -V(xc)+E(xc)   XCENC  =      -233.62034632
  PAW double counting   =      3676.16295222    -3082.24366860
  entropy T*S    EENTRO =        -0.25133896
  eigenvalues    EBANDS =     -1629.84430142
  atomic energy  EATOM  =      6761.44252427
  Solvation  Ediel_sol  =         0.00000000
  ---------------------------------------------------
  free energy    TOTEN  =      -237.60005098 eV

  energy without entropy =     -237.34871202  energy(sigma->0) =     -237.47438150


--------------------------------------------------------------------------------------------------------




----------------------------------------- Iteration    1(   7)  ---------------------------------------


    POTLOK:  cpu time    0.0306: real time    0.0306
    SETDIJ:  cpu time    0.0023: real time    0.0024
     EDDAV:  cpu time   32.2526: real time   32.3296
       DOS:  cpu time    0.0011: real time    0.0011
    CHARGE:  cpu time    0.4688: real time    0.4699
    MIXING:  cpu time    0.0012: real time    0.0012
    --------------------------------------------
      LOOP:  cpu time   32.7574: real time   32.8437

 eigenvalue-minimisations  : 13200
 total energy-change (2. order) : 0.4096826E+02  (-0.1758311E+02)
 number of electron     159.0000090 magnetization 
 augmentation part       -6.2604940 magnetization 

 Broyden mixing:
  rms(total) = 0.20018E+01    rms(broyden)= 0.19999E+01
  rms(prec ) = 0.22233E+01
  weight for this iteration     100.00

 eigenvalues of (default mixing * dielectric matrix)
  average eigenvalue GAMMA=   0.5513
  0.8913  0.2114

 Free energy of the ion-electron system (eV)
  ---------------------------------------------------
  alpha Z        PSCENC =        81.65567618
  Ewald energy   TEWEN  =     41891.17177387
  -Hartree energ DENC   =    -47739.14610209
  -exchange      EXHF   =         0.00000000
  -V(xc)+E(xc)   XCENC  =      -234.99363043
  PAW double counting   =      3763.65537708    -3177.68345619
  entropy T*S    EENTRO =        -0.37052070
  eigenvalues    EBANDS =     -1542.36343739
  atomic energy  EATOM  =      6761.44252427
  Solvation  Ediel_sol  =         0.00000000
  ---------------------------------------------------
  free energy    TOTEN  =      -196.63179540 eV

  energy without entropy =     -196.26127470  energy(sigma->0) =     -196.44653505


--------------------------------------------------------------------------------------------------------




----------------------------------------- Iteration    1(   8)  ---------------------------------------


    POTLOK:  cpu time    0.0331: real time    0.0332
    SETDIJ:  cpu time    0.0025: real time    0.0025
     EDDAV:  cpu time   30.1024: real time   30.1745
       DOS:  cpu time    0.0011: real time    0.0011
    CHARGE:  cpu time    0.4815: real time    0.4827
    MIXING:  cpu time    0.0012: real time    0.0016
    --------------------------------------------
      LOOP:  cpu time   30.6228: real time   30.7047

 eigenvalue-minimisations  : 12120
 total energy-change (2. order) : 0.7145531E+01  (-0.1826931E+01)
 number of electron     159.0000095 magnetization 
 augmentation part       -6.3739162 magnetization 

 Broyden mixing:
  rms(total) = 0.12501E+01    rms(broyden)= 0.12499E+01
  rms(prec ) = 0.13505E+01
  weight for this iteration     100.00

 eigenvalues of (default mixing * dielectric matrix)
  average eigenvalue GAMMA=   0.5969
  1.1548  0.2307  0.4053

 Free energy of the ion-electron system (eV)
  ---------------------------------------------------
  alpha Z        PSCENC =        81.65567618
  Ewald energy   TEWEN  =     41891.17177387
  -Hartree energ DENC   =    -47762.18640927
  -exchange      EXHF   =         0.00000000
  -V(xc)+E(xc)   XCENC  =      -235.00590647
  PAW double counting   =      3906.62723800    -3322.28521811
  entropy T*S    EENTRO =        -0.32304914
  eigenvalues    EBANDS =     -1510.58289323
  atomic energy  EATOM  =      6761.44252427
  Solvation  Ediel_sol  =         0.00000000
  ---------------------------------------------------
  free energy    TOTEN  =      -189.48626390 eV

  energy without entropy =     -189.16321476  energy(sigma->0) =     -189.32473933


--------------------------------------------------------------------------------------------------------




----------------------------------------- Iteration    1(   9)  ---------------------------------------


    POTLOK:  cpu time    0.0364: real time    0.0365
    SETDIJ:  cpu time    0.0023: real time    0.0023
     EDDAV:  cpu time   33.0111: real time   33.0905
       DOS:  cpu time    0.0001: real time    0.0010
    CHARGE:  cpu time    0.4837: real time    0.4849
    MIXING:  cpu time    0.0012: real time    0.0012
    --------------------------------------------
      LOOP:  cpu time   33.5367: real time   33.6189

 eigenvalue-minimisations  : 13560
 total energy-change (2. order) : 0.1418448E+01  (-0.3113061E+00)
 number of electron     159.0000090 magnetization 
 augmentation part       -5.5198359 magnetization 

 Broyden mixing:
  rms(total) = 0.89050E+00    rms(broyden)= 0.89032E+00
  rms(prec ) = 0.96505E+00
  weight for this iteration     100.00

 eigenvalues of (default mixing * dielectric matrix)
  average eigenvalue GAMMA=   0.7570
  1.8467  0.6326  0.2211  0.3277

 Free energy of the ion-electron system (eV)
  ---------------------------------------------------
  alpha Z        PSCENC =        81.65567618
  Ewald energy   TEWEN  =     41891.17177387
  -Hartree energ DENC   =    -47767.24926326
  -exchange      EXHF   =         0.00000000
  -V(xc)+E(xc)   XCENC  =      -234.06671088
  PAW double counting   =      3980.93550155    -3397.52560660
  entropy T*S    EENTRO =        -0.31825174
  eigenvalues    EBANDS =     -1504.11345963
  atomic energy  EATOM  =      6761.44252427
  Solvation  Ediel_sol  =         0.00000000
  ---------------------------------------------------
  free energy    TOTEN  =      -188.06781624 eV

  energy without entropy =     -187.74956450  energy(sigma->0) =     -187.90869037


--------------------------------------------------------------------------------------------------------




----------------------------------------- Iteration    1(  10)  ---------------------------------------


    POTLOK:  cpu time    0.0322: real time    0.0323
    SETDIJ:  cpu time    0.0025: real time    0.0025
     EDDAV:  cpu time   32.8320: real time   32.9107
       DOS:  cpu time    0.0012: real time    0.0012
    CHARGE:  cpu time    0.5003: real time    0.5015
    MIXING:  cpu time    0.0013: real time    0.0013
    --------------------------------------------
      LOOP:  cpu time   33.3704: real time   33.4581

 eigenvalue-minimisations  : 13480
 total energy-change (2. order) : 0.1146324E+01  (-0.1591195E+00)
 number of electron     159.0000092 magnetization 
 augmentation part       -4.2156568 magnetization 

 Broyden mixing:
  rms(total) = 0.19592E+00    rms(broyden)= 0.19526E+00
  rms(prec ) = 0.20645E+00
  weight for this iteration     100.00

 eigenvalues of (default mixing * dielectric matrix)
  average eigenvalue GAMMA=   0.9472
  1.7811  1.7811  0.6467  0.2213  0.3057

 Free energy of the ion-electron system (eV)
  ---------------------------------------------------
  alpha Z        PSCENC =        81.65567618
  Ewald energy   TEWEN  =     41891.17177387
  -Hartree energ DENC   =    -47780.67662659
  -exchange      EXHF   =         0.00000000
  -V(xc)+E(xc)   XCENC  =      -232.54251088
  PAW double counting   =      4109.32117161    -3527.49295071
  entropy T*S    EENTRO =        -0.35188092
  eigenvalues    EBANDS =     -1489.44866902
  atomic energy  EATOM  =      6761.44252427
  Solvation  Ediel_sol  =         0.00000000
  ---------------------------------------------------
  free energy    TOTEN  =      -186.92149218 eV

  energy without entropy =     -186.56961126  energy(sigma->0) =     -186.74555172


--------------------------------------------------------------------------------------------------------




----------------------------------------- Iteration    1(  11)  ---------------------------------------


    POTLOK:  cpu time    0.0305: real time    0.0306
    SETDIJ:  cpu time    0.0024: real time    0.0024
     EDDAV:  cpu time   32.8307: real time   32.9097
       DOS:  cpu time    0.0010: real time    0.0010
    CHARGE:  cpu time    0.5021: real time    0.5033
    MIXING:  cpu time    0.0013: real time    0.0013
    --------------------------------------------
      LOOP:  cpu time   33.3689: real time   33.4570

 eigenvalue-minimisations  : 13480
 total energy-change (2. order) :-0.1237568E-01  (-0.4252084E-01)
 number of electron     159.0000087 magnetization 
 augmentation part       -4.6195897 magnetization 

 Broyden mixing:
  rms(total) = 0.30048E+00    rms(broyden)= 0.30040E+00
  rms(prec ) = 0.33427E+00
  weight for this iteration     100.00

 eigenvalues of (default mixing * dielectric matrix)
  average eigenvalue GAMMA=   0.9610
  2.1916  1.7360  0.6544  0.6544  0.2209  0.3084

 Free energy of the ion-electron system (eV)
  ---------------------------------------------------
  alpha Z        PSCENC =        81.65567618
  Ewald energy   TEWEN  =     41891.17177387
  -Hartree energ DENC   =    -47795.13957279
  -exchange      EXHF   =         0.00000000
  -V(xc)+E(xc)   XCENC  =      -232.08694450
  PAW double counting   =      4173.87360925    -3592.15847065
  entropy T*S    EENTRO =        -0.32582733
  eigenvalues    EBANDS =     -1475.36663616
  atomic energy  EATOM  =      6761.44252427
  Solvation  Ediel_sol  =         0.00000000
  ---------------------------------------------------
  free energy    TOTEN  =      -186.93386786 eV

  energy without entropy =     -186.60804053  energy(sigma->0) =     -186.77095420


--------------------------------------------------------------------------------------------------------




----------------------------------------- Iteration    1(  12)  ---------------------------------------


    POTLOK:  cpu time    0.0303: real time    0.0307
    SETDIJ:  cpu time    0.0023: real time    0.0023
     EDDAV:  cpu time   33.0481: real time   33.1273
       DOS:  cpu time    0.0010: real time    0.0010
    CHARGE:  cpu time    0.5016: real time    0.5028
    MIXING:  cpu time    0.0014: real time    0.0014
    --------------------------------------------
      LOOP:  cpu time   33.5859: real time   33.6747

 eigenvalue-minimisations  : 13560
 total energy-change (2. order) : 0.7839050E-01  (-0.2532432E-01)
 number of electron     159.0000088 magnetization 
 augmentation part       -4.1880433 magnetization 

 Broyden mixing:
  rms(total) = 0.12725E+00    rms(broyden)= 0.12693E+00
  rms(prec ) = 0.14555E+00
  weight for this iteration     100.00

 eigenvalues of (default mixing * dielectric matrix)
  average eigenvalue GAMMA=   0.8860
  2.2481  1.7259  0.7800  0.6572  0.2208  0.3079  0.2620

 Free energy of the ion-electron system (eV)
  ---------------------------------------------------
  alpha Z        PSCENC =        81.65567618
  Ewald energy   TEWEN  =     41891.17177387
  -Hartree energ DENC   =    -47801.20636765
  -exchange      EXHF   =         0.00000000
  -V(xc)+E(xc)   XCENC  =      -231.92181923
  PAW double counting   =      4189.54326301    -3607.74329593
  entropy T*S    EENTRO =        -0.33989357
  eigenvalues    EBANDS =     -1469.45733830
  atomic energy  EATOM  =      6761.44252427
  Solvation  Ediel_sol  =         0.00000000
  ---------------------------------------------------
  free energy    TOTEN  =      -186.85547736 eV

  energy without entropy =     -186.51558379  energy(sigma->0) =     -186.68553058


--------------------------------------------------------------------------------------------------------




----------------------------------------- Iteration    1(  13)  ---------------------------------------


    POTLOK:  cpu time    0.0312: real time    0.0315
    SETDIJ:  cpu time    0.0024: real time    0.0024
     EDDAV:  cpu time   30.6325: real time   30.7056
       DOS:  cpu time    0.0010: real time    0.0010
    CHARGE:  cpu time    0.5008: real time    0.5020
    MIXING:  cpu time    0.0014: real time    0.0014
    --------------------------------------------
      LOOP:  cpu time   31.1705: real time   31.2531

 eigenvalue-minimisations  : 12400
 total energy-change (2. order) : 0.2631167E-01  (-0.6481359E-02)
 number of electron     159.0000089 magnetization 
 augmentation part       -4.1009819 magnetization 

 Broyden mixing:
  rms(total) = 0.75071E-01    rms(broyden)= 0.74948E-01
  rms(prec ) = 0.84158E-01
  weight for this iteration     100.00

 eigenvalues of (default mixing * dielectric matrix)
  average eigenvalue GAMMA=   0.8766
  2.2278  1.8425  0.9627  0.6016  0.6016  0.3081  0.2209  0.2475

 Free energy of the ion-electron system (eV)
  ---------------------------------------------------
  alpha Z        PSCENC =        81.65567618
  Ewald energy   TEWEN  =     41891.17177387
  -Hartree energ DENC   =    -47803.62281634
  -exchange      EXHF   =         0.00000000
  -V(xc)+E(xc)   XCENC  =      -231.87629581
  PAW double counting   =      4191.86657020    -3610.02124038
  entropy T*S    EENTRO =        -0.34288312
  eigenvalues    EBANDS =     -1467.10247457
  atomic energy  EATOM  =      6761.44252427
  Solvation  Ediel_sol  =         0.00000000
  ---------------------------------------------------
  free energy    TOTEN  =      -186.82916570 eV

  energy without entropy =     -186.48628258  energy(sigma->0) =     -186.65772414


--------------------------------------------------------------------------------------------------------




----------------------------------------- Iteration    1(  14)  ---------------------------------------


    POTLOK:  cpu time    0.0299: real time    0.0301
    SETDIJ:  cpu time    0.0024: real time    0.0024
     EDDAV:  cpu time   32.2706: real time   32.3482
       DOS:  cpu time    0.0010: real time    0.0010
    CHARGE:  cpu time    0.5023: real time    0.5035
    MIXING:  cpu time    0.0015: real time    0.0015
    --------------------------------------------
      LOOP:  cpu time   32.8089: real time   32.8955

 eigenvalue-minimisations  : 13200
 total energy-change (2. order) : 0.2213225E-02  (-0.1785145E-02)
 number of electron     159.0000089 magnetization 
 augmentation part       -4.1782095 magnetization 

 Broyden mixing:
  rms(total) = 0.65604E-01    rms(broyden)= 0.65577E-01
  rms(prec ) = 0.73102E-01
  weight for this iteration     100.00

 eigenvalues of (default mixing * dielectric matrix)
  average eigenvalue GAMMA=   0.8366
  2.1933  1.9812  1.1191  0.6476  0.6476  0.3080  0.2209  0.2552  0.1568

 Free energy of the ion-electron system (eV)
  ---------------------------------------------------
  alpha Z        PSCENC =        81.65567618
  Ewald energy   TEWEN  =     41891.17177387
  -Hartree energ DENC   =    -47807.22241501
  -exchange      EXHF   =         0.00000000
  -V(xc)+E(xc)   XCENC  =      -231.83004462
  PAW double counting   =      4192.84979106    -3610.95372594
  entropy T*S    EENTRO =        -0.34067440
  eigenvalues    EBANDS =     -1463.59985789
  atomic energy  EATOM  =      6761.44252427
  Solvation  Ediel_sol  =         0.00000000
  ---------------------------------------------------
  free energy    TOTEN  =      -186.82695247 eV

  energy without entropy =     -186.48627807  energy(sigma->0) =     -186.65661527


--------------------------------------------------------------------------------------------------------




----------------------------------------- Iteration    1(  15)  ---------------------------------------


    POTLOK:  cpu time    0.0305: real time    0.0306
    SETDIJ:  cpu time    0.0024: real time    0.0024
     EDDAV:  cpu time   32.9969: real time   33.0762
       DOS:  cpu time    0.0010: real time    0.0010
    CHARGE:  cpu time    0.5042: real time    0.5054
    MIXING:  cpu time    0.0016: real time    0.0016
    --------------------------------------------
      LOOP:  cpu time   33.5376: real time   33.6265

 eigenvalue-minimisations  : 13560
 total energy-change (2. order) : 0.3213365E-02  (-0.1183679E-02)
 number of electron     159.0000089 magnetization 
 augmentation part       -4.2086450 magnetization 

 Broyden mixing:
  rms(total) = 0.26841E-01    rms(broyden)= 0.26786E-01
  rms(prec ) = 0.30812E-01
  weight for this iteration     100.00

 eigenvalues of (default mixing * dielectric matrix)
  average eigenvalue GAMMA=   0.8940
  2.2638  2.2638  1.3631  0.8948  0.6256  0.6256  0.3083  0.2209  0.2493  0.1248

 Free energy of the ion-electron system (eV)
  ---------------------------------------------------
  alpha Z        PSCENC =        81.65567618
  Ewald energy   TEWEN  =     41891.17177387
  -Hartree energ DENC   =    -47809.36197589
  -exchange      EXHF   =         0.00000000
  -V(xc)+E(xc)   XCENC  =      -231.80244125
  PAW double counting   =      4193.39886734    -3611.47704273
  entropy T*S    EENTRO =        -0.33974802
  eigenvalues    EBANDS =     -1461.51137288
  atomic energy  EATOM  =      6761.44252427
  Solvation  Ediel_sol  =         0.00000000
  ---------------------------------------------------
  free energy    TOTEN  =      -186.82373911 eV

  energy without entropy =     -186.48399109  energy(sigma->0) =     -186.65386510


--------------------------------------------------------------------------------------------------------




----------------------------------------- Iteration    1(  16)  ---------------------------------------


    POTLOK:  cpu time    0.0291: real time    0.0305
    SETDIJ:  cpu time    0.0023: real time    0.0023
     EDDAV:  cpu time   31.2592: real time   31.3339
       DOS:  cpu time    0.0011: real time    0.0011
    CHARGE:  cpu time    0.5044: real time    0.5056
    MIXING:  cpu time    0.0016: real time    0.0016
    --------------------------------------------
      LOOP:  cpu time   31.8000: real time   31.8840

 eigenvalue-minimisations  : 12720
 total energy-change (2. order) : 0.7881523E-03  (-0.3215799E-03)
 number of electron     159.0000089 magnetization 
 augmentation part       -4.2066361 magnetization 

 Broyden mixing:
  rms(total) = 0.16014E-01    rms(broyden)= 0.15996E-01
  rms(prec ) = 0.19453E-01
  weight for this iteration     100.00

 eigenvalues of (default mixing * dielectric matrix)
  average eigenvalue GAMMA=   0.8786
  2.3206  2.3206  1.4122  1.0368  0.6416  0.6416  0.3894  0.3081  0.2209  0.2486
  0.1243

 Free energy of the ion-electron system (eV)
  ---------------------------------------------------
  alpha Z        PSCENC =        81.65567618
  Ewald energy   TEWEN  =     41891.17177387
  -Hartree energ DENC   =    -47814.23294641
  -exchange      EXHF   =         0.00000000
  -V(xc)+E(xc)   XCENC  =      -231.74124137
  PAW double counting   =      4194.43001197    -3612.46327078
  entropy T*S    EENTRO =        -0.33971412
  eigenvalues    EBANDS =     -1456.74576457
  atomic energy  EATOM  =      6761.44252427
  Solvation  Ediel_sol  =         0.00000000
  ---------------------------------------------------
  free energy    TOTEN  =      -186.82295095 eV

  energy without entropy =     -186.48323683  energy(sigma->0) =     -186.65309389


--------------------------------------------------------------------------------------------------------




----------------------------------------- Iteration    1(  17)  ---------------------------------------


    POTLOK:  cpu time    0.0314: real time    0.0317
    SETDIJ:  cpu time    0.0023: real time    0.0023
     EDDAV:  cpu time   29.6054: real time   29.6765
       DOS:  cpu time    0.0010: real time    0.0010
    CHARGE:  cpu time    0.5042: real time    0.5054
    MIXING:  cpu time    0.0009: real time    0.0019
    --------------------------------------------
      LOOP:  cpu time   30.1474: real time   30.2270

 eigenvalue-minimisations  : 11920
 total energy-change (2. order) : 0.4926582E-03  (-0.1323281E-03)
 number of electron     159.0000089 magnetization 
 augmentation part       -4.1914733 magnetization 

 Broyden mixing:
  rms(total) = 0.10404E-01    rms(broyden)= 0.10392E-01
  rms(prec ) = 0.13091E-01
  weight for this iteration     100.00

 eigenvalues of (default mixing * dielectric matrix)
  average eigenvalue GAMMA=   0.8387
  2.3424  2.3424  1.4211  1.0629  0.6470  0.6470  0.4594  0.3080  0.2209  0.2490
  0.2395  0.1244

 Free energy of the ion-electron system (eV)
  ---------------------------------------------------
  alpha Z        PSCENC =        81.65567618
  Ewald energy   TEWEN  =     41891.17177387
  -Hartree energ DENC   =    -47816.73758051
  -exchange      EXHF   =         0.00000000
  -V(xc)+E(xc)   XCENC  =      -231.71535577
  PAW double counting   =      4194.47407706    -3612.49248567
  entropy T*S    EENTRO =        -0.34009816
  eigenvalues    EBANDS =     -1454.28098956
  atomic energy  EATOM  =      6761.44252427
  Solvation  Ediel_sol  =         0.00000000
  ---------------------------------------------------
  free energy    TOTEN  =      -186.82245830 eV

  energy without entropy =     -186.48236013  energy(sigma->0) =     -186.65240922


--------------------------------------------------------------------------------------------------------




----------------------------------------- Iteration    1(  18)  ---------------------------------------


    POTLOK:  cpu time    0.0323: real time    0.0326
    SETDIJ:  cpu time    0.0023: real time    0.0023
     EDDAV:  cpu time   26.2534: real time   26.3161
       DOS:  cpu time    0.0012: real time    0.0012
    CHARGE:  cpu time    0.5039: real time    0.5051
    MIXING:  cpu time    0.0018: real time    0.0020
    --------------------------------------------
      LOOP:  cpu time   26.7962: real time   26.8684

 eigenvalue-minimisations  : 10280
 total energy-change (2. order) :-0.2227530E-03  (-0.9693907E-04)
 number of electron     159.0000089 magnetization 
 augmentation part       -4.1913117 magnetization 

 Broyden mixing:
  rms(total) = 0.16131E-01    rms(broyden)= 0.16124E-01
  rms(prec ) = 0.18739E-01
  weight for this iteration     100.00

 eigenvalues of (default mixing * dielectric matrix)
  average eigenvalue GAMMA=   0.8816
  2.5010  2.5010  1.5240  1.3201  0.9488  0.6354  0.6354  0.3653  0.3082  0.2209
  0.2486  0.1243  0.1281

 Free energy of the ion-electron system (eV)
  ---------------------------------------------------
  alpha Z        PSCENC =        81.65567618
  Ewald energy   TEWEN  =     41891.17177387
  -Hartree energ DENC   =    -47817.98193122
  -exchange      EXHF   =         0.00000000
  -V(xc)+E(xc)   XCENC  =      -231.70475420
  PAW double counting   =      4194.30224420    -3612.31566601
  entropy T*S    EENTRO =        -0.34006451
  eigenvalues    EBANDS =     -1453.05248362
  atomic energy  EATOM  =      6761.44252427
  Solvation  Ediel_sol  =         0.00000000
  ---------------------------------------------------
  free energy    TOTEN  =      -186.82268105 eV

  energy without entropy =     -186.48261654  energy(sigma->0) =     -186.65264879


--------------------------------------------------------------------------------------------------------




----------------------------------------- Iteration    1(  19)  ---------------------------------------


    POTLOK:  cpu time    0.0304: real time    0.0307
    SETDIJ:  cpu time    0.0024: real time    0.0024
     EDDAV:  cpu time   29.1728: real time   29.2425
       DOS:  cpu time    0.0012: real time    0.0012
    CHARGE:  cpu time    0.5055: real time    0.5068
    MIXING:  cpu time    0.0018: real time    0.0018
    --------------------------------------------
      LOOP:  cpu time   29.7153: real time   29.7940

 eigenvalue-minimisations  : 11760
 total energy-change (2. order) :-0.3060808E-03  (-0.1072110E-03)
 number of electron     159.0000089 magnetization 
 augmentation part       -4.1950481 magnetization 

 Broyden mixing:
  rms(total) = 0.88257E-02    rms(broyden)= 0.88145E-02
  rms(prec ) = 0.10766E-01
  weight for this iteration     100.00

 eigenvalues of (default mixing * dielectric matrix)
  average eigenvalue GAMMA=   0.8728
  2.6174  2.6174  1.6464  1.3992  0.9706  0.6371  0.6371  0.3794  0.2209  0.3083
  0.2487  0.2876  0.1241  0.1252

 Free energy of the ion-electron system (eV)
  ---------------------------------------------------
  alpha Z        PSCENC =        81.65567618
  Ewald energy   TEWEN  =     41891.17177387
  -Hartree energ DENC   =    -47822.33769975
  -exchange      EXHF   =         0.00000000
  -V(xc)+E(xc)   XCENC  =      -231.66907630
  PAW double counting   =      4193.59341382    -3611.59126447
  entropy T*S    EENTRO =        -0.33978724
  eigenvalues    EBANDS =     -1448.74854751
  atomic energy  EATOM  =      6761.44252427
  Solvation  Ediel_sol  =         0.00000000
  ---------------------------------------------------
  free energy    TOTEN  =      -186.82298713 eV

  energy without entropy =     -186.48319989  energy(sigma->0) =     -186.65309351


--------------------------------------------------------------------------------------------------------




----------------------------------------- Iteration    1(  20)  ---------------------------------------


    POTLOK:  cpu time    0.0311: real time    0.0312
    SETDIJ:  cpu time    0.0024: real time    0.0024
     EDDAV:  cpu time   21.5901: real time   21.6422
       DOS:  cpu time    0.0010: real time    0.0010
    CHARGE:  cpu time    0.5037: real time    0.5049
    MIXING:  cpu time    0.0020: real time    0.0020
    --------------------------------------------
      LOOP:  cpu time   22.1313: real time   22.1923

 eigenvalue-minimisations  :  8000
 total energy-change (2. order) :-0.2962836E-03  (-0.3771947E-04)
 number of electron     159.0000089 magnetization 
 augmentation part       -4.1957866 magnetization 

 Broyden mixing:
  rms(total) = 0.42605E-02    rms(broyden)= 0.42507E-02
  rms(prec ) = 0.57598E-02
  weight for this iteration     100.00

 eigenvalues of (default mixing * dielectric matrix)
  average eigenvalue GAMMA=   0.9676
  3.4199  2.4585  2.0322  1.6061  1.0345  1.0345  0.6380  0.6380  0.3733  0.3082
  0.2209  0.2486  0.2529  0.1251  0.1240

 Free energy of the ion-electron system (eV)
  ---------------------------------------------------
  alpha Z        PSCENC =        81.65567618
  Ewald energy   TEWEN  =     41891.17177387
  -Hartree energ DENC   =    -47824.43979362
  -exchange      EXHF   =         0.00000000
  -V(xc)+E(xc)   XCENC  =      -231.65282294
  PAW double counting   =      4193.23138928    -3611.22412412
  entropy T*S    EENTRO =        -0.33970532
  eigenvalues    EBANDS =     -1446.66820100
  atomic energy  EATOM  =      6761.44252427
  Solvation  Ediel_sol  =         0.00000000
  ---------------------------------------------------
  free energy    TOTEN  =      -186.82328341 eV

  energy without entropy =     -186.48357809  energy(sigma->0) =     -186.65343075


--------------------------------------------------------------------------------------------------------




----------------------------------------- Iteration    1(  21)  ---------------------------------------


    POTLOK:  cpu time    0.0311: real time    0.0312
    SETDIJ:  cpu time    0.0023: real time    0.0023
     EDDAV:  cpu time   23.2936: real time   23.3493
       DOS:  cpu time    0.0011: real time    0.0011
    CHARGE:  cpu time    0.5040: real time    0.5052
    MIXING:  cpu time    0.0018: real time    0.0018
    --------------------------------------------
      LOOP:  cpu time   23.8349: real time   23.9002

 eigenvalue-minimisations  :  8920
 total energy-change (2. order) :-0.1377623E-02  (-0.3029789E-04)
 number of electron     159.0000089 magnetization 
 augmentation part       -4.1890353 magnetization 

 Broyden mixing:
  rms(total) = 0.22216E-02    rms(broyden)= 0.22192E-02
  rms(prec ) = 0.29981E-02
  weight for this iteration     100.00

 eigenvalues of (default mixing * dielectric matrix)
  average eigenvalue GAMMA=   1.0799
  4.5030  2.4381  2.4381  1.6830  1.1830  1.1830  0.9240  0.6367  0.6367  0.3735
  0.3082  0.2209  0.2485  0.2523  0.1251  0.1240

 Free energy of the ion-electron system (eV)
  ---------------------------------------------------
  alpha Z        PSCENC =        81.65567618
  Ewald energy   TEWEN  =     41891.17177387
  -Hartree energ DENC   =    -47828.85896553
  -exchange      EXHF   =         0.00000000
  -V(xc)+E(xc)   XCENC  =      -231.62288391
  PAW double counting   =      4192.45294613    -3610.44491662
  entropy T*S    EENTRO =        -0.33979428
  eigenvalues    EBANDS =     -1442.28102114
  atomic energy  EATOM  =      6761.44252427
  Solvation  Ediel_sol  =         0.00000000
  ---------------------------------------------------
  free energy    TOTEN  =      -186.82466103 eV

  energy without entropy =     -186.48486676  energy(sigma->0) =     -186.65476390


--------------------------------------------------------------------------------------------------------




----------------------------------------- Iteration    1(  22)  ---------------------------------------


    POTLOK:  cpu time    0.0316: real time    0.0317
    SETDIJ:  cpu time    0.0024: real time    0.0024
     EDDAV:  cpu time   21.1698: real time   21.2204
       DOS:  cpu time    0.0011: real time    0.0011
    CHARGE:  cpu time    0.5031: real time    0.5043
    MIXING:  cpu time    0.0020: real time    0.0020
    --------------------------------------------
      LOOP:  cpu time   21.7109: real time   21.7706

 eigenvalue-minimisations  :  7880
 total energy-change (2. order) :-0.1172420E-02  (-0.9736696E-05)
 number of electron     159.0000089 magnetization 
 augmentation part       -4.1911742 magnetization 

 Broyden mixing:
  rms(total) = 0.10015E-02    rms(broyden)= 0.10011E-02
  rms(prec ) = 0.14094E-02
  weight for this iteration     100.00

 eigenvalues of (default mixing * dielectric matrix)
  average eigenvalue GAMMA=   1.1839
  5.6066  2.7303  2.4993  1.8198  1.5187  1.0126  1.0126  0.9994  0.6371  0.6371
  0.3736  0.3082  0.2209  0.2485  0.2523  0.1251  0.1240

 Free energy of the ion-electron system (eV)
  ---------------------------------------------------
  alpha Z        PSCENC =        81.65567618
  Ewald energy   TEWEN  =     41891.17177387
  -Hartree energ DENC   =    -47831.50634543
[...]
    104      -0.4750      0.00000
    105      -0.4027      0.00000
    106      -0.2727      0.00000
    107      -0.2121      0.00000
    108      -0.1583      0.00000
    109       0.0176      0.00000
    110       0.2767      0.00000
    111       0.3547      0.00000
    112       0.5672      0.00000
    113       0.6441      0.00000
    114       0.8612      0.00000
    115       1.1316      0.00000
    116       1.3026      0.00000
    117       1.3635      0.00000
    118       2.1405      0.00000
    119       2.3044      0.00000
    120       2.3973      0.00000

 k-point    34 :       0.5000    0.5000    0.0000
  band No.  band energies     occupation 
      1     -17.4867      2.00000
      2     -17.2808      2.00000
      3     -16.7055      2.00000
      4     -16.6492      2.00000
      5     -16.5012      2.00000
      6     -16.4053      2.00000
      7     -16.1673      2.00000
      8     -16.1668      2.00000
      9     -16.1643      2.00000
     10     -16.0242      2.00000
     11     -15.9323      2.00000
     12     -15.7371      2.00000
     13     -15.7249      2.00000
     14     -15.6730      2.00000
     15     -15.6584      2.00000
     16     -15.5393      2.00000
     17     -15.5243      2.00000
     18     -15.4857      2.00000
     19      -9.7647      2.00000
     20      -9.2767      2.00000
     21      -9.2648      2.00000
     22      -9.0365      2.00000
     23      -8.8965      2.00000
     24      -8.8598      2.00000
     25      -8.5819      2.00000
     26      -8.5091      2.00000
     27      -8.3860      2.00000
     28      -8.2842      2.00000
     29      -8.2387      2.00000
     30      -8.1478      2.00000
     31      -8.0808      2.00000
     32      -7.9619      2.00000
     33      -7.9606      2.00000
     34      -7.8049      2.00000
     35      -7.7365      2.00000
     36      -7.6686      2.00000
     37      -7.6001      2.00000
     38      -7.3333      2.00000
     39      -7.3207      2.00000
     40      -7.2721      2.00000
     41      -7.0383      2.00000
     42      -7.0113      2.00000
     43      -6.9127      2.00000
     44      -6.8974      2.00000
     45      -6.8757      2.00000
     46      -6.7464      2.00000
     47      -6.6817      2.00000
     48      -6.6309      2.00000
     49      -6.6131      2.00000
     50      -6.5712      2.00000
     51      -6.3431      2.00000
     52      -6.3222      2.00000
     53      -6.2282      2.00000
     54      -6.1640      2.00000
     55      -6.1334      2.00000
     56      -6.0883      2.00000
     57      -6.0598      2.00000
     58      -5.9421      2.00000
     59      -5.9253      2.00000
     60      -5.8218      2.00000
     61      -5.7935      2.00000
     62      -5.6468      2.00000
     63      -5.5624      2.00000
     64      -5.5040      2.00000
     65      -5.4933      2.00000
     66      -5.0281      2.00000
     67      -4.9601      2.00000
     68      -4.8109      2.00000
     69      -4.7425      2.00000
     70      -4.7045      2.00000
     71      -4.6169      2.00000
     72      -4.5505      2.00000
     73      -4.3241      2.00000
     74      -4.2285      2.00000
     75      -3.9538      2.00000
     76      -3.8853      2.00000
     77      -3.8111      1.99999
     78      -3.5957      1.99739
     79      -3.5473      1.99236
     80      -3.0611      0.44115
     81      -3.0565      0.42209
     82      -2.9225      0.08006
     83      -2.7321      0.00196
     84      -2.7200      0.00146
     85      -2.5794      0.00003
     86      -2.5580      0.00002
     87      -2.4828      0.00000
     88      -2.3996      0.00000
     89      -2.1413      0.00000
     90      -2.1307      0.00000
     91      -1.8922      0.00000
     92      -1.8874      0.00000
     93      -1.8006      0.00000
     94      -1.3357      0.00000
     95      -1.1490      0.00000
     96      -1.0959      0.00000
     97      -0.9817      0.00000
     98      -0.9544      0.00000
     99      -0.8251      0.00000
    100      -0.7628      0.00000
    101      -0.7622      0.00000
    102      -0.7031      0.00000
    103      -0.5306      0.00000
    104      -0.4791      0.00000
    105      -0.4633      0.00000
    106      -0.2790      0.00000
    107      -0.2579      0.00000
    108      -0.1339      0.00000
    109       0.0250      0.00000
    110       0.3269      0.00000
    111       0.3930      0.00000
    112       0.5540      0.00000
    113       0.6108      0.00000
    114       0.8875      0.00000
    115       1.1073      0.00000
    116       1.3497      0.00000
    117       1.3653      0.00000
    118       2.2298      0.00000
    119       2.2430      0.00000
    120       2.3705      0.00000


--------------------------------------------------------------------------------------------------------


 soft charge-density along one line, spin component           1
         0         1         2         3         4         5         6         7         8         9
 total charge-density along one line
 
 pseudopotential strength for first ion, spin component:           1
 -7.341   0.004  -0.026   0.022   0.001   0.711  -0.002   0.008
  0.004  -7.258   0.015   0.018  -0.022  -0.002   0.686  -0.005
 -0.026   0.015  -7.239   0.009   0.015   0.008  -0.005   0.682
  0.022   0.018   0.009  -7.279   0.022  -0.007  -0.005  -0.003
  0.001  -0.022   0.015   0.022  -7.340  -0.000   0.007  -0.004
  0.711  -0.002   0.008  -0.007  -0.000   0.321   0.001  -0.002
 -0.002   0.686  -0.005  -0.005   0.007   0.001   0.329   0.001
  0.008  -0.005   0.682  -0.003  -0.004  -0.002   0.001   0.329
 -0.007  -0.005  -0.003   0.692  -0.005   0.002   0.002   0.001
 -0.000   0.007  -0.004  -0.005   0.711   0.000  -0.002   0.001
 -0.007  -0.008  -0.016  -0.005   0.004   0.002   0.002   0.003
 -0.002  -0.002  -0.006  -0.001   0.001   0.000   0.001   0.001
 -0.001   0.002   0.001  -0.000   0.003   0.000  -0.000  -0.000
 -0.000  -0.003   0.001  -0.002   0.000  -0.000   0.000  -0.000
 -0.003  -0.000   0.001   0.002  -0.002   0.000  -0.000  -0.000
 -0.000   0.000   0.001  -0.000   0.002   0.000  -0.000  -0.000
 -0.000  -0.002  -0.000  -0.001   0.000   0.000   0.000   0.000
 -0.002  -0.000   0.000   0.001  -0.002   0.000   0.000  -0.000
 total augmentation occupancy for first ion, spin component:           1
  0.789   0.169  -0.070   0.009   0.025   0.405   0.240  -0.005  -0.009   0.005  -0.038   0.002   0.011  -0.003   0.001   0.001
  0.169   1.089   0.060  -0.027  -0.009   0.238   0.615  -0.001  -0.002   0.008  -0.018   0.000   0.015  -0.007  -0.005   0.001
 -0.070   0.060   0.704   0.034   0.040  -0.002  -0.003   0.267  -0.002   0.001   0.174   0.001  -0.011  -0.004  -0.006  -0.001
  0.009  -0.027   0.034   1.119  -0.159  -0.008  -0.002  -0.000   0.617  -0.247  -0.011   0.000  -0.005  -0.003   0.020  -0.000
  0.025  -0.009   0.040  -0.159   0.819   0.005   0.009   0.003  -0.250   0.411   0.022  -0.001  -0.001   0.001  -0.010  -0.001
  0.405   0.238  -0.002  -0.008   0.005   0.356   0.219  -0.000  -0.005   0.000   0.001  -0.001   0.004  -0.011  -0.003   0.001
  0.240   0.615  -0.003  -0.002   0.009   0.219   0.542   0.004  -0.005   0.005  -0.023  -0.001   0.010  -0.017  -0.011   0.001
 -0.005  -0.001   0.267  -0.000   0.003  -0.000   0.004   0.236   0.002   0.000   0.020   0.005  -0.004   0.001  -0.003  -0.001
 -0.009  -0.002  -0.002   0.617  -0.250  -0.005  -0.005   0.002   0.548  -0.225  -0.013  -0.001  -0.011  -0.009   0.022  -0.001
  0.005   0.008   0.001  -0.247   0.411   0.000   0.005   0.000  -0.225   0.356  -0.000   0.000   0.003   0.006  -0.006  -0.000
 -0.038  -0.018   0.174  -0.011   0.022   0.001  -0.023   0.020  -0.013  -0.000   1.386   0.128   0.003   0.023   0.002  -0.000
  0.002   0.000   0.001   0.000  -0.001  -0.001  -0.001   0.005  -0.001   0.000   0.128   0.024  -0.002   0.001  -0.001  -0.000
  0.011   0.015  -0.011  -0.005  -0.001   0.004   0.010  -0.004  -0.011   0.003   0.003  -0.002   0.346  -0.010  -0.013   0.026
 -0.003  -0.007  -0.004  -0.003   0.001  -0.011  -0.017   0.001  -0.009   0.006   0.023   0.001  -0.010   0.412  -0.006  -0.000
  0.001  -0.005  -0.006   0.020  -0.010  -0.003  -0.011  -0.003   0.022  -0.006   0.002  -0.001  -0.013  -0.006   0.361   0.000
  0.001   0.001  -0.001  -0.000  -0.001   0.001   0.001  -0.001  -0.001  -0.000  -0.000  -0.000   0.026  -0.000   0.000   0.003
 -0.000   0.001   0.000   0.000   0.000  -0.001  -0.001   0.000  -0.001   0.000   0.001   0.000  -0.000   0.028  -0.000  -0.000
  0.001  -0.000  -0.000   0.001   0.001   0.000  -0.001  -0.001   0.002  -0.000  -0.000  -0.000   0.000  -0.000   0.026  -0.000


------------------------ aborting loop because EDIFF is reached ----------------------------------------


    CHARGE:  cpu time    0.4647: real time    0.4658
    FORLOC:  cpu time    0.0064: real time    0.0065
    FORNL :  cpu time    5.3234: real time    5.3361
    STRESS:  cpu time   32.4405: real time   32.5179
    FORCOR:  cpu time    0.0335: real time    0.0341
    FORHAR:  cpu time    0.0123: real time    0.0124
    MIXING:  cpu time    0.0010: real time    0.0010
    OFIELD:  cpu time    0.0000: real time    0.0000

  FORCE on cell =-STRESS in cart. coord.  units (eV):
  Direction    XX          YY          ZZ          XY          YZ          ZX
  --------------------------------------------------------------------------------------
  Alpha Z    88.76812    88.76812    88.76812
  Ewald   48966.60742 48966.43627-53915.30891    -0.02118    -0.03993    -0.06548
  Hartree 49683.54555 49683.46871-49341.40706     0.00499    -0.00531    -0.00852
  E(xc)    -609.90165  -609.90032  -616.98203    -0.00080     0.00177     0.00123
  Local  ************************100699.78535    -0.00301     0.05022     0.06571
  n-local  1214.09051  1214.07076  1251.43742     0.01041    -0.00650    -0.00828
  augment  -212.65619  -212.65301  -215.45019    -0.00410     0.00003    -0.00225
  Kinetic  2015.01638  2015.01629  2046.90966     0.01532    -0.00059     0.01888
  Fock        0.00000     0.00000     0.00000     0.00000     0.00000     0.00000
  -------------------------------------------------------------------------------------
  Total       0.02901     0.02938    -2.24765     0.00163    -0.00031     0.00127
  in kB       0.01927     0.01952    -1.49317     0.00108    -0.00021     0.00084
  external pressure =       -0.48 kB  Pullay stress =        0.00 kB


 VOLUME and BASIS-vectors are now :
 -----------------------------------------------------------------------------
  energy-cutoff  :      280.00
  volume of cell :     2411.74
      direct lattice vectors                 reciprocal lattice vectors
     8.343677315  4.817834634  0.000000000     0.059923516  0.103784700  0.000000000
    -8.343385900  4.817328744  0.000000000    -0.059929809  0.103788325  0.000000000
     0.000000000  0.000000000 30.000000000     0.000000000  0.000000000  0.033333333

  length of vectors
     9.634753847  9.634248518 30.000000000     0.119841944  0.119848230  0.033333333


 FORCES acting on ions
    electron-ion (+dipol)            ewald-force                    non-local-force                 convergence-correction
 -----------------------------------------------------------------------------------------------
   -.576E+01 -.101E+02 -.166E+00   0.593E+01 0.105E+02 0.269E+00   -.210E+00 -.386E+00 -.106E+00   0.534E-01 0.809E-01 0.226E-03
   0.115E+02 -.127E+00 -.325E+00   -.119E+02 0.949E-01 0.434E+00   0.432E+00 -.119E-01 -.110E+00   -.230E-01 0.373E-01 -.245E-02
   -.583E+01 0.100E+02 -.157E+00   0.600E+01 -.104E+02 0.262E+00   -.219E+00 0.376E+00 -.107E+00   0.500E-01 -.732E-03 -.234E-02
   -.284E+02 0.151E+00 -.178E+01   0.273E+02 -.396E-01 0.202E+01   0.103E+01 0.745E-02 -.239E+00   0.260E-01 -.110E+00 0.304E-03
   0.143E+02 0.247E+02 -.179E+01   -.137E+02 -.237E+02 0.204E+01   -.515E+00 -.890E+00 -.238E+00   -.222E-01 -.264E-01 -.344E-02
   0.144E+02 -.245E+02 -.179E+01   -.138E+02 0.237E+02 0.204E+01   -.508E+00 0.893E+00 -.241E+00   -.111E+00 -.388E-01 0.470E-04
   0.146E+02 0.254E+02 0.340E+00   -.142E+02 -.247E+02 -.328E+00   -.374E+00 -.640E+00 -.975E-02   -.419E-01 -.722E-01 -.303E-02
   -.292E+02 -.962E-01 0.354E+00   0.284E+02 0.510E-01 -.343E+00   0.742E+00 0.180E-02 -.637E-02   -.212E-02 0.430E-01 -.466E-02
   0.145E+02 -.253E+02 0.307E+00   -.141E+02 0.246E+02 -.295E+00   -.378E+00 0.649E+00 -.770E-02   0.345E-01 0.259E-01 -.471E-02
   0.424E+01 0.750E+01 0.526E+03   -.476E+01 -.838E+01 -.530E+03   0.553E+00 0.955E+00 0.412E+01   -.246E-01 -.644E-01 0.892E-01
   0.113E+02 -.669E+00 -.548E+03   -.117E+02 0.121E+00 0.552E+03   0.503E+00 0.634E+00 -.419E+01   -.993E-01 -.788E-01 -.350E-01
   -.108E+02 0.188E+02 0.590E+03   0.107E+02 -.186E+02 -.593E+03   0.420E-01 -.694E-01 0.383E+01   0.506E-01 -.959E-01 0.459E-02
   -.629E+01 0.948E+01 -.548E+03   0.601E+01 -.101E+02 0.552E+03   0.301E+00 0.758E+00 -.418E+01   -.127E-01 -.112E+00 -.298E-01
   0.217E+02 -.704E-02 0.589E+03   -.215E+02 0.151E-01 -.593E+03   -.855E-01 0.320E-03 0.383E+01   -.123E+00 -.840E-02 0.105E-01
   0.876E-01 0.531E-01 -.636E+03   -.672E-01 -.150E-01 0.639E+03   0.194E-02 0.379E-02 -.348E+01   -.223E-01 -.419E-01 0.688E-01
   -.685E+01 0.120E+02 0.580E+03   0.635E+01 -.110E+02 -.584E+03   0.561E+00 -.971E+00 0.376E+01   -.508E-01 -.810E-02 -.434E-01
   -.483E+01 -.102E+02 -.548E+03   0.569E+01 0.103E+02 0.552E+03   -.793E+00 -.119E+00 -.420E+01   -.687E-01 0.433E-01 0.102E+00
   0.138E+02 0.823E-01 0.580E+03   -.127E+02 -.399E-01 -.584E+03   -.112E+01 0.229E-02 0.376E+01   0.162E-01 -.443E-01 -.402E-01
   -.324E-01 -.303E-02 -.636E+03   0.396E-01 0.362E-02 0.640E+03   -.254E-02 0.575E-02 -.388E+01   -.560E-02 -.596E-02 0.345E-01
   -.107E+02 -.186E+02 0.590E+03   0.107E+02 0.186E+02 -.594E+03   0.426E-01 0.715E-01 0.384E+01   -.228E-01 -.479E-01 -.126E+00
   -.639E+01 -.924E+01 -.548E+03   0.602E+01 0.100E+02 0.552E+03   0.296E+00 -.758E+00 -.419E+01   0.734E-01 -.392E-01 0.979E-01
   -.857E+01 -.172E+00 0.526E+03   0.963E+01 0.204E-01 -.530E+03   -.110E+01 -.910E-02 0.413E+01   0.301E-01 0.157E+00 -.283E-01
   -.646E-01 -.235E+00 -.522E+03   -.335E-01 0.787E-01 0.526E+03   -.749E-02 -.232E-02 -.405E+01   0.103E+00 0.154E+00 -.366E-01
   -.695E+01 -.120E+02 0.580E+03   0.640E+01 0.111E+02 -.584E+03   0.557E+00 0.970E+00 0.376E+01   0.513E-02 0.164E-01 -.328E-01
   -.495E+01 0.101E+02 -.548E+03   0.567E+01 -.102E+02 0.552E+03   -.807E+00 0.117E+00 -.419E+01   0.837E-01 0.566E-02 -.183E-01
   0.408E+01 -.756E+01 0.527E+03   -.475E+01 0.840E+01 -.531E+03   0.548E+00 -.963E+00 0.412E+01   0.130E+00 0.111E+00 -.185E-01
   0.112E+02 0.731E+00 -.548E+03   -.116E+02 -.180E+00 0.552E+03   0.509E+00 -.642E+00 -.418E+01   -.453E-01 0.852E-01 -.284E-01
 -----------------------------------------------------------------------------------------------
   0.274E-01 0.528E-01 0.251E+01   0.284E-13 0.315E-13 -.341E-12   -.854E-02 -.186E-01 -.246E+01   -.191E-01 -.345E-01 -.491E-01
 
 
 POSITION                                       TOTAL-FORCE (eV/Angst)
 -----------------------------------------------------------------------------------
      5.53252      3.15707      0.00858         0.005446      0.000024     -0.001758
      0.06041     -0.00203      0.00919        -0.013092     -0.006613     -0.003180
      5.53150      6.47621      0.00853         0.004350     -0.012048     -0.004305
     -2.99088      4.81709      0.00330        -0.020460      0.009714      0.003764
     -5.45653      3.39339      0.00332         0.010055      0.017459      0.003743
      2.88668      1.42375      0.00332         0.018897     -0.013471      0.003303
      0.10999      3.40216     -0.00608         0.007627      0.016034     -0.000905
      2.56123      4.81662     -0.00610        -0.017417     -0.000374     -0.000194
      0.10927      6.23224     -0.00601         0.005681     -0.013772     -0.000713
     -0.92418      1.60994     28.57849         0.008562      0.015016      0.013721
      0.91476      1.59184      1.48144         0.002607      0.006481     -0.017352
     -3.69079      3.18149     28.40415        -0.001939      0.003718     -0.004436
     -1.85970      3.19363      1.48196         0.003959      0.005529     -0.015142
     -6.52346      4.81696     28.40468         0.004323     -0.000027     -0.003772
     -4.63495      4.81715      1.71600         0.000099      0.000008      0.030538
      1.87844      3.16901     28.42992         0.008127     -0.014110      0.002184
      3.72632      3.21511      1.48203        -0.002212      0.001042     -0.020811
     -0.97554      4.81698     28.42967        -0.016617      0.000351      0.000924
      0.92722      4.81708      1.73406        -0.000877      0.000397      0.028163
     -3.69080      6.45242     28.40392        -0.000144     -0.000670     -0.000999
     -1.85974      6.44002      1.48276         0.001436     -0.002009     -0.017872
      4.63006      4.81693     28.57825        -0.015243     -0.003728      0.017853
      6.48921      4.81687      1.40232        -0.002360     -0.003976      0.000526
      1.87862      6.46530     28.43080         0.008645      0.015789      0.002485
      3.72623      6.41928      1.48199        -0.007576      0.000113     -0.014996
     -0.92417      8.02392     28.57736         0.003741     -0.014238      0.013579
      0.91545      8.04214      1.48214         0.004382     -0.006639     -0.014347
 -----------------------------------------------------------------------------------
    total drift:                               -0.000205     -0.000355      0.000569


--------------------------------------------------------------------------------------------------------



  FREE ENERGIE OF THE ION-ELECTRON SYSTEM (eV)
  ---------------------------------------------------
  free  energy   TOTEN  =      -191.74155901 eV

  energy  without entropy=     -191.53943566  energy(sigma->0) =     -191.64049734
 
 d Force = 0.2043635E-03[ 0.843E-04, 0.324E-03]  d Energy = 0.2290604E-03-0.247E-04
 d Force =-0.4736493E+01[-0.474E+01,-0.473E+01]  d Ewald  =-0.5275530E+02 0.480E+02


--------------------------------------------------------------------------------------------------------


    POTLOK:  cpu time    0.0346: real time    0.0347


--------------------------------------------------------------------------------------------------------


 Quasi-Newton relaxation of ions (Broydens 2nd method)
  g(Force)  = 0.428E-03   g(Stress)= 0.306E-05

 retain information from N=  2 steps
 eigenvalues of (default step * inverse Hessian matrix)
  average eigenvalue of G=   2.8910
 eigenvalue spectrum of G is  1.1481  4.6340


--------------------------------------------------------------------------------------------------------


  
 reached required accuracy - stopping structural energy minimisation
     LOOP+:  cpu time  132.4326: real time  132.7654
    4ORBIT:  cpu time    0.0000: real time    0.0000

 total amount of memory used by VASP on root node   650782. kBytes
========================================================================

   base      :      30000. kBytes
   nonl-proj :     559647. kBytes
   fftplans  :       2414. kBytes
   grid      :      12150. kBytes
   one-center:        419. kBytes
   wavefun   :      46152. kBytes
 
  
  
 General timing and accounting informations for this job:
 ========================================================
  
                  Total CPU time used (sec):     4947.098
                            User time (sec):     4929.922
                          System time (sec):       17.176
                         Elapsed time (sec):     4960.261
  
                   Maximum memory used (kb):      732548.
                   Average memory used (kb):           0.
  
                          Minor page faults:       816889
                          Major page faults:            3
                 Voluntary context switches:         4132
