       N       E                     dE             d eps       ncg     rms          rms(c)
DAV:   1     0.112444751925E+04    0.11244E+04   -0.35856E+04  8160   0.577E+02
DAV:   2    -0.176915824159E+01   -0.11262E+04   -0.10848E+04 10920   0.173E+02
DAV:   3    -0.199740223876E+03   -0.19797E+03   -0.18956E+03 10920   0.821E+01
DAV:   4    -0.209078749326E+03   -0.93385E+01   -0.90181E+01 12160   0.261E+01
DAV:   5    -0.209415374378E+03   -0.33663E+00   -0.33565E+00 11600   0.359E+00    0.275E+01
DAV:   6    -0.237141307014E+03   -0.27726E+02   -0.10530E+02 12840   0.594E+01    0.596E+01
DAV:   7    -0.196037440443E+03    0.41104E+02   -0.16994E+02 12600   0.142E+02    0.198E+01
DAV:   8    -0.189322463856E+03    0.67150E+01   -0.16510E+01 12160   0.122E+01    0.120E+01
DAV:   9    -0.188211453633E+03    0.11110E+01   -0.35849E+00 12240   0.590E+00    0.914E+00
DAV:  10    -0.187079227415E+03    0.11322E+01   -0.16845E+00 13000   0.734E+00    0.214E+00
DAV:  11    -0.187204014848E+03   -0.12479E+00   -0.64273E-01 13440   0.356E+00    0.452E+00
DAV:  12    -0.186992256623E+03    0.21176E+00   -0.37973E-01 13240   0.397E+00    0.139E+00
DAV:  13    -0.186977426462E+03    0.14830E-01   -0.23167E-02 12920   0.665E-01    0.557E-01
DAV:  14    -0.186976156428E+03    0.12700E-02   -0.86206E-03 13400   0.544E-01    0.510E-01
DAV:  15    -0.186973067297E+03    0.30891E-02   -0.55502E-03 13120   0.348E-01    0.111E-01
DAV:  16    -0.186973352255E+03   -0.28496E-03   -0.13537E-03 11760   0.101E-01    0.130E-01
DAV:  17    -0.186973270914E+03    0.81341E-04   -0.82786E-04 10960   0.822E-02
   1 F= -.18697327E+03 E0= -.18680090E+03  d E =-.186973E+03
       N       E                     dE             d eps       ncg     rms          rms(c)
DAV:   1    -0.187502065640E+03   -0.52871E+00   -0.26229E+02  8160   0.342E+01    0.461E+00
DAV:   2    -0.189381717710E+03   -0.18797E+01   -0.20278E+01 12600   0.152E+01    0.882E+00
DAV:   3    -0.189402089196E+03   -0.20371E-01   -0.42196E+00 12240   0.117E+01    0.709E+00
DAV:   4    -0.188793344811E+03    0.60874E+00   -0.72415E-01 11960   0.444E+00    0.216E+00
DAV:   5    -0.188768551106E+03    0.24794E-01   -0.30829E-01 10840   0.196E+00    0.252E+00
DAV:   6    -0.188850500810E+03   -0.81950E-01   -0.46109E-01 12080   0.397E+00    0.466E+00
DAV:   7    -0.188683833281E+03    0.16667E+00   -0.38556E-01 12280   0.352E+00    0.107E+00
DAV:   8    -0.188688184489E+03   -0.43512E-02   -0.64463E-02 11640   0.148E+00    0.152E+00
DAV:   9    -0.188668924249E+03    0.19260E-01   -0.27199E-02 11680   0.104E+00    0.227E-01
DAV:  10    -0.188669016919E+03   -0.92670E-04   -0.36537E-03 11680   0.195E-01    0.208E-01
DAV:  11    -0.188668535362E+03    0.48156E-03   -0.21774E-03 11360   0.125E-01    0.992E-02
DAV:  12    -0.188668789417E+03   -0.25405E-03   -0.48824E-04  8160   0.803E-02    0.230E-02
DAV:  13    -0.188668997570E+03   -0.20815E-03   -0.65192E-05  6920   0.273E-02    0.255E-02
DAV:  14    -0.188669124044E+03   -0.12647E-03   -0.33526E-05  6040   0.193E-02    0.154E-02
DAV:  15    -0.188669203677E+03   -0.79632E-04   -0.14802E-05  7440   0.111E-02
   2 F= -.18866920E+03 E0= -.18852296E+03  d E =-.169593E+01
       N       E                     dE             d eps       ncg     rms          rms(c)
DAV:   1    -0.190566614530E+03   -0.18975E+01   -0.30083E+01  9040   0.140E+01    0.450E+00
DAV:   2    -0.190716318710E+03   -0.14970E+00   -0.29972E+00 12360   0.102E+01    0.839E+00
DAV:   3    -0.190021330135E+03    0.69499E+00   -0.14871E+00 12240   0.849E+00    0.400E+00
DAV:   4    -0.189832774910E+03    0.18856E+00   -0.67197E-01 12960   0.344E+00    0.252E+00
DAV:   5    -0.189748848159E+03    0.83927E-01   -0.29566E-01 11480   0.167E+00    0.979E-01
DAV:   6    -0.189728610873E+03    0.20237E-01   -0.42583E-02 10760   0.719E-01    0.169E-01
DAV:   7    -0.189729968289E+03   -0.13574E-02   -0.60954E-03 11840   0.331E-01    0.309E-01
DAV:   8    -0.189729418921E+03    0.54937E-03   -0.19648E-03 10840   0.295E-01    0.152E-01
DAV:   9    -0.189729446757E+03   -0.27836E-04   -0.42728E-04  8240   0.112E-01
   3 F= -.18972945E+03 E0= -.18960528E+03  d E =-.106024E+01
       N       E                     dE             d eps       ncg     rms          rms(c)
DAV:   1    -0.191210464086E+03   -0.14810E+01   -0.58966E+01  9520   0.177E+01    0.469E+00
DAV:   2    -0.191321477463E+03   -0.11101E+00   -0.54831E+00 13480   0.993E+00    0.705E+00
DAV:   3    -0.190967291814E+03    0.35419E+00   -0.17973E+00 12240   0.922E+00    0.512E+00
DAV:   4    -0.190682281500E+03    0.28501E+00   -0.86613E-01 13320   0.490E+00    0.232E+00
DAV:   5    -0.190590547908E+03    0.91734E-01   -0.24356E-01 11000   0.160E+00    0.617E-01
DAV:   6    -0.190589657802E+03    0.89011E-03   -0.44941E-02 11640   0.785E-01    0.538E-01
DAV:   7    -0.190587405980E+03    0.22518E-02   -0.15367E-02 10880   0.738E-01    0.562E-01
DAV:   8    -0.190584537752E+03    0.28682E-02   -0.47760E-03 10880   0.501E-01    0.138E-01
DAV:   9    -0.190584987387E+03   -0.44964E-03   -0.14984E-03 10840   0.139E-01    0.148E-01
DAV:  10    -0.190584743724E+03    0.24366E-03   -0.10954E-03  9680   0.137E-01    0.799E-02
DAV:  11    -0.190584789605E+03   -0.45881E-04   -0.34718E-04  8080   0.131E-01
   4 F= -.19058479E+03 E0= -.19048260E+03  d E =-.855343E+00
       N       E                     dE             d eps       ncg     rms          rms(c)
DAV:   1    -0.191935103701E+03   -0.13504E+01   -0.10331E+02  9320   0.233E+01    0.588E+00
DAV:   2    -0.191913499917E+03    0.21604E-01   -0.91268E+00 13440   0.114E+01    0.704E+00
DAV:   3    -0.191724390840E+03    0.18911E+00   -0.24745E+00 11840   0.115E+01    0.707E+00
DAV:   4    -0.191199335788E+03    0.52506E+00   -0.15166E+00 12480   0.774E+00    0.279E+00
DAV:   5    -0.191051399912E+03    0.14794E+00   -0.38264E-01 11360   0.216E+00    0.738E-01
DAV:   6    -0.191054789621E+03   -0.33897E-02   -0.74483E-02 12280   0.127E+00    0.924E-01
DAV:   7    -0.191051085081E+03    0.37045E-02   -0.36597E-02 11560   0.145E+00    0.822E-01
DAV:   8    -0.191043096472E+03    0.79886E-02   -0.10553E-02 11760   0.740E-01    0.151E-01
DAV:   9    -0.191043539417E+03   -0.44295E-03   -0.32428E-03 11040   0.155E-01    0.625E-02
DAV:  10    -0.191043544806E+03   -0.53889E-05   -0.31752E-04  7960   0.765E-02
   5 F= -.19104354E+03 E0= -.19096484E+03  d E =-.458755E+00
       N       E                     dE             d eps       ncg     rms          rms(c)
DAV:   1    -0.191052800950E+03   -0.92615E-02   -0.81931E-01  9640   0.207E+00    0.491E-01
DAV:   2    -0.191050743508E+03    0.20574E-02   -0.65525E-02 12840   0.740E-01    0.404E-01
DAV:   3    -0.191054074092E+03   -0.33306E-02   -0.17661E-02 10600   0.101E+00    0.741E-01
DAV:   4    -0.191048239181E+03    0.58349E-02   -0.11243E-02 11080   0.790E-01    0.249E-01
DAV:   5    -0.191048255112E+03   -0.15931E-04   -0.41341E-03 11120   0.434E-01    0.297E-01
DAV:   6    -0.191047342790E+03    0.91232E-03   -0.21457E-03 11720   0.337E-01    0.945E-02
DAV:   7    -0.191047312125E+03    0.30664E-04   -0.32363E-04  7480   0.932E-02
   6 F= -.19104731E+03 E0= -.19097015E+03  d E =-.376732E-02
       N       E                     dE             d eps       ncg     rms          rms(c)
DAV:   1    -0.191047658977E+03   -0.31619E-03   -0.23623E-02  8880   0.343E-01    0.893E-02
DAV:   2    -0.191048085856E+03   -0.42688E-03   -0.26515E-03 11160   0.274E-01    0.213E-01
DAV:   3    -0.191047607245E+03    0.47861E-03   -0.84287E-04  9920   0.220E-01    0.473E-02
DAV:   4    -0.191047597661E+03    0.95841E-05   -0.12803E-04  5800   0.678E-02
   7 F= -.19104760E+03 E0= -.19097020E+03  d E =-.285535E-03
