 vasp.5.4.1 05Feb16 (build Jul 05 2020 17:13:04) complex                        
  
 executed on           IFC91_ompi date 2024.07.20  08:10:35
 running on   40 total cores
 distrk:  each k-point on   40 cores,    1 groups
 distr:  one band on NCORES_PER_BAND=   1 cores,   40 groups


--------------------------------------------------------------------------------------------------------


 INCAR:
 POTCAR:   PAW_PBE V 08Apr2002                    
 POTCAR:   PAW_PBE Mo 08Apr2002                   
 POTCAR:   PAW_PBE W 08Apr2002                    
 POTCAR:    PAW_PBE S 17Jan2003                   

 ----------------------------------------------------------------------------- 
|                                                                             |
|           W    W    AA    RRRRR   N    N  II  N    N   GGGG   !!!           |
|           W    W   A  A   R    R  NN   N  II  NN   N  G    G  !!!           |
|           W    W  A    A  R    R  N N  N  II  N N  N  G       !!!           |
|           W WW W  AAAAAA  RRRRR   N  N N  II  N  N N  G  GGG   !            |
|           WW  WW  A    A  R   R   N   NN  II  N   NN  G    G                |
|           W    W  A    A  R    R  N    N  II  N    N   GGGG   !!!           |
|                                                                             |
|      For optimal performance we recommend to set                            |
|        NCORE= 4 - approx SQRT( number of cores)                             |
|      NCORE specifies how many cores store one orbital (NPAR=cpu/NCORE).     |
|      This setting can  greatly improve the performance of VASP for DFT.     |
|      The default, NPAR=number of cores might be grossly inefficient         |
|      on modern multi-core architectures or massively parallel machines.     |
|      Do your own testing !!!!                                               |
|      Unfortunately you need to use the default for GW and RPA calculations. |
|      (for HF NCORE is supported but not extensively tested yet)             |
|                                                                             |
 ----------------------------------------------------------------------------- 

 POTCAR:   PAW_PBE V 08Apr2002                    
   VRHFIN =V: p6 d4 s1                                                          
   LEXCH  = PE                                                                  
   EATOM  =   170.8679 eV,   12.5584 Ry                                         
                                                                                
   TITEL  = PAW_PBE V 08Apr2002                                                 
   LULTRA =        F    use ultrasoft PP ?                                      
   IUNSCR =        1    unscreen: 0-lin 1-nonlin 2-no                           
   RPACOR =    2.000    partial core radius                                     
   POMASS =   50.941; ZVAL   =    5.000    mass and valenz                      
   RCORE  =    2.700    outmost cutoff radius                                   
   RWIGS  =    2.500; RWIGS  =    1.323    wigner-seitz radius (au A)           
   ENMAX  =  192.543; ENMIN  =  144.408 eV                                      
   RCLOC  =    1.779    cutoff for local pot                                    
   LCOR   =        T    correct aug charges                                     
   LPAW   =        T    paw PP                                                  
   EAUG   =  358.662                                                            
   DEXC   =    -.034                                                            
   RMAX   =    3.323    core radius for proj-oper                               
   RAUG   =    1.300    factor for augmentation sphere                          
   RDEP   =    2.762    radius for radial grids                                 
   QCUT   =   -3.762; QGAM   =    7.524    optimization parameters              
                                                                                
   Description                                                                  
     l     E      TYP  RCUT    TYP  RCUT                                        
     2   .000     23  2.700                                                     
     2   .000     23  2.700                                                     
     0   .000     23  2.700                                                     
     0  2.000     23  2.700                                                     
     1   .000     23  2.700                                                     
     1  2.000     23  2.700                                                     
     3   .000      7   .000                                                     
  local pseudopotential read in
  partial core-charges read in
  atomic valenz-charges read in
  non local Contribution for L=           2  read in
    real space projection operators read in
  non local Contribution for L=           2  read in
    real space projection operators read in
  non local Contribution for L=           0  read in
    real space projection operators read in
  non local Contribution for L=           0  read in
    real space projection operators read in
  non local Contribution for L=           1  read in
    real space projection operators read in
  non local Contribution for L=           1  read in
    real space projection operators read in
    PAW grid and wavefunctions read in
 
   number of l-projection  operators is LMAX  =           6
   number of lm-projection operators is LMMAX =          18
 
 POTCAR:   PAW_PBE Mo 08Apr2002                   
   VRHFIN =Mo: 4p5s4d                                                           
   LEXCH  = PE                                                                  
   EATOM  =   217.5180 eV,   15.9871 Ry                                         
                                                                                
   TITEL  = PAW_PBE Mo 08Apr2002                                                
   LULTRA =        F    use ultrasoft PP ?                                      
   IUNSCR =        1    unscreen: 0-lin 1-nonlin 2-no                           
   RPACOR =    2.200    partial core radius                                     
   POMASS =   95.940; ZVAL   =    6.000    mass and valenz                      
   RCORE  =    2.750    outmost cutoff radius                                   
   RWIGS  =    2.750; RWIGS  =    1.455    wigner-seitz radius (au A)           
   ENMAX  =  224.584; ENMIN  =  168.438 eV                                      
   RCLOC  =    2.111    cutoff for local pot                                    
   LCOR   =        T    correct aug charges                                     
   LPAW   =        T    paw PP                                                  
   EAUG   =  345.278                                                            
   DEXC   =    -.088                                                            
   RMAX   =    3.077    core radius for proj-oper                               
   RAUG   =    1.300    factor for augmentation sphere                          
   RDEP   =    2.815    radius for radial grids                                 
   QCUT   =   -4.063; QGAM   =    8.126    optimization parameters              
                                                                                
   Description                                                                  
     l     E      TYP  RCUT    TYP  RCUT                                        
     2   .000     23  2.500                                                     
     2   .000     23  2.500                                                     
     0   .000     23  2.600                                                     
     0  1.000     23  2.600                                                     
     1   .400     23  2.750                                                     
     1  2.000     23  2.750                                                     
     3   .000      7   .000                                                     
  local pseudopotential read in
  partial core-charges read in
  atomic valenz-charges read in
  non local Contribution for L=           2  read in
    real space projection operators read in
  non local Contribution for L=           2  read in
    real space projection operators read in
  non local Contribution for L=           0  read in
    real space projection operators read in
  non local Contribution for L=           0  read in
    real space projection operators read in
  non local Contribution for L=           1  read in
    real space projection operators read in
  non local Contribution for L=           1  read in
    real space projection operators read in
    PAW grid and wavefunctions read in
 
   number of l-projection  operators is LMAX  =           6
   number of lm-projection operators is LMMAX =          18
 
 POTCAR:   PAW_PBE W 08Apr2002                    
   VRHFIN =W : 6s5d                                                             
   LEXCH  = PE                                                                  
   EATOM  =   204.6100 eV,   15.0384 Ry                                         
                                                                                
   TITEL  = PAW_PBE W 08Apr2002                                                 
   LULTRA =        F    use ultrasoft PP ?                                      
   IUNSCR =        1    unscreen: 0-lin 1-nonlin 2-no                           
   RPACOR =    2.330    partial core radius                                     
   POMASS =  183.850; ZVAL   =    6.000    mass and valenz                      
   RCORE  =    2.750    outmost cutoff radius                                   
   RWIGS  =    2.750; RWIGS  =    1.455    wigner-seitz radius (au A)           
   ENMAX  =  223.057; ENMIN  =  167.293 eV                                      
   RCLOC  =    2.147    cutoff for local pot                                    
   LCOR   =        T    correct aug charges                                     
   LPAW   =        T    paw PP                                                  
   EAUG   =  373.438                                                            
   DEXC   =    -.060                                                            
   RMAX   =    3.087    core radius for proj-oper                               
   RAUG   =    1.300    factor for augmentation sphere                          
   RDEP   =    2.886    radius for radial grids                                 
   QCUT   =   -4.049; QGAM   =    8.098    optimization parameters              
                                                                                
   Description                                                                  
     l     E      TYP  RCUT    TYP  RCUT                                        
     2   .000     23  2.500                                                     
     2   .000     23  2.500                                                     
     0   .000     23  2.500                                                     
     0   .000     23  2.500                                                     
     1   .200     23  2.750                                                     
     1  2.000     23  2.750                                                     
     3   .000      7   .000                                                     
  local pseudopotential read in
  partial core-charges read in
  atomic valenz-charges read in
  non local Contribution for L=           2  read in
    real space projection operators read in
  non local Contribution for L=           2  read in
    real space projection operators read in
  non local Contribution for L=           0  read in
    real space projection operators read in
  non local Contribution for L=           0  read in
    real space projection operators read in
  non local Contribution for L=           1  read in
    real space projection operators read in
  non local Contribution for L=           1  read in
    real space projection operators read in
    PAW grid and wavefunctions read in
 
   number of l-projection  operators is LMAX  =           6
   number of lm-projection operators is LMMAX =          18
 
 POTCAR:    PAW_PBE S 17Jan2003                   
   VRHFIN =S : s2p4                                                             
   LEXCH  = PE                                                                  
   EATOM  =   276.8230 eV,   20.3459 Ry                                         
                                                                                
   TITEL  = PAW_PBE S 17Jan2003                                                 
   LULTRA =        F    use ultrasoft PP ?                                      
   IUNSCR =        1    unscreen: 0-lin 1-nonlin 2-no                           
   RPACOR =    1.500    partial core radius                                     
   POMASS =   32.066; ZVAL   =    6.000    mass and valenz                      
   RCORE  =    1.900    outmost cutoff radius                                   
   RWIGS  =    2.200; RWIGS  =    1.164    wigner-seitz radius (au A)           
   ENMAX  =  280.000; ENMIN  =  194.016 eV                                      
   ICORE  =        2    local potential                                         
   LCOR   =        T    correct aug charges                                     
   LPAW   =        T    paw PP                                                  
   EAUG   =  335.092                                                            
   DEXC   =     .000                                                            
   RMAX   =    2.867    core radius for proj-oper                               
   RAUG   =    1.300    factor for augmentation sphere                          
   RDEP   =    1.954    radius for radial grids                                 
   QCUT   =   -4.360; QGAM   =    8.721    optimization parameters              
                                                                                
   Description                                                                  
     l     E      TYP  RCUT    TYP  RCUT                                        
     0   .000     23  1.900                                                     
     0   .000     23  1.900                                                     
     1   .000     23  1.900                                                     
     1   .000     23  1.900                                                     
     2   .000     23  1.900                                                     
  local pseudopotential read in
  partial core-charges read in
  atomic valenz-charges read in
  non local Contribution for L=           0  read in
    real space projection operators read in
  non local Contribution for L=           0  read in
    real space projection operators read in
  non local Contribution for L=           1  read in
    real space projection operators read in
  non local Contribution for L=           1  read in
    real space projection operators read in
    PAW grid and wavefunctions read in
 
   number of l-projection  operators is LMAX  =           4
   number of lm-projection operators is LMMAX =           8
 

 ----------------------------------------------------------------------------- 
|                                                                             |
|  ADVICE TO THIS USER RUNNING 'VASP/VAMP'   (HEAR YOUR MASTER'S VOICE ...):  |
|                                                                             |
|      You have a (more or less) 'large supercell' and for larger cells       |
|      it might be more efficient to use real space projection operators      |
|      So try LREAL= Auto  in the INCAR   file.                               |
|      Mind: If you want to do a very accurate calculations keep the          |
|      reciprocal projection scheme          (i.e. LREAL=.FALSE.)             |
|                                                                             |
 ----------------------------------------------------------------------------- 

 PAW_PBE V 08Apr2002                    :
 energy of atom  1       EATOM= -170.8679
 kinetic energy error for atom=    0.0047 (will be added to EATOM!!)
 PAW_PBE Mo 08Apr2002                   :
 energy of atom  2       EATOM= -217.5180
 kinetic energy error for atom=    0.0215 (will be added to EATOM!!)
 PAW_PBE W 08Apr2002                    :
 energy of atom  3       EATOM= -204.6100
 kinetic energy error for atom=    0.0205 (will be added to EATOM!!)
  PAW_PBE S 17Jan2003                   :
 energy of atom  4       EATOM= -276.8230
 kinetic energy error for atom=    0.0122 (will be added to EATOM!!)
 
 
 POSCAR: crystal structure from VMoWS2 with Hexag
  positions in cartesian coordinates
  No initial velocities read in
 exchange correlation table for  LEXCH =        8
   RHO(1)=    0.500       N(1)  =     2000
   RHO(2)=  100.500       N(2)  =     4000
 


--------------------------------------------------------------------------------------------------------


 ion  position               nearest neighbor table
   1  0.333  0.333  0.000-  13 2.34  16 2.34  19 2.36  18 2.36  11 2.36  10 2.36
   2  0.000  0.667  0.000-  27 2.34  12 2.34  14 2.36  15 2.36  24 2.36  25 2.36
   3  0.667  0.000  0.000-  17 2.34  26 2.34  23 2.36  22 2.36  21 2.36  20 2.36
   4  0.667  0.333  0.000-  19 2.34  22 2.34  25 2.36  24 2.36  17 2.36  16 2.36   7 3.34   9 3.34
                             8 3.36
   5  0.000  0.000  0.000-  23 2.34  14 2.34  11 2.36  10 2.36  27 2.36  26 2.36   7 3.34   8 3.34
                             9 3.36
   6  0.333  0.667  0.000-  15 2.34  18 2.34  20 2.36  21 2.36  13 2.36  12 2.36   8 3.34   9 3.34
                             7 3.36
   7  1.000  0.333  0.000-  25 2.34  10 2.34  13 2.36  12 2.36  22 2.36  23 2.36   4 3.34   5 3.34
                             6 3.36
   8  0.333  0.000  0.000-  11 2.34  20 2.34  17 2.36  16 2.36  15 2.36  14 2.36   6 3.34   5 3.34
                             4 3.36
   9  0.667  0.667  0.000-  21 2.34  24 2.34  27 2.36  26 2.36  19 2.36  18 2.36   4 3.34   6 3.34
                             5 3.36
  10  0.111  0.222  0.955-   7 2.34   5 2.36   1 2.36
  11  0.222  0.111  0.045-   8 2.34   5 2.36   1 2.36
  12  0.111  0.556  0.955-   2 2.34   7 2.36   6 2.36
  13  0.222  0.444  0.045-   1 2.34   7 2.36   6 2.36
  14  0.111  0.889  0.955-   5 2.34   2 2.36   8 2.36
  15  0.222  0.777  0.045-   6 2.34   2 2.36   8 2.36
  16  0.444  0.222  0.955-   1 2.34   8 2.36   4 2.36
  17  0.556  0.111  0.045-   3 2.34   8 2.36   4 2.36
  18  0.444  0.556  0.955-   6 2.34   1 2.36   9 2.36
  19  0.556  0.444  0.045-   4 2.34   1 2.36   9 2.36
  20  0.444  0.889  0.955-   8 2.34   6 2.36   3 2.36
  21  0.556  0.777  0.045-   9 2.34   6 2.36   3 2.36
  22  0.777  0.222  0.955-   4 2.34   3 2.36   7 2.36
  23  0.889  0.111  0.045-   5 2.34   3 2.36   7 2.36
  24  0.777  0.556  0.955-   9 2.34   4 2.36   2 2.36
  25  0.889  0.444  0.045-   7 2.34   4 2.36   2 2.36
  26  0.777  0.889  0.955-   3 2.34   9 2.36   5 2.36
  27  0.889  0.777  0.045-   2 2.34   9 2.36   5 2.36
 

IMPORTANT INFORMATION: All symmetrisations will be switched off!
NOSYMM: (Re-)initialisation of all symmetry stuff for point group C_1.

 
 
 KPOINTS: K-POINTS 	#supercell of CrS2 in hexagona

Automatic generation of k-mesh.
Space group operators:
 irot       det(A)        alpha          n_x          n_y          n_z        tau_x        tau_y        tau_z
    1     1.000000     0.000000     1.000000     0.000000     0.000000     0.000000     0.000000     0.000000
 
 Subroutine IBZKPT returns following result:
 ===========================================
 
 Found     34 irreducible k-points:
 
 Following reciprocal coordinates:
            Coordinates               Weight
  0.000000  0.000000  0.000000      1.000000
  0.125000  0.000000  0.000000      2.000000
  0.250000  0.000000  0.000000      2.000000
  0.375000  0.000000  0.000000      2.000000
  0.500000  0.000000  0.000000      1.000000
  0.000000  0.125000  0.000000      2.000000
  0.125000  0.125000  0.000000      2.000000
  0.250000  0.125000  0.000000      2.000000
  0.375000  0.125000  0.000000      2.000000
  0.500000  0.125000  0.000000      2.000000
 -0.375000  0.125000  0.000000      2.000000
 -0.250000  0.125000  0.000000      2.000000
 -0.125000  0.125000  0.000000      2.000000
  0.000000  0.250000  0.000000      2.000000
  0.125000  0.250000  0.000000      2.000000
  0.250000  0.250000  0.000000      2.000000
  0.375000  0.250000  0.000000      2.000000
  0.500000  0.250000  0.000000      2.000000
 -0.375000  0.250000  0.000000      2.000000
 -0.250000  0.250000  0.000000      2.000000
 -0.125000  0.250000  0.000000      2.000000
 -0.000000  0.375000  0.000000      2.000000
  0.125000  0.375000  0.000000      2.000000
  0.250000  0.375000  0.000000      2.000000
  0.375000  0.375000  0.000000      2.000000
  0.500000  0.375000  0.000000      2.000000
 -0.375000  0.375000  0.000000      2.000000
 -0.250000  0.375000  0.000000      2.000000
 -0.125000  0.375000  0.000000      2.000000
  0.000000  0.500000  0.000000      1.000000
  0.125000  0.500000  0.000000      2.000000
  0.250000  0.500000  0.000000      2.000000
  0.375000  0.500000  0.000000      2.000000
  0.500000  0.500000  0.000000      1.000000
 
 Following cartesian coordinates:
            Coordinates               Weight
  0.000000  0.000000  0.000000      1.000000
  0.007209  0.012401  0.000000      2.000000
  0.014418  0.024802  0.000000      2.000000
  0.021626  0.037202  0.000000      2.000000
  0.028835  0.049603  0.000000      1.000000
 -0.007209  0.012401  0.000000      2.000000
  0.000000  0.024802  0.000000      2.000000
  0.007209  0.037202  0.000000      2.000000
  0.014418  0.049603  0.000000      2.000000
  0.021626  0.062004  0.000000      2.000000
 -0.028835 -0.024802  0.000000      2.000000
 -0.021626 -0.012401  0.000000      2.000000
 -0.014418  0.000000  0.000000      2.000000
 -0.014418  0.024802  0.000000      2.000000
 -0.007209  0.037202  0.000000      2.000000
  0.000000  0.049603  0.000000      2.000000
  0.007209  0.062004  0.000000      2.000000
  0.014418  0.074405  0.000000      2.000000
 -0.036044 -0.012401  0.000000      2.000000
 -0.028835  0.000000  0.000000      2.000000
 -0.021626  0.012401  0.000000      2.000000
 -0.021626  0.037202  0.000000      2.000000
 -0.014418  0.049603  0.000000      2.000000
 -0.007209  0.062004  0.000000      2.000000
  0.000000  0.074405  0.000000      2.000000
  0.007209  0.086806  0.000000      2.000000
 -0.043253  0.000000  0.000000      2.000000
 -0.036044  0.012401  0.000000      2.000000
 -0.028835  0.024802  0.000000      2.000000
 -0.028835  0.049603  0.000000      1.000000
 -0.021626  0.062004  0.000000      2.000000
 -0.014418  0.074405  0.000000      2.000000
 -0.007209  0.086806  0.000000      2.000000
  0.000000  0.099206  0.000000      1.000000
 


--------------------------------------------------------------------------------------------------------




 Dimension of arrays:
   k-points           NKPTS =     34   k-points in BZ     NKDIM =     34   number of bands    NBANDS=    120
   number of dos      NEDOS =    301   number of ions     NIONS =     27
   non local maximal  LDIM  =      6   non local SUM 2l+1 LMDIM =     18
   total plane-waves  NPLWV = 222264
   max r-space proj   IRMAX =      1   max aug-charges    IRDMAX=   5642
   dimension x,y,z NGX =    42 NGY =   42 NGZ =  126
   dimension x,y,z NGXF=    84 NGYF=   84 NGZF=  252
   support grid    NGXF=    84 NGYF=   84 NGZF=  252
   ions per type =               3   3   3  18
 NGX,Y,Z   is equivalent  to a cutoff of   6.96,  6.96,  6.98 a.u.
 NGXF,Y,Z  is equivalent  to a cutoff of  13.92, 13.92, 13.96 a.u.


 I would recommend the setting:
   dimension x,y,z NGX =    41 NGY =   41 NGZ =  123
 SYSTEM =  unknown system                          
 POSCAR =  crystal structure from VMoWS2 with Hexag

 Startparameter for this run:
   NWRITE =      2    write-flag & timer
   PREC   = normal    normal or accurate (medium, high low for compatibility)
   ISTART =      0    job   : 0-new  1-cont  2-samecut
   ICHARG =      2    charge: 1-file 2-atom 10-const
   ISPIN  =      1    spin polarized calculation?
   LNONCOLLINEAR =      F non collinear calculations
   LSORBIT =      F    spin-orbit coupling
   INIWAV =      1    electr: 0-lowe 1-rand  2-diag
   LASPH  =      F    aspherical Exc in radial PAW
   METAGGA=      F    non-selfconsistent MetaGGA calc.

 Electronic Relaxation 1
   ENCUT  =  280.0 eV  20.58 Ry    4.54 a.u.  13.68 13.68 40.93*2*pi/ulx,y,z
   ENINI  =  280.0     initial cutoff
   ENAUG  =  373.4 eV  augmentation charge cutoff
   NELM   =     60;   NELMIN=  2; NELMDL= -5     # of ELM steps 
   EDIFF  = 0.1E-03   stopping-criterion for ELM
   LREAL  =      F    real-space projection
   NLSPLINE    = F    spline interpolate recip. space projectors
   LCOMPAT=      F    compatible to vasp.4.4
   GGA_COMPAT  = T    GGA compatible to vasp.4.4-vasp.4.6
   LMAXPAW     = -100 max onsite density
   LMAXMIX     =    2 max onsite mixed and CHGCAR
   VOSKOWN=      0    Vosko Wilk Nusair interpolation
   ROPT   =    0.00000   0.00000   0.00000   0.00000
 Ionic relaxation
   EDIFFG = 0.1E-02   stopping-criterion for IOM
   NSW    =    100    number of steps for IOM
   NBLOCK =      1;   KBLOCK =    100    inner block; outer block 
   IBRION =      1    ionic relax: 0-MD 1-quasi-New 2-CG
   NFREE  =      0    steps in history (QN), initial steepest desc. (CG)
   ISIF   =      3    stress and relaxation
   IWAVPR =     11    prediction:  0-non 1-charg 2-wave 3-comb
   ISYM   =      0    0-nonsym 1-usesym 2-fastsym
   LCORR  =      T    Harris-Foulkes like correction to forces

   POTIM  = 0.5000    time-step for ionic-motion
   TEIN   =    0.0    initial temperature
   TEBEG  =    0.0;   TEEND  =   0.0 temperature during run
   SMASS  =  -3.00    Nose mass-parameter (am)
   estimated Nose-frequenzy (Omega)   =  0.10E-29 period in steps =****** mass=  -0.230E-26a.u.
   SCALEE = 1.0000    scale energy and forces
   NPACO  =    256;   APACO  = 16.0  distance and # of slots for P.C.
   PSTRESS=    0.0 pullay stress

  Mass of Ions in am
   POMASS =  50.94 95.94183.85 32.07
  Ionic Valenz
   ZVAL   =   5.00  6.00  6.00  6.00
  Atomic Wigner-Seitz radii
   RWIGS  =  -1.00 -1.00 -1.00 -1.00
  virtual crystal weights 
   VCA    =   1.00  1.00  1.00  1.00
   NELECT =     159.0000    total number of electrons
   NUPDOWN=      -1.0000    fix difference up-down

 DOS related values:
   EMIN   =  10.00;   EMAX   =-10.00  energy-range for DOS
   EFERMI =   0.00
   ISMEAR =     0;   SIGMA  =   0.20  broadening in eV -4-tet -1-fermi 0-gaus

 Electronic relaxation 2 (details)
   IALGO  =     38    algorithm
   LDIAG  =      T    sub-space diagonalisation (order eigenvalues)
   LSUBROT=      F    optimize rotation matrix (better conditioning)
   TURBO    =      0    0=normal 1=particle mesh
   IRESTART =      0    0=no restart 2=restart with 2 vectors
   NREBOOT  =      0    no. of reboots
   NMIN     =      0    reboot dimension
   EREF     =   0.00    reference energy to select bands
   IMIX   =      4    mixing-type and parameters
     AMIX     =   0.40;   BMIX     =  1.00
     AMIX_MAG =   1.60;   BMIX_MAG =  1.00
     AMIN     =   0.10
     WC   =   100.;   INIMIX=   1;  MIXPRE=   1;  MAXMIX= -45

 Intra band minimization:
   WEIMIN = 0.0010     energy-eigenvalue tresh-hold
   EBREAK =  0.21E-06  absolut break condition
   DEPER  =   0.30     relativ break condition  

   TIME   =   0.40     timestep for ELM

  volume/ion in A,a.u.               =      97.10       655.29
  Fermi-wavevector in a.u.,A,eV,Ry     =   0.643191  1.215456  5.628665  0.413695
  Thomas-Fermi vector in A             =   1.710110
 
 Write flags
   LWAVE  =      F    write WAVECAR
   LCHARG =      F    write CHGCAR
   LVTOT  =      F    write LOCPOT, total local potential
   LVHAR  =      F    write LOCPOT, Hartree potential only
   LELF   =      F    write electronic localiz. function (ELF)
   LORBIT =      0    0 simple, 1 ext, 2 COOP (PROOUT)


 Dipole corrections
   LMONO  =      F    monopole corrections only (constant potential shift)
   LDIPOL =      F    correct potential (dipole corrections)
   IDIPOL =      0    1-x, 2-y, 3-z, 4-all directions 
   EPSILON=  1.0000000 bulk dielectric constant

 Exchange correlation treatment:
   GGA     =    --    GGA type
   LEXCH   =     8    internal setting for exchange type
   VOSKOWN=      0    Vosko Wilk Nusair interpolation
   LHFCALC =     F    Hartree Fock is set to
   LHFONE  =     F    Hartree Fock one center treatment
   AEXX    =    0.0000 exact exchange contribution

 Linear response parameters
   LEPSILON=     F    determine dielectric tensor
   LRPA    =     F    only Hartree local field effects (RPA)
   LNABLA  =     F    use nabla operator in PAW spheres
   LVEL    =     F    velocity operator in full k-point grid
   LINTERFAST=   F  fast interpolation
   KINTER  =     0    interpolate to denser k-point grid
   CSHIFT  =0.1000    complex shift for real part using Kramers Kronig
   OMEGAMAX=  -1.0    maximum frequency
   DEG_THRESHOLD= 0.2000000E-02 threshold for treating states as degnerate
   RTIME   =    0.100 relaxation time in fs

 Orbital magnetization related:
   ORBITALMAG=     F  switch on orbital magnetization
   LCHIMAG   =     F  perturbation theory with respect to B field
   DQ        =  0.001000  dq finite difference perturbation B field



--------------------------------------------------------------------------------------------------------


 quasi-Newton-method for relaxation of ions
 charge density and potential will be updated during run
 non-spin polarized calculation
 Variant of blocked Davidson
 Davidson routine will perform the subspace rotation
 perform sub-space diagonalisation
    after iterative eigenvector-optimisation
 modified Broyden-mixing scheme, WC =      100.0
 initial mixing is a Kerker type mixing with AMIX =  0.4000 and BMIX =      1.0000
 Hartree-type preconditioning will be used
 using additional bands           40
 reciprocal scheme for non local part
 use partial core corrections
 calculate Harris-corrections to forces 
   (improved forces if not selfconsistent)
 use gradient corrections 
 use of overlap-Matrix (Vanderbilt PP)
 Gauss-broadening in eV      SIGMA  =   0.20


--------------------------------------------------------------------------------------------------------


  energy-cutoff  :      280.00
  volume of cell :     2621.81
      direct lattice vectors                 reciprocal lattice vectors
     8.669999960  5.039999894  0.000000000     0.057670129  0.099206348  0.000000000
    -8.669999821  5.040000133  0.000000000    -0.057670126  0.099206350  0.000000000
     0.000000000  0.000000000 30.000000000     0.000000000  0.000000000  0.033333333

  length of vectors
    10.028484344 10.028484344 30.000000000     0.114750788  0.114750788  0.033333333


 
 k-points in units of 2pi/SCALE and weight: K-POINTS 	#supercell of CrS2 in hexagona
   0.00000000  0.00000000  0.00000000       0.016
   0.00720877  0.01240079  0.00000000       0.031
   0.01441753  0.02480159  0.00000000       0.031
   0.02162630  0.03720238  0.00000000       0.031
   0.02883506  0.04960317  0.00000000       0.016
  -0.00720877  0.01240079  0.00000000       0.031
   0.00000000  0.02480159  0.00000000       0.031
   0.00720877  0.03720238  0.00000000       0.031
   0.01441753  0.04960317  0.00000000       0.031
   0.02162630  0.06200397  0.00000000       0.031
  -0.02883506 -0.02480159  0.00000000       0.031
  -0.02162630 -0.01240079  0.00000000       0.031
  -0.01441753  0.00000000  0.00000000       0.031
  -0.01441753  0.02480159  0.00000000       0.031
  -0.00720877  0.03720238  0.00000000       0.031
   0.00000000  0.04960317  0.00000000       0.031
   0.00720877  0.06200397  0.00000000       0.031
   0.01441753  0.07440476  0.00000000       0.031
  -0.03604383 -0.01240079  0.00000000       0.031
  -0.02883506  0.00000000  0.00000000       0.031
  -0.02162630  0.01240079  0.00000000       0.031
  -0.02162630  0.03720238  0.00000000       0.031
  -0.01441753  0.04960317  0.00000000       0.031
  -0.00720877  0.06200397  0.00000000       0.031
   0.00000000  0.07440476  0.00000000       0.031
   0.00720877  0.08680556  0.00000000       0.031
  -0.04325260  0.00000000  0.00000000       0.031
  -0.03604383  0.01240079  0.00000000       0.031
  -0.02883506  0.02480159  0.00000000       0.031
  -0.02883506  0.04960317  0.00000000       0.016
  -0.02162630  0.06200397  0.00000000       0.031
  -0.01441753  0.07440476  0.00000000       0.031
  -0.00720876  0.08680556  0.00000000       0.031
   0.00000000  0.09920635  0.00000000       0.016
 
 k-points in reciprocal lattice and weights: K-POINTS 	#supercell of CrS2 in hexagona
   0.00000000  0.00000000  0.00000000       0.016
   0.12500000  0.00000000  0.00000000       0.031
   0.25000000  0.00000000  0.00000000       0.031
   0.37500000  0.00000000  0.00000000       0.031
   0.50000000  0.00000000  0.00000000       0.016
   0.00000000  0.12500000  0.00000000       0.031
   0.12500000  0.12500000  0.00000000       0.031
   0.25000000  0.12500000  0.00000000       0.031
   0.37500000  0.12500000  0.00000000       0.031
   0.50000000  0.12500000  0.00000000       0.031
  -0.37500000  0.12500000  0.00000000       0.031
  -0.25000000  0.12500000  0.00000000       0.031
  -0.12500000  0.12500000  0.00000000       0.031
   0.00000000  0.25000000  0.00000000       0.031
   0.12500000  0.25000000  0.00000000       0.031
   0.25000000  0.25000000  0.00000000       0.031
   0.37500000  0.25000000  0.00000000       0.031
   0.50000000  0.25000000  0.00000000       0.031
  -0.37500000  0.25000000  0.00000000       0.031
  -0.25000000  0.25000000  0.00000000       0.031
  -0.12500000  0.25000000  0.00000000       0.031
  -0.00000000  0.37500000  0.00000000       0.031
   0.12500000  0.37500000  0.00000000       0.031
   0.25000000  0.37500000  0.00000000       0.031
   0.37500000  0.37500000  0.00000000       0.031
   0.50000000  0.37500000  0.00000000       0.031
  -0.37500000  0.37500000  0.00000000       0.031
  -0.25000000  0.37500000  0.00000000       0.031
  -0.12500000  0.37500000  0.00000000       0.031
   0.00000000  0.50000000  0.00000000       0.016
   0.12500000  0.50000000  0.00000000       0.031
   0.25000000  0.50000000  0.00000000       0.031
   0.37500000  0.50000000  0.00000000       0.031
   0.50000000  0.50000000  0.00000000       0.016
 
 position of ions in fractional coordinates (direct lattice) 
   0.33333334  0.33333334  0.00000000
   0.00000000  0.66666669  0.00000000
   0.66666669  0.00000000  0.00000000
   0.66666669  0.33333334  0.00000000
   0.00000000  0.00000000  0.00000000
   0.33333334  0.66666669  0.00000000
   1.00000000  0.33333334  0.00000000
   0.33333334  0.00000000  0.00000000
   0.66666669  0.66666669  0.00000000
   0.11068511  0.22244981  0.95539999
   0.22244981  0.11068511  0.04460000
   0.11068511  0.55578315  0.95539999
   0.22244981  0.44401845  0.04460000
   0.11068511  0.88911647  0.95539999
   0.22244981  0.77735180  0.04460000
   0.44401845  0.22244981  0.95539999
   0.55578315  0.11068511  0.04460000
   0.44401845  0.55578315  0.95539999
   0.55578315  0.44401845  0.04460000
   0.44401845  0.88911647  0.95539999
   0.55578315  0.77735180  0.04460000
   0.77735180  0.22244981  0.95539999
   0.88911647  0.11068511  0.04460000
   0.77735180  0.55578315  0.95539999
   0.88911647  0.44401845  0.04460000
   0.77735180  0.88911647  0.95539999
   0.88911647  0.77735180  0.04460000
 
 position of ions in cartesian coordinates  (Angst):
   0.00000005  3.36000011  0.00000000
  -5.78000005  3.36000019  0.00000000
   5.78000015  3.36000003  0.00000000
   2.89000012  5.04000012  0.00000000
   0.00000000  0.00000000  0.00000000
  -2.88999998  5.04000020  0.00000000
   5.77999993  6.71999999  0.00000000
   2.89000007  1.68000002  0.00000000
   0.00000009  6.72000022  0.00000000
  -0.96899991  1.67900001 28.66199970
   0.96899995  1.67899998  1.33799996
  -3.85899993  3.35900011 28.66199970
  -1.92100007  3.35900008  1.33799996
  -6.74899970  5.03900005 28.66199970
  -4.81100010  5.03900017  1.33799996
   1.92100017  3.35900003 28.66199970
   3.85900003  3.35900000  1.33799996
  -0.96899986  5.03900012 28.66199970
   0.96900000  5.03900009  1.33799996
  -3.85899963  6.71900006 28.66199970
  -1.92100003  6.71900019  1.33799996
   4.81100024  5.03900004 28.66199970
   6.74899984  5.03899987  1.33799996
   1.92100021  6.71900014 28.66199970
   3.85899981  6.71899996  1.33799996
  -0.96899956  8.39900008 28.66199970
   0.96899979  8.39900005  1.33799996
 


--------------------------------------------------------------------------------------------------------


 k-point  1 :   0.0000 0.0000 0.0000  plane waves:   27959
 k-point  2 :   0.1250 0.0000 0.0000  plane waves:   27889
 k-point  3 :   0.2500 0.0000 0.0000  plane waves:   27875
 k-point  4 :   0.3750 0.0000 0.0000  plane waves:   27893
 k-point  5 :   0.5000 0.0000 0.0000  plane waves:   27932
 k-point  6 :   0.0000 0.1250 0.0000  plane waves:   27889
 k-point  7 :   0.1250 0.1250 0.0000  plane waves:   27906
 k-point  8 :   0.2500 0.1250 0.0000  plane waves:   27898
 k-point  9 :   0.3750 0.1250 0.0000  plane waves:   27888
 k-point 10 :   0.5000 0.1250 0.0000  plane waves:   27873
 k-point 11 :  -0.3750 0.1250 0.0000  plane waves:   27874
 k-point 12 :  -0.2500 0.1250 0.0000  plane waves:   27895
 k-point 13 :  -0.1250 0.1250 0.0000  plane waves:   27879
 k-point 14 :   0.0000 0.2500 0.0000  plane waves:   27875
 k-point 15 :   0.1250 0.2500 0.0000  plane waves:   27898
 k-point 16 :   0.2500 0.2500 0.0000  plane waves:   27920
 k-point 17 :   0.3750 0.2500 0.0000  plane waves:   27901
 k-point 18 :   0.5000 0.2500 0.0000  plane waves:   27875
 k-point 19 :  -0.3750 0.2500 0.0000  plane waves:   27894
 k-point 20 :  -0.2500 0.2500 0.0000  plane waves:   27870
 k-point 21 :  -0.1250 0.2500 0.0000  plane waves:   27895
 k-point 22 :  -0.0000 0.3750 0.0000  plane waves:   27893
 k-point 23 :   0.1250 0.3750 0.0000  plane waves:   27888
 k-point 24 :   0.2500 0.3750 0.0000  plane waves:   27901
 k-point 25 :   0.3750 0.3750 0.0000  plane waves:   27860
 k-point 26 :   0.5000 0.3750 0.0000  plane waves:   27895
 k-point 27 :  -0.3750 0.3750 0.0000  plane waves:   27858
 k-point 28 :  -0.2500 0.3750 0.0000  plane waves:   27894
 k-point 29 :  -0.1250 0.3750 0.0000  plane waves:   27874
 k-point 30 :   0.0000 0.5000 0.0000  plane waves:   27932
 k-point 31 :   0.1250 0.5000 0.0000  plane waves:   27873
 k-point 32 :   0.2500 0.5000 0.0000  plane waves:   27875
 k-point 33 :   0.3750 0.5000 0.0000  plane waves:   27895
 k-point 34 :   0.5000 0.5000 0.0000  plane waves:   27910

 maximum and minimum number of plane-waves per node :     27959    27858

 maximum number of plane-waves:     27959
 maximum index in each direction: 
   IXMAX=   14   IYMAX=   13   IZMAX=   40
   IXMIN=  -14   IYMIN=  -14   IZMIN=  -40

 WARNING: aliasing errors must be expected set NGX to  58 to avoid them
 WARNING: aliasing errors must be expected set NGY to  56 to avoid them
 WARNING: aliasing errors must be expected set NGZ to 162 to avoid them
 aliasing errors are usually negligible using standard VASP settings
 and one can safely disregard these warnings

 serial   3D FFT for wavefunctions

 total amount of memory used by VASP on root node   650782. kBytes
========================================================================

   base      :      30000. kBytes
   nonl-proj :     559647. kBytes
   fftplans  :       2414. kBytes
   grid      :      12150. kBytes
   one-center:        419. kBytes
   wavefun   :      46152. kBytes
 
     INWAV:  cpu time    0.0000: real time    0.0000
 Broyden mixing: mesh for mixing (old mesh)
   NGX = 27   NGY = 27   NGZ = 81
  (NGX  = 84   NGY  = 84   NGZ  =252)
  gives a total of  59049 points

 initial charge density was supplied:
 charge density of overlapping atoms calculated
 number of electron     159.0000000 magnetization 
 keeping initial charge density in first step


--------------------------------------------------------------------------------------------------------


 Maximum index for augmentation-charges          148 (set IRDMAX)


--------------------------------------------------------------------------------------------------------


 First call to EWALD:  gamma=   0.129
 Maximum number of real-space cells 4x 4x 2
 Maximum number of reciprocal cells 2x 2x 5

 FEWALD executed in parallel
    FEWALD:  cpu time    0.0016: real time    0.0015


----------------------------------------- Iteration    1(   1)  ---------------------------------------


    POTLOK:  cpu time    0.0371: real time    0.0372
    SETDIJ:  cpu time    0.0031: real time    0.0032
     EDDAV:  cpu time   22.1970: real time   22.2529
       DOS:  cpu time    0.0015: real time    0.0015
    --------------------------------------------
      LOOP:  cpu time   22.2422: real time   22.3035

 eigenvalue-minimisations  :  8160
 total energy-change (2. order) : 0.1124448E+04  (-0.3585573E+04)
 number of electron     159.0000000 magnetization 
 augmentation part      159.0000000 magnetization 

 Free energy of the ion-electron system (eV)
  ---------------------------------------------------
  alpha Z        PSCENC =        81.65567618
  Ewald energy   TEWEN  =     41888.36874788
  -Hartree energ DENC   =    -47720.98308884
  -exchange      EXHF   =         0.00000000
  -V(xc)+E(xc)   XCENC  =      -242.93656870
  PAW double counting   =      3467.42045192    -2871.19716117
  entropy T*S    EENTRO =        -0.52403138
  eigenvalues    EBANDS =      -238.79903091
  atomic energy  EATOM  =      6761.44252427
  Solvation  Ediel_sol  =         0.00000000
  ---------------------------------------------------
  free energy    TOTEN  =      1124.44751925 eV

  energy without entropy =     1124.97155064  energy(sigma->0) =     1124.70953494


--------------------------------------------------------------------------------------------------------




----------------------------------------- Iteration    1(   2)  ---------------------------------------


     EDDAV:  cpu time   28.1616: real time   28.2296
       DOS:  cpu time    0.0009: real time    0.0009
    --------------------------------------------
      LOOP:  cpu time   28.1635: real time   28.2375

 eigenvalue-minimisations  : 10920
 total energy-change (2. order) :-0.1126217E+04  (-0.1084841E+04)
 number of electron     159.0000000 magnetization 
 augmentation part      159.0000000 magnetization 

 Free energy of the ion-electron system (eV)
  ---------------------------------------------------
  alpha Z        PSCENC =        81.65567618
  Ewald energy   TEWEN  =     41888.36874788
  -Hartree energ DENC   =    -47720.98308884
  -exchange      EXHF   =         0.00000000
  -V(xc)+E(xc)   XCENC  =      -242.93656870
  PAW double counting   =      3467.42045192    -2871.19716117
  entropy T*S    EENTRO =        -0.15860196
  eigenvalues    EBANDS =     -1365.38113782
  atomic energy  EATOM  =      6761.44252427
  Solvation  Ediel_sol  =         0.00000000
  ---------------------------------------------------
  free energy    TOTEN  =        -1.76915824 eV

  energy without entropy =       -1.61055628  energy(sigma->0) =       -1.68985726


--------------------------------------------------------------------------------------------------------




----------------------------------------- Iteration    1(   3)  ---------------------------------------


     EDDAV:  cpu time   28.1454: real time   28.2129
       DOS:  cpu time    0.0010: real time    0.0010
    --------------------------------------------
      LOOP:  cpu time   28.1475: real time   28.2212

 eigenvalue-minimisations  : 10920
 total energy-change (2. order) :-0.1979711E+03  (-0.1895642E+03)
 number of electron     159.0000000 magnetization 
 augmentation part      159.0000000 magnetization 

 Free energy of the ion-electron system (eV)
  ---------------------------------------------------
  alpha Z        PSCENC =        81.65567618
  Ewald energy   TEWEN  =     41888.36874788
  -Hartree energ DENC   =    -47720.98308884
  -exchange      EXHF   =         0.00000000
  -V(xc)+E(xc)   XCENC  =      -242.93656870
  PAW double counting   =      3467.42045192    -2871.19716117
  entropy T*S    EENTRO =        -0.23939618
  eigenvalues    EBANDS =     -1563.27140924
  atomic energy  EATOM  =      6761.44252427
  Solvation  Ediel_sol  =         0.00000000
  ---------------------------------------------------
  free energy    TOTEN  =      -199.74022388 eV

  energy without entropy =     -199.50082770  energy(sigma->0) =     -199.62052579


--------------------------------------------------------------------------------------------------------




----------------------------------------- Iteration    1(   4)  ---------------------------------------


     EDDAV:  cpu time   30.7460: real time   30.8205
       DOS:  cpu time    0.0011: real time    0.0011
    --------------------------------------------
      LOOP:  cpu time   30.7483: real time   30.8283

 eigenvalue-minimisations  : 12160
 total energy-change (2. order) :-0.9338525E+01  (-0.9018088E+01)
 number of electron     159.0000000 magnetization 
 augmentation part      159.0000000 magnetization 

 Free energy of the ion-electron system (eV)
  ---------------------------------------------------
  alpha Z        PSCENC =        81.65567618
  Ewald energy   TEWEN  =     41888.36874788
  -Hartree energ DENC   =    -47720.98308884
  -exchange      EXHF   =         0.00000000
  -V(xc)+E(xc)   XCENC  =      -242.93656870
  PAW double counting   =      3467.42045192    -2871.19716117
  entropy T*S    EENTRO =        -0.28698690
  eigenvalues    EBANDS =     -1572.56234397
  atomic energy  EATOM  =      6761.44252427
  Solvation  Ediel_sol  =         0.00000000
  ---------------------------------------------------
  free energy    TOTEN  =      -209.07874933 eV

  energy without entropy =     -208.79176243  energy(sigma->0) =     -208.93525588


--------------------------------------------------------------------------------------------------------




----------------------------------------- Iteration    1(   5)  ---------------------------------------


     EDDAV:  cpu time   29.6065: real time   29.6775
       DOS:  cpu time    0.0011: real time    0.0011
    CHARGE:  cpu time    0.4643: real time    0.4654
    MIXING:  cpu time    0.0019: real time    0.0020
    --------------------------------------------
      LOOP:  cpu time   30.0756: real time   30.2655

 eigenvalue-minimisations  : 11600
 total energy-change (2. order) :-0.3366251E+00  (-0.3356492E+00)
 number of electron     159.0000113 magnetization 
 augmentation part       -9.7753516 magnetization 

 Broyden mixing:
  rms(total) = 0.27490E+01    rms(broyden)= 0.27485E+01
  rms(prec ) = 0.29321E+01
  weight for this iteration     100.00

 Free energy of the ion-electron system (eV)
  ---------------------------------------------------
  alpha Z        PSCENC =        81.65567618
  Ewald energy   TEWEN  =     41888.36874788
  -Hartree energ DENC   =    -47720.98308884
  -exchange      EXHF   =         0.00000000
  -V(xc)+E(xc)   XCENC  =      -242.93656870
  PAW double counting   =      3467.42045192    -2871.19716117
  entropy T*S    EENTRO =        -0.28438443
  eigenvalues    EBANDS =     -1572.90157149
  atomic energy  EATOM  =      6761.44252427
  Solvation  Ediel_sol  =         0.00000000
  ---------------------------------------------------
  free energy    TOTEN  =      -209.41537438 eV

  energy without entropy =     -209.13098995  energy(sigma->0) =     -209.27318216


--------------------------------------------------------------------------------------------------------




----------------------------------------- Iteration    1(   6)  ---------------------------------------


    POTLOK:  cpu time    0.0331: real time    0.0344
    SETDIJ:  cpu time    0.0026: real time    0.0026
     EDDAV:  cpu time   32.2325: real time   32.3102
       DOS:  cpu time    0.0020: real time    0.0021
    CHARGE:  cpu time    0.4612: real time    0.4624
    MIXING:  cpu time    0.0017: real time    0.0019
    --------------------------------------------
      LOOP:  cpu time   32.7354: real time   32.8217

 eigenvalue-minimisations  : 12840
 total energy-change (2. order) :-0.2772593E+02  (-0.1053029E+02)
 number of electron     159.0000106 magnetization 
 augmentation part        7.0508471 magnetization 

 Broyden mixing:
  rms(total) = 0.59607E+01    rms(broyden)= 0.59601E+01
  rms(prec ) = 0.64789E+01
  weight for this iteration     100.00

 eigenvalues of (default mixing * dielectric matrix)
  average eigenvalue GAMMA=   0.2921
  0.2921

 Free energy of the ion-electron system (eV)
  ---------------------------------------------------
  alpha Z        PSCENC =        81.65567618
  Ewald energy   TEWEN  =     41888.36874788
  -Hartree energ DENC   =    -47699.33386421
  -exchange      EXHF   =         0.00000000
  -V(xc)+E(xc)   XCENC  =      -233.66268219
  PAW double counting   =      3677.27139098    -3083.32206392
  entropy T*S    EENTRO =        -0.29168242
  eigenvalues    EBANDS =     -1629.26935359
  atomic energy  EATOM  =      6761.44252427
  Solvation  Ediel_sol  =         0.00000000
  ---------------------------------------------------
  free energy    TOTEN  =      -237.14130701 eV

  energy without entropy =     -236.84962460  energy(sigma->0) =     -236.99546580


--------------------------------------------------------------------------------------------------------




----------------------------------------- Iteration    1(   7)  ---------------------------------------


    POTLOK:  cpu time    0.0306: real time    0.0318
    SETDIJ:  cpu time    0.0025: real time    0.0025
     EDDAV:  cpu time   31.6835: real time   31.7593
       DOS:  cpu time    0.0010: real time    0.0010
    CHARGE:  cpu time    0.4700: real time    0.4712
    MIXING:  cpu time    0.0012: real time    0.0012
    --------------------------------------------
      LOOP:  cpu time   32.1910: real time   32.2753

 eigenvalue-minimisations  : 12600
 total energy-change (2. order) : 0.4110387E+02  (-0.1699445E+02)
 number of electron     159.0000093 magnetization 
 augmentation part       -6.2462311 magnetization 

 Broyden mixing:
  rms(total) = 0.19815E+01    rms(broyden)= 0.19795E+01
  rms(prec ) = 0.21613E+01
  weight for this iteration     100.00

 eigenvalues of (default mixing * dielectric matrix)
  average eigenvalue GAMMA=   0.5595
  0.9044  0.2145

 Free energy of the ion-electron system (eV)
  ---------------------------------------------------
  alpha Z        PSCENC =        81.65567618
  Ewald energy   TEWEN  =     41888.36874788
  -Hartree energ DENC   =    -47737.12853071
  -exchange      EXHF   =         0.00000000
  -V(xc)+E(xc)   XCENC  =      -235.04183584
  PAW double counting   =      3764.86235641    -3178.92422893
  entropy T*S    EENTRO =        -0.23345727
  eigenvalues    EBANDS =     -1541.03869244
  atomic energy  EATOM  =      6761.44252427
  Solvation  Ediel_sol  =         0.00000000
  ---------------------------------------------------
  free energy    TOTEN  =      -196.03744044 eV

  energy without entropy =     -195.80398317  energy(sigma->0) =     -195.92071181


--------------------------------------------------------------------------------------------------------




----------------------------------------- Iteration    1(   8)  ---------------------------------------


    POTLOK:  cpu time    0.0306: real time    0.0308
    SETDIJ:  cpu time    0.0024: real time    0.0024
     EDDAV:  cpu time   30.7740: real time   30.8476
       DOS:  cpu time    0.0010: real time    0.0010
    CHARGE:  cpu time    0.4813: real time    0.4824
    MIXING:  cpu time    0.0012: real time    0.0012
    --------------------------------------------
      LOOP:  cpu time   31.2917: real time   31.3744

 eigenvalue-minimisations  : 12160
 total energy-change (2. order) : 0.6714977E+01  (-0.1650988E+01)
 number of electron     159.0000097 magnetization 
 augmentation part       -6.2551569 magnetization 

 Broyden mixing:
  rms(total) = 0.11956E+01    rms(broyden)= 0.11953E+01
  rms(prec ) = 0.12788E+01
  weight for this iteration     100.00

 eigenvalues of (default mixing * dielectric matrix)
  average eigenvalue GAMMA=   0.5787
  1.1237  0.2348  0.3777

 Free energy of the ion-electron system (eV)
  ---------------------------------------------------
  alpha Z        PSCENC =        81.65567618
  Ewald energy   TEWEN  =     41888.36874788
  -Hartree energ DENC   =    -47759.32618249
  -exchange      EXHF   =         0.00000000
  -V(xc)+E(xc)   XCENC  =      -234.97943206
  PAW double counting   =      3909.05504780    -3324.73052368
  entropy T*S    EENTRO =        -0.28485068
  eigenvalues    EBANDS =     -1510.52347108
  atomic energy  EATOM  =      6761.44252427
  Solvation  Ediel_sol  =         0.00000000
  ---------------------------------------------------
  free energy    TOTEN  =      -189.32246386 eV

  energy without entropy =     -189.03761317  energy(sigma->0) =     -189.18003851


--------------------------------------------------------------------------------------------------------




----------------------------------------- Iteration    1(   9)  ---------------------------------------


    POTLOK:  cpu time    0.0304: real time    0.0307
    SETDIJ:  cpu time    0.0023: real time    0.0024
     EDDAV:  cpu time   30.9819: real time   31.0566
       DOS:  cpu time    0.0010: real time    0.0010
    CHARGE:  cpu time    0.4789: real time    0.4801
    MIXING:  cpu time    0.0012: real time    0.0012
    --------------------------------------------
      LOOP:  cpu time   31.4970: real time   31.5804

 eigenvalue-minimisations  : 12240
 total energy-change (2. order) : 0.1111010E+01  (-0.3584903E+00)
 number of electron     159.0000097 magnetization 
 augmentation part       -5.4716466 magnetization 

 Broyden mixing:
  rms(total) = 0.91428E+00    rms(broyden)= 0.91391E+00
  rms(prec ) = 0.98142E+00
  weight for this iteration     100.00

 eigenvalues of (default mixing * dielectric matrix)
  average eigenvalue GAMMA=   0.7488
  1.8501  0.6320  0.2213  0.2920

 Free energy of the ion-electron system (eV)
  ---------------------------------------------------
  alpha Z        PSCENC =        81.65567618
  Ewald energy   TEWEN  =     41888.36874788
  -Hartree energ DENC   =    -47763.76284003
  -exchange      EXHF   =         0.00000000
  -V(xc)+E(xc)   XCENC  =      -234.10591958
  PAW double counting   =      3977.37455074    -3393.88149195
  entropy T*S    EENTRO =        -0.28032671
  eigenvalues    EBANDS =     -1505.02237443
  atomic energy  EATOM  =      6761.44252427
  Solvation  Ediel_sol  =         0.00000000
  ---------------------------------------------------
  free energy    TOTEN  =      -188.21145363 eV

  energy without entropy =     -187.93112692  energy(sigma->0) =     -188.07129028


--------------------------------------------------------------------------------------------------------




----------------------------------------- Iteration    1(  10)  ---------------------------------------


    POTLOK:  cpu time    0.0315: real time    0.0316
    SETDIJ:  cpu time    0.0025: real time    0.0025
     EDDAV:  cpu time   32.5968: real time   32.6748
       DOS:  cpu time    0.0010: real time    0.0010
    CHARGE:  cpu time    0.5024: real time    0.5036
    MIXING:  cpu time    0.0014: real time    0.0014
    --------------------------------------------
      LOOP:  cpu time   33.1366: real time   33.2235

 eigenvalue-minimisations  : 13000
 total energy-change (2. order) : 0.1132226E+01  (-0.1684497E+00)
 number of electron     159.0000095 magnetization 
 augmentation part       -4.1128674 magnetization 

 Broyden mixing:
  rms(total) = 0.21362E+00    rms(broyden)= 0.21249E+00
  rms(prec ) = 0.22818E+00
  weight for this iteration     100.00

 eigenvalues of (default mixing * dielectric matrix)
  average eigenvalue GAMMA=   0.9378
  1.7656  1.7656  0.6598  0.2207  0.2772

 Free energy of the ion-electron system (eV)
  ---------------------------------------------------
  alpha Z        PSCENC =        81.65567618
  Ewald energy   TEWEN  =     41888.36874788
  -Hartree energ DENC   =    -47777.78698767
  -exchange      EXHF   =         0.00000000
  -V(xc)+E(xc)   XCENC  =      -232.53356431
  PAW double counting   =      4109.75684267    -3527.95841640
  entropy T*S    EENTRO =        -0.35332039
  eigenvalues    EBANDS =     -1489.67072964
  atomic energy  EATOM  =      6761.44252427
  Solvation  Ediel_sol  =         0.00000000
  ---------------------------------------------------
  free energy    TOTEN  =      -187.07922742 eV

  energy without entropy =     -186.72590703  energy(sigma->0) =     -186.90256722


--------------------------------------------------------------------------------------------------------




----------------------------------------- Iteration    1(  11)  ---------------------------------------


    POTLOK:  cpu time    0.0311: real time    0.0314
    SETDIJ:  cpu time    0.0024: real time    0.0024
     EDDAV:  cpu time   33.5771: real time   33.6581
       DOS:  cpu time    0.0010: real time    0.0010
    CHARGE:  cpu time    0.4987: real time    0.4999
    MIXING:  cpu time    0.0013: real time    0.0013
    --------------------------------------------
      LOOP:  cpu time   34.1127: real time   34.2024

 eigenvalue-minimisations  : 13440
 total energy-change (2. order) :-0.1247874E+00  (-0.6427250E-01)
 number of electron     159.0000091 magnetization 
 augmentation part       -4.8053925 magnetization 

 Broyden mixing:
  rms(total) = 0.45230E+00    rms(broyden)= 0.45213E+00
  rms(prec ) = 0.49436E+00
  weight for this iteration     100.00

 eigenvalues of (default mixing * dielectric matrix)
  average eigenvalue GAMMA=   0.9624
  2.2269  1.6722  0.6876  0.6876  0.2200  0.2798

 Free energy of the ion-electron system (eV)
  ---------------------------------------------------
  alpha Z        PSCENC =        81.65567618
  Ewald energy   TEWEN  =     41888.36874788
  -Hartree energ DENC   =    -47792.63027506
  -exchange      EXHF   =         0.00000000
  -V(xc)+E(xc)   XCENC  =      -232.07706939
  PAW double counting   =      4172.63518226    -3591.02506586
  entropy T*S    EENTRO =        -0.31756113
  eigenvalues    EBANDS =     -1475.25617401
  atomic energy  EATOM  =      6761.44252427
  Solvation  Ediel_sol  =         0.00000000
  ---------------------------------------------------
  free energy    TOTEN  =      -187.20401485 eV

  energy without entropy =     -186.88645372  energy(sigma->0) =     -187.04523428


--------------------------------------------------------------------------------------------------------




----------------------------------------- Iteration    1(  12)  ---------------------------------------


    POTLOK:  cpu time    0.0310: real time    0.0314
    SETDIJ:  cpu time    0.0025: real time    0.0025
     EDDAV:  cpu time   33.0700: real time   33.1497
       DOS:  cpu time    0.0011: real time    0.0011
    CHARGE:  cpu time    0.5045: real time    0.5057
    MIXING:  cpu time    0.0015: real time    0.0015
    --------------------------------------------
      LOOP:  cpu time   33.6118: real time   33.7007

 eigenvalue-minimisations  : 13240
 total energy-change (2. order) : 0.2117582E+00  (-0.3797308E-01)
 number of electron     159.0000092 magnetization 
 augmentation part       -4.0063639 magnetization 

 Broyden mixing:
  rms(total) = 0.13861E+00    rms(broyden)= 0.13802E+00
  rms(prec ) = 0.15153E+00
  weight for this iteration     100.00

 eigenvalues of (default mixing * dielectric matrix)
  average eigenvalue GAMMA=   0.9421
  2.2313  1.7581  0.9506  0.2199  0.2797  0.5905  0.5643

 Free energy of the ion-electron system (eV)
  ---------------------------------------------------
  alpha Z        PSCENC =        81.65567618
  Ewald energy   TEWEN  =     41888.36874788
  -Hartree energ DENC   =    -47799.45046291
  -exchange      EXHF   =         0.00000000
  -V(xc)+E(xc)   XCENC  =      -231.89965765
  PAW double counting   =      4190.74080489    -3608.99340979
  entropy T*S    EENTRO =        -0.34852383
  eigenvalues    EBANDS =     -1468.50795567
  atomic energy  EATOM  =      6761.44252427
  Solvation  Ediel_sol  =         0.00000000
  ---------------------------------------------------
  free energy    TOTEN  =      -186.99225662 eV

  energy without entropy =     -186.64373279  energy(sigma->0) =     -186.81799471


--------------------------------------------------------------------------------------------------------




----------------------------------------- Iteration    1(  13)  ---------------------------------------


    POTLOK:  cpu time    0.0319: real time    0.0321
    SETDIJ:  cpu time    0.0024: real time    0.0024
     EDDAV:  cpu time   32.4537: real time   32.5325
       DOS:  cpu time    0.0010: real time    0.0010
    CHARGE:  cpu time    0.5045: real time    0.5057
    MIXING:  cpu time    0.0014: real time    0.0015
    --------------------------------------------
      LOOP:  cpu time   32.9962: real time   33.0843

 eigenvalue-minimisations  : 12920
 total energy-change (2. order) : 0.1483016E-01  (-0.2316741E-02)
 number of electron     159.0000092 magnetization 
 augmentation part       -4.1322344 magnetization 

 Broyden mixing:
  rms(total) = 0.55730E-01    rms(broyden)= 0.55716E-01
  rms(prec ) = 0.62260E-01
  weight for this iteration     100.00

 eigenvalues of (default mixing * dielectric matrix)
  average eigenvalue GAMMA=   0.8753
  2.2397  1.8025  1.0143  0.5730  0.5730  0.2200  0.2801  0.2997

 Free energy of the ion-electron system (eV)
  ---------------------------------------------------
  alpha Z        PSCENC =        81.65567618
  Ewald energy   TEWEN  =     41888.36874788
  -Hartree energ DENC   =    -47803.80102130
  -exchange      EXHF   =         0.00000000
  -V(xc)+E(xc)   XCENC  =      -231.83367577
  PAW double counting   =      4192.65276594    -3610.84259105
  entropy T*S    EENTRO =        -0.34629398
  eigenvalues    EBANDS =     -1464.27355863
  atomic energy  EATOM  =      6761.44252427
  Solvation  Ediel_sol  =         0.00000000
  ---------------------------------------------------
  free energy    TOTEN  =      -186.97742646 eV

  energy without entropy =     -186.63113248  energy(sigma->0) =     -186.80427947


--------------------------------------------------------------------------------------------------------




----------------------------------------- Iteration    1(  14)  ---------------------------------------


    POTLOK:  cpu time    0.0326: real time    0.0330
    SETDIJ:  cpu time    0.0024: real time    0.0024
     EDDAV:  cpu time   33.4630: real time   33.5430
       DOS:  cpu time    0.0010: real time    0.0010
    CHARGE:  cpu time    0.5021: real time    0.5033
    MIXING:  cpu time    0.0016: real time    0.0016
    --------------------------------------------
      LOOP:  cpu time   34.0039: real time   34.0931

 eigenvalue-minimisations  : 13400
 total energy-change (2. order) : 0.1270035E-02  (-0.8620556E-03)
 number of electron     159.0000092 magnetization 
 augmentation part       -4.1466849 magnetization 

 Broyden mixing:
  rms(total) = 0.50987E-01    rms(broyden)= 0.50963E-01
  rms(prec ) = 0.57167E-01
  weight for this iteration     100.00

 eigenvalues of (default mixing * dielectric matrix)
  average eigenvalue GAMMA=   0.9775
  2.4687  2.1126  1.3101  1.0466  0.6177  0.6177  0.2798  0.2199  0.1244

 Free energy of the ion-electron system (eV)
  ---------------------------------------------------
  alpha Z        PSCENC =        81.65567618
  Ewald energy   TEWEN  =     41888.36874788
  -Hartree energ DENC   =    -47805.44142667
  -exchange      EXHF   =         0.00000000
  -V(xc)+E(xc)   XCENC  =      -231.80955946
  PAW double counting   =      4193.29207134    -3611.46182446
  entropy T*S    EENTRO =        -0.34579741
  eigenvalues    EBANDS =     -1462.67656810
  atomic energy  EATOM  =      6761.44252427
  Solvation  Ediel_sol  =         0.00000000
  ---------------------------------------------------
  free energy    TOTEN  =      -186.97615643 eV

  energy without entropy =     -186.63035901  energy(sigma->0) =     -186.80325772


--------------------------------------------------------------------------------------------------------




----------------------------------------- Iteration    1(  15)  ---------------------------------------


    POTLOK:  cpu time    0.0308: real time    0.0311
    SETDIJ:  cpu time    0.0024: real time    0.0024
     EDDAV:  cpu time   32.8770: real time   32.9563
       DOS:  cpu time    0.0010: real time    0.0010
    CHARGE:  cpu time    0.5042: real time    0.5054
    MIXING:  cpu time    0.0017: real time    0.0017
    --------------------------------------------
      LOOP:  cpu time   33.4185: real time   33.5068

 eigenvalue-minimisations  : 13120
 total energy-change (2. order) : 0.3089131E-02  (-0.5550184E-03)
 number of electron     159.0000092 magnetization 
 augmentation part       -4.1825911 magnetization 

 Broyden mixing:
  rms(total) = 0.11098E-01    rms(broyden)= 0.11021E-01
  rms(prec ) = 0.14089E-01
  weight for this iteration     100.00

 eigenvalues of (default mixing * dielectric matrix)
  average eigenvalue GAMMA=   0.9954
  2.3681  2.3681  1.4046  1.1427  0.8087  0.6189  0.6189  0.2199  0.2798  0.1240

 Free energy of the ion-electron system (eV)
  ---------------------------------------------------
  alpha Z        PSCENC =        81.65567618
  Ewald energy   TEWEN  =     41888.36874788
  -Hartree energ DENC   =    -47812.51867122
  -exchange      EXHF   =         0.00000000
  -V(xc)+E(xc)   XCENC  =      -231.71087321
  PAW double counting   =      4195.53957209    -3613.62973521
  entropy T*S    EENTRO =        -0.34454351
  eigenvalues    EBANDS =     -1455.77576458
  atomic energy  EATOM  =      6761.44252427
  Solvation  Ediel_sol  =         0.00000000
  ---------------------------------------------------
  free energy    TOTEN  =      -186.97306730 eV

  energy without entropy =     -186.62852379  energy(sigma->0) =     -186.80079554


--------------------------------------------------------------------------------------------------------




----------------------------------------- Iteration    1(  16)  ---------------------------------------


    POTLOK:  cpu time    0.0305: real time    0.0309
    SETDIJ:  cpu time    0.0024: real time    0.0024
     EDDAV:  cpu time   29.9404: real time   30.0120
       DOS:  cpu time    0.0010: real time    0.0010
    CHARGE:  cpu time    0.5047: real time    0.5059
    MIXING:  cpu time    0.0017: real time    0.0017
    --------------------------------------------
      LOOP:  cpu time   30.4819: real time   30.5624

 eigenvalue-minimisations  : 11760
 total energy-change (2. order) :-0.2849584E-03  (-0.1353700E-03)
 number of electron     159.0000092 magnetization 
 augmentation part       -4.1771609 magnetization 

 Broyden mixing:
  rms(total) = 0.13034E-01    rms(broyden)= 0.13022E-01
  rms(prec ) = 0.16127E-01
  weight for this iteration     100.00

 eigenvalues of (default mixing * dielectric matrix)
  average eigenvalue GAMMA=   0.9822
  2.4833  2.4833  1.5361  1.2574  0.9273  0.6172  0.6172  0.2199  0.2798  0.2592
  0.1240

 Free energy of the ion-electron system (eV)
  ---------------------------------------------------
  alpha Z        PSCENC =        81.65567618
  Ewald energy   TEWEN  =     41888.36874788
  -Hartree energ DENC   =    -47815.70755024
  -exchange      EXHF   =         0.00000000
  -V(xc)+E(xc)   XCENC  =      -231.68788963
  PAW double counting   =      4194.55945148    -3612.62700640
  entropy T*S    EENTRO =        -0.34469705
  eigenvalues    EBANDS =     -1452.63260874
  atomic energy  EATOM  =      6761.44252427
  Solvation  Ediel_sol  =         0.00000000
  ---------------------------------------------------
  free energy    TOTEN  =      -186.97335226 eV

  energy without entropy =     -186.62865520  energy(sigma->0) =     -186.80100373


--------------------------------------------------------------------------------------------------------




----------------------------------------- Iteration    1(  17)  ---------------------------------------


    POTLOK:  cpu time    0.0315: real time    0.0316
    SETDIJ:  cpu time    0.0025: real time    0.0025
     EDDAV:  cpu time   28.2212: real time   28.2893
       DOS:  cpu time    0.0002: real time    0.0011
    --------------------------------------------
      LOOP:  cpu time   28.2571: real time   28.3330

 eigenvalue-minimisations  : 10960
 total energy-change (2. order) : 0.8134138E-04  (-0.8278552E-04)
 number of electron     159.0000092 magnetization 
 augmentation part       -4.1771609 magnetization 

 Free energy of the ion-electron system (eV)
  ---------------------------------------------------
  alpha Z        PSCENC =        81.65567618
  Ewald energy   TEWEN  =     41888.36874788
  -Hartree energ DENC   =    -47818.52127393
  -exchange      EXHF   =         0.00000000
  -V(xc)+E(xc)   XCENC  =      -231.66847374
  PAW double counting   =      4193.69332291    -3611.74568305
  entropy T*S    EENTRO =        -0.34473839
  eigenvalues    EBANDS =     -1449.85337304
  atomic energy  EATOM  =      6761.44252427
  Solvation  Ediel_sol  =         0.00000000
  ---------------------------------------------------
  free energy    TOTEN  =      -186.97327091 eV

  energy without entropy =     -186.62853252  energy(sigma->0) =     -186.80090172


--------------------------------------------------------------------------------------------------------




 average (electrostatic) potential at core
  the test charge radii are     1.2064  1.2296  1.1823  0.9698
  (the norm of the test charge is              1.0000)
       1 -50.0886       2 -50.0847       3 -50.0848       4 -47.4939       5 -47.4957
       6 -47.4978       7 -50.0010       8 -50.0002       9 -50.0007      10 -95.2323
      11 -95.2320      12 -95.2277      13 -95.2279      14 -95.2308      15 -95.2310
      16 -95.2274      17 -95.2279      18 -95.2313      19 -95.2308      20 -95.2326
      21 -95.2327      22 -95.2311      23 -95.2314      24 -95.2317      25 -95.2317
      26 -95.2281      27 -95.2274
 
 
 
 E-fermi :  -3.4105     XC(G=0):  -2.4949     alpha+bet : -2.1596


 k-point     1 :       0.0000    0.0000    0.0000
  band No.  band energies     occupation 
      1     -18.2325      2.00000
      2     -17.1371      2.00000
      3     -17.1370      2.00000
      4     -16.9259      2.00000
      5     -16.9255      2.00000
      6     -16.9097      2.00000
      7     -16.9095      2.00000
      8     -16.4208      2.00000
      9     -16.4086      2.00000
     10     -16.4085      2.00000
     11     -16.3534      2.00000
     12     -16.3278      2.00000
     13     -16.2965      2.00000
     14     -16.2962      2.00000
     15     -16.2731      2.00000
     16     -16.2731      2.00000
     17     -16.1072      2.00000
     18     -16.0938      2.00000
     19      -9.4085      2.00000
     20      -9.4084      2.00000
     21      -9.3483      2.00000
     22      -9.2736      2.00000
     23      -9.2736      2.00000
     24      -9.1059      2.00000
     25      -9.1058      2.00000
     26      -9.1028      2.00000
     27      -9.0900      2.00000
     28      -8.9100      2.00000
     29      -8.6321      2.00000
     30      -8.6169      2.00000
     31      -8.4407      2.00000
     32      -8.4407      2.00000
     33      -8.4300      2.00000
     34      -8.4299      2.00000
     35      -8.3380      2.00000
     36      -8.3380      2.00000
     37      -8.3296      2.00000
     38      -8.1090      2.00000
     39      -8.0844      2.00000
     40      -7.9649      2.00000
     41      -7.9648      2.00000
     42      -7.9430      2.00000
     43      -7.9429      2.00000
     44      -7.8661      2.00000
     45      -7.8656      2.00000
     46      -7.3508      2.00000
     47      -7.3505      2.00000
     48      -7.2160      2.00000
     49      -7.2157      2.00000
     50      -7.2014      2.00000
     51      -7.2012      2.00000
     52      -6.9550      2.00000
     53      -6.9168      2.00000
     54      -6.6521      2.00000
     55      -6.5223      2.00000
     56      -6.4871      2.00000
     57      -6.4605      2.00000
     58      -5.7841      2.00000
     59      -5.7840      2.00000
     60      -5.7146      2.00000
     61      -5.7145      2.00000
     62      -5.6714      2.00000
     63      -5.6713      2.00000
     64      -5.4321      2.00000
     65      -5.4319      2.00000
     66      -5.3803      2.00000
     67      -5.3802      2.00000
     68      -5.3708      2.00000
     69      -5.2929      2.00000
     70      -5.2927      2.00000
     71      -4.2013      2.00000
     72      -4.2013      2.00000
     73      -4.1941      2.00000
     74      -4.1680      2.00000
     75      -4.0862      2.00000
     76      -4.0857      2.00000
     77      -4.0688      2.00000
     78      -4.0684      2.00000
     79      -3.9739      1.99993
     80      -3.9391      1.99981
     81      -3.4442      1.18874
     82      -3.2436      0.23811
     83      -2.8367      0.00005
     84      -2.7535      0.00000
     85      -2.7534      0.00000
     86      -2.6882      0.00000
     87      -2.6881      0.00000
     88      -2.5662      0.00000
     89      -2.5556      0.00000
     90      -2.5511      0.00000
     91      -2.5510      0.00000
     92      -2.2143      0.00000
     93      -2.1960      0.00000
     94      -2.1938      0.00000
     95      -2.1925      0.00000
     96      -1.9839      0.00000
     97      -1.9830      0.00000
     98      -1.9259      0.00000
     99      -1.9257      0.00000
    100      -0.7594      0.00000
    101      -0.7219      0.00000
    102      -0.6392      0.00000
    103      -0.6378      0.00000
    104      -0.5948      0.00000
    105      -0.5934      0.00000
    106       0.3271      0.00000
    107       0.3721      0.00000
    108       0.4441      0.00000
    109       0.4447      0.00000
    110       0.5075      0.00000
    111       0.5080      0.00000
    112       0.9228      0.00000
    113       0.9804      0.00000
    114       0.9855      0.00000
    115       0.9858      0.00000
    116       1.0518      0.00000
    117       1.0520      0.00000
    118       1.2926      0.00000
    119       1.3649      0.00000
    120       1.9227      0.00000

 k-point     2 :       0.1250    0.0000    0.0000
  band No.  band energies     occupation 
      1     -18.2083      2.00000
      2     -17.2549      2.00000
      3     -17.1894      2.00000
      4     -16.9816      2.00000
      5     -16.8918      2.00000
      6     -16.8272      2.00000
      7     -16.8073      2.00000
      8     -16.4225      2.00000
      9     -16.4222      2.00000
     10     -16.4120      2.00000
     11     -16.3695      2.00000
     12     -16.3319      2.00000
     13     -16.2922      2.00000
     14     -16.2807      2.00000
     15     -16.2579      2.00000
     16     -16.2577      2.00000
     17     -16.1259      2.00000
     18     -16.0941      2.00000
     19      -9.5810      2.00000
     20      -9.4743      2.00000
     21      -9.3396      2.00000
     22      -9.3391      2.00000
     23      -9.2442      2.00000
     24      -9.2171      2.00000
     25      -9.0853      2.00000
     26      -9.0178      2.00000
     27      -8.9928      2.00000
     28      -8.9874      2.00000
     29      -8.6200      2.00000
     30      -8.5216      2.00000
     31      -8.4644      2.00000
     32      -8.4598      2.00000
     33      -8.4361      2.00000
     34      -8.4243      2.00000
     35      -8.2577      2.00000
     36      -8.2401      2.00000
     37      -8.1856      2.00000
     38      -8.1391      2.00000
     39      -8.0697      2.00000
     40      -8.0471      2.00000
     41      -7.9722      2.00000
     42      -7.9302      2.00000
     43      -7.9190      2.00000
     44      -7.8036      2.00000
     45      -7.7726      2.00000
     46      -7.3885      2.00000
     47      -7.3283      2.00000
     48      -7.2686      2.00000
     49      -7.2026      2.00000
     50      -7.1755      2.00000
     51      -7.1546      2.00000
     52      -7.0194      2.00000
     53      -6.9538      2.00000
     54      -6.7198      2.00000
     55      -6.5189      2.00000
     56      -6.4487      2.00000
     57      -6.3456      2.00000
     58      -5.9160      2.00000
     59      -5.9151      2.00000
     60      -5.8102      2.00000
     61      -5.7495      2.00000
     62      -5.7007      2.00000
     63      -5.6388      2.00000
     64      -5.6081      2.00000
     65      -5.5473      2.00000
     66      -5.4372      2.00000
     67      -5.3108      2.00000
     68      -5.2528      2.00000
     69      -5.1789      2.00000
     70      -5.0855      2.00000
     71      -4.4982      2.00000
     72      -4.4196      2.00000
     73      -4.1922      2.00000
     74      -4.1621      2.00000
     75      -4.0655      2.00000
     76      -4.0202      1.99998
     77      -4.0004      1.99997
     78      -3.9422      1.99983
     79      -3.8175      1.99600
     80      -3.7017      1.96056
     81      -3.4181      1.04279
     82      -3.2382      0.22327
     83      -2.7882      0.00001
     84      -2.7857      0.00001
     85      -2.7767      0.00001
     86      -2.6820      0.00000
     87      -2.6761      0.00000
     88      -2.5794      0.00000
     89      -2.5687      0.00000
     90      -2.5641      0.00000
     91      -2.5618      0.00000
     92      -2.2399      0.00000
     93      -2.2188      0.00000
     94      -2.2078      0.00000
     95      -2.2055      0.00000
     96      -2.0187      0.00000
     97      -2.0079      0.00000
     98      -1.9379      0.00000
     99      -1.9132      0.00000
    100      -0.7721      0.00000
    101      -0.7366      0.00000
    102      -0.7139      0.00000
    103      -0.7117      0.00000
    104      -0.6144      0.00000
    105      -0.6129      0.00000
    106       0.3217      0.00000
    107       0.3333      0.00000
    108       0.3770      0.00000
    109       0.3802      0.00000
    110       0.4860      0.00000
    111       0.5219      0.00000
    112       0.8986      0.00000
    113       0.9719      0.00000
    114       0.9940      0.00000
    115       1.0098      0.00000
    116       1.1064      0.00000
    117       1.1329      0.00000
    118       1.3304      0.00000
    119       1.4010      0.00000
    120       1.9544      0.00000

 k-point     3 :       0.2500    0.0000    0.0000
  band No.  band energies     occupation 
      1     -18.1365      2.00000
      2     -17.4625      2.00000
      3     -17.2609      2.00000
      4     -17.0314      2.00000
      5     -16.7879      2.00000
      6     -16.7160      2.00000
      7     -16.7089      2.00000
      8     -16.4516      2.00000
      9     -16.4388      2.00000
     10     -16.4157      2.00000
     11     -16.4056      2.00000
     12     -16.3383      2.00000
     13     -16.2942      2.00000
[...]
    104      -0.4932      0.00000
    105      -0.3045      0.00000
    106      -0.2174      0.00000
    107      -0.1330      0.00000
    108      -0.1308      0.00000
    109       0.2387      0.00000
    110       0.2682      0.00000
    111       0.4994      0.00000
    112       1.1974      0.00000
    113       1.2438      0.00000
    114       1.2843      0.00000
    115       1.4343      0.00000
    116       1.4713      0.00000
    117       1.5170      0.00000
    118       2.1556      0.00000
    119       2.2687      0.00000
    120       2.4185      0.00000

 k-point    34 :       0.5000    0.5000    0.0000
  band No.  band energies     occupation 
      1     -17.4169      2.00000
      2     -17.4162      2.00000
      3     -16.7667      2.00000
      4     -16.6125      2.00000
      5     -16.4662      2.00000
      6     -16.4649      2.00000
      7     -16.2917      2.00000
      8     -16.0331      2.00000
      9     -16.0301      2.00000
     10     -15.9901      2.00000
     11     -15.9893      2.00000
     12     -15.8610      2.00000
     13     -15.8602      2.00000
     14     -15.6673      2.00000
     15     -15.6665      2.00000
     16     -15.5975      2.00000
     17     -15.5974      2.00000
     18     -15.4675      2.00000
     19      -9.7911      2.00000
     20      -9.2262      2.00000
     21      -9.2261      2.00000
     22      -9.0329      2.00000
     23      -9.0324      2.00000
     24      -8.7026      2.00000
     25      -8.7018      2.00000
     26      -8.4346      2.00000
     27      -8.3388      2.00000
     28      -8.3382      2.00000
     29      -8.2579      2.00000
     30      -8.2577      2.00000
     31      -8.1494      2.00000
     32      -8.0212      2.00000
     33      -7.8633      2.00000
     34      -7.6897      2.00000
     35      -7.6351      2.00000
     36      -7.6329      2.00000
     37      -7.6167      2.00000
     38      -7.4940      2.00000
     39      -7.2084      2.00000
     40      -7.2074      2.00000
     41      -7.1761      2.00000
     42      -7.0764      2.00000
     43      -7.0754      2.00000
     44      -6.8466      2.00000
     45      -6.8460      2.00000
     46      -6.7214      2.00000
     47      -6.7210      2.00000
     48      -6.6810      2.00000
     49      -6.4613      2.00000
     50      -6.4609      2.00000
     51      -6.3348      2.00000
     52      -6.3342      2.00000
     53      -6.2602      2.00000
     54      -6.2138      2.00000
     55      -6.0965      2.00000
     56      -6.0961      2.00000
     57      -5.9536      2.00000
     58      -5.8121      2.00000
     59      -5.8064      2.00000
     60      -5.8062      2.00000
     61      -5.7164      2.00000
     62      -5.7158      2.00000
     63      -5.7145      2.00000
     64      -5.5953      2.00000
     65      -5.5943      2.00000
     66      -5.0060      2.00000
     67      -4.9605      2.00000
     68      -4.9593      2.00000
     69      -4.8238      2.00000
     70      -4.5674      2.00000
     71      -4.4255      2.00000
     72      -4.4146      2.00000
     73      -4.4143      2.00000
     74      -3.6238      1.99999
     75      -3.6234      1.99999
     76      -3.3980      1.99659
     77      -3.1955      1.86550
     78      -3.1919      1.85858
     79      -3.1885      1.85205
     80      -3.1723      1.81719
     81      -3.1699      1.81150
     82      -2.6407      0.01523
     83      -2.5061      0.00073
     84      -2.3366      0.00000
     85      -2.3344      0.00000
     86      -2.2247      0.00000
     87      -2.2236      0.00000
     88      -2.1416      0.00000
     89      -2.1397      0.00000
     90      -1.8317      0.00000
     91      -1.8283      0.00000
     92      -1.8149      0.00000
     93      -1.6778      0.00000
     94      -1.2432      0.00000
     95      -1.2426      0.00000
     96      -1.2174      0.00000
     97      -1.2028      0.00000
     98      -1.2015      0.00000
     99      -1.0363      0.00000
    100      -0.7661      0.00000
    101      -0.6353      0.00000
    102      -0.6337      0.00000
    103      -0.5015      0.00000
    104      -0.5003      0.00000
    105      -0.3302      0.00000
    106      -0.2298      0.00000
    107      -0.2288      0.00000
    108      -0.2110      0.00000
    109       0.2963      0.00000
    110       0.2970      0.00000
    111       0.5707      0.00000
    112       1.1755      0.00000
    113       1.2510      0.00000
    114       1.2516      0.00000
    115       1.4406      0.00000
    116       1.5334      0.00000
    117       1.5348      0.00000
    118       2.2548      0.00000
    119       2.2549      0.00000
    120       2.3748      0.00000


--------------------------------------------------------------------------------------------------------


 soft charge-density along one line, spin component           1
         0         1         2         3         4         5         6         7         8         9
 total charge-density along one line
 
 pseudopotential strength for first ion, spin component:           1
 -7.111  -0.012  -0.000   0.000   0.000   0.639   0.003   0.000
 -0.012  -7.017   0.000   0.000  -0.000   0.003   0.611  -0.000
 -0.000   0.000  -6.972   0.000   0.000   0.000  -0.000   0.599
  0.000   0.000   0.000  -7.018   0.013  -0.000  -0.000  -0.000
  0.000  -0.000   0.000   0.013  -7.111  -0.000   0.000  -0.000
  0.639   0.003   0.000  -0.000  -0.000   0.344  -0.000  -0.000
  0.003   0.611  -0.000  -0.000   0.000  -0.000   0.352   0.000
  0.000  -0.000   0.599  -0.000  -0.000  -0.000   0.000   0.355
 -0.000  -0.000  -0.000   0.611  -0.003   0.000   0.000   0.000
 -0.000   0.000  -0.000  -0.003   0.639   0.000  -0.000   0.000
 -0.000  -0.000  -0.021  -0.000   0.000   0.000   0.000   0.005
 -0.000  -0.000  -0.007  -0.000   0.000   0.000   0.000   0.002
 -0.000  -0.000  -0.000   0.000  -0.000   0.000   0.000   0.000
  0.000   0.000  -0.000  -0.000   0.000  -0.000  -0.000  -0.000
 -0.000   0.000  -0.000   0.000  -0.000   0.000  -0.000  -0.000
  0.000  -0.000  -0.000   0.000  -0.000  -0.000   0.000   0.000
  0.000   0.000  -0.000  -0.000   0.000  -0.000  -0.000   0.000
 -0.000   0.000  -0.000   0.000   0.000   0.000  -0.000   0.000
 total augmentation occupancy for first ion, spin component:           1
  0.822   0.089  -0.000   0.000   0.000   0.429   0.235  -0.000   0.000   0.000  -0.000   0.000  -0.000   0.000  -0.003  -0.000
  0.089   1.093   0.000  -0.000  -0.000   0.236   0.671   0.000  -0.000  -0.000  -0.000   0.000  -0.000   0.000   0.004   0.000
 -0.000   0.000   0.850   0.001   0.001  -0.000   0.000   0.330   0.000   0.000   0.203   0.006  -0.000   0.000  -0.000  -0.000
  0.000  -0.000   0.001   1.094  -0.088   0.000  -0.000   0.000   0.671  -0.236  -0.000   0.000  -0.003  -0.000   0.000  -0.000
  0.000  -0.000   0.001  -0.088   0.823   0.000  -0.000   0.000  -0.235   0.429   0.000  -0.000  -0.003   0.000  -0.000  -0.000
  0.429   0.236  -0.000   0.000   0.000   0.388   0.230  -0.000  -0.000   0.000   0.000   0.000  -0.000   0.000  -0.004  -0.000
  0.235   0.671   0.000  -0.000  -0.000   0.230   0.615  -0.000  -0.000   0.000  -0.000   0.000  -0.000   0.000   0.001  -0.000
 -0.000   0.000   0.330   0.000   0.000  -0.000  -0.000   0.290   0.000   0.000   0.055   0.011   0.000  -0.000   0.000   0.000
  0.000  -0.000   0.000   0.671  -0.235  -0.000  -0.000   0.000   0.615  -0.230  -0.000   0.000  -0.000  -0.000   0.000  -0.000
  0.000  -0.000   0.000  -0.236   0.429   0.000   0.000   0.000  -0.230   0.388  -0.000  -0.000  -0.004   0.000  -0.000  -0.001
 -0.000  -0.000   0.203  -0.000   0.000   0.000  -0.000   0.055  -0.000  -0.000   1.307   0.145   0.000   0.000  -0.000   0.000
  0.000   0.000   0.006   0.000  -0.000   0.000   0.000   0.011   0.000  -0.000   0.145   0.028   0.000   0.000  -0.000   0.000
 -0.000  -0.000  -0.000  -0.003  -0.003  -0.000  -0.000   0.000  -0.000  -0.004   0.000   0.000   0.340   0.000  -0.000   0.027
  0.000   0.000   0.000  -0.000   0.000   0.000   0.000  -0.000  -0.000   0.000   0.000   0.000   0.000   0.412  -0.000   0.000
 -0.003   0.004  -0.000   0.000  -0.000  -0.004   0.001   0.000   0.000  -0.000  -0.000  -0.000  -0.000  -0.000   0.340   0.000
 -0.000   0.000  -0.000  -0.000  -0.000  -0.000  -0.000   0.000  -0.000  -0.001   0.000   0.000   0.027   0.000   0.000   0.003
  0.000   0.000   0.000  -0.000   0.000   0.000   0.000   0.000  -0.000   0.000   0.000   0.000   0.000   0.031   0.000   0.000
 -0.000   0.000   0.000   0.000  -0.000  -0.001   0.000  -0.000   0.000  -0.000  -0.000  -0.000   0.000   0.000   0.027   0.000


------------------------ aborting loop because EDIFF is reached ----------------------------------------


    CHARGE:  cpu time    0.4629: real time    0.4640
    FORLOC:  cpu time    0.0064: real time    0.0064
    FORNL :  cpu time    5.1946: real time    5.2072
    STRESS:  cpu time   32.3954: real time   32.4728
    FORCOR:  cpu time    0.0337: real time    0.0340
    FORHAR:  cpu time    0.0123: real time    0.0124
    MIXING:  cpu time    0.0011: real time    0.0011
    OFIELD:  cpu time    0.0000: real time    0.0000

  FORCE on cell =-STRESS in cart. coord.  units (eV):
  Direction    XX          YY          ZZ          XY          YZ          ZX
  --------------------------------------------------------------------------------------
  Alpha Z    90.72693    90.72693    90.72693
  Ewald   49882.84236 49882.72975-54871.31313     0.00073     0.00131    -0.11033
  Hartree 50589.99645 50589.97123-50270.72663     0.00023     0.00034    -0.02176
  E(xc)    -609.21060  -609.20421  -618.60951    -0.00004    -0.00003     0.00293
  Local  ************************102577.51819    -0.00123    -0.00179     0.14785
  n-local  1208.44709  1208.40427  1257.35295     0.00004     0.00005    -0.00225
  augment  -212.07947  -212.06009  -215.17715    -0.00002    -0.00008     0.00623
  Kinetic  2015.63416  2015.59907  2048.59087     0.00039     0.00014    -0.03476
  Fock        0.00000     0.00000     0.00000     0.00000     0.00000     0.00000
  -------------------------------------------------------------------------------------
  Total       0.20506     0.21419    -1.63749     0.00010    -0.00006    -0.01208
  in kB       0.13923     0.14543    -1.11183     0.00007    -0.00004    -0.00820
  external pressure =       -0.28 kB  Pullay stress =        0.00 kB


 VOLUME and BASIS-vectors are now :
 -----------------------------------------------------------------------------
  energy-cutoff  :      280.00
  volume of cell :     2359.67
      direct lattice vectors                 reciprocal lattice vectors
     8.253078456  4.765222863  0.000000000     0.060583497  0.104926813  0.000000000
    -8.253083921  4.765232722  0.000000000    -0.060583371  0.104926744  0.000000000
     0.000000000  0.000000000 30.000000000     0.000000000  0.000000000  0.033333333

  length of vectors
     9.529987038  9.529996700 30.000000000     0.121161034  0.121160911  0.033333333


 FORCES acting on ions
    electron-ion (+dipol)            ewald-force                    non-local-force                 convergence-correction
 -----------------------------------------------------------------------------------------------
   -.233E-01 0.672E-01 -.676E-02   0.274E-01 -.571E-01 0.529E-02   0.223E-03 0.156E-02 0.173E-03   -.392E-02 -.945E-02 0.144E-02
   -.127E-02 0.987E-01 0.221E-01   0.803E-02 -.107E+00 -.217E-01   0.600E-03 -.145E-03 0.842E-03   -.657E-02 0.863E-02 -.138E-02
   0.221E-01 0.717E-01 -.160E-01   -.329E-01 -.732E-01 0.170E-01   -.768E-03 0.460E-03 -.118E-02   0.104E-01 0.184E-02 0.120E-03
   0.171E+00 0.103E+00 -.509E-02   -.111E+00 -.103E+00 0.513E-02   0.185E-02 -.209E-02 -.533E-03   -.569E-01 0.398E-02 -.482E-05
   -.388E-01 -.134E+00 -.125E-01   0.598E-02 0.865E-01 0.130E-01   -.159E-02 -.240E-02 -.876E-03   0.318E-01 0.472E-01 0.852E-05
   -.129E+00 0.156E+00 0.148E-01   0.102E+00 -.100E+00 -.156E-01   -.245E-03 0.824E-03 0.116E-02   0.250E-01 -.511E-01 0.186E-03
   -.105E+00 -.210E+00 0.149E-02   0.651E-01 0.155E+00 -.168E-02   -.190E-02 -.112E-02 0.997E-06   0.369E-01 0.490E-01 0.824E-04
   0.162E+00 -.189E+00 -.681E-03   -.934E-01 0.198E+00 0.597E-03   0.253E-02 0.285E-02 -.247E-04   -.642E-01 -.137E-01 0.380E-04
   -.576E-01 0.822E-01 -.268E-03   0.291E-01 -.465E-01 0.314E-03   -.613E-03 0.508E-04 -.119E-03   0.273E-01 -.366E-01 0.236E-04
   -.699E+00 0.136E+01 0.579E+03   0.772E+00 -.112E+01 -.583E+03   -.105E+00 -.283E+00 0.430E+01   0.293E-01 0.278E-01 0.447E-01
   0.677E+00 0.136E+01 -.579E+03   -.755E+00 -.110E+01 0.583E+03   0.104E+00 -.282E+00 -.430E+01   -.241E-01 0.147E-01 -.463E-01
   -.110E+01 -.123E+01 0.579E+03   0.775E+00 0.118E+01 -.583E+03   0.302E+00 0.498E-01 0.430E+01   0.274E-01 0.328E-02 0.469E-02
   0.915E+00 -.125E+01 -.578E+03   -.649E+00 0.120E+01 0.583E+03   -.308E+00 0.502E-01 -.430E+01   0.337E-01 -.155E-02 -.383E-01
   0.169E+01 -.292E+00 0.579E+03   -.147E+01 0.462E-01 -.583E+03   -.200E+00 0.231E+00 0.429E+01   -.269E-01 0.222E-01 0.147E-01
   -.163E+01 -.207E+00 -.579E+03   0.143E+01 -.185E-01 0.583E+03   0.202E+00 0.231E+00 -.430E+01   -.104E-02 0.183E-02 -.244E-02
   -.901E+00 -.125E+01 0.578E+03   0.652E+00 0.121E+01 -.583E+03   0.308E+00 0.497E-01 0.431E+01   -.505E-01 -.793E-02 0.310E-01
   0.118E+01 -.124E+01 -.579E+03   -.798E+00 0.120E+01 0.583E+03   -.303E+00 0.496E-01 -.431E+01   -.828E-01 -.508E-02 0.420E-01
   0.155E+01 -.114E+00 0.579E+03   -.137E+01 -.751E-01 -.583E+03   -.202E+00 0.237E+00 0.430E+01   0.195E-01 -.403E-01 0.355E-01
   -.158E+01 -.124E+00 -.579E+03   0.141E+01 -.750E-01 0.583E+03   0.202E+00 0.236E+00 -.430E+01   -.220E-01 -.293E-01 -.330E-01
   -.578E+00 0.150E+01 0.579E+03   0.713E+00 -.116E+01 -.583E+03   -.102E+00 -.279E+00 0.431E+01   -.363E-01 -.676E-01 -.387E-01
   0.553E+00 0.159E+01 -.579E+03   -.697E+00 -.124E+01 0.583E+03   0.101E+00 -.280E+00 -.430E+01   0.444E-01 -.723E-01 0.354E-01
   0.167E+01 -.275E+00 0.579E+03   -.145E+01 -.143E-01 -.583E+03   -.201E+00 0.231E+00 0.430E+01   -.282E-01 0.648E-01 -.425E-01
   -.171E+01 -.348E+00 -.579E+03   0.145E+01 0.492E-01 0.583E+03   0.199E+00 0.232E+00 -.430E+01   0.586E-01 0.743E-01 0.279E-01
   -.582E+00 0.153E+01 0.579E+03   0.698E+00 -.125E+01 -.583E+03   -.101E+00 -.279E+00 0.430E+01   -.175E-01 -.141E-01 0.141E-02
   0.630E+00 0.144E+01 -.579E+03   -.733E+00 -.117E+01 0.583E+03   0.102E+00 -.279E+00 -.430E+01   0.408E-02 0.358E-02 0.368E-02
   -.110E+01 -.126E+01 0.579E+03   0.719E+00 0.120E+01 -.583E+03   0.302E+00 0.499E-01 0.430E+01   0.826E-01 0.113E-01 -.300E-01
   0.100E+01 -.124E+01 -.579E+03   -.700E+00 0.118E+01 0.583E+03   -.303E+00 0.495E-01 -.430E+01   -.105E-01 0.134E-01 -.930E-02
 -----------------------------------------------------------------------------------------------
   0.816E-03 -.118E-01 -.145E-02   0.466E-13 -.273E-13 -.114E-12   -.578E-03 0.141E-01 0.580E-03   -.184E-03 -.964E-03 0.887E-03
 
 
 POSITION                                       TOTAL-FORCE (eV/Angst)
 -----------------------------------------------------------------------------------
     -0.00018      3.17713      0.00003         0.000425      0.002172      0.000139
     -5.50203      3.17732     -0.00009         0.000780     -0.000183     -0.000204
      5.50218      3.17712      0.00007        -0.001113      0.000792     -0.000117
      2.75172      4.76549      0.00003         0.005162      0.001236     -0.000502
     -0.00003     -0.00098      0.00005        -0.002648     -0.003074     -0.000410
     -2.75167      4.76543     -0.00007        -0.002427      0.005733      0.000598
      5.50157      6.35155     -0.00000        -0.004780     -0.007411     -0.000114
      2.75166      1.58604      0.00000         0.006417     -0.001580     -0.000071
     -0.00016      6.35265      0.00000        -0.001756     -0.000869     -0.000051
     -0.89985      1.63537     28.45195        -0.001975     -0.008627      0.000025
      0.89986      1.63538      1.54799         0.002218     -0.008786     -0.000582
     -3.71782      3.16724     28.45172         0.009133      0.001100      0.003605
     -1.78450      3.16724      1.54801        -0.009097      0.001709     -0.003648
     -6.38662      4.72559     28.45117        -0.005389      0.007468     -0.000597
     -4.61752      4.72554      1.54921         0.005266      0.007496      0.000712
      1.78450      3.16720     28.45208         0.008872      0.001443      0.004339
      3.71785      3.16721      1.54823        -0.007627      0.000894     -0.004923
     -0.88472      4.72581     28.45136        -0.005022      0.007743      0.000633
      0.88469      4.72582      1.54860         0.005012      0.007828     -0.002092
     -3.65070      6.40092     28.45132        -0.002204     -0.007360      0.001270
     -1.85132      6.40084      1.54844         0.001640     -0.007244     -0.002144
      4.61758      4.72553     28.45085        -0.004334      0.006698      0.001377
      6.38658      4.72558      1.54878         0.004460      0.006442      0.000139
      1.85126      6.40085     28.45160        -0.002480     -0.008348      0.002692
      3.65074      6.40092      1.54871         0.002753     -0.008213     -0.001126
     -0.96691      7.93244     28.45154         0.007779      0.001519      0.001524
      0.96687      7.93241      1.54841        -0.009063      0.001421     -0.000472
 -----------------------------------------------------------------------------------
    total drift:                                0.000054      0.001311      0.000021


--------------------------------------------------------------------------------------------------------



  FREE ENERGIE OF THE ION-ELECTRON SYSTEM (eV)
  ---------------------------------------------------
  free  energy   TOTEN  =      -191.04759766 eV

  energy  without entropy=     -190.89280881  energy(sigma->0) =     -190.97020324
 
 d Force = 0.2012472E-03[ 0.136E-03, 0.266E-03]  d Energy = 0.2855353E-03-0.843E-04
 d Force =-0.3821405E+01[-0.382E+01,-0.382E+01]  d Ewald  = 0.3218186E+02-0.360E+02


--------------------------------------------------------------------------------------------------------


    POTLOK:  cpu time    0.0337: real time    0.0338


--------------------------------------------------------------------------------------------------------


 Quasi-Newton relaxation of ions (Broydens 2nd method)
  g(Force)  = 0.801E-04   g(Stress)= 0.157E-03

 retain information from N=  1 steps
 eigenvalues of (default step * inverse Hessian matrix)
  average eigenvalue of G=   3.8654
 eigenvalue spectrum of G is  3.8654


--------------------------------------------------------------------------------------------------------


  
 reached required accuracy - stopping structural energy minimisation
     LOOP+:  cpu time  135.2386: real time  135.5913
    4ORBIT:  cpu time    0.0000: real time    0.0000

 total amount of memory used by VASP on root node   650782. kBytes
========================================================================

   base      :      30000. kBytes
   nonl-proj :     559647. kBytes
   fftplans  :       2414. kBytes
   grid      :      12150. kBytes
   one-center:        419. kBytes
   wavefun   :      46152. kBytes
 
  
  
 General timing and accounting informations for this job:
 ========================================================
  
                  Total CPU time used (sec):     2405.894
                            User time (sec):     2394.858
                          System time (sec):       11.036
                         Elapsed time (sec):     2412.405
  
                   Maximum memory used (kb):      735672.
                   Average memory used (kb):           0.
  
                          Minor page faults:       373100
                          Major page faults:            1
                 Voluntary context switches:         2675
