       N       E                     dE             d eps       ncg     rms          rms(c)
DAV:   1     0.112447799464E+04    0.11245E+04   -0.35858E+04  8160   0.577E+02
DAV:   2    -0.505579580165E+01   -0.11295E+04   -0.10883E+04 11480   0.173E+02
DAV:   3    -0.200079753174E+03   -0.19502E+03   -0.18778E+03 10880   0.819E+01
DAV:   4    -0.208955434958E+03   -0.88757E+01   -0.86387E+01 12120   0.260E+01
DAV:   5    -0.209272726285E+03   -0.31729E+00   -0.31647E+00 11520   0.362E+00    0.275E+01
DAV:   6    -0.237517077361E+03   -0.28244E+02   -0.10920E+02 12480   0.599E+01    0.594E+01
DAV:   7    -0.196677232813E+03    0.40840E+02   -0.17472E+02 13520   0.152E+02    0.202E+01
DAV:   8    -0.189727983348E+03    0.69492E+01   -0.18389E+01 12120   0.130E+01    0.130E+01
DAV:   9    -0.188204149667E+03    0.15238E+01   -0.32748E+00 12920   0.622E+00    0.938E+00
DAV:  10    -0.186933827759E+03    0.12703E+01   -0.17637E+00 13360   0.804E+00    0.213E+00
DAV:  11    -0.187005996908E+03   -0.72169E-01   -0.53443E-01 13320   0.242E+00    0.321E+00
DAV:  12    -0.186910682264E+03    0.95315E-01   -0.41381E-01 12960   0.308E+00    0.277E+00
DAV:  13    -0.186869122340E+03    0.41560E-01   -0.23873E-01 13240   0.278E+00    0.216E+00
DAV:  14    -0.186827492268E+03    0.41630E-01   -0.10564E-01 13040   0.174E+00    0.613E-01
DAV:  15    -0.186822215661E+03    0.52766E-02   -0.12274E-02 11640   0.390E-01    0.355E-01
DAV:  16    -0.186820340482E+03    0.18752E-02   -0.60663E-03 12800   0.357E-01    0.186E-01
DAV:  17    -0.186819831056E+03    0.50943E-03   -0.14600E-03 12680   0.174E-01    0.663E-02
DAV:  18    -0.186820432508E+03   -0.60145E-03   -0.10240E-03 10680   0.121E-01    0.136E-01
DAV:  19    -0.186820533040E+03   -0.10053E-03   -0.54108E-04 10000   0.121E-01    0.961E-02
DAV:  20    -0.186821304515E+03   -0.77148E-03   -0.38447E-04  7200   0.851E-02    0.627E-02
DAV:  21    -0.186821931214E+03   -0.62670E-03   -0.21814E-04  7440   0.532E-02    0.326E-02
DAV:  22    -0.186823254159E+03   -0.13229E-02   -0.17083E-04  7440   0.338E-02    0.100E-02
DAV:  23    -0.186823978907E+03   -0.72475E-03   -0.40092E-05  6800   0.169E-02    0.814E-03
DAV:  24    -0.186824332576E+03   -0.35367E-03   -0.14247E-05  6120   0.114E-02    0.601E-03
DAV:  25    -0.186824567962E+03   -0.23539E-03   -0.99194E-06  6200   0.799E-03    0.292E-03
DAV:  26    -0.186824794925E+03   -0.22696E-03   -0.69322E-06  6760   0.606E-03    0.172E-03
DAV:  27    -0.186824882497E+03   -0.87572E-04   -0.32958E-06  7280   0.380E-03
   1 F= -.18682488E+03 E0= -.18665369E+03  d E =-.186825E+03
       N       E                     dE             d eps       ncg     rms          rms(c)
DAV:   1    -0.187493771409E+03   -0.66898E+00   -0.27469E+02  8160   0.352E+01    0.462E+00
DAV:   2    -0.189371742688E+03   -0.18780E+01   -0.20027E+01 12240   0.152E+01    0.856E+00
DAV:   3    -0.189332946960E+03    0.38796E-01   -0.35708E+00 12360   0.119E+01    0.651E+00
DAV:   4    -0.188748444435E+03    0.58450E+00   -0.65338E-01 12560   0.470E+00    0.177E+00
DAV:   5    -0.188746326057E+03    0.21184E-02   -0.28990E-01 10120   0.158E+00    0.226E+00
DAV:   6    -0.188712455288E+03    0.33871E-01   -0.33209E-01 12280   0.238E+00    0.232E+00
DAV:   7    -0.188702991662E+03    0.94636E-02   -0.20745E-01 12800   0.263E+00    0.225E+00
DAV:   8    -0.188660836349E+03    0.42155E-01   -0.85352E-02 12840   0.154E+00    0.455E-01
DAV:   9    -0.188658090808E+03    0.27455E-02   -0.78759E-03 10200   0.294E-01    0.187E-01
DAV:  10    -0.188657857857E+03    0.23295E-03   -0.26925E-03 12400   0.178E-01    0.153E-01
DAV:  11    -0.188657949702E+03   -0.91845E-04   -0.18940E-03 13520   0.218E-01    0.219E-01
DAV:  12    -0.188657768510E+03    0.18119E-03   -0.12071E-03 10360   0.195E-01    0.114E-01
DAV:  13    -0.188657704223E+03    0.64287E-04   -0.23466E-04  7360   0.744E-02
   2 F= -.18865770E+03 E0= -.18851820E+03  d E =-.183282E+01
       N       E                     dE             d eps       ncg     rms          rms(c)
DAV:   1    -0.190579465547E+03   -0.19217E+01   -0.31279E+01  9160   0.142E+01    0.442E+00
DAV:   2    -0.190511820998E+03    0.67645E-01   -0.27203E+00 11480   0.933E+00    0.706E+00
DAV:   3    -0.190066583356E+03    0.44524E+00   -0.12873E+00 12360   0.854E+00    0.417E+00
DAV:   4    -0.189855575033E+03    0.21101E+00   -0.67601E-01 13080   0.430E+00    0.243E+00
DAV:   5    -0.189766351332E+03    0.89224E-01   -0.28722E-01 11840   0.197E+00    0.850E-01
DAV:   6    -0.189756366706E+03    0.99846E-02   -0.44645E-02 11680   0.101E+00    0.694E-01
DAV:   7    -0.189753423893E+03    0.29428E-02   -0.12780E-02 11760   0.641E-01    0.271E-01
DAV:   8    -0.189752870056E+03    0.55384E-03   -0.19317E-03 12360   0.183E-01    0.119E-01
DAV:   9    -0.189753325288E+03   -0.45523E-03   -0.96813E-04 10320   0.106E-01    0.129E-01
DAV:  10    -0.189753029668E+03    0.29562E-03   -0.51799E-04 10800   0.763E-02    0.260E-02
DAV:  11    -0.189753048923E+03   -0.19255E-04   -0.64480E-05  7280   0.265E-02
   3 F= -.18975305E+03 E0= -.18963464E+03  d E =-.109534E+01
       N       E                     dE             d eps       ncg     rms          rms(c)
DAV:   1    -0.191358332638E+03   -0.16053E+01   -0.79799E+01  8160   0.203E+01    0.462E+00
DAV:   2    -0.191162757062E+03    0.19558E+00   -0.53991E+00 13040   0.761E+00    0.450E+00
DAV:   3    -0.191301362297E+03   -0.13861E+00   -0.15079E+00 12240   0.908E+00    0.651E+00
DAV:   4    -0.190904861087E+03    0.39650E+00   -0.12626E+00 13040   0.769E+00    0.277E+00
DAV:   5    -0.190789002514E+03    0.11586E+00   -0.31361E-01 11400   0.241E+00    0.118E+00
DAV:   6    -0.190786735282E+03    0.22672E-02   -0.11628E-01 11960   0.207E+00    0.154E+00
DAV:   7    -0.190768460891E+03    0.18274E-01   -0.57740E-02 11680   0.160E+00    0.557E-01
DAV:   8    -0.190764273653E+03    0.41872E-02   -0.72591E-03 11680   0.453E-01    0.183E-01
DAV:   9    -0.190764893752E+03   -0.62010E-03   -0.25084E-03 12600   0.311E-01    0.297E-01
DAV:  10    -0.190764593451E+03    0.30030E-03   -0.23850E-03 11280   0.303E-01    0.152E-01
DAV:  11    -0.190764314254E+03    0.27920E-03   -0.72131E-04 10240   0.113E-01    0.457E-02
DAV:  12    -0.190764317585E+03   -0.33312E-05   -0.10773E-04  7320   0.391E-02
   4 F= -.19076432E+03 E0= -.19066075E+03  d E =-.101127E+01
       N       E                     dE             d eps       ncg     rms          rms(c)
DAV:   1    -0.192092422839E+03   -0.13281E+01   -0.17324E+02  8160   0.292E+01    0.565E+00
DAV:   2    -0.191843093323E+03    0.24933E+00   -0.95193E+00 11200   0.803E+00    0.373E+00
DAV:   3    -0.191970682530E+03   -0.12759E+00   -0.19480E+00 11800   0.793E+00    0.762E+00
DAV:   4    -0.191777857961E+03    0.19282E+00   -0.25351E+00 11080   0.106E+01    0.461E+00
DAV:   5    -0.191576850922E+03    0.20101E+00   -0.65464E-01 12600   0.569E+00    0.329E+00
DAV:   6    -0.191442902303E+03    0.13395E+00   -0.26809E-01 12400   0.388E+00    0.140E+00
DAV:   7    -0.191425774923E+03    0.17127E-01   -0.60494E-02 12320   0.132E+00    0.560E-01
DAV:   8    -0.191420841423E+03    0.49335E-02   -0.10650E-02 10680   0.453E-01    0.224E-01
DAV:   9    -0.191421601327E+03   -0.75990E-03   -0.33746E-03 12360   0.274E-01    0.248E-01
DAV:  10    -0.191421276526E+03    0.32480E-03   -0.26101E-03 12040   0.350E-01    0.207E-01
DAV:  11    -0.191420932734E+03    0.34379E-03   -0.10336E-03 10320   0.210E-01    0.652E-02
DAV:  12    -0.191420903561E+03    0.29174E-04   -0.12638E-04  6560   0.592E-02
   5 F= -.19142090E+03 E0= -.19131901E+03  d E =-.656586E+00
       N       E                     dE             d eps       ncg     rms          rms(c)
DAV:   1    -0.191464181292E+03   -0.43249E-01   -0.37838E+00  8160   0.410E+00    0.533E-01
DAV:   2    -0.191502056042E+03   -0.37875E-01   -0.21281E-01 13600   0.232E+00    0.160E+00
DAV:   3    -0.191475641254E+03    0.26415E-01   -0.55714E-02 12520   0.173E+00    0.388E-01
DAV:   4    -0.191476756050E+03   -0.11148E-02   -0.10723E-02 11240   0.678E-01    0.556E-01
DAV:   5    -0.191473659040E+03    0.30970E-02   -0.68381E-03 10400   0.553E-01    0.186E-01
DAV:   6    -0.191473510059E+03    0.14898E-03   -0.19831E-03 11120   0.191E-01    0.999E-02
DAV:   7    -0.191473260185E+03    0.24987E-03   -0.76281E-04  9920   0.986E-02    0.312E-02
DAV:   8    -0.191473265899E+03   -0.57140E-05   -0.10460E-04  6760   0.380E-02
   6 F= -.19147327E+03 E0= -.19136961E+03  d E =-.523623E-01
       N       E                     dE             d eps       ncg     rms          rms(c)
DAV:   1    -0.191518074888E+03   -0.44815E-01   -0.44611E+00  8160   0.445E+00    0.493E-01
DAV:   2    -0.191537218401E+03   -0.19144E-01   -0.13520E-01 13520   0.148E+00    0.110E+00
DAV:   3    -0.191525251501E+03    0.11967E-01   -0.37920E-02 12440   0.141E+00    0.475E-01
DAV:   4    -0.191524983310E+03    0.26819E-03   -0.94872E-03 11440   0.622E-01    0.486E-01
DAV:   5    -0.191522860413E+03    0.21229E-02   -0.63458E-03 10760   0.541E-01    0.223E-01
DAV:   6    -0.191522570601E+03    0.28981E-03   -0.20523E-03 10400   0.229E-01    0.118E-01
DAV:   7    -0.191522540507E+03    0.30094E-04   -0.11274E-03 10480   0.193E-01    0.149E-01
DAV:   8    -0.191522339141E+03    0.20137E-03   -0.51652E-04  8560   0.158E-01    0.435E-02
DAV:   9    -0.191522335103E+03    0.40375E-05   -0.60803E-05  5880   0.447E-02
   7 F= -.19152234E+03 E0= -.19141727E+03  d E =-.490692E-01
       N       E                     dE             d eps       ncg     rms          rms(c)
DAV:   1    -0.191538418639E+03   -0.16079E-01   -0.42503E-01  8160   0.140E+00    0.192E-01
DAV:   2    -0.191540636592E+03   -0.22180E-02   -0.16159E-02 13560   0.612E-01    0.426E-01
DAV:   3    -0.191538654286E+03    0.19823E-02   -0.49337E-03 11760   0.510E-01    0.126E-01
DAV:   4    -0.191538470952E+03    0.18333E-03   -0.85421E-04 10280   0.148E-01    0.876E-02
DAV:   5    -0.191538519526E+03   -0.48574E-04   -0.68626E-04  9360   0.160E-01
   8 F= -.19153852E+03 E0= -.19143305E+03  d E =-.161844E-01
       N       E                     dE             d eps       ncg     rms          rms(c)
DAV:   1    -0.191525135500E+03    0.13335E-01   -0.58470E-01  8160   0.163E+00    0.242E-01
DAV:   2    -0.191535929440E+03   -0.10794E-01   -0.38336E-02 13560   0.100E+00    0.990E-01
DAV:   3    -0.191526184767E+03    0.97447E-02   -0.17547E-02 11480   0.917E-01    0.157E-01
DAV:   4    -0.191526035478E+03    0.14929E-03   -0.13239E-03 10280   0.156E-01    0.931E-02
DAV:   5    -0.191525870017E+03    0.16546E-03   -0.29985E-04  8720   0.742E-02    0.474E-02
DAV:   6    -0.191525981387E+03   -0.11137E-03   -0.37068E-04  9080   0.138E-01    0.108E-01
DAV:   7    -0.191525857648E+03    0.12374E-03   -0.27115E-04  7360   0.116E-01    0.360E-02
DAV:   8    -0.191525857152E+03    0.49610E-06   -0.68575E-05  5920   0.554E-02
   9 F= -.19152586E+03 E0= -.19142011E+03  d E =0.126624E-01
       N       E                     dE             d eps       ncg     rms          rms(c)
DAV:   1    -0.191563312751E+03   -0.37455E-01   -0.30073E+00  8160   0.366E+00    0.367E-01
DAV:   2    -0.191571188267E+03   -0.78755E-02   -0.80008E-02 12400   0.935E-01    0.573E-01
DAV:   3    -0.191568928929E+03    0.22593E-02   -0.16622E-02 12680   0.915E-01    0.437E-01
DAV:   4    -0.191567285554E+03    0.16434E-02   -0.44610E-03 11480   0.460E-01    0.252E-01
DAV:   5    -0.191567131955E+03    0.15360E-03   -0.32299E-03  9960   0.374E-01    0.256E-01
DAV:   6    -0.191566691998E+03    0.43996E-03   -0.20568E-03  9960   0.267E-01    0.111E-01
DAV:   7    -0.191566581232E+03    0.11077E-03   -0.66326E-04 10160   0.132E-01    0.768E-02
DAV:   8    -0.191566540809E+03    0.40423E-04   -0.22404E-04  6600   0.106E-01
  10 F= -.19156654E+03 E0= -.19146020E+03  d E =-.406837E-01
       N       E                     dE             d eps       ncg     rms          rms(c)
DAV:   1    -0.191570847358E+03   -0.42661E-02   -0.51000E-02  8160   0.499E-01    0.943E-02
DAV:   2    -0.191571427997E+03   -0.58064E-03   -0.30187E-03 11840   0.289E-01    0.275E-01
DAV:   3    -0.191570740465E+03    0.68753E-03   -0.17398E-03  9760   0.270E-01    0.771E-02
DAV:   4    -0.191570749902E+03   -0.94373E-05   -0.32114E-04  8080   0.121E-01
  11 F= -.19157075E+03 E0= -.19146478E+03  d E =-.420909E-02
       N       E                     dE             d eps       ncg     rms          rms(c)
DAV:   1    -0.191631588941E+03   -0.60848E-01   -0.53065E+00  8160   0.493E+00    0.629E-01
DAV:   2    -0.191653406901E+03   -0.21818E-01   -0.16982E-01 13600   0.188E+00    0.139E+00
DAV:   3    -0.191635900359E+03    0.17507E-01   -0.61912E-02 12400   0.166E+00    0.575E-01
DAV:   4    -0.191637094420E+03   -0.11941E-02   -0.21412E-02 12200   0.934E-01    0.768E-01
DAV:   5    -0.191631813475E+03    0.52809E-02   -0.13591E-02 11560   0.841E-01    0.307E-01
DAV:   6    -0.191630753046E+03    0.10604E-02   -0.42343E-03 10960   0.350E-01    0.114E-01
DAV:   7    -0.191630628806E+03    0.12424E-03   -0.12118E-03 10760   0.155E-01    0.963E-02
DAV:   8    -0.191630591319E+03    0.37487E-04   -0.50696E-04  9360   0.156E-01
  12 F= -.19163059E+03 E0= -.19152512E+03  d E =-.598414E-01
       N       E                     dE             d eps       ncg     rms          rms(c)
DAV:   1    -0.191650078175E+03   -0.19449E-01   -0.51631E-01  8160   0.152E+00    0.162E-01
DAV:   2    -0.191651330414E+03   -0.12522E-02   -0.13929E-02 12280   0.347E-01    0.251E-01
DAV:   3    -0.191651210673E+03    0.11974E-03   -0.39751E-03 11040   0.400E-01    0.252E-01
DAV:   4    -0.191650701508E+03    0.50916E-03   -0.14340E-03  9520   0.236E-01    0.103E-01
DAV:   5    -0.191650658458E+03    0.43050E-04   -0.43343E-04  8400   0.156E-01
  13 F= -.19165066E+03 E0= -.19154539E+03  d E =-.200671E-01
       N       E                     dE             d eps       ncg     rms          rms(c)
DAV:   1    -0.191694612844E+03   -0.43911E-01   -0.27810E+00  8160   0.352E+00    0.365E-01
DAV:   2    -0.191703785397E+03   -0.91726E-02   -0.70485E-02 12280   0.932E-01    0.804E-01
DAV:   3    -0.191698827951E+03    0.49574E-02   -0.23715E-02 11200   0.979E-01    0.427E-01
DAV:   4    -0.191698183833E+03    0.64412E-03   -0.61999E-03 11360   0.502E-01    0.343E-01
DAV:   5    -0.191697015058E+03    0.11688E-02   -0.29070E-03 11600   0.418E-01    0.160E-01
DAV:   6    -0.191696840452E+03    0.17461E-03   -0.12869E-03 11160   0.207E-01    0.845E-02
DAV:   7    -0.191696774982E+03    0.65470E-04   -0.48570E-04 10520   0.106E-01
  14 F= -.19169677E+03 E0= -.19159355E+03  d E =-.461165E-01
       N       E                     dE             d eps       ncg     rms          rms(c)
DAV:   1    -0.191694924597E+03    0.19159E-02   -0.31638E-02  8160   0.403E-01    0.104E-01
DAV:   2    -0.191696899577E+03   -0.19750E-02   -0.50078E-03 12120   0.495E-01    0.455E-01
DAV:   3    -0.191694789448E+03    0.21101E-02   -0.31481E-03 10400   0.420E-01    0.468E-02
DAV:   4    -0.191694798815E+03   -0.93672E-05   -0.12265E-04  6040   0.618E-02
  15 F= -.19169480E+03 E0= -.19159115E+03  d E =0.197617E-02
       N       E                     dE             d eps       ncg     rms          rms(c)
DAV:   1    -0.191759932821E+03   -0.65143E-01   -0.44384E+00  8160   0.458E+00    0.685E-01
DAV:   2    -0.191782027933E+03   -0.22095E-01   -0.16762E-01 13480   0.197E+00    0.161E+00
DAV:   3    -0.191759977156E+03    0.22051E-01   -0.74419E-02 12120   0.183E+00    0.632E-01
DAV:   4    -0.191761864983E+03   -0.18878E-02   -0.26033E-02 12320   0.110E+00    0.840E-01
DAV:   5    -0.191754710823E+03    0.71542E-02   -0.16245E-02 12000   0.945E-01    0.305E-01
DAV:   6    -0.191754118660E+03    0.59216E-03   -0.59042E-03 10600   0.442E-01    0.278E-01
DAV:   7    -0.191753731709E+03    0.38695E-03   -0.31711E-03 11520   0.405E-01    0.203E-01
DAV:   8    -0.191753299527E+03    0.43218E-03   -0.89036E-04  8840   0.201E-01    0.456E-02
DAV:   9    -0.191753263423E+03    0.36105E-04   -0.10168E-04  6560   0.415E-02
  16 F= -.19175326E+03 E0= -.19165105E+03  d E =-.584646E-01
       N       E                     dE             d eps       ncg     rms          rms(c)
DAV:   1    -0.191791204396E+03   -0.37905E-01   -0.19868E+00  8160   0.298E+00    0.351E-01
DAV:   2    -0.191799943736E+03   -0.87393E-02   -0.66224E-02 12160   0.104E+00    0.817E-01
DAV:   3    -0.191794789370E+03    0.51544E-02   -0.23011E-02 12120   0.101E+00    0.427E-01
DAV:   4    -0.191793095204E+03    0.16942E-02   -0.46863E-03 10720   0.399E-01    0.177E-01
DAV:   5    -0.191793288326E+03   -0.19312E-03   -0.25640E-03 11640   0.345E-01    0.265E-01
DAV:   6    -0.191792739744E+03    0.54858E-03   -0.18648E-03 10560   0.310E-01    0.120E-01
DAV:   7    -0.191792746213E+03   -0.64692E-05   -0.75853E-04 10120   0.183E-01
  17 F= -.19179275E+03 E0= -.19169225E+03  d E =-.394828E-01
       N       E                     dE             d eps       ncg     rms          rms(c)
DAV:   1    -0.191842813346E+03   -0.50074E-01   -0.33145E+00  8160   0.386E+00    0.466E-01
DAV:   2    -0.191865654649E+03   -0.22841E-01   -0.11971E-01 12240   0.167E+00    0.148E+00
DAV:   3    -0.191847466178E+03    0.18188E-01   -0.51674E-02 12120   0.146E+00    0.415E-01
DAV:   4    -0.191846779689E+03    0.68649E-03   -0.73757E-03 11440   0.545E-01    0.353E-01
DAV:   5    -0.191845554324E+03    0.12254E-02   -0.38996E-03 12520   0.494E-01    0.214E-01
DAV:   6    -0.191845100872E+03    0.45345E-03   -0.21127E-03 12280   0.285E-01    0.987E-02
DAV:   7    -0.191845166259E+03   -0.65386E-04   -0.84435E-04 10440   0.173E-01
  18 F= -.19184517E+03 E0= -.19174684E+03  d E =-.524200E-01
       N       E                     dE             d eps       ncg     rms          rms(c)
DAV:   1    -0.191948555876E+03   -0.10346E+00   -0.31763E+01  8160   0.119E+01    0.131E+00
DAV:   2    -0.192155271474E+03   -0.20672E+00   -0.10804E+00 11440   0.471E+00    0.468E+00
DAV:   3    -0.192003676814E+03    0.15159E+00   -0.45362E-01 12240   0.437E+00    0.109E+00
DAV:   4    -0.191990857822E+03    0.12819E-01   -0.41649E-02 10960   0.109E+00    0.705E-01
DAV:   5    -0.191989432587E+03    0.14252E-02   -0.24708E-02 11600   0.121E+00    0.819E-01
DAV:   6    -0.191984509682E+03    0.49229E-02   -0.19685E-02 12400   0.102E+00    0.415E-01
DAV:   7    -0.191984607898E+03   -0.98216E-04   -0.88554E-03 11440   0.681E-01    0.417E-01
DAV:   8    -0.191982445588E+03    0.21623E-02   -0.38919E-03 11560   0.507E-01    0.970E-02
DAV:   9    -0.191982313040E+03    0.13255E-03   -0.56712E-04 10520   0.115E-01    0.434E-02
DAV:  10    -0.191982268712E+03    0.44328E-04   -0.15858E-04  7320   0.443E-02
  19 F= -.19198227E+03 E0= -.19188720E+03  d E =-.137102E+00
       N       E                     dE             d eps       ncg     rms          rms(c)
DAV:   1    -0.191996022448E+03   -0.13709E-01   -0.55766E-01  8160   0.172E+00    0.387E-01
DAV:   2    -0.191999261688E+03   -0.32392E-02   -0.37298E-02 10320   0.986E-01    0.803E-01
DAV:   3    -0.191994435033E+03    0.48267E-02   -0.19534E-02 11640   0.101E+00    0.411E-01
DAV:   4    -0.191993043352E+03    0.13917E-02   -0.59863E-03 11520   0.531E-01    0.297E-01
DAV:   5    -0.191992767695E+03    0.27566E-03   -0.42479E-03 10720   0.508E-01    0.280E-01
DAV:   6    -0.191992056721E+03    0.71097E-03   -0.23756E-03 11640   0.337E-01    0.173E-01
DAV:   7    -0.191991761804E+03    0.29492E-03   -0.72009E-04  8560   0.207E-01    0.480E-02
DAV:   8    -0.191991741930E+03    0.19874E-04   -0.75489E-05  6480   0.565E-02
  20 F= -.19199174E+03 E0= -.19189616E+03  d E =-.947322E-02
       N       E                     dE             d eps       ncg     rms          rms(c)
DAV:   1    -0.192018888553E+03   -0.27127E-01   -0.23849E+00  8160   0.325E+00    0.364E-01
DAV:   2    -0.192035798785E+03   -0.16910E-01   -0.89319E-02 11000   0.138E+00    0.118E+00
DAV:   3    -0.192023506471E+03    0.12292E-01   -0.30722E-02 12480   0.122E+00    0.327E-01
DAV:   4    -0.192022836987E+03    0.66948E-03   -0.38892E-03 11160   0.414E-01    0.228E-01
DAV:   5    -0.192022366290E+03    0.47070E-03   -0.21132E-03 12320   0.362E-01    0.153E-01
DAV:   6    -0.192022209174E+03    0.15712E-03   -0.88055E-04 10800   0.179E-01    0.778E-02
DAV:   7    -0.192022228610E+03   -0.19436E-04   -0.52966E-04 10120   0.141E-01
  21 F= -.19202223E+03 E0= -.19192719E+03  d E =-.304867E-01
       N       E                     dE             d eps       ncg     rms          rms(c)
DAV:   1    -0.192040449579E+03   -0.18240E-01   -0.11077E+00  8160   0.225E+00    0.308E-01
DAV:   2    -0.192050820399E+03   -0.10371E-01   -0.54375E-02 12080   0.112E+00    0.996E-01
DAV:   3    -0.192042315460E+03    0.85049E-02   -0.20652E-02 12240   0.980E-01    0.234E-01
DAV:   4    -0.192041685178E+03    0.63028E-03   -0.18479E-03 11440   0.222E-01    0.117E-01
DAV:   5    -0.192041665369E+03    0.19808E-04   -0.92324E-04 11360   0.206E-01
  22 F= -.19204167E+03 E0= -.19194629E+03  d E =-.194368E-01
       N       E                     dE             d eps       ncg     rms          rms(c)
DAV:   1    -0.192088113251E+03   -0.46428E-01   -0.21790E+01  8160   0.100E+01    0.136E+00
DAV:   2    -0.192279546239E+03   -0.19143E+00   -0.99672E-01 11280   0.462E+00    0.481E+00
DAV:   3    -0.192120267402E+03    0.15928E+00   -0.42985E-01 12240   0.432E+00    0.100E+00
DAV:   4    -0.192106092630E+03    0.14175E-01   -0.39457E-02 12240   0.105E+00    0.765E-01
DAV:   5    -0.192106446348E+03   -0.35372E-03   -0.37123E-02 12480   0.146E+00    0.863E-01
DAV:   6    -0.192099781334E+03    0.66650E-02   -0.20392E-02 12280   0.983E-01    0.367E-01
DAV:   7    -0.192098863323E+03    0.91801E-03   -0.81181E-03 11720   0.668E-01    0.306E-01
DAV:   8    -0.192097711973E+03    0.11514E-02   -0.22927E-03 11720   0.376E-01    0.750E-02
DAV:   9    -0.192097650519E+03    0.61454E-04   -0.35120E-04  9320   0.736E-02
  23 F= -.19209765E+03 E0= -.19200156E+03  d E =-.559851E-01
       N       E                     dE             d eps       ncg     rms          rms(c)
DAV:   1    -0.192104893593E+03   -0.71816E-02   -0.11755E+00  8160   0.229E+00    0.277E-01
DAV:   2    -0.192113549202E+03   -0.86556E-02   -0.56067E-02 10560   0.114E+00    0.750E-01
DAV:   3    -0.192108296330E+03    0.52529E-02   -0.14400E-02 12280   0.875E-01    0.283E-01
DAV:   4    -0.192107940860E+03    0.35547E-03   -0.27672E-03 10960   0.375E-01    0.215E-01
DAV:   5    -0.192107457148E+03    0.48371E-03   -0.14916E-03 10280   0.292E-01    0.111E-01
DAV:   6    -0.192107412456E+03    0.44691E-04   -0.69203E-04 11280   0.124E-01
  24 F= -.19210741E+03 E0= -.19201149E+03  d E =-.976194E-02
       N       E                     dE             d eps       ncg     rms          rms(c)
DAV:   1    -0.192111159526E+03   -0.37024E-02   -0.53685E-01  8160   0.155E+00    0.181E-01
DAV:   2    -0.192113841610E+03   -0.26821E-02   -0.25648E-02 11360   0.526E-01    0.311E-01
DAV:   3    -0.192113375759E+03    0.46585E-03   -0.45634E-03 12560   0.490E-01    0.245E-01
DAV:   4    -0.192112896621E+03    0.47914E-03   -0.11903E-03  9960   0.243E-01    0.122E-01
DAV:   5    -0.192112787347E+03    0.10927E-03   -0.54493E-04  8840   0.181E-01    0.821E-02
DAV:   6    -0.192112839185E+03   -0.51839E-04   -0.40701E-04  9360   0.135E-01
  25 F= -.19211284E+03 E0= -.19201730E+03  d E =-.542673E-02
       N       E                     dE             d eps       ncg     rms          rms(c)
DAV:   1    -0.192115533532E+03   -0.27462E-02   -0.36403E-01  8160   0.129E+00    0.168E-01
DAV:   2    -0.192118414189E+03   -0.28807E-02   -0.16467E-02 12520   0.607E-01    0.462E-01
DAV:   3    -0.192116370834E+03    0.20434E-02   -0.50065E-03 12320   0.528E-01    0.160E-01
DAV:   4    -0.192116339456E+03    0.31377E-04   -0.99646E-04  9360   0.231E-01
  26 F= -.19211634E+03 E0= -.19202047E+03  d E =-.350027E-02
       N       E                     dE             d eps       ncg     rms          rms(c)
DAV:   1    -0.192116580058E+03   -0.20922E-03   -0.15718E-02  8160   0.295E-01    0.680E-02
DAV:   2    -0.192116993211E+03   -0.41315E-03   -0.12604E-03 10760   0.236E-01    0.206E-01
DAV:   3    -0.192116555032E+03    0.43818E-03   -0.79077E-04  9040   0.212E-01    0.541E-02
DAV:   4    -0.192116569523E+03   -0.14491E-04   -0.13257E-04  5880   0.977E-02
  27 F= -.19211657E+03 E0= -.19202125E+03  d E =-.230067E-03
       N       E                     dE             d eps       ncg     rms          rms(c)
DAV:   1    -0.192118190724E+03   -0.16357E-02   -0.12783E-01  8160   0.766E-01    0.984E-02
DAV:   2    -0.192119035982E+03   -0.84526E-03   -0.52521E-03 12640   0.295E-01    0.254E-01
DAV:   3    -0.192118462445E+03    0.57354E-03   -0.15820E-03 10880   0.289E-01    0.941E-02
DAV:   4    -0.192118406785E+03    0.55660E-04   -0.24688E-04  7360   0.102E-01
  28 F= -.19211841E+03 E0= -.19202294E+03  d E =-.183726E-02
       N       E                     dE             d eps       ncg     rms          rms(c)
DAV:   1    -0.192118494516E+03   -0.32071E-04   -0.15734E-03  9800   0.116E-01    0.440E-02
DAV:   2    -0.192118727528E+03   -0.23301E-03   -0.55310E-04  9200   0.185E-01    0.145E-01
DAV:   3    -0.192118474576E+03    0.25295E-03   -0.38556E-04  8760   0.156E-01    0.344E-02
DAV:   4    -0.192118474605E+03   -0.28997E-07   -0.45052E-05  5760   0.528E-02
  29 F= -.19211847E+03 E0= -.19202313E+03  d E =-.678198E-04
       N       E                     dE             d eps       ncg     rms          rms(c)
DAV:   1    -0.192119825465E+03   -0.13509E-02   -0.95922E-02  8160   0.661E-01    0.869E-02
DAV:   2    -0.192120454760E+03   -0.62929E-03   -0.40462E-03 11720   0.300E-01    0.210E-01
DAV:   3    -0.192120019046E+03    0.43571E-03   -0.11035E-03 10840   0.257E-01    0.836E-02
DAV:   4    -0.192120022118E+03   -0.30717E-05   -0.28634E-04  8280   0.123E-01
  30 F= -.19212002E+03 E0= -.19202441E+03  d E =-.154751E-02
       N       E                     dE             d eps       ncg     rms          rms(c)
DAV:   1    -0.192119879082E+03    0.13996E-03   -0.18015E-03 11360   0.120E-01    0.363E-02
DAV:   2    -0.192120059889E+03   -0.18081E-03   -0.45340E-04  9080   0.155E-01    0.130E-01
DAV:   3    -0.192119869341E+03    0.19055E-03   -0.29951E-04  8400   0.133E-01    0.301E-02
DAV:   4    -0.192119867885E+03    0.14568E-05   -0.32781E-05  5640   0.456E-02
  31 F= -.19211987E+03 E0= -.19202456E+03  d E =0.154233E-03
       N       E                     dE             d eps       ncg     rms          rms(c)
DAV:   1    -0.192120970335E+03   -0.11010E-02   -0.71810E-02  8160   0.572E-01    0.732E-02
DAV:   2    -0.192121451165E+03   -0.48083E-03   -0.29769E-03 12560   0.232E-01    0.188E-01
DAV:   3    -0.192121116712E+03    0.33445E-03   -0.83368E-04  9320   0.219E-01    0.689E-02
DAV:   4    -0.192121108460E+03    0.82521E-05   -0.18213E-04  6880   0.934E-02
  32 F= -.19212111E+03 E0= -.19202557E+03  d E =-.124058E-02
       N       E                     dE             d eps       ncg     rms          rms(c)
DAV:   1    -0.192120602912E+03    0.51380E-03   -0.10358E-02  8160   0.231E-01    0.294E-02
DAV:   2    -0.192120757347E+03   -0.15443E-03   -0.63010E-04 10560   0.134E-01    0.102E-01
DAV:   3    -0.192120631153E+03    0.12619E-03   -0.20620E-04  7200   0.113E-01    0.196E-02
DAV:   4    -0.192120635732E+03   -0.45794E-05   -0.25062E-05  5680   0.372E-02
  33 F= -.19212064E+03 E0= -.19202541E+03  d E =0.472728E-03
       N       E                     dE             d eps       ncg     rms          rms(c)
DAV:   1    -0.192121596365E+03   -0.96521E-03   -0.60593E-02  8160   0.525E-01    0.671E-02
DAV:   2    -0.192122014474E+03   -0.41811E-03   -0.26581E-03 12480   0.258E-01    0.170E-01
DAV:   3    -0.192121716666E+03    0.29781E-03   -0.66576E-04  9160   0.204E-01    0.608E-02
DAV:   4    -0.192121726175E+03   -0.95085E-05   -0.17892E-04  7120   0.977E-02
  34 F= -.19212173E+03 E0= -.19202617E+03  d E =-.109044E-02
       N       E                     dE             d eps       ncg     rms          rms(c)
DAV:   1    -0.192121722545E+03   -0.58792E-05   -0.49495E-04  8600   0.765E-02    0.255E-02
DAV:   2    -0.192121795604E+03   -0.73059E-04   -0.17542E-04  7760   0.100E-01
  35 F= -.19212180E+03 E0= -.19202613E+03  d E =-.694293E-04
       N       E                     dE             d eps       ncg     rms          rms(c)
DAV:   1    -0.192122751255E+03   -0.10287E-02   -0.80520E-02  8160   0.615E-01    0.932E-02
DAV:   2    -0.192123658940E+03   -0.90769E-03   -0.40348E-03 12640   0.379E-01    0.272E-01
DAV:   3    -0.192122850494E+03    0.80845E-03   -0.14526E-03 10360   0.303E-01    0.751E-02
DAV:   4    -0.192122881817E+03   -0.31323E-04   -0.29591E-04  8200   0.129E-01
  36 F= -.19212288E+03 E0= -.19202723E+03  d E =-.108621E-02
       N       E                     dE             d eps       ncg     rms          rms(c)
DAV:   1    -0.192124989836E+03   -0.21393E-02   -0.53404E-01  8160   0.157E+00    0.204E-01
DAV:   2    -0.192127518087E+03   -0.25283E-02   -0.19048E-02 12760   0.615E-01    0.425E-01
DAV:   3    -0.192125907939E+03    0.16101E-02   -0.50010E-03 12440   0.554E-01    0.210E-01
DAV:   4    -0.192125887433E+03    0.20506E-04   -0.16118E-03 10200   0.292E-01    0.205E-01
DAV:   5    -0.192125388510E+03    0.49892E-03   -0.10546E-03 10080   0.254E-01    0.654E-02
DAV:   6    -0.192125381600E+03    0.69099E-05   -0.28257E-04  8800   0.796E-02
  37 F= -.19212538E+03 E0= -.19203002E+03  d E =-.249978E-02
       N       E                     dE             d eps       ncg     rms          rms(c)
DAV:   1    -0.192126310799E+03   -0.92229E-03   -0.15885E-01  8160   0.853E-01    0.105E-01
DAV:   2    -0.192127059632E+03   -0.74883E-03   -0.64904E-03 12080   0.294E-01    0.215E-01
DAV:   3    -0.192126730334E+03    0.32930E-03   -0.13929E-03 10960   0.277E-01    0.116E-01
DAV:   4    -0.192126588147E+03    0.14219E-03   -0.23299E-04  7040   0.105E-01    0.395E-02
DAV:   5    -0.192126622190E+03   -0.34043E-04   -0.14713E-04  6800   0.904E-02
  38 F= -.19212662E+03 E0= -.19203117E+03  d E =-.124059E-02
       N       E                     dE             d eps       ncg     rms          rms(c)
DAV:   1    -0.192127647939E+03   -0.10598E-02   -0.27666E-01  8160   0.113E+00    0.138E-01
DAV:   2    -0.192128641468E+03   -0.99353E-03   -0.98677E-03 12680   0.375E-01    0.229E-01
DAV:   3    -0.192128271495E+03    0.36997E-03   -0.20012E-03 11880   0.352E-01    0.161E-01
DAV:   4    -0.192128154205E+03    0.11729E-03   -0.71291E-04  9160   0.198E-01    0.127E-01
DAV:   5    -0.192127994188E+03    0.16002E-03   -0.44023E-04  8640   0.163E-01    0.572E-02
DAV:   6    -0.192127980618E+03    0.13570E-04   -0.15766E-04  6640   0.790E-02
  39 F= -.19212798E+03 E0= -.19203225E+03  d E =-.135843E-02
       N       E                     dE             d eps       ncg     rms          rms(c)
DAV:   1    -0.192128051165E+03   -0.56977E-04   -0.39665E-03 10280   0.159E-01    0.521E-02
DAV:   2    -0.192128484546E+03   -0.43338E-03   -0.11025E-03 11080   0.236E-01    0.208E-01
DAV:   3    -0.192127999602E+03    0.48494E-03   -0.73970E-04  8560   0.208E-01    0.232E-02
DAV:   4    -0.192128005539E+03   -0.59363E-05   -0.37848E-05  5760   0.277E-02
  40 F= -.19212801E+03 E0= -.19203220E+03  d E =-.249208E-04
