       N       E                     dE             d eps       ncg     rms          rms(c)
DAV:   1     0.112415936891E+04    0.11242E+04   -0.35864E+04  8160   0.577E+02
DAV:   2    -0.547076433257E+00   -0.11247E+04   -0.10831E+04 10920   0.173E+02
DAV:   3    -0.199849991699E+03   -0.19930E+03   -0.19100E+03 11040   0.821E+01
DAV:   4    -0.209001475289E+03   -0.91515E+01   -0.88303E+01 11960   0.257E+01
DAV:   5    -0.209349801574E+03   -0.34833E+00   -0.34742E+00 11640   0.375E+00    0.275E+01
DAV:   6    -0.236558699219E+03   -0.27209E+02   -0.10042E+02 12920   0.596E+01    0.595E+01
DAV:   7    -0.196083679448E+03    0.40475E+02   -0.16748E+02 12560   0.146E+02    0.198E+01
DAV:   8    -0.189218315014E+03    0.68654E+01   -0.16379E+01 12120   0.123E+01    0.118E+01
DAV:   9    -0.188013661799E+03    0.12047E+01   -0.29949E+00 13400   0.662E+00    0.824E+00
DAV:  10    -0.187021831441E+03    0.99183E+00   -0.14398E+00 13200   0.677E+00    0.201E+00
DAV:  11    -0.187220436463E+03   -0.19861E+00   -0.80880E-01 13040   0.456E+00    0.480E+00
DAV:  12    -0.187060446318E+03    0.15999E+00   -0.39561E-01 12200   0.413E+00    0.344E+00
DAV:  13    -0.186941341541E+03    0.11910E+00   -0.20839E-01 12360   0.289E+00    0.122E+00
DAV:  14    -0.186934588850E+03    0.67527E-02   -0.46960E-02 12880   0.117E+00    0.103E+00
DAV:  15    -0.186928128303E+03    0.64605E-02   -0.15058E-02 13080   0.621E-01    0.590E-01
DAV:  16    -0.186923914901E+03    0.42134E-02   -0.88350E-03 13080   0.400E-01    0.168E-01
DAV:  17    -0.186923671386E+03    0.24352E-03   -0.34011E-03 11920   0.163E-01    0.203E-01
DAV:  18    -0.186923142644E+03    0.52874E-03   -0.15716E-03 12280   0.175E-01    0.862E-02
DAV:  19    -0.186923550062E+03   -0.40742E-03   -0.74668E-04 10760   0.796E-02    0.944E-02
DAV:  20    -0.186924095190E+03   -0.54513E-03   -0.63852E-04  9560   0.839E-02    0.790E-02
DAV:  21    -0.186925246585E+03   -0.11514E-02   -0.35535E-04  9120   0.750E-02    0.240E-02
DAV:  22    -0.186926163039E+03   -0.91645E-03   -0.96163E-05  7280   0.267E-02    0.273E-02
DAV:  23    -0.186926847504E+03   -0.68447E-03   -0.53424E-05  7200   0.221E-02    0.144E-02
DAV:  24    -0.186927526304E+03   -0.67880E-03   -0.49368E-05  7240   0.196E-02    0.101E-02
DAV:  25    -0.186927879454E+03   -0.35315E-03   -0.94970E-06  6320   0.133E-02    0.502E-03
DAV:  26    -0.186928115816E+03   -0.23636E-03   -0.79314E-06  6800   0.810E-03    0.310E-03
DAV:  27    -0.186928194562E+03   -0.78747E-04   -0.28430E-06  7200   0.557E-03
   1 F= -.18692819E+03 E0= -.18675597E+03  d E =-.186928E+03
       N       E                     dE             d eps       ncg     rms          rms(c)
DAV:   1    -0.187487558370E+03   -0.55944E+00   -0.26699E+02  8160   0.346E+01    0.463E+00
DAV:   2    -0.189404012794E+03   -0.19165E+01   -0.20560E+01 12920   0.154E+01    0.883E+00
DAV:   3    -0.189395257873E+03    0.87549E-02   -0.40610E+00 12320   0.117E+01    0.701E+00
DAV:   4    -0.188763616378E+03    0.63164E+00   -0.60201E-01 12120   0.457E+00    0.173E+00
DAV:   5    -0.188773064989E+03   -0.94486E-02   -0.31809E-01 10160   0.155E+00    0.235E+00
DAV:   6    -0.188715893239E+03    0.57172E-01   -0.29900E-01 12160   0.217E+00    0.199E+00
DAV:   7    -0.188722084591E+03   -0.61914E-02   -0.17576E-01 12200   0.261E+00    0.236E+00
DAV:   8    -0.188677770290E+03    0.44314E-01   -0.82655E-02 12840   0.154E+00    0.378E-01
DAV:   9    -0.188675753397E+03    0.20169E-02   -0.68206E-03 10640   0.291E-01    0.210E-01
DAV:  10    -0.188677129171E+03   -0.13758E-02   -0.46503E-03 13520   0.403E-01    0.483E-01
DAV:  11    -0.188675297454E+03    0.18317E-02   -0.36921E-03 12640   0.352E-01    0.105E-01
DAV:  12    -0.188675417018E+03   -0.11956E-03   -0.67179E-04 11520   0.976E-02    0.792E-02
DAV:  13    -0.188675349350E+03    0.67668E-04   -0.19366E-04  7920   0.467E-02
   2 F= -.18867535E+03 E0= -.18853339E+03  d E =-.174715E+01
       N       E                     dE             d eps       ncg     rms          rms(c)
DAV:   1    -0.190573836824E+03   -0.18984E+01   -0.30373E+01  8880   0.141E+01    0.447E+00
DAV:   2    -0.190675171878E+03   -0.10134E+00   -0.29224E+00 11360   0.101E+01    0.807E+00
DAV:   3    -0.190029072654E+03    0.64610E+00   -0.13790E+00 12280   0.857E+00    0.392E+00
DAV:   4    -0.189846501807E+03    0.18257E+00   -0.66529E-01 12280   0.364E+00    0.250E+00
DAV:   5    -0.189767702552E+03    0.78799E-01   -0.28862E-01 12040   0.195E+00    0.119E+00
DAV:   6    -0.189749466489E+03    0.18236E-01   -0.59832E-02 11880   0.135E+00    0.850E-01
DAV:   7    -0.189743934687E+03    0.55318E-02   -0.14442E-02 11480   0.709E-01    0.203E-01
DAV:   8    -0.189743961784E+03   -0.27097E-04   -0.20797E-03 12360   0.165E-01    0.147E-01
DAV:   9    -0.189744106902E+03   -0.14512E-03   -0.10807E-03 10640   0.146E-01    0.154E-01
DAV:  10    -0.189744599897E+03   -0.49299E-03   -0.14595E-03 10440   0.266E-01    0.260E-01
DAV:  11    -0.189743964169E+03    0.63573E-03   -0.85400E-04  9120   0.194E-01    0.218E-02
DAV:  12    -0.189743987979E+03   -0.23810E-04   -0.66814E-05  5720   0.279E-02
   3 F= -.18974399E+03 E0= -.18962430E+03  d E =-.106864E+01
       N       E                     dE             d eps       ncg     rms          rms(c)
DAV:   1    -0.191236483812E+03   -0.14925E+01   -0.63111E+01  8160   0.182E+01    0.464E+00
DAV:   2    -0.191351140298E+03   -0.11466E+00   -0.55892E+00 13560   0.100E+01    0.683E+00
DAV:   3    -0.191001251944E+03    0.34989E+00   -0.16824E+00 12040   0.922E+00    0.493E+00
DAV:   4    -0.190759394065E+03    0.24186E+00   -0.86783E-01 12280   0.506E+00    0.256E+00
DAV:   5    -0.190666710866E+03    0.92683E-01   -0.27696E-01 12160   0.209E+00    0.122E+00
DAV:   6    -0.190656998141E+03    0.97127E-02   -0.10562E-01 11720   0.197E+00    0.142E+00
DAV:   7    -0.190643671211E+03    0.13327E-01   -0.52034E-02 11400   0.159E+00    0.605E-01
DAV:   8    -0.190638766400E+03    0.49048E-02   -0.68124E-03 12280   0.476E-01    0.118E-01
DAV:   9    -0.190639326598E+03   -0.56020E-03   -0.19622E-03 10840   0.153E-01    0.153E-01
DAV:  10    -0.190639157562E+03    0.16904E-03   -0.90112E-04 10680   0.191E-01    0.116E-01
DAV:  11    -0.190639078751E+03    0.78812E-04   -0.31771E-04  7840   0.123E-01
   4 F= -.19063908E+03 E0= -.19053887E+03  d E =-.895091E+00
       N       E                     dE             d eps       ncg     rms          rms(c)
DAV:   1    -0.191939143330E+03   -0.13000E+01   -0.11427E+02  8160   0.242E+01    0.569E+00
DAV:   2    -0.192054107809E+03   -0.11496E+00   -0.93574E+00 13560   0.118E+01    0.707E+00
DAV:   3    -0.191732795356E+03    0.32131E+00   -0.23312E+00 11760   0.113E+01    0.628E+00
DAV:   4    -0.191363047141E+03    0.36975E+00   -0.13653E+00 12240   0.751E+00    0.316E+00
DAV:   5    -0.191205432611E+03    0.15761E+00   -0.42936E-01 12600   0.312E+00    0.159E+00
DAV:   6    -0.191202712142E+03    0.27205E-02   -0.18727E-01 12560   0.303E+00    0.196E+00
DAV:   7    -0.191169484126E+03    0.33228E-01   -0.88341E-02 12400   0.214E+00    0.550E-01
DAV:   8    -0.191164245697E+03    0.52384E-02   -0.90693E-03 11200   0.467E-01    0.148E-01
DAV:   9    -0.191165007465E+03   -0.76177E-03   -0.33113E-03 11360   0.237E-01    0.201E-01
DAV:  10    -0.191164739136E+03    0.26833E-03   -0.12556E-03 10440   0.261E-01    0.108E-01
DAV:  11    -0.191164655131E+03    0.84005E-04   -0.27311E-04  7440   0.106E-01
   5 F= -.19116466E+03 E0= -.19107377E+03  d E =-.525576E+00
       N       E                     dE             d eps       ncg     rms          rms(c)
DAV:   1    -0.191204872486E+03   -0.40133E-01   -0.36023E+00  8160   0.406E+00    0.521E-01
DAV:   2    -0.191216921166E+03   -0.12049E-01   -0.14433E-01 13200   0.127E+00    0.727E-01
DAV:   3    -0.191213449459E+03    0.34717E-02   -0.30746E-02 12400   0.122E+00    0.688E-01
DAV:   4    -0.191209447182E+03    0.40023E-02   -0.12064E-02 11280   0.806E-01    0.310E-01
DAV:   5    -0.191208020838E+03    0.14263E-02   -0.37676E-03 10160   0.380E-01    0.201E-01
DAV:   6    -0.191208257158E+03   -0.23632E-03   -0.25114E-03 12200   0.379E-01    0.233E-01
DAV:   7    -0.191207628752E+03    0.62841E-03   -0.94850E-04 10360   0.221E-01    0.345E-02
DAV:   8    -0.191207663579E+03   -0.34828E-04   -0.10899E-04  6080   0.662E-02
   6 F= -.19120766E+03 E0= -.19111417E+03  d E =-.430084E-01
       N       E                     dE             d eps       ncg     rms          rms(c)
DAV:   1    -0.191219919972E+03   -0.12291E-01   -0.32680E-01  8160   0.123E+00    0.174E-01
DAV:   2    -0.191220722020E+03   -0.80205E-03   -0.12522E-02 11640   0.367E-01    0.223E-01
DAV:   3    -0.191220667053E+03    0.54967E-04   -0.31126E-03 12440   0.411E-01    0.246E-01
DAV:   4    -0.191220089827E+03    0.57723E-03   -0.13762E-03  9800   0.275E-01    0.993E-02
DAV:   5    -0.191220015458E+03    0.74369E-04   -0.48825E-04  8960   0.139E-01
   7 F= -.19122002E+03 E0= -.19112544E+03  d E =-.123519E-01
       N       E                     dE             d eps       ncg     rms          rms(c)
DAV:   1    -0.191218710978E+03    0.13788E-02   -0.98821E-01  8160   0.237E+00    0.579E-01
DAV:   2    -0.191216364279E+03    0.23467E-02   -0.70964E-02 12480   0.101E+00    0.712E-01
DAV:   3    -0.191216777246E+03   -0.41297E-03   -0.30719E-02 11720   0.134E+00    0.798E-01
DAV:   4    -0.191210146602E+03    0.66306E-02   -0.15493E-02 11520   0.906E-01    0.341E-01
DAV:   5    -0.191210329614E+03   -0.18301E-03   -0.73694E-03 10400   0.618E-01    0.406E-01
DAV:   6    -0.191208310871E+03    0.20187E-02   -0.32937E-03 11920   0.408E-01    0.672E-02
DAV:   7    -0.191208375388E+03   -0.64516E-04   -0.42200E-04  9520   0.101E-01
   8 F= -.19120838E+03 E0= -.19111545E+03  d E =0.116401E-01
       N       E                     dE             d eps       ncg     rms          rms(c)
DAV:   1    -0.191288659983E+03   -0.80349E-01   -0.65825E+00  8160   0.566E+00    0.948E-01
DAV:   2    -0.191297726033E+03   -0.90661E-02   -0.25618E-01 12920   0.197E+00    0.135E+00
DAV:   3    -0.191289477020E+03    0.82490E-02   -0.87988E-02 12200   0.225E+00    0.113E+00
DAV:   4    -0.191276144188E+03    0.13333E-01   -0.36399E-02 12360   0.134E+00    0.601E-01
DAV:   5    -0.191275885526E+03    0.25866E-03   -0.21668E-02 10760   0.103E+00    0.727E-01
DAV:   6    -0.191270520967E+03    0.53646E-02   -0.12785E-02 11840   0.792E-01    0.211E-01
DAV:   7    -0.191269958910E+03    0.56206E-03   -0.21345E-03 10760   0.233E-01    0.808E-02
DAV:   8    -0.191270010660E+03   -0.51750E-04   -0.64131E-04 11160   0.169E-01
   9 F= -.19127001E+03 E0= -.19117268E+03  d E =-.616353E-01
       N       E                     dE             d eps       ncg     rms          rms(c)
DAV:   1    -0.191291232971E+03   -0.21274E-01   -0.71025E-01  8160   0.183E+00    0.280E-01
DAV:   2    -0.191293060157E+03   -0.18272E-02   -0.30804E-02 12720   0.644E-01    0.409E-01
DAV:   3    -0.191291986377E+03    0.10738E-02   -0.77984E-03 11800   0.637E-01    0.320E-01
DAV:   4    -0.191291175916E+03    0.81046E-03   -0.33721E-03 10800   0.393E-01    0.195E-01
DAV:   5    -0.191290910305E+03    0.26561E-03   -0.17798E-03  9680   0.303E-01    0.182E-01
DAV:   6    -0.191290605394E+03    0.30491E-03   -0.91424E-04  9680   0.221E-01    0.718E-02
DAV:   7    -0.191290547503E+03    0.57891E-04   -0.13798E-04  6080   0.741E-02
  10 F= -.19129055E+03 E0= -.19119286E+03  d E =-.205368E-01
       N       E                     dE             d eps       ncg     rms          rms(c)
DAV:   1    -0.191340461708E+03   -0.49856E-01   -0.30578E+00  8160   0.371E+00    0.389E-01
DAV:   2    -0.191349525662E+03   -0.90640E-02   -0.81856E-02 13560   0.105E+00    0.688E-01
DAV:   3    -0.191345883987E+03    0.36417E-02   -0.20006E-02 12120   0.103E+00    0.482E-01
DAV:   4    -0.191343716628E+03    0.21674E-02   -0.56699E-03 11440   0.515E-01    0.198E-01
DAV:   5    -0.191343314306E+03    0.40232E-03   -0.19623E-03 11720   0.289E-01    0.184E-01
DAV:   6    -0.191343245151E+03    0.69155E-04   -0.13707E-03 11200   0.285E-01    0.144E-01
DAV:   7    -0.191342994449E+03    0.25070E-03   -0.42231E-04  8360   0.139E-01    0.282E-02
DAV:   8    -0.191342995766E+03   -0.13165E-05   -0.67660E-05  6240   0.431E-02
  11 F= -.19134300E+03 E0= -.19124550E+03  d E =-.524483E-01
       N       E                     dE             d eps       ncg     rms          rms(c)
DAV:   1    -0.191293219091E+03    0.49775E-01   -0.27124E+00  8160   0.353E+00    0.441E-01
DAV:   2    -0.191299213462E+03   -0.59944E-02   -0.80228E-02 13320   0.102E+00    0.649E-01
DAV:   3    -0.191297337663E+03    0.18758E-02   -0.21169E-02 11840   0.109E+00    0.593E-01
DAV:   4    -0.191293798437E+03    0.35392E-02   -0.84961E-03 11480   0.641E-01    0.215E-01
DAV:   5    -0.191293346091E+03    0.45235E-03   -0.27962E-03 11320   0.310E-01    0.204E-01
DAV:   6    -0.191293166402E+03    0.17969E-03   -0.18570E-03 11760   0.320E-01    0.161E-01
DAV:   7    -0.191292871678E+03    0.29472E-03   -0.62580E-04  9760   0.168E-01    0.369E-02
DAV:   8    -0.191292856999E+03    0.14679E-04   -0.75742E-05  6400   0.380E-02
  12 F= -.19129286E+03 E0= -.19119532E+03  d E =0.501388E-01
       N       E                     dE             d eps       ncg     rms          rms(c)
DAV:   1    -0.191375520395E+03   -0.82649E-01   -0.65851E+00  8160   0.557E+00    0.729E-01
DAV:   2    -0.191388495448E+03   -0.12975E-01   -0.21126E-01 13560   0.164E+00    0.991E-01
DAV:   3    -0.191385650551E+03    0.28449E-02   -0.54971E-02 11360   0.175E+00    0.933E-01
DAV:   4    -0.191376011218E+03    0.96393E-02   -0.21158E-02 11920   0.105E+00    0.396E-01
DAV:   5    -0.191375684790E+03    0.32643E-03   -0.10341E-02 11240   0.689E-01    0.484E-01
DAV:   6    -0.191373597847E+03    0.20869E-02   -0.68225E-03 11520   0.598E-01    0.204E-01
DAV:   7    -0.191373030887E+03    0.56696E-03   -0.15112E-03 10880   0.213E-01    0.533E-02
DAV:   8    -0.191372969835E+03    0.61052E-04   -0.21957E-04  8600   0.566E-02
  13 F= -.19137297E+03 E0= -.19127583E+03  d E =-.801128E-01
       N       E                     dE             d eps       ncg     rms          rms(c)
DAV:   1    -0.191398645473E+03   -0.25615E-01   -0.58450E-01  8160   0.163E+00    0.193E-01
DAV:   2    -0.191401124215E+03   -0.24787E-02   -0.19158E-02 12760   0.623E-01    0.416E-01
DAV:   3    -0.191399342800E+03    0.17814E-02   -0.42708E-03 11760   0.499E-01    0.159E-01
DAV:   4    -0.191399193898E+03    0.14890E-03   -0.10643E-03  9560   0.214E-01    0.128E-01
DAV:   5    -0.191399141439E+03    0.52459E-04   -0.80959E-04 10040   0.215E-01
  14 F= -.19139914E+03 E0= -.19130331E+03  d E =-.261716E-01
       N       E                     dE             d eps       ncg     rms          rms(c)
DAV:   1    -0.191466264616E+03   -0.67071E-01   -0.41472E+00  8160   0.433E+00    0.451E-01
DAV:   2    -0.191478587681E+03   -0.12323E-01   -0.11149E-01 13520   0.136E+00    0.843E-01
DAV:   3    -0.191471904527E+03    0.66832E-02   -0.20992E-02 12160   0.112E+00    0.408E-01
DAV:   4    -0.191470532975E+03    0.13716E-02   -0.55178E-03 11200   0.514E-01    0.283E-01
DAV:   5    -0.191470325054E+03    0.20792E-03   -0.41072E-03 10120   0.490E-01    0.286E-01
DAV:   6    -0.191469652189E+03    0.67286E-03   -0.21442E-03 12640   0.324E-01    0.107E-01
DAV:   7    -0.191469421957E+03    0.23023E-03   -0.49151E-04  9480   0.101E-01    0.238E-02
DAV:   8    -0.191469425445E+03   -0.34875E-05   -0.68624E-05  6880   0.277E-02
  15 F= -.19146943E+03 E0= -.19137766E+03  d E =-.702840E-01
       N       E                     dE             d eps       ncg     rms          rms(c)
DAV:   1    -0.191494072920E+03   -0.24651E-01   -0.45567E-01  8160   0.145E+00    0.155E-01
DAV:   2    -0.191495256973E+03   -0.11841E-02   -0.13443E-02 13520   0.402E-01    0.241E-01
DAV:   3    -0.191494976356E+03    0.28062E-03   -0.27618E-03 11240   0.401E-01    0.196E-01
DAV:   4    -0.191494544458E+03    0.43190E-03   -0.76813E-04  9040   0.202E-01    0.605E-02
DAV:   5    -0.191494512104E+03    0.32354E-04   -0.20888E-04  5720   0.798E-02
  16 F= -.19149451E+03 E0= -.19140427E+03  d E =-.250867E-01
       N       E                     dE             d eps       ncg     rms          rms(c)
DAV:   1    -0.191506059911E+03   -0.11515E-01   -0.27255E-01  8160   0.124E+00    0.376E-01
DAV:   2    -0.191511175036E+03   -0.51151E-02   -0.28974E-02 11320   0.114E+00    0.891E-01
DAV:   3    -0.191502637918E+03    0.85371E-02   -0.14425E-02 11320   0.994E-01    0.221E-01
DAV:   4    -0.191502137172E+03    0.50075E-03   -0.28375E-03 11360   0.319E-01    0.227E-01
DAV:   5    -0.191502339131E+03   -0.20196E-03   -0.33537E-03 11520   0.452E-01    0.296E-01
DAV:   6    -0.191501288976E+03    0.10502E-02   -0.17512E-03 11320   0.295E-01    0.344E-02
DAV:   7    -0.191501287359E+03    0.16168E-05   -0.11585E-04  5720   0.422E-02
  17 F= -.19150129E+03 E0= -.19141119E+03  d E =-.677526E-02
       N       E                     dE             d eps       ncg     rms          rms(c)
DAV:   1    -0.191591490030E+03   -0.90201E-01   -0.69319E+00  8160   0.561E+00    0.575E-01
DAV:   2    -0.191614957435E+03   -0.23467E-01   -0.20510E-01 12680   0.182E+00    0.110E+00
DAV:   3    -0.191603458069E+03    0.11499E-01   -0.36449E-02 12200   0.150E+00    0.531E-01
DAV:   4    -0.191600811840E+03    0.26462E-02   -0.82536E-03 11160   0.663E-01    0.331E-01
DAV:   5    -0.191600451542E+03    0.36030E-03   -0.51693E-03 10280   0.580E-01    0.331E-01
DAV:   6    -0.191599567667E+03    0.88387E-03   -0.29149E-03 12720   0.388E-01    0.135E-01
DAV:   7    -0.191599193981E+03    0.37369E-03   -0.82056E-04  9560   0.129E-01    0.350E-02
DAV:   8    -0.191599205334E+03   -0.11353E-04   -0.12776E-04  6560   0.672E-02
  18 F= -.19159921E+03 E0= -.19151558E+03  d E =-.979180E-01
       N       E                     dE             d eps       ncg     rms          rms(c)
DAV:   1    -0.191655848079E+03   -0.56654E-01   -0.27029E+00  8160   0.353E+00    0.364E-01
DAV:   2    -0.191662595647E+03   -0.67476E-02   -0.81270E-02 12240   0.904E-01    0.504E-01
DAV:   3    -0.191661967078E+03    0.62857E-03   -0.14032E-02 12400   0.924E-01    0.474E-01
DAV:   4    -0.191659344661E+03    0.26224E-02   -0.39624E-03 11200   0.493E-01    0.134E-01
DAV:   5    -0.191659372205E+03   -0.27544E-04   -0.14113E-03 11960   0.246E-01    0.169E-01
DAV:   6    -0.191659281800E+03    0.90405E-04   -0.11463E-03 10200   0.281E-01    0.137E-01
DAV:   7    -0.191659017632E+03    0.26417E-03   -0.38655E-04  8280   0.148E-01    0.268E-02
DAV:   8    -0.191659025674E+03   -0.80414E-05   -0.70679E-05  5920   0.489E-02
  19 F= -.19165903E+03 E0= -.19157840E+03  d E =-.598203E-01
       N       E                     dE             d eps       ncg     rms          rms(c)
DAV:   1    -0.191782668882E+03   -0.12365E+00   -0.64592E+01  8160   0.173E+01    0.168E+00
DAV:   2    -0.191968495227E+03   -0.18583E+00   -0.20779E+00 11920   0.440E+00    0.232E+00
DAV:   3    -0.191943850165E+03    0.24645E-01   -0.28763E-01 12400   0.421E+00    0.197E+00
DAV:   4    -0.191895612334E+03    0.48238E-01   -0.74514E-02 12240   0.224E+00    0.659E-01
DAV:   5    -0.191897798643E+03   -0.21863E-02   -0.30484E-02 12400   0.143E+00    0.890E-01
DAV:   6    -0.191891079395E+03    0.67192E-02   -0.22532E-02 12720   0.127E+00    0.463E-01
DAV:   7    -0.191887102734E+03    0.39767E-02   -0.71138E-03 11680   0.495E-01    0.970E-02
DAV:   8    -0.191887187925E+03   -0.85191E-04   -0.13048E-03 11840   0.174E-01    0.116E-01
DAV:   9    -0.191887091299E+03    0.96626E-04   -0.71647E-04 10600   0.210E-01
  20 F= -.19188709E+03 E0= -.19180932E+03  d E =-.228066E+00
       N       E                     dE             d eps       ncg     rms          rms(c)
DAV:   1    -0.191915679004E+03   -0.28491E-01   -0.19915E+00  8160   0.311E+00    0.543E-01
DAV:   2    -0.191924185496E+03   -0.85065E-02   -0.12680E-01 12440   0.148E+00    0.815E-01
DAV:   3    -0.191919239448E+03    0.49460E-02   -0.24481E-02 12000   0.135E+00    0.507E-01
DAV:   4    -0.191915737501E+03    0.35019E-02   -0.71309E-03 12320   0.674E-01    0.269E-01
DAV:   5    -0.191916156439E+03   -0.41894E-03   -0.50948E-03 11320   0.578E-01    0.368E-01
DAV:   6    -0.191914546358E+03    0.16101E-02   -0.32387E-03 11520   0.444E-01    0.909E-02
DAV:   7    -0.191914532774E+03    0.13584E-04   -0.56221E-04  9720   0.149E-01
  21 F= -.19191453E+03 E0= -.19183491E+03  d E =-.274415E-01
       N       E                     dE             d eps       ncg     rms          rms(c)
DAV:   1    -0.191930816421E+03   -0.16270E-01   -0.90289E-01  8160   0.203E+00    0.291E-01
DAV:   2    -0.191936659847E+03   -0.58434E-02   -0.45471E-02 11160   0.110E+00    0.623E-01
DAV:   3    -0.191932154292E+03    0.45056E-02   -0.92714E-03 12240   0.793E-01    0.180E-01
DAV:   4    -0.191931783408E+03    0.37088E-03   -0.13588E-03 10880   0.262E-01    0.154E-01
DAV:   5    -0.191931894218E+03   -0.11081E-03   -0.12757E-03 10440   0.313E-01    0.190E-01
DAV:   6    -0.191931463700E+03    0.43052E-03   -0.80021E-04 11280   0.213E-01    0.378E-02
DAV:   7    -0.191931456211E+03    0.74894E-05   -0.10852E-04  5920   0.471E-02
  22 F= -.19193146E+03 E0= -.19185188E+03  d E =-.169234E-01
       N       E                     dE             d eps       ncg     rms          rms(c)
DAV:   1    -0.191946825333E+03   -0.15362E-01   -0.10037E+00  8160   0.214E+00    0.240E-01
DAV:   2    -0.191949713600E+03   -0.28883E-02   -0.39177E-02 11960   0.612E-01    0.278E-01
DAV:   3    -0.191949984397E+03   -0.27080E-03   -0.52767E-03 12440   0.597E-01    0.321E-01
DAV:   4    -0.191948617199E+03    0.13672E-02   -0.17254E-03 10840   0.354E-01    0.688E-02
DAV:   5    -0.191948605933E+03    0.11266E-04   -0.59044E-04  9920   0.952E-02
  23 F= -.19194861E+03 E0= -.19186813E+03  d E =-.171497E-01
       N       E                     dE             d eps       ncg     rms          rms(c)
DAV:   1    -0.191968369753E+03   -0.19753E-01   -0.12131E+01  8160   0.738E+00    0.746E-01
DAV:   2    -0.192006496086E+03   -0.38126E-01   -0.43959E-01 11880   0.210E+00    0.979E-01
DAV:   3    -0.192005134580E+03    0.13615E-02   -0.57134E-02 12280   0.192E+00    0.914E-01
DAV:   4    -0.191993666649E+03    0.11468E-01   -0.13756E-02 12320   0.981E-01    0.218E-01
DAV:   5    -0.191995958357E+03   -0.22917E-02   -0.75766E-03 12600   0.642E-01    0.477E-01
DAV:   6    -0.191993015346E+03    0.29430E-02   -0.44585E-03 11200   0.579E-01    0.877E-02
DAV:   7    -0.191992985143E+03    0.30202E-04   -0.54870E-04  9080   0.136E-01
  24 F= -.19199299E+03 E0= -.19191002E+03  d E =-.443792E-01
       N       E                     dE             d eps       ncg     rms          rms(c)
DAV:   1    -0.191998245297E+03   -0.52300E-02   -0.64976E+00  8160   0.543E+00    0.623E-01
DAV:   2    -0.192020335298E+03   -0.22090E-01   -0.28231E-01 11960   0.174E+00    0.748E-01
DAV:   3    -0.192020901842E+03   -0.56654E-03   -0.34028E-02 11840   0.153E+00    0.768E-01
DAV:   4    -0.192013049021E+03    0.78528E-02   -0.10628E-02 11560   0.896E-01    0.242E-01
DAV:   5    -0.192013776658E+03   -0.72764E-03   -0.53825E-03 10400   0.574E-01    0.369E-01
DAV:   6    -0.192012324860E+03    0.14518E-02   -0.40764E-03 11840   0.498E-01    0.132E-01
DAV:   7    -0.192012043320E+03    0.28154E-03   -0.85038E-04 10160   0.141E-01    0.526E-02
DAV:   8    -0.192012018045E+03    0.25275E-04   -0.14366E-04  7560   0.906E-02
  25 F= -.19201202E+03 E0= -.19192718E+03  d E =-.190329E-01
       N       E                     dE             d eps       ncg     rms          rms(c)
DAV:   1    -0.192013898742E+03   -0.18554E-02   -0.13901E+00  8160   0.247E+00    0.250E-01
DAV:   2    -0.192018900088E+03   -0.50013E-02   -0.53638E-02 11760   0.801E-01    0.350E-01
DAV:   3    -0.192018266770E+03    0.63332E-03   -0.67154E-03 12360   0.637E-01    0.271E-01
DAV:   4    -0.192017401830E+03    0.86494E-03   -0.15668E-03 10720   0.330E-01    0.118E-01
DAV:   5    -0.192017460852E+03   -0.59022E-04   -0.65772E-04 10960   0.238E-01
  26 F= -.19201746E+03 E0= -.19193234E+03  d E =-.544281E-02
       N       E                     dE             d eps       ncg     rms          rms(c)
DAV:   1    -0.192018912376E+03   -0.15105E-02   -0.55160E-01  8160   0.156E+00    0.173E-01
DAV:   2    -0.192021148799E+03   -0.22364E-02   -0.21921E-02 11280   0.584E-01    0.290E-01
DAV:   3    -0.192020468520E+03    0.68028E-03   -0.36255E-03 12360   0.469E-01    0.176E-01
DAV:   4    -0.192020124473E+03    0.34405E-03   -0.65787E-04 10000   0.204E-01    0.697E-02
DAV:   5    -0.192020105113E+03    0.19360E-04   -0.25516E-04  6720   0.943E-02
  27 F= -.19202011E+03 E0= -.19193515E+03  d E =-.264426E-02
       N       E                     dE             d eps       ncg     rms          rms(c)
DAV:   1    -0.192020977349E+03   -0.85288E-03   -0.56208E-02  8160   0.536E-01    0.884E-02
DAV:   2    -0.192021806733E+03   -0.82938E-03   -0.32213E-03 13600   0.341E-01    0.244E-01
DAV:   3    -0.192021036386E+03    0.77035E-03   -0.10379E-03 10160   0.301E-01    0.566E-02
DAV:   4    -0.192021035864E+03    0.52168E-06   -0.10959E-04  5800   0.895E-02
  28 F= -.19202104E+03 E0= -.19193612E+03  d E =-.930751E-03
       N       E                     dE             d eps       ncg     rms          rms(c)
DAV:   1    -0.192021738147E+03   -0.70176E-03   -0.36781E-02  8160   0.410E-01    0.674E-02
DAV:   2    -0.192021980535E+03   -0.24239E-03   -0.18430E-03 11240   0.217E-01    0.136E-01
DAV:   3    -0.192021752577E+03    0.22796E-03   -0.44587E-04  8960   0.180E-01    0.448E-02
DAV:   4    -0.192021748079E+03    0.44978E-05   -0.82658E-05  6000   0.817E-02
  29 F= -.19202175E+03 E0= -.19193666E+03  d E =-.712215E-03
       N       E                     dE             d eps       ncg     rms          rms(c)
DAV:   1    -0.192022901211E+03   -0.11486E-02   -0.14547E-01  8160   0.807E-01    0.855E-02
DAV:   2    -0.192023287678E+03   -0.38647E-03   -0.50357E-03 12080   0.209E-01    0.874E-02
DAV:   3    -0.192023317327E+03   -0.29649E-04   -0.49607E-04 11320   0.186E-01
  30 F= -.19202332E+03 E0= -.19193797E+03  d E =-.156925E-02
       N       E                     dE             d eps       ncg     rms          rms(c)
DAV:   1    -0.192023166174E+03    0.12150E-03   -0.18582E-03 10240   0.146E-01    0.372E-02
DAV:   2    -0.192023192357E+03   -0.26183E-04   -0.18346E-04  5680   0.725E-02
  31 F= -.19202319E+03 E0= -.19193776E+03  d E =0.124969E-03
       N       E                     dE             d eps       ncg     rms          rms(c)
DAV:   1    -0.192023982490E+03   -0.81632E-03   -0.85816E-02  8160   0.621E-01    0.676E-02
DAV:   2    -0.192024193702E+03   -0.21121E-03   -0.28427E-03 12000   0.155E-01    0.660E-02
DAV:   3    -0.192024210842E+03   -0.17140E-04   -0.30551E-04  9760   0.146E-01
  32 F= -.19202421E+03 E0= -.19193896E+03  d E =-.101849E-02
       N       E                     dE             d eps       ncg     rms          rms(c)
DAV:   1    -0.192024749068E+03   -0.55537E-03   -0.42501E-02  8160   0.440E-01    0.535E-02
DAV:   2    -0.192024801367E+03   -0.52299E-04   -0.11845E-03 12200   0.937E-02    0.369E-02
DAV:   3    -0.192024821782E+03   -0.20415E-04   -0.86251E-05  6640   0.854E-02
  33 F= -.19202482E+03 E0= -.19193943E+03  d E =-.610940E-03
       N       E                     dE             d eps       ncg     rms          rms(c)
DAV:   1    -0.192025155936E+03   -0.35457E-03   -0.12982E-02  8160   0.252E-01    0.406E-02
DAV:   2    -0.192025263861E+03   -0.10792E-03   -0.55309E-04 11400   0.123E-01    0.901E-02
DAV:   3    -0.192025160283E+03    0.10358E-03   -0.13299E-04  6520   0.116E-01    0.289E-02
DAV:   4    -0.192025164136E+03   -0.38524E-05   -0.47970E-05  5600   0.484E-02
  34 F= -.19202516E+03 E0= -.19193988E+03  d E =-.342354E-03
