<?xml version="1.0" encoding="ISO-8859-1"?>
<modeling>
 <generator>
  <i name="program" type="string">vasp </i>
  <i name="version" type="string">5.4.1  </i>
  <i name="subversion" type="string">05Feb16 (build Jul 05 2020 17:13:04) complex                          parallel </i>
  <i name="platform" type="string">IFC91_ompi </i>
  <i name="date" type="string">2024 08 22 </i>
  <i name="time" type="string">16:05:02 </i>
 </generator>
 <incar>
  <i type="int" name="ISTART">     0</i>
  <i type="string" name="PREC">normal</i>
  <i type="string" name="ALGO"> Normal</i>
  <i type="int" name="ISPIN">     1</i>
  <i type="int" name="ICHARG">     2</i>
  <i type="int" name="IBRION">     1</i>
  <i type="int" name="NSW">   100</i>
  <i type="int" name="ISIF">     3</i>
  <i type="int" name="ISYM">     0</i>
  <i name="SYMPREC">      0.00000001</i>
  <i name="POTIM">      0.50000000</i>
  <i type="logical" name="LREAL"> F  </i>
  <i type="logical" name="LPLANE"> F  </i>
  <i type="int" name="ISMEAR">     0</i>
  <i type="logical" name="LWAVE"> F  </i>
  <i type="logical" name="LCHARG"> F  </i>
  <v type="int" name="KPOINT_BSE">    -1     0     0     0</v>
 </incar>
 <kpoints>
  <generation param="Gamma">
   <v type="int" name="divisions">       8        8        1 </v>
   <v name="usershift">      0.00000000       0.00000000       0.00000000 </v>
   <v name="genvec1">      0.12500000       0.00000000       0.00000000 </v>
   <v name="genvec2">     -0.00000000       0.12500000       0.00000000 </v>
   <v name="genvec3">      0.00000000       0.00000000       1.00000000 </v>
   <v name="shift">      0.00000000       0.00000000       0.00000000 </v>
  </generation>
  <varray name="kpointlist" >
   <v>       0.00000000       0.00000000       0.00000000 </v>
   <v>       0.12500000       0.00000000       0.00000000 </v>
   <v>       0.25000000       0.00000000       0.00000000 </v>
   <v>       0.37500000       0.00000000       0.00000000 </v>
   <v>       0.50000000       0.00000000       0.00000000 </v>
   <v>       0.00000000       0.12500000       0.00000000 </v>
   <v>       0.12500000       0.12500000       0.00000000 </v>
   <v>       0.25000000       0.12500000       0.00000000 </v>
   <v>       0.37500000       0.12500000       0.00000000 </v>
   <v>       0.50000000       0.12500000       0.00000000 </v>
   <v>      -0.37500000       0.12500000       0.00000000 </v>
   <v>      -0.25000000       0.12500000       0.00000000 </v>
   <v>      -0.12500000       0.12500000       0.00000000 </v>
   <v>       0.00000000       0.25000000       0.00000000 </v>
   <v>       0.12500000       0.25000000       0.00000000 </v>
   <v>       0.25000000       0.25000000       0.00000000 </v>
   <v>       0.37500000       0.25000000       0.00000000 </v>
   <v>       0.50000000       0.25000000       0.00000000 </v>
   <v>      -0.37500000       0.25000000       0.00000000 </v>
   <v>      -0.25000000       0.25000000       0.00000000 </v>
   <v>      -0.12500000       0.25000000       0.00000000 </v>
   <v>      -0.00000000       0.37500000       0.00000000 </v>
   <v>       0.12500000       0.37500000       0.00000000 </v>
   <v>       0.25000000       0.37500000       0.00000000 </v>
   <v>       0.37500000       0.37500000       0.00000000 </v>
   <v>       0.50000000       0.37500000       0.00000000 </v>
   <v>      -0.37500000       0.37500000       0.00000000 </v>
   <v>      -0.25000000       0.37500000       0.00000000 </v>
   <v>      -0.12500000       0.37500000       0.00000000 </v>
   <v>       0.00000000       0.50000000       0.00000000 </v>
   <v>       0.12500000       0.50000000       0.00000000 </v>
   <v>       0.25000000       0.50000000       0.00000000 </v>
   <v>       0.37500000       0.50000000       0.00000000 </v>
   <v>       0.50000000       0.50000000       0.00000000 </v>
  </varray>
  <varray name="weights" >
   <v>       0.01562500 </v>
   <v>       0.03125000 </v>
   <v>       0.03125000 </v>
   <v>       0.03125000 </v>
   <v>       0.01562500 </v>
   <v>       0.03125000 </v>
   <v>       0.03125000 </v>
   <v>       0.03125000 </v>
   <v>       0.03125000 </v>
   <v>       0.03125000 </v>
   <v>       0.03125000 </v>
   <v>       0.03125000 </v>
   <v>       0.03125000 </v>
   <v>       0.03125000 </v>
   <v>       0.03125000 </v>
   <v>       0.03125000 </v>
   <v>       0.03125000 </v>
   <v>       0.03125000 </v>
   <v>       0.03125000 </v>
   <v>       0.03125000 </v>
   <v>       0.03125000 </v>
   <v>       0.03125000 </v>
   <v>       0.03125000 </v>
   <v>       0.03125000 </v>
   <v>       0.03125000 </v>
   <v>       0.03125000 </v>
   <v>       0.03125000 </v>
   <v>       0.03125000 </v>
   <v>       0.03125000 </v>
   <v>       0.01562500 </v>
   <v>       0.03125000 </v>
   <v>       0.03125000 </v>
   <v>       0.03125000 </v>
   <v>       0.01562500 </v>
  </varray>
 </kpoints>
 <parameters>
  <separator name="general" >
   <i type="string" name="SYSTEM">unknown system</i>
   <i type="logical" name="LCOMPAT"> F  </i>
  </separator>
  <separator name="electronic" >
   <i type="string" name="PREC">normal</i>
   <i name="ENMAX">    280.00000000</i>
   <i name="ENAUG">    373.43800000</i>
   <i name="EDIFF">      0.00010000</i>
   <i type="int" name="IALGO">    38</i>
   <i type="int" name="IWAVPR">    11</i>
   <i type="int" name="NBANDS">   120</i>
   <i name="NELECT">    159.00000000</i>
   <i type="int" name="TURBO">     0</i>
   <i type="int" name="IRESTART">     0</i>
   <i type="int" name="NREBOOT">     0</i>
   <i type="int" name="NMIN">     0</i>
   <i name="EREF">      0.00000000</i>
   <separator name="electronic smearing" >
    <i type="int" name="ISMEAR">     0</i>
    <i name="SIGMA">      0.20000000</i>
    <i name="KSPACING">      0.50000000</i>
    <i type="logical" name="KGAMMA"> T  </i>
   </separator>
   <separator name="electronic projectors" >
    <i type="logical" name="LREAL"> F  </i>
    <v name="ROPT">      0.00000000      0.00000000      0.00000000      0.00000000</v>
    <i type="int" name="LMAXPAW">  -100</i>
    <i type="int" name="LMAXMIX">     2</i>
    <i type="logical" name="NLSPLINE"> F  </i>
   </separator>
   <separator name="electronic startup" >
    <i type="int" name="ISTART">     0</i>
    <i type="int" name="ICHARG">     2</i>
    <i type="int" name="INIWAV">     1</i>
   </separator>
   <separator name="electronic spin" >
    <i type="int" name="ISPIN">     1</i>
    <i type="logical" name="LNONCOLLINEAR"> F  </i>
    <v name="MAGMOM">      1.00000000      1.00000000      1.00000000      1.00000000      1.00000000      1.00000000      1.00000000      1.00000000      1.00000000      1.00000000      1.00000000      1.00000000      1.00000000      1.00000000      1.00000000      1.00000000      1.00000000      1.00000000      1.00000000      1.00000000
      1.00000000      1.00000000      1.00000000      1.00000000      1.00000000      1.00000000      1.00000000</v>
    <i name="NUPDOWN">     -1.00000000</i>
    <i type="logical" name="LSORBIT"> F  </i>
    <v name="SAXIS">      0.00000000      0.00000000      1.00000000</v>
    <i type="logical" name="LSPIRAL"> F  </i>
    <v name="QSPIRAL">      0.00000000      0.00000000      0.00000000</v>
    <i type="logical" name="LZEROZ"> F  </i>
   </separator>
   <separator name="electronic exchange-correlation" >
    <i type="logical" name="LASPH"> F  </i>
    <i type="logical" name="LMETAGGA"> F  </i>
   </separator>
   <separator name="electronic convergence" >
    <i type="int" name="NELM">    60</i>
    <i type="int" name="NELMDL">    -5</i>
    <i type="int" name="NELMIN">     2</i>
    <i name="ENINI">    280.00000000</i>
    <separator name="electronic convergence detail" >
     <i type="logical" name="LDIAG"> T  </i>
     <i type="logical" name="LSUBROT"> F  </i>
     <i name="WEIMIN">      0.00100000</i>
     <i name="EBREAK">      0.00000021</i>
     <i name="DEPER">      0.30000000</i>
     <i type="int" name="NRMM">     4</i>
     <i name="TIME">      0.40000000</i>
    </separator>
   </separator>
   <separator name="electronic mixer" >
    <i name="AMIX">      0.40000000</i>
    <i name="BMIX">      1.00000000</i>
    <i name="AMIN">      0.10000000</i>
    <i name="AMIX_MAG">      1.60000000</i>
    <i name="BMIX_MAG">      1.00000000</i>
    <separator name="electronic mixer details" >
     <i type="int" name="IMIX">     4</i>
     <i type="logical" name="MIXFIRST"> F  </i>
     <i type="int" name="MAXMIX">   -45</i>
     <i name="WC">    100.00000000</i>
     <i type="int" name="INIMIX">     1</i>
     <i type="int" name="MIXPRE">     1</i>
     <i type="int" name="MREMOVE">     5</i>
    </separator>
   </separator>
   <separator name="electronic dipolcorrection" >
    <i type="logical" name="LDIPOL"> F  </i>
    <i type="logical" name="LMONO"> F  </i>
    <i type="int" name="IDIPOL">     0</i>
    <i name="EPSILON">      1.00000000</i>
    <v name="DIPOL">   -100.00000000   -100.00000000   -100.00000000</v>
    <i name="EFIELD">      0.00000000</i>
   </separator>
  </separator>
  <separator name="grids" >
   <i type="int" name="NGX">    42</i>
   <i type="int" name="NGY">    42</i>
   <i type="int" name="NGZ">   126</i>
   <i type="int" name="NGXF">    84</i>
   <i type="int" name="NGYF">    84</i>
   <i type="int" name="NGZF">   252</i>
   <i type="logical" name="ADDGRID"> F  </i>
  </separator>
  <separator name="ionic" >
   <i type="int" name="NSW">   100</i>
   <i type="int" name="IBRION">     1</i>
   <i type="int" name="ISIF">     3</i>
   <i name="PSTRESS">      0.00000000</i>
   <i name="EDIFFG">      0.00100000</i>
   <i type="int" name="NFREE">     0</i>
   <i name="POTIM">      0.50000000</i>
   <i name="SMASS">     -3.00000000</i>
   <i name="SCALEE">      1.00000000</i>
  </separator>
  <separator name="ionic md" >
   <i name="TEBEG">      0.00010000</i>
   <i name="TEEND">      0.00010000</i>
   <i type="int" name="NBLOCK">     1</i>
   <i type="int" name="KBLOCK">   100</i>
   <i type="int" name="NPACO">   256</i>
   <i name="APACO">     16.00000000</i>
  </separator>
  <separator name="symmetry" >
   <i type="int" name="ISYM">     0</i>
   <i name="SYMPREC">      0.00000001</i>
  </separator>
  <separator name="dos" >
   <i type="logical" name="LORBIT"> F  </i>
   <v name="RWIGS">     -1.00000000     -1.00000000     -1.00000000     -1.00000000</v>
   <i type="int" name="NEDOS">   301</i>
   <i name="EMIN">     10.00000000</i>
   <i name="EMAX">    -10.00000000</i>
   <i name="EFERMI">      0.00000000</i>
  </separator>
  <separator name="writing" >
   <i type="int" name="NWRITE">     2</i>
   <i type="logical" name="LWAVE"> F  </i>
   <i type="logical" name="LCHARG"> F  </i>
   <i type="logical" name="LPARD"> F  </i>
   <i type="logical" name="LVTOT"> F  </i>
   <i type="logical" name="LVHAR"> F  </i>
   <i type="logical" name="LELF"> F  </i>
   <i type="logical" name="LOPTICS"> F  </i>
   <v name="STM">      0.00000000      0.00000000      0.00000000      0.00000000      0.00000000      0.00000000      0.00000000</v>
  </separator>
  <separator name="performance" >
   <i type="int" name="NPAR">    40</i>
   <i type="int" name="NSIM">     4</i>
   <i type="int" name="NBLK">    -1</i>
   <i type="logical" name="LPLANE"> F  </i>
   <i type="logical" name="LSCALAPACK"> T  </i>
   <i type="logical" name="LSCAAWARE"> F  </i>
   <i type="logical" name="LSCALU"> F  </i>
   <i type="logical" name="LASYNC"> F  </i>
   <i type="logical" name="LORBITALREAL"> F  </i>
  </separator>
  <separator name="miscellaneous" >
   <i type="int" name="IDIOT">     3</i>
   <i type="logical" name="LMUSIC"> F  </i>
   <v name="POMASS">     50.94100000     95.94000000    183.85000000     32.06600000</v>
   <v name="DARWINR">      0.00000000      0.00000000      0.00000000      0.00000000</v>
   <v name="DARWINV">      1.00000000      1.00000000      1.00000000      1.00000000</v>
   <i type="logical" name="LCORR"> T  </i>
  </separator>
  <i type="logical" name="GGA_COMPAT"> T  </i>
  <i type="logical" name="LBERRY"> F  </i>
  <i type="int" name="ICORELEVEL">     0</i>
  <i type="logical" name="LDAU"> F  </i>
  <i type="int" name="I_CONSTRAINED_M">     0</i>
  <separator name="electronic exchange-correlation" >
   <i type="string" name="GGA">--</i>
   <i type="int" name="VOSKOWN">     0</i>
   <i type="logical" name="LHFCALC"> F  </i>
   <i type="string" name="PRECFOCK"></i>
   <i type="logical" name="LSYMGRAD"> F  </i>
   <i type="logical" name="LHFONE"> F  </i>
   <i type="logical" name="LRHFCALC"> F  </i>
   <i type="logical" name="LTHOMAS"> F  </i>
   <i type="logical" name="LMODELHF"> F  </i>
   <i name="ENCUT4O">     -1.00000000</i>
   <i type="int" name="EXXOEP">     0</i>
   <i type="int" name="FOURORBIT">     0</i>
   <i name="AEXX">      0.00000000</i>
   <i name="HFALPHA">      0.00000000</i>
   <i name="MCALPHA">      0.00000000</i>
   <i name="ALDAX">      1.00000000</i>
   <i name="AGGAX">      1.00000000</i>
   <i name="ALDAC">      1.00000000</i>
   <i name="AGGAC">      1.00000000</i>
   <i type="int" name="NKREDX">     1</i>
   <i type="int" name="NKREDY">     1</i>
   <i type="int" name="NKREDZ">     1</i>
   <i type="logical" name="SHIFTRED"> F  </i>
   <i type="logical" name="ODDONLY"> F  </i>
   <i type="logical" name="EVENONLY"> F  </i>
   <i type="int" name="LMAXFOCK">     0</i>
   <i type="int" name="NMAXFOCKAE">     0</i>
   <i type="logical" name="LFOCKAEDFT"> F  </i>
   <i name="HFSCREEN">      0.00000000</i>
   <i name="HFSCREENC">      0.00000000</i>
   <i type="int" name="NBANDSGWLOW">     0</i>
  </separator>
  <separator name="vdW DFT" >
   <i type="logical" name="LUSE_VDW"> F  </i>
   <i name="Zab_VDW">     -0.84910000</i>
   <i name="PARAM1">      0.12340000</i>
   <i name="PARAM2">      1.00000000</i>
   <i name="PARAM3">      0.00000000</i>
  </separator>
  <separator name="model GW" >
   <i type="int" name="MODEL_GW">     0</i>
   <i name="MODEL_EPS0">     58.26239943</i>
   <i name="MODEL_ALPHA">      1.00000000</i>
  </separator>
  <separator name="linear response parameters" >
   <i type="logical" name="LEPSILON"> F  </i>
   <i type="logical" name="LRPA"> F  </i>
   <i type="logical" name="LNABLA"> F  </i>
   <i type="logical" name="LVEL"> F  </i>
   <i type="int" name="KINTER">     0</i>
   <i name="CSHIFT">      0.10000000</i>
   <i name="OMEGAMAX">     -1.00000000</i>
   <i name="DEG_THRESHOLD">      0.00200000</i>
  </separator>
  <separator name="orbital magnetization" >
   <i type="logical" name="NUCIND"> F  </i>
   <v name="MAGPOS">      0.00000000      0.00000000      0.00000000</v>
   <i type="logical" name="LNICSALL"> T  </i>
   <i type="logical" name="ORBITALMAG"> F  </i>
   <i type="logical" name="LMAGBLOCH"> F  </i>
   <i type="logical" name="LCHIMAG"> F  </i>
   <i type="logical" name="LGAUGE"> T  </i>
   <i type="int" name="MAGATOM">     0</i>
   <v name="MAGDIPOL">      0.00000000      0.00000000      0.00000000</v>
   <v name="AVECCONST">      0.00000000      0.00000000      0.00000000</v>
  </separator>
  <separator name="response functions" >
   <i type="logical" name="LADDER"> F  </i>
   <i type="logical" name="LFXC"> F  </i>
   <i type="logical" name="LHARTREE"> T  </i>
   <i type="int" name="IBSE">     0</i>
   <v type="int" name="KPOINT">    -1     0     0     0</v>
   <i type="logical" name="LTCTE"> F  </i>
   <i type="logical" name="LTETE"> F  </i>
   <i type="logical" name="LTRIPLET"> F  </i>
   <i type="logical" name="LFXCEPS"> F  </i>
   <i type="logical" name="LFXHEG"> F  </i>
   <i type="int" name="NATURALO">     0</i>
   <i type="logical" name="L2ORDER"> F  </i>
   <i type="logical" name="LUSEW"> F  </i>
   <i name="ENCUTGW">     -2.00000000</i>
   <i name="ENCUTGWSOFT">     -2.00000000</i>
   <i name="ENCUTLF">     -1.00000000</i>
   <i type="int" name="LMAXMP2">    -1</i>
   <i name="SCISSOR">      0.00000000</i>
   <i type="int" name="NOMEGA">     0</i>
   <i type="int" name="NOMEGAR">     0</i>
   <i type="int" name="NBANDSGW">    -1</i>
   <i type="int" name="NBANDSO">    -1</i>
   <i type="int" name="NBANDSV">    -1</i>
   <i type="int" name="NELM">     1</i>
   <i type="int" name="NELMHF">     1</i>
   <i type="int" name="DIM">     3</i>
   <i type="int" name="ANTIRES">     0</i>
   <i name="OMEGAMAX">    -30.00000000</i>
   <i name="OMEGAMIN">    -30.00000000</i>
   <i name="OMEGATL">   -200.00000000</i>
   <i type="int" name="OMEGAGRID">     0</i>
   <i name="CSHIFT">     -0.10000000</i>
   <i type="logical" name="SELFENERGY"> F  </i>
   <i type="logical" name="LSPECTRAL"> F  </i>
   <i type="logical" name="LSPECTRALGW"> F  </i>
   <i type="logical" name="LSINGLES"> F  </i>
   <i type="logical" name="LFERMIGW"> F  </i>
   <i type="logical" name="ODDONLYGW"> F  </i>
   <i type="logical" name="EVENONLYGW"> F  </i>
   <i type="int" name="NKREDLFX">     1</i>
   <i type="int" name="NKREDLFY">     1</i>
   <i type="int" name="NKREDLFZ">     1</i>
   <i type="int" name="MAXMEM">  1800</i>
   <i type="int" name="TELESCOPE">     0</i>
   <i type="int" name="TAUPAR">     1</i>
   <i type="int" name="OMEGAPAR">    -1</i>
   <i name="LAMBDA">      1.00000000</i>
  </separator>
  <separator name="External order field" >
   <i name="OFIELD_KAPPA">      0.00000000</i>
   <v name="OFIELD_K">      0.00000000      0.00000000      0.00000000</v>
   <i name="OFIELD_Q6_NEAR">      0.00000000</i>
   <i name="OFIELD_Q6_FAR">      0.00000000</i>
   <i name="OFIELD_A">      0.00000000</i>
  </separator>
 </parameters>
 <atominfo>
  <atoms>      27 </atoms>
  <types>       4 </types>
  <array name="atoms" >
   <dimension dim="1">ion</dimension>
   <field type="string">element</field>
   <field type="int">atomtype</field>
   <set>
    <rc><c>V </c><c>   1</c></rc>
    <rc><c>V </c><c>   1</c></rc>
    <rc><c>V </c><c>   1</c></rc>
    <rc><c>Mo</c><c>   2</c></rc>
    <rc><c>Mo</c><c>   2</c></rc>
    <rc><c>Mo</c><c>   2</c></rc>
    <rc><c>W </c><c>   3</c></rc>
    <rc><c>W </c><c>   3</c></rc>
    <rc><c>W </c><c>   3</c></rc>
    <rc><c>S </c><c>   4</c></rc>
    <rc><c>S </c><c>   4</c></rc>
    <rc><c>S </c><c>   4</c></rc>
    <rc><c>S </c><c>   4</c></rc>
    <rc><c>S </c><c>   4</c></rc>
    <rc><c>S </c><c>   4</c></rc>
    <rc><c>S </c><c>   4</c></rc>
    <rc><c>S </c><c>   4</c></rc>
    <rc><c>S </c><c>   4</c></rc>
    <rc><c>S </c><c>   4</c></rc>
    <rc><c>S </c><c>   4</c></rc>
    <rc><c>S </c><c>   4</c></rc>
    <rc><c>S </c><c>   4</c></rc>
    <rc><c>S </c><c>   4</c></rc>
    <rc><c>S </c><c>   4</c></rc>
    <rc><c>S </c><c>   4</c></rc>
    <rc><c>S </c><c>   4</c></rc>
    <rc><c>S </c><c>   4</c></rc>
   </set>
  </array>
  <array name="atomtypes" >
   <dimension dim="1">type</dimension>
   <field type="int">atomspertype</field>
   <field type="string">element</field>
   <field>mass</field>
   <field>valence</field>
   <field type="string">pseudopotential</field>
   <set>
    <rc><c>   3</c><c>V </c><c>     50.94100000</c><c>      5.00000000</c><c> PAW_PBE V 08Apr2002                    </c></rc>
    <rc><c>   3</c><c>Mo</c><c>     95.94000000</c><c>      6.00000000</c><c> PAW_PBE Mo 08Apr2002                   </c></rc>
    <rc><c>   3</c><c>W </c><c>    183.85000000</c><c>      6.00000000</c><c> PAW_PBE W 08Apr2002                    </c></rc>
    <rc><c>  18</c><c>S </c><c>     32.06600000</c><c>      6.00000000</c><c>  PAW_PBE S 17Jan2003                   </c></rc>
   </set>
  </array>
 </atominfo>
 <structure name="initialpos" >
  <crystal>
   <varray name="basis" >
    <v>       8.66999996       5.03999989       0.00000000 </v>
    <v>      -8.66999982       5.04000013       0.00000000 </v>
    <v>       0.00000000       0.00000000      30.00000000 </v>
   </varray>
   <i name="volume">   2621.80797419 </i>
   <varray name="rec_basis" >
    <v>       0.05767013       0.09920635       0.00000000 </v>
    <v>      -0.05767013       0.09920635       0.00000000 </v>
    <v>       0.00000000       0.00000000       0.03333333 </v>
   </varray>
  </crystal>
  <varray name="positions" >
   <v>       0.33333334       0.33333334       0.00000000 </v>
   <v>       0.66666669       0.00000000       0.00000000 </v>
   <v>       0.00000000       0.66666669       0.00000000 </v>
   <v>       0.66666669       0.33333334       0.00000000 </v>
   <v>       0.33333334       0.00000000       0.00000000 </v>
   <v>       0.33333334       0.66666669       0.00000000 </v>
   <v>       0.00000000       0.00000000       0.00000000 </v>
   <v>       1.00000000       0.33333334       0.00000000 </v>
   <v>       0.66666669       0.66666669       0.00000000 </v>
   <v>       0.11068511       0.22244981       0.95539999 </v>
   <v>       0.22244981       0.11068511       0.04460000 </v>
   <v>       0.11068511       0.55578315       0.95539999 </v>
   <v>       0.22244981       0.44401845       0.04460000 </v>
   <v>       0.11068511       0.88911647       0.95539999 </v>
   <v>       0.22244981       0.77735180       0.04460000 </v>
   <v>       0.44401845       0.22244981       0.95539999 </v>
   <v>       0.55578315       0.11068511       0.04460000 </v>
   <v>       0.44401845       0.55578315       0.95539999 </v>
   <v>       0.55578315       0.44401845       0.04460000 </v>
   <v>       0.44401845       0.88911647       0.95539999 </v>
   <v>       0.55578315       0.77735180       0.04460000 </v>
   <v>       0.77735180       0.22244981       0.95539999 </v>
   <v>       0.88911647       0.11068511       0.04460000 </v>
   <v>       0.77735180       0.55578315       0.95539999 </v>
   <v>       0.88911647       0.44401845       0.04460000 </v>
   <v>       0.77735180       0.88911647       0.95539999 </v>
   <v>       0.88911647       0.77735180       0.04460000 </v>
  </varray>
 </structure>
 <calculation>
  <scstep>
   <time name="dav">   21.81   21.87</time>
   <time name="total">   21.86   21.92</time>
   <energy>
    <i name="alphaZ">     81.65567618 </i>
    <i name="ewald">  41888.36874788 </i>
    <i name="hartreedc"> -47720.98535188 </i>
    <i name="XCdc">   -242.93567424 </i>
    <i name="pawpsdc">   3467.42045192 </i>
    <i name="pawaedc">  -2871.19716117 </i>
    <i name="eentropy">     -0.52415761 </i>
    <i name="bandstr">   -239.08568644 </i>
    <i name="atom">   6761.44252427 </i>
    <i name="e_fr_energy">   1124.15936891 </i>
    <i name="e_wo_entrp">   1124.68352652 </i>
    <i name="e_0_energy">   1124.42144771 </i>
   </energy>
  </scstep>
  <scstep>
   <time name="dav">   27.64   27.70</time>
   <time name="total">   27.64   27.71</time>
   <energy>
    <i name="e_fr_energy">     -0.54707643 </i>
    <i name="e_wo_entrp">     -0.37418239 </i>
    <i name="e_0_energy">     -0.46062941 </i>
   </energy>
  </scstep>
  <scstep>
   <time name="dav">   27.87   27.93</time>
   <time name="total">   27.87   27.94</time>
   <energy>
    <i name="e_fr_energy">   -199.84999170 </i>
    <i name="e_wo_entrp">   -199.61461454 </i>
    <i name="e_0_energy">   -199.73230312 </i>
   </energy>
  </scstep>
  <scstep>
   <time name="dav">   29.73   29.80</time>
   <time name="total">   29.74   29.81</time>
   <energy>
    <i name="e_fr_energy">   -209.00147529 </i>
    <i name="e_wo_entrp">   -208.73821074 </i>
    <i name="e_0_energy">   -208.86984302 </i>
   </energy>
  </scstep>
  <scstep>
   <time name="dav">   29.03   29.10</time>
   <time name="total">   29.50   29.57</time>
   <energy>
    <i name="e_fr_energy">   -209.34980157 </i>
    <i name="e_wo_entrp">   -209.09000188 </i>
    <i name="e_0_energy">   -209.21990173 </i>
   </energy>
  </scstep>
  <scstep>
   <time name="dav">   31.69   31.77</time>
   <time name="total">   32.19   32.28</time>
   <energy>
    <i name="e_fr_energy">   -236.55869922 </i>
    <i name="e_wo_entrp">   -236.28778066 </i>
    <i name="e_0_energy">   -236.42323994 </i>
   </energy>
  </scstep>
  <scstep>
   <time name="dav">   30.83   30.91</time>
   <time name="total">   31.34   31.42</time>
   <energy>
    <i name="e_fr_energy">   -196.08367945 </i>
    <i name="e_wo_entrp">   -195.82747344 </i>
    <i name="e_0_energy">   -195.95557644 </i>
   </energy>
  </scstep>
  <scstep>
   <time name="dav">   30.08   30.16</time>
   <time name="total">   30.60   30.68</time>
   <energy>
    <i name="e_fr_energy">   -189.21831501 </i>
    <i name="e_wo_entrp">   -188.93212655 </i>
    <i name="e_0_energy">   -189.07522078 </i>
   </energy>
  </scstep>
  <scstep>
   <time name="dav">   32.78   32.86</time>
   <time name="total">   33.30   33.39</time>
   <energy>
    <i name="e_fr_energy">   -188.01366180 </i>
    <i name="e_wo_entrp">   -187.70364955 </i>
    <i name="e_0_energy">   -187.85865567 </i>
   </energy>
  </scstep>
  <scstep>
   <time name="dav">   32.28   32.36</time>
   <time name="total">   32.82   32.91</time>
   <energy>
    <i name="e_fr_energy">   -187.02183144 </i>
    <i name="e_wo_entrp">   -186.67007242 </i>
    <i name="e_0_energy">   -186.84595193 </i>
   </energy>
  </scstep>
  <scstep>
   <time name="dav">   31.95   32.03</time>
   <time name="total">   32.48   32.57</time>
   <energy>
    <i name="e_fr_energy">   -187.22043646 </i>
    <i name="e_wo_entrp">   -186.89134554 </i>
    <i name="e_0_energy">   -187.05589100 </i>
   </energy>
  </scstep>
  <scstep>
   <time name="dav">   30.26   30.34</time>
   <time name="total">   30.80   30.88</time>
   <energy>
    <i name="e_fr_energy">   -187.06044632 </i>
    <i name="e_wo_entrp">   -186.72962132 </i>
    <i name="e_0_energy">   -186.89503382 </i>
   </energy>
  </scstep>
  <scstep>
   <time name="dav">   30.55   30.62</time>
   <time name="total">   31.08   31.16</time>
   <energy>
    <i name="e_fr_energy">   -186.94134154 </i>
    <i name="e_wo_entrp">   -186.59617379 </i>
    <i name="e_0_energy">   -186.76875767 </i>
   </energy>
  </scstep>
  <scstep>
   <time name="dav">   31.55   31.63</time>
   <time name="total">   32.09   32.17</time>
   <energy>
    <i name="e_fr_energy">   -186.93458885 </i>
    <i name="e_wo_entrp">   -186.58818539 </i>
    <i name="e_0_energy">   -186.76138712 </i>
   </energy>
  </scstep>
  <scstep>
   <time name="dav">   32.00   32.08</time>
   <time name="total">   32.54   32.63</time>
   <energy>
    <i name="e_fr_energy">   -186.92812830 </i>
    <i name="e_wo_entrp">   -186.58210591 </i>
    <i name="e_0_energy">   -186.75511711 </i>
   </energy>
  </scstep>
  <scstep>
   <time name="dav">   31.96   32.03</time>
   <time name="total">   32.49   32.58</time>
   <energy>
    <i name="e_fr_energy">   -186.92391490 </i>
    <i name="e_wo_entrp">   -186.57928837 </i>
    <i name="e_0_energy">   -186.75160164 </i>
   </energy>
  </scstep>
  <scstep>
   <time name="dav">   29.59   29.66</time>
   <time name="total">   30.13   30.21</time>
   <energy>
    <i name="e_fr_energy">   -186.92367139 </i>
    <i name="e_wo_entrp">   -186.57942779 </i>
    <i name="e_0_energy">   -186.75154959 </i>
   </energy>
  </scstep>
  <scstep>
   <time name="dav">   30.32   30.40</time>
   <time name="total">   30.86   30.96</time>
   <energy>
    <i name="e_fr_energy">   -186.92314264 </i>
    <i name="e_wo_entrp">   -186.57824401 </i>
    <i name="e_0_energy">   -186.75069333 </i>
   </energy>
  </scstep>
  <scstep>
   <time name="dav">   27.13   27.20</time>
   <time name="total">   27.67   27.75</time>
   <energy>
    <i name="e_fr_energy">   -186.92355006 </i>
    <i name="e_wo_entrp">   -186.57892540 </i>
    <i name="e_0_energy">   -186.75123773 </i>
   </energy>
  </scstep>
  <scstep>
   <time name="dav">   24.63   24.69</time>
   <time name="total">   25.16   25.23</time>
   <energy>
    <i name="e_fr_energy">   -186.92409519 </i>
    <i name="e_wo_entrp">   -186.57980152 </i>
    <i name="e_0_energy">   -186.75194836 </i>
   </energy>
  </scstep>
  <scstep>
   <time name="dav">   23.76   23.81</time>
   <time name="total">   24.30   24.36</time>
   <energy>
    <i name="e_fr_energy">   -186.92524659 </i>
    <i name="e_wo_entrp">   -186.58078769 </i>
    <i name="e_0_energy">   -186.75301714 </i>
   </energy>
  </scstep>
  <scstep>
   <time name="dav">   20.00   20.05</time>
   <time name="total">   20.54   20.60</time>
   <energy>
    <i name="e_fr_energy">   -186.92616304 </i>
    <i name="e_wo_entrp">   -186.58167685 </i>
    <i name="e_0_energy">   -186.75391994 </i>
   </energy>
  </scstep>
  <scstep>
   <time name="dav">   19.84   19.89</time>
   <time name="total">   20.38   20.43</time>
   <energy>
    <i name="e_fr_energy">   -186.92684750 </i>
    <i name="e_wo_entrp">   -186.58238192 </i>
    <i name="e_0_energy">   -186.75461471 </i>
   </energy>
  </scstep>
  <scstep>
   <time name="dav">   19.92   19.96</time>
   <time name="total">   20.45   20.51</time>
   <energy>
    <i name="e_fr_energy">   -186.92752630 </i>
    <i name="e_wo_entrp">   -186.58310113 </i>
    <i name="e_0_energy">   -186.75531372 </i>
   </energy>
  </scstep>
  <scstep>
   <time name="dav">   18.05   18.09</time>
   <time name="total">   18.59   18.64</time>
   <energy>
    <i name="e_fr_energy">   -186.92787945 </i>
    <i name="e_wo_entrp">   -186.58342742 </i>
    <i name="e_0_energy">   -186.75565344 </i>
   </energy>
  </scstep>
  <scstep>
   <time name="dav">   19.06   19.10</time>
   <time name="total">   19.59   19.65</time>
   <energy>
    <i name="e_fr_energy">   -186.92811582 </i>
    <i name="e_wo_entrp">   -186.58366371 </i>
    <i name="e_0_energy">   -186.75588976 </i>
   </energy>
  </scstep>
  <scstep>
   <time name="dav">   19.89   19.94</time>
   <time name="total">   19.92   19.98</time>
   <energy>
    <i name="alphaZ">     81.65567618 </i>
    <i name="ewald">  41888.36874788 </i>
    <i name="hartreedc"> -47831.62740660 </i>
    <i name="XCdc">   -231.60174794 </i>
    <i name="pawpsdc">   4192.25251728 </i>
    <i name="pawaedc">  -3610.29133874 </i>
    <i name="eentropy">     -0.34444996 </i>
    <i name="bandstr">  -1436.78271694 </i>
    <i name="atom">   6761.44252427 </i>
    <i name="e_fr_energy">   -186.92819456 </i>
    <i name="e_wo_entrp">   -186.58374460 </i>
    <i name="e_0_energy">   -186.75596958 </i>
   </energy>
  </scstep>
  <structure>
   <crystal>
    <varray name="basis" >
     <v>       8.66999996       5.03999989       0.00000000 </v>
     <v>      -8.66999982       5.04000013       0.00000000 </v>
     <v>       0.00000000       0.00000000      30.00000000 </v>
    </varray>
    <i name="volume">   2621.80797419 </i>
    <varray name="rec_basis" >
     <v>       0.05767013       0.09920635       0.00000000 </v>
     <v>      -0.05767013       0.09920635       0.00000000 </v>
     <v>       0.00000000       0.00000000       0.03333333 </v>
    </varray>
   </crystal>
   <varray name="positions" >
    <v>       0.33333334       0.33333334       0.00000000 </v>
    <v>       0.66666669       0.00000000       0.00000000 </v>
    <v>       0.00000000       0.66666669       0.00000000 </v>
    <v>       0.66666669       0.33333334       0.00000000 </v>
    <v>       0.33333334       0.00000000       0.00000000 </v>
    <v>       0.33333334       0.66666669       0.00000000 </v>
    <v>       0.00000000       0.00000000       0.00000000 </v>
    <v>       1.00000000       0.33333334       0.00000000 </v>
    <v>       0.66666669       0.66666669       0.00000000 </v>
    <v>       0.11068511       0.22244981       0.95539999 </v>
    <v>       0.22244981       0.11068511       0.04460000 </v>
    <v>       0.11068511       0.55578315       0.95539999 </v>
    <v>       0.22244981       0.44401845       0.04460000 </v>
    <v>       0.11068511       0.88911647       0.95539999 </v>
    <v>       0.22244981       0.77735180       0.04460000 </v>
    <v>       0.44401845       0.22244981       0.95539999 </v>
    <v>       0.55578315       0.11068511       0.04460000 </v>
    <v>       0.44401845       0.55578315       0.95539999 </v>
    <v>       0.55578315       0.44401845       0.04460000 </v>
    <v>       0.44401845       0.88911647       0.95539999 </v>
    <v>       0.55578315       0.77735180       0.04460000 </v>
    <v>       0.77735180       0.22244981       0.95539999 </v>
    <v>       0.88911647       0.11068511       0.04460000 </v>
    <v>       0.77735180       0.55578315       0.95539999 </v>
    <v>       0.88911647       0.44401845       0.04460000 </v>
    <v>       0.77735180       0.88911647       0.95539999 </v>
    <v>       0.88911647       0.77735180       0.04460000 </v>
   </varray>
  </structure>
  <varray name="forces" >
   <v>       0.22282625       0.11821357       0.00202188 </v>
   <v>      -0.44005264      -0.23723590       0.00196257 </v>
   <v>       0.21576960       0.12838185      -0.00389680 </v>
   <v>       0.00118109      -0.28980194      -0.03933623 </v>
   <v>       0.26349793       0.13821016      -0.00199381 </v>
   <v>      -0.26609873       0.13749569       0.04059387 </v>
   <v>       0.28825471       0.15227724      -0.00137474 </v>
   <v>      -0.29323562       0.15654009       0.03091372 </v>
   <v>       0.00328992      -0.32327246      -0.02884401 </v>
   <v>       0.48366882       0.59764611      -2.17512426 </v>
   <v>      -0.63624590       0.57067110       2.16170129 </v>
   <v>      -0.68672164      -0.14811287      -2.14899581 </v>
   <v>       0.68795987      -0.15332879       2.08802765 </v>
   <v>       0.36871724      -0.72817742      -2.16350866 </v>
   <v>      -0.53026713      -0.71452940       2.16245005 </v>
   <v>      -0.76548125       0.00440190      -2.12238845 </v>
   <v>       0.76691044       0.00395819       2.15494800 </v>
   <v>       0.62589796      -0.56793992      -2.16144292 </v>
   <v>      -0.62734159      -0.57312941       2.18508657 </v>
   <v>       0.53624464       0.71478708      -2.19731204 </v>
   <v>      -0.37514303       0.72950635       2.16402246 </v>
   <v>       0.63317720      -0.57469891      -2.15761938 </v>
   <v>      -0.47531472      -0.60121624       2.14406532 </v>
   <v>       0.37204780       0.72631182      -2.13795008 </v>
   <v>      -0.37247779       0.72051766       2.17522851 </v>
   <v>      -0.62926597       0.00684176      -2.10003472 </v>
   <v>       0.62820254       0.00568271       2.12880003 </v>
  </varray>
  <varray name="stress" >
   <v>       7.32407222      -0.00823611      -1.52767292 </v>
   <v>      -0.00823596       4.43897428      -0.03501798 </v>
   <v>      -1.52767280      -0.03501776      30.25541695 </v>
  </varray>
  <energy>
   <i name="e_fr_energy">   -186.92819456 </i>
   <i name="e_wo_entrp">   -186.75596958 </i>
   <i name="e_0_energy">     -0.34444996 </i>
  </energy>
  <time name="totalsc">  788.04  790.15</time>
 </calculation>
 <calculation>
  <scstep>
   <time name="dav">   21.78   21.83</time>
   <time name="total">   22.32   22.37</time>
   <energy>
    <i name="alphaZ">     78.91941902 </i>
    <i name="ewald">  39381.14211848 </i>
    <i name="hartreedc"> -45338.98926738 </i>
    <i name="XCdc">   -239.04121613 </i>
    <i name="pawpsdc">   4192.23483473 </i>
    <i name="pawaedc">  -3610.27405714 </i>
    <i name="eentropy">     -0.28539960 </i>
    <i name="bandstr">  -1412.63651462 </i>
    <i name="atom">   6761.44252427 </i>
    <i name="e_fr_energy">   -187.48755837 </i>
    <i name="e_wo_entrp">   -187.20215877 </i>
    <i name="e_0_energy">   -187.34485857 </i>
   </energy>
  </scstep>
  <scstep>
   <time name="dav">   31.76   31.84</time>
   <time name="total">   32.30   32.39</time>
   <energy>
    <i name="e_fr_energy">   -189.40401279 </i>
    <i name="e_wo_entrp">   -189.08149792 </i>
    <i name="e_0_energy">   -189.24275536 </i>
   </energy>
  </scstep>
  <scstep>
   <time name="dav">   30.26   30.33</time>
   <time name="total">   30.81   30.89</time>
   <energy>
    <i name="e_fr_energy">   -189.39525787 </i>
    <i name="e_wo_entrp">   -189.10549475 </i>
    <i name="e_0_energy">   -189.25037631 </i>
   </energy>
  </scstep>
  <scstep>
   <time name="dav">   29.94   30.02</time>
   <time name="total">   30.49   30.57</time>
   <energy>
    <i name="e_fr_energy">   -188.76361638 </i>
    <i name="e_wo_entrp">   -188.48066530 </i>
    <i name="e_0_energy">   -188.62214084 </i>
   </energy>
  </scstep>
  <scstep>
   <time name="dav">   25.88   25.94</time>
   <time name="total">   26.43   26.50</time>
   <energy>
    <i name="e_fr_energy">   -188.77306499 </i>
    <i name="e_wo_entrp">   -188.48376101 </i>
    <i name="e_0_energy">   -188.62841300 </i>
   </energy>
  </scstep>
  <scstep>
   <time name="dav">   30.13   30.21</time>
   <time name="total">   30.68   30.76</time>
   <energy>
    <i name="e_fr_energy">   -188.71589324 </i>
    <i name="e_wo_entrp">   -188.43005515 </i>
    <i name="e_0_energy">   -188.57297420 </i>
   </energy>
  </scstep>
  <scstep>
   <time name="dav">   30.14   30.21</time>
   <time name="total">   30.68   30.77</time>
   <energy>
    <i name="e_fr_energy">   -188.72208459 </i>
    <i name="e_wo_entrp">   -188.43670079 </i>
    <i name="e_0_energy">   -188.57939269 </i>
   </energy>
  </scstep>
  <scstep>
   <time name="dav">   31.48   31.55</time>
   <time name="total">   32.03   32.11</time>
   <energy>
    <i name="e_fr_energy">   -188.67777029 </i>
    <i name="e_wo_entrp">   -188.39341110 </i>
    <i name="e_0_energy">   -188.53559069 </i>
   </energy>
  </scstep>
  <scstep>
   <time name="dav">   26.87   26.93</time>
   <time name="total">   27.41   27.49</time>
   <energy>
    <i name="e_fr_energy">   -188.67575340 </i>
    <i name="e_wo_entrp">   -188.39134209 </i>
    <i name="e_0_energy">   -188.53354775 </i>
   </energy>
  </scstep>
  <scstep>
   <time name="dav">   32.96   33.04</time>
   <time name="total">   33.51   33.60</time>
   <energy>
    <i name="e_fr_energy">   -188.67712917 </i>
    <i name="e_wo_entrp">   -188.39291044 </i>
    <i name="e_0_energy">   -188.53501981 </i>
   </energy>
  </scstep>
  <scstep>
   <time name="dav">   31.03   31.11</time>
   <time name="total">   31.58   31.66</time>
   <energy>
    <i name="e_fr_energy">   -188.67529745 </i>
    <i name="e_wo_entrp">   -188.39133542 </i>
    <i name="e_0_energy">   -188.53331644 </i>
   </energy>
  </scstep>
  <scstep>
   <time name="dav">   28.76   28.83</time>
   <time name="total">   29.31   29.39</time>
   <energy>
    <i name="e_fr_energy">   -188.67541702 </i>
    <i name="e_wo_entrp">   -188.39173468 </i>
    <i name="e_0_energy">   -188.53357585 </i>
   </energy>
  </scstep>
  <scstep>
   <time name="dav">   21.42   21.47</time>
   <time name="total">   21.45   21.51</time>
   <energy>
    <i name="alphaZ">     78.91941902 </i>
    <i name="ewald">  39381.14211848 </i>
    <i name="hartreedc"> -45349.59699780 </i>
    <i name="XCdc">   -237.96479744 </i>
    <i name="pawpsdc">   3950.55739181 </i>
    <i name="pawaedc">  -3365.08368991 </i>
    <i name="eentropy">     -0.28391231 </i>
    <i name="bandstr">  -1407.80740548 </i>
    <i name="atom">   6761.44252427 </i>
    <i name="e_fr_energy">   -188.67534935 </i>
    <i name="e_wo_entrp">   -188.39143704 </i>
    <i name="e_0_energy">   -188.53339320 </i>
   </energy>
  </scstep>
  <structure>
   <crystal>
    <varray name="basis" >
     <v>       8.85554334       5.10520514       0.00000000 </v>
     <v>      -8.85578593       5.10562295       0.00000000 </v>
     <v>       0.00000000       0.00000000      30.00000000 </v>
    </varray>
    <i name="volume">   2712.71007309 </i>
    <varray name="rec_basis" >
     <v>       0.05646335       0.09793659       0.00000000 </v>
     <v>      -0.05645873       0.09793391       0.00000000 </v>
     <v>       0.00000000       0.00000000       0.03333333 </v>
    </varray>
   </crystal>
   <varray name="positions" >
    <v>       0.33451905       0.33327917       0.00000325 </v>
    <v>       0.66430698       0.00008889       0.00000316 </v>
    <v>       0.00121474       0.66668081      -0.00000627 </v>
    <v>       0.66528299       0.33194307      -0.00006326 </v>
    <v>       0.33472791      -0.00007162      -0.00000321 </v>
    <v>       0.33325107       0.66806507       0.00006528 </v>
    <v>       0.00153077      -0.00007318      -0.00000221 </v>
    <v>       0.99993337       0.33489837       0.00004971 </v>
    <v>       0.66512866       0.66511036      -0.00004638 </v>
    <v>       0.11489108       0.22396449       0.95190220 </v>
    <v>       0.22341089       0.11518647       0.04807621 </v>
    <v>       0.10806568       0.55698486       0.95194421 </v>
    <v>       0.22363000       0.44137061       0.04795773 </v>
    <v>       0.10822590       0.88460559       0.95192088 </v>
    <v>       0.21755480       0.77540736       0.04807741 </v>
    <v>       0.44190983       0.22460057       0.95198700 </v>
    <v>       0.55793576       0.10857039       0.04806535 </v>
    <v>       0.44304165       0.55132366       0.95192420 </v>
    <v>       0.55129480       0.44302083       0.04811381 </v>
    <v>       0.44893133       0.89104550       0.95186652 </v>
    <v>       0.55823085       0.78188691       0.04807994 </v>
    <v>       0.77636290       0.21793771       0.95193035 </v>
    <v>       0.88491666       0.10913010       0.04804785 </v>
    <v>       0.78186301       0.55822417       0.95196198 </v>
    <v>       0.89152855       0.44850313       0.04809796 </v>
    <v>       0.77563382       0.89089993       0.95202295 </v>
    <v>       0.89089142       0.77563123       0.04802330 </v>
   </varray>
  </structure>
  <varray name="forces" >
   <v>       0.19876247       0.11264652      -0.00900639 </v>
   <v>      -0.39023855      -0.22567232       0.00127288 </v>
   <v>       0.19435551       0.11405975       0.00769936 </v>
   <v>      -0.00511470      -0.23735708      -0.08025373 </v>
   <v>       0.21554203       0.11761559      -0.00201743 </v>
   <v>      -0.21655100       0.12363560       0.08213660 </v>
   <v>       0.21464061       0.12987958      -0.00243026 </v>
   <v>      -0.22157005       0.12469706       0.10182270 </v>
   <v>       0.00682251      -0.26241763      -0.09907106 </v>
   <v>      -0.04735676      -0.04363673       0.13429464 </v>
   <v>      -0.07567655      -0.04878391      -0.00838961 </v>
   <v>       0.00396230      -0.10191240      -0.08726480 </v>
   <v>      -0.03074086      -0.11448530      -0.09086624 </v>
   <v>      -0.10027040      -0.05276049       0.01099275 </v>
   <v>      -0.03225559      -0.05493606       0.09507479 </v>
   <v>      -0.04458920      -0.00936766      -0.10700778 </v>
   <v>       0.05719712      -0.00293623       0.18609448 </v>
   <v>       0.07614895       0.04911068       0.02144604 </v>
   <v>      -0.08433512       0.03689412       0.07025552 </v>
   <v>       0.02650500       0.07159938      -0.16917461 </v>
   <v>       0.11170090       0.06598294      -0.02598304 </v>
   <v>       0.09249293       0.05079617       0.01482019 </v>
   <v>       0.05240609       0.05492640      -0.22486354 </v>
   <v>      -0.11791610       0.05123982       0.10682589 </v>
   <v>       0.10151522       0.05319324      -0.02335164 </v>
   <v>       0.08564196       0.00314179       0.20697377 </v>
   <v>      -0.07107870      -0.00515283      -0.11002946 </v>
  </varray>
  <varray name="stress" >
   <v>     -19.82646646       0.00202511       0.04353955 </v>
   <v>       0.00202529     -19.42424309      -0.02814091 </v>
   <v>       0.04353957      -0.02814081      -1.69126974 </v>
  </varray>
  <energy>
   <i name="e_fr_energy">   -188.67534935 </i>
   <i name="e_wo_entrp">   -188.53339320 </i>
   <i name="e_0_energy">     -0.28391231 </i>
  </energy>
  <time name="totalsc">  421.33  422.44</time>
 </calculation>
 <calculation>
  <scstep>
   <time name="dav">   23.21   23.27</time>
   <time name="total">   23.75   23.81</time>
   <energy>
    <i name="alphaZ">     82.33269535 </i>
    <i name="ewald">  41297.70474079 </i>
    <i name="hartreedc"> -47296.53354757 </i>
    <i name="XCdc">   -233.85704352 </i>
    <i name="pawpsdc">   3949.76778050 </i>
    <i name="pawaedc">  -3364.28750234 </i>
    <i name="eentropy">     -0.23495028 </i>
    <i name="bandstr">  -1386.90853403 </i>
    <i name="atom">   6761.44252427 </i>
    <i name="e_fr_energy">   -190.57383682 </i>
    <i name="e_wo_entrp">   -190.33888655 </i>
    <i name="e_0_energy">   -190.45636169 </i>
   </energy>
  </scstep>
  <scstep>
   <time name="dav">   28.33   28.40</time>
   <time name="total">   28.85   28.93</time>
   <energy>
    <i name="e_fr_energy">   -190.67517188 </i>
    <i name="e_wo_entrp">   -190.42858553 </i>
    <i name="e_0_energy">   -190.55187871 </i>
   </energy>
  </scstep>
  <scstep>
   <time name="dav">   30.22   30.29</time>
   <time name="total">   30.74   30.82</time>
   <energy>
    <i name="e_fr_energy">   -190.02907265 </i>
    <i name="e_wo_entrp">   -189.78453030 </i>
    <i name="e_0_energy">   -189.90680148 </i>
   </energy>
  </scstep>
  <scstep>
   <time name="dav">   30.18   30.25</time>
   <time name="total">   30.72   30.80</time>
   <energy>
    <i name="e_fr_energy">   -189.84650181 </i>
    <i name="e_wo_entrp">   -189.60436723 </i>
    <i name="e_0_energy">   -189.72543452 </i>
   </energy>
  </scstep>
  <scstep>
   <time name="dav">   29.75   29.82</time>
   <time name="total">   30.29   30.37</time>
   <energy>
    <i name="e_fr_energy">   -189.76770255 </i>
    <i name="e_wo_entrp">   -189.52641896 </i>
    <i name="e_0_energy">   -189.64706076 </i>
   </energy>
  </scstep>
  <scstep>
   <time name="dav">   29.45   29.52</time>
   <time name="total">   29.99   30.06</time>
   <energy>
    <i name="e_fr_energy">   -189.74946649 </i>
    <i name="e_wo_entrp">   -189.50968681 </i>
    <i name="e_0_energy">   -189.62957665 </i>
   </energy>
  </scstep>
  <scstep>
   <time name="dav">   28.57   28.64</time>
   <time name="total">   29.10   29.18</time>
   <energy>
    <i name="e_fr_energy">   -189.74393469 </i>
    <i name="e_wo_entrp">   -189.50459671 </i>
    <i name="e_0_energy">   -189.62426570 </i>
   </energy>
  </scstep>
  <scstep>
   <time name="dav">   30.36   30.43</time>
   <time name="total">   30.89   30.98</time>
   <energy>
    <i name="e_fr_energy">   -189.74396178 </i>
    <i name="e_wo_entrp">   -189.50466859 </i>
    <i name="e_0_energy">   -189.62431519 </i>
   </energy>
  </scstep>
  <scstep>
   <time name="dav">   26.87   26.93</time>
   <time name="total">   27.41   27.48</time>
   <energy>
    <i name="e_fr_energy">   -189.74410690 </i>
    <i name="e_wo_entrp">   -189.50463325 </i>
    <i name="e_0_energy">   -189.62437008 </i>
   </energy>
  </scstep>
  <scstep>
   <time name="dav">   26.48   26.54</time>
   <time name="total">   27.01   27.08</time>
   <energy>
    <i name="e_fr_energy">   -189.74459990 </i>
    <i name="e_wo_entrp">   -189.50514763 </i>
    <i name="e_0_energy">   -189.62487376 </i>
   </energy>
  </scstep>
  <scstep>
   <time name="dav">   23.76   23.82</time>
   <time name="total">   24.29   24.36</time>
   <energy>
    <i name="e_fr_energy">   -189.74396417 </i>
    <i name="e_wo_entrp">   -189.50463287 </i>
    <i name="e_0_energy">   -189.62429852 </i>
   </energy>
  </scstep>
  <scstep>
   <time name="dav">   16.85   16.89</time>
   <time name="total">   16.88   16.93</time>
   <energy>
    <i name="alphaZ">     82.33269535 </i>
    <i name="ewald">  41297.70474079 </i>
    <i name="hartreedc"> -47270.27656784 </i>
    <i name="XCdc">   -235.24314867 </i>
    <i name="pawpsdc">   4038.74155590 </i>
    <i name="pawaedc">  -3454.45633890 </i>
    <i name="eentropy">     -0.23936691 </i>
    <i name="bandstr">  -1409.75008198 </i>
    <i name="atom">   6761.44252427 </i>
    <i name="e_fr_energy">   -189.74398798 </i>
    <i name="e_wo_entrp">   -189.50462107 </i>
    <i name="e_0_energy">   -189.62430453 </i>
   </energy>
  </scstep>
  <structure>
   <crystal>
    <varray name="basis" >
     <v>       8.66814797       4.99937663       0.00000000 </v>
     <v>      -8.66836335       4.99974750       0.00000000 </v>
     <v>       0.00000000       0.00000000      30.00000000 </v>
    </varray>
    <i name="volume">   2600.24892931 </i>
    <varray name="rec_basis" >
     <v>       0.05768387       0.10001000       0.00000000 </v>
     <v>      -0.05767959       0.10000752       0.00000000 </v>
     <v>       0.00000000       0.00000000       0.03333333 </v>
    </varray>
   </crystal>
   <varray name="positions" >
    <v>       0.33489786       0.33327594      -0.00000186 </v>
    <v>       0.66355573       0.00008772       0.00000388 </v>
    <v>       0.00159167       0.66668417      -0.00000190 </v>
    <v>       0.66488239       0.33155232      -0.00010879 </v>
    <v>       0.33513113      -0.00008270      -0.00000435 </v>
    <v>       0.33324904       0.66847927       0.00011188 </v>
    <v>       0.00195357      -0.00006294      -0.00000359 </v>
    <v>       0.99992829       0.33531917       0.00010748 </v>
    <v>       0.66469777       0.66466636      -0.00010259 </v>
    <v>       0.11477282       0.22393726       0.95197839 </v>
    <v>       0.22325684       0.11517787       0.04807145 </v>
    <v>       0.10789959       0.55681116       0.95189470 </v>
    <v>       0.22340960       0.44120931       0.04790618 </v>
    <v>       0.10804158       0.88461401       0.95192711 </v>
    <v>       0.21743222       0.77534678       0.04813135 </v>
    <v>       0.44185136       0.22462780       0.95192629 </v>
    <v>       0.55798584       0.10851053       0.04817093 </v>
    <v>       0.44319671       0.55133234       0.95193637 </v>
    <v>       0.55127525       0.44316338       0.04815367 </v>
    <v>       0.44907616       0.89113939       0.95177053 </v>
    <v>       0.55844819       0.78188955       0.04806520 </v>
    <v>       0.77653647       0.21793350       0.95193876 </v>
    <v>       0.88505859       0.10917130       0.04792026 </v>
    <v>       0.78183510       0.55842290       0.95202259 </v>
    <v>       0.89171479       0.44849424       0.04808471 </v>
    <v>       0.77572137       0.89082286       0.95214038 </v>
    <v>       0.89081452       0.77569095       0.04796087 </v>
   </varray>
  </structure>
  <varray name="forces" >
   <v>       0.19555442       0.10952864      -0.00629212 </v>
   <v>      -0.37979115      -0.22204355      -0.00048361 </v>
   <v>       0.19159276       0.11204003       0.00682624 </v>
   <v>      -0.01075368      -0.22357694      -0.06408044 </v>
   <v>       0.19628933       0.10663648      -0.00056302 </v>
   <v>      -0.20362910       0.10852063       0.06475489 </v>
   <v>       0.19491202       0.11832214      -0.00125134 </v>
   <v>      -0.19633567       0.11633363       0.08677679 </v>
   <v>       0.01140740      -0.23943260      -0.08554584 </v>
   <v>       0.01352388       0.08649085      -0.36395155 </v>
   <v>      -0.05388288       0.09178715       0.49327808 </v>
   <v>      -0.10191753      -0.02237048      -0.59293489 </v>
   <v>       0.08387565      -0.03588399       0.39610121 </v>
   <v>       0.03412075      -0.10070204      -0.49313829 </v>
   <v>      -0.07995100      -0.10669971       0.59142988 </v>
   <v>      -0.11459011      -0.02184237      -0.60166078 </v>
   <v>       0.12311677      -0.00158523       0.68697284 </v>
   <v>       0.05106733      -0.09354329      -0.47653440 </v>
   <v>      -0.07114670      -0.09414701       0.57632288 </v>
   <v>       0.06241649       0.12908262      -0.67091298 </v>
   <v>       0.00100630       0.12841090       0.47077972 </v>
   <v>       0.09402271      -0.07317998      -0.48054881 </v>
   <v>      -0.01977206      -0.07185042       0.26160802 </v>
   <v>       0.00762288       0.10976074      -0.38229724 </v>
   <v>      -0.03768777       0.10123330       0.47652094 </v>
   <v>      -0.06142009       0.00669268      -0.27822460 </v>
   <v>       0.07034907      -0.01798220       0.38704840 </v>
  </varray>
  <varray name="stress" >
   <v>     -10.11881122       0.00539416       0.02598660 </v>
   <v>       0.00539421      -9.81057756      -0.02292738 </v>
   <v>       0.02598657      -0.02292730       6.48262807 </v>
  </varray>
  <energy>
   <i name="e_fr_energy">   -189.74398798 </i>
   <i name="e_wo_entrp">   -189.62430453 </i>
   <i name="e_0_energy">     -0.23936691 </i>
  </energy>
  <time name="totalsc">  372.31  373.30</time>
 </calculation>
 <calculation>
  <scstep>
   <time name="dav">   21.77   21.82</time>
   <time name="total">   22.29   22.35</time>
   <energy>
    <i name="alphaZ">     85.80113050 </i>
    <i name="ewald">  42823.87327410 </i>
    <i name="hartreedc"> -48840.86674485 </i>
    <i name="XCdc">   -232.95964697 </i>
    <i name="pawpsdc">   4038.71437774 </i>
    <i name="pawaedc">  -3454.42626215 </i>
    <i name="eentropy">     -0.19349495 </i>
    <i name="bandstr">  -1372.62164150 </i>
    <i name="atom">   6761.44252427 </i>
    <i name="e_fr_energy">   -191.23648381 </i>
    <i name="e_wo_entrp">   -191.04298886 </i>
    <i name="e_0_energy">   -191.13973634 </i>
   </energy>
  </scstep>
  <scstep>
   <time name="dav">   32.91   32.99</time>
   <time name="total">   33.43   33.51</time>
   <energy>
    <i name="e_fr_energy">   -191.35114030 </i>
    <i name="e_wo_entrp">   -191.13867173 </i>
    <i name="e_0_energy">   -191.24490602 </i>
   </energy>
  </scstep>
  <scstep>
   <time name="dav">   29.70   29.77</time>
   <time name="total">   30.22   30.30</time>
   <energy>
    <i name="e_fr_energy">   -191.00125194 </i>
    <i name="e_wo_entrp">   -190.79398739 </i>
    <i name="e_0_energy">   -190.89761967 </i>
   </energy>
  </scstep>
  <scstep>
   <time name="dav">   30.20   30.27</time>
   <time name="total">   30.73   30.81</time>
   <energy>
    <i name="e_fr_energy">   -190.75939407 </i>
    <i name="e_wo_entrp">   -190.55775009 </i>
    <i name="e_0_energy">   -190.65857208 </i>
   </energy>
  </scstep>
  <scstep>
   <time name="dav">   30.03   30.11</time>
   <time name="total">   30.56   30.64</time>
   <energy>
    <i name="e_fr_energy">   -190.66671087 </i>
    <i name="e_wo_entrp">   -190.46474652 </i>
    <i name="e_0_energy">   -190.56572869 </i>
   </energy>
  </scstep>
  <scstep>
   <time name="dav">   29.11   29.18</time>
   <time name="total">   29.63   29.71</time>
   <energy>
    <i name="e_fr_energy">   -190.65699814 </i>
    <i name="e_wo_entrp">   -190.45557518 </i>
    <i name="e_0_energy">   -190.55628666 </i>
   </energy>
  </scstep>
  <scstep>
   <time name="dav">   28.42   28.48</time>
   <time name="total">   28.94   29.02</time>
   <energy>
    <i name="e_fr_energy">   -190.64367121 </i>
    <i name="e_wo_entrp">   -190.44342684 </i>
    <i name="e_0_energy">   -190.54354903 </i>
   </energy>
  </scstep>
  <scstep>
   <time name="dav">   30.15   30.23</time>
   <time name="total">   30.68   30.76</time>
   <energy>
    <i name="e_fr_energy">   -190.63876640 </i>
    <i name="e_wo_entrp">   -190.43811870 </i>
    <i name="e_0_energy">   -190.53844255 </i>
   </energy>
  </scstep>
  <scstep>
   <time name="dav">   27.22   27.29</time>
   <time name="total">   27.75   27.82</time>
   <energy>
    <i name="e_fr_energy">   -190.63932660 </i>
    <i name="e_wo_entrp">   -190.43884681 </i>
    <i name="e_0_energy">   -190.53908670 </i>
   </energy>
  </scstep>
  <scstep>
   <time name="dav">   26.94   27.00</time>
   <time name="total">   27.46   27.53</time>
   <energy>
    <i name="e_fr_energy">   -190.63915756 </i>
    <i name="e_wo_entrp">   -190.43872874 </i>
    <i name="e_0_energy">   -190.53894315 </i>
   </energy>
  </scstep>
  <scstep>
   <time name="dav">   21.11   21.16</time>
   <time name="total">   21.15   21.20</time>
   <energy>
    <i name="alphaZ">     85.80113050 </i>
    <i name="ewald">  42823.87327410 </i>
    <i name="hartreedc"> -48812.46803609 </i>
    <i name="XCdc">   -234.28594626 </i>
    <i name="pawpsdc">   4062.44951367 </i>
    <i name="pawaedc">  -3478.32645478 </i>
    <i name="eentropy">     -0.20042735 </i>
    <i name="bandstr">  -1398.92465680 </i>
    <i name="atom">   6761.44252427 </i>
    <i name="e_fr_energy">   -190.63907875 </i>
    <i name="e_wo_entrp">   -190.43865140 </i>
    <i name="e_0_energy">   -190.53886507 </i>
   </energy>
  </scstep>
  <structure>
   <crystal>
    <varray name="basis" >
     <v>       8.48713545       4.89988662       0.00000000 </v>
     <v>      -8.48709572       4.89981557       0.00000000 </v>
     <v>       0.00000000       0.00000000      30.00000000 </v>
    </varray>
    <i name="volume">   2495.13615598 </i>
    <varray name="rec_basis" >
     <v>       0.05891240       0.10204368       0.00000000 </v>
     <v>      -0.05891326       0.10204416       0.00000000 </v>
     <v>       0.00000000       0.00000000       0.03333333 </v>
    </varray>
   </crystal>
   <varray name="positions" >
    <v>       0.33627989       0.33325221      -0.00001259 </v>
    <v>       0.66081319       0.00006317       0.00000138 </v>
    <v>       0.00297851       0.66669263       0.00001151 </v>
    <v>       0.66346763       0.33023168      -0.00022783 </v>
    <v>       0.33645483      -0.00012375      -0.00000428 </v>
    <v>       0.33317372       0.66984006       0.00023129 </v>
    <v>       0.00334344      -0.00002648      -0.00000518 </v>
    <v>       0.99996304       0.33670170       0.00027452 </v>
    <v>       0.66330155       0.66317439      -0.00026838 </v>
    <v>       0.11577792       0.22466871       0.95079941 </v>
    <v>       0.22402099       0.11626898       0.04952140 </v>
    <v>       0.10743687       0.55739158       0.95023477 </v>
    <v>       0.22385029       0.44071217       0.04914219 </v>
    <v>       0.10760741       0.88354497       0.95047535 </v>
    <v>       0.21627529       0.77490609       0.04978023 </v>
    <v>       0.44116749       0.22497519       0.95025766 </v>
    <v>       0.55851989       0.10796340       0.05002169 </v>
    <v>       0.44240139       0.55023994       0.95052425 </v>
    <v>       0.55011829       0.44248318       0.04977951 </v>
    <v>       0.45030734       0.89181522       0.94995233 </v>
    <v>       0.55925372       0.78300735       0.04946434 </v>
    <v>       0.77610947       0.21682176       0.95052055 </v>
    <v>       0.88411478       0.10857897       0.04887709 </v>
    <v>       0.78287883       0.55904902       0.95081335 </v>
    <v>       0.89213268       0.44958671       0.04949841 </v>
    <v>       0.77533772       0.89130822       0.95115020 </v>
    <v>       0.89112831       0.77508739       0.04918673 </v>
   </varray>
  </structure>
  <varray name="forces" >
   <v>       0.20471856       0.09548792      -0.00141273 </v>
   <v>      -0.35986032      -0.20908171      -0.00210151 </v>
   <v>       0.18307774       0.12563000       0.00359061 </v>
   <v>      -0.02891691      -0.22228363      -0.01326387 </v>
   <v>       0.16017981       0.09051613       0.00242924 </v>
   <v>      -0.20222639       0.08914120       0.01156729 </v>
   <v>       0.22361810       0.13413234       0.00160640 </v>
   <v>      -0.19228353       0.12801536       0.03322293 </v>
   <v>       0.02131599      -0.24465855      -0.03556136 </v>
   <v>       0.00129556       0.06511496      -0.21760755 </v>
   <v>       0.04030000       0.06317885       0.34775747 </v>
   <v>      -0.03346673       0.02805614      -0.40132320 </v>
   <v>       0.01344467       0.03185753       0.25411899 </v>
   <v>       0.07489614       0.00514986      -0.35079421 </v>
   <v>      -0.03697459       0.00526103       0.44907204 </v>
   <v>      -0.00207323      -0.03187259      -0.45298956 </v>
   <v>       0.01466530      -0.01037991       0.50735983 </v>
   <v>      -0.03060309      -0.06364530      -0.32135106 </v>
   <v>       0.00080046      -0.05331906       0.39862654 </v>
   <v>       0.00559685       0.03074628      -0.50180057 </v>
   <v>      -0.02047077       0.03323660       0.31950921 </v>
   <v>       0.01718906      -0.03095532      -0.32103294 </v>
   <v>      -0.02796041      -0.04155804       0.12928712 </v>
   <v>       0.04040564       0.00786394      -0.25153078 </v>
   <v>      -0.07151402       0.00625552       0.32206205 </v>
   <v>      -0.03853971      -0.00277967      -0.13143888 </v>
   <v>       0.04338585      -0.02910985       0.22199847 </v>
  </varray>
  <varray name="stress" >
   <v>      -5.74223514       0.00696059      -0.07565136 </v>
   <v>       0.00696057      -5.77450526       0.00065521 </v>
   <v>      -0.07565134       0.00065514       4.40816483 </v>
  </varray>
  <energy>
   <i name="e_fr_energy">   -190.63907875 </i>
   <i name="e_wo_entrp">   -190.53886507 </i>
   <i name="e_0_energy">     -0.20042735 </i>
  </energy>
  <time name="totalsc">  355.23  356.18</time>
 </calculation>
 <calculation>
  <scstep>
   <time name="dav">   21.75   21.80</time>
   <time name="total">   22.26   22.32</time>
   <energy>
    <i name="alphaZ">     90.20417515 </i>
    <i name="ewald">  44678.95015494 </i>
    <i name="hartreedc"> -50723.72056596 </i>
    <i name="XCdc">   -231.77994628 </i>
    <i name="pawpsdc">   4062.64861622 </i>
    <i name="pawaedc">  -3478.52225238 </i>
    <i name="eentropy">     -0.17395919 </i>
    <i name="bandstr">  -1350.98789011 </i>
    <i name="atom">   6761.44252427 </i>
    <i name="e_fr_energy">   -191.93914333 </i>
    <i name="e_wo_entrp">   -191.76518414 </i>
    <i name="e_0_energy">   -191.85216374 </i>
   </energy>
  </scstep>
  <scstep>
   <time name="dav">   33.03   33.11</time>
   <time name="total">   33.53   33.62</time>
   <energy>
    <i name="e_fr_energy">   -192.05410781 </i>
    <i name="e_wo_entrp">   -191.86345709 </i>
    <i name="e_0_energy">   -191.95878245 </i>
   </energy>
  </scstep>
  <scstep>
   <time name="dav">   29.16   29.23</time>
   <time name="total">   29.67   29.75</time>
   <energy>
    <i name="e_fr_energy">   -191.73279536 </i>
    <i name="e_wo_entrp">   -191.54118763 </i>
    <i name="e_0_energy">   -191.63699149 </i>
   </energy>
  </scstep>
  <scstep>
   <time name="dav">   30.14   30.21</time>
   <time name="total">   30.66   30.74</time>
   <energy>
    <i name="e_fr_energy">   -191.36304714 </i>
    <i name="e_wo_entrp">   -191.17994046 </i>
    <i name="e_0_energy">   -191.27149380 </i>
   </energy>
  </scstep>
  <scstep>
   <time name="dav">   30.94   31.01</time>
   <time name="total">   31.45   31.53</time>
   <energy>
    <i name="e_fr_energy">   -191.20543261 </i>
    <i name="e_wo_entrp">   -191.02528042 </i>
    <i name="e_0_energy">   -191.11535652 </i>
   </energy>
  </scstep>
  <scstep>
   <time name="dav">   30.76   30.84</time>
   <time name="total">   31.27   31.35</time>
   <energy>
    <i name="e_fr_energy">   -191.20271214 </i>
    <i name="e_wo_entrp">   -191.01846229 </i>
    <i name="e_0_energy">   -191.11058722 </i>
   </energy>
  </scstep>
  <scstep>
   <time name="dav">   30.50   30.57</time>
   <time name="total">   31.00   31.08</time>
   <energy>
    <i name="e_fr_energy">   -191.16948413 </i>
    <i name="e_wo_entrp">   -190.98724970 </i>
    <i name="e_0_energy">   -191.07836691 </i>
   </energy>
  </scstep>
  <scstep>
   <time name="dav">   28.09   28.15</time>
   <time name="total">   28.59   28.67</time>
   <energy>
    <i name="e_fr_energy">   -191.16424570 </i>
    <i name="e_wo_entrp">   -190.98227540 </i>
    <i name="e_0_energy">   -191.07326055 </i>
   </energy>
  </scstep>
  <scstep>
   <time name="dav">   28.35   28.42</time>
   <time name="total">   28.86   28.94</time>
   <energy>
    <i name="e_fr_energy">   -191.16500746 </i>
    <i name="e_wo_entrp">   -190.98323940 </i>
    <i name="e_0_energy">   -191.07412343 </i>
   </energy>
  </scstep>
  <scstep>
   <time name="dav">   26.50   26.57</time>
   <time name="total">   27.01   27.08</time>
   <energy>
    <i name="e_fr_energy">   -191.16473914 </i>
    <i name="e_wo_entrp">   -190.98298864 </i>
    <i name="e_0_energy">   -191.07386389 </i>
   </energy>
  </scstep>
  <scstep>
   <time name="dav">   20.32   20.37</time>
   <time name="total">   20.35   20.41</time>
   <energy>
    <i name="alphaZ">     90.20417515 </i>
    <i name="ewald">  44678.95015494 </i>
    <i name="hartreedc"> -50689.19048153 </i>
    <i name="XCdc">   -233.35866797 </i>
    <i name="pawpsdc">   4080.73268709 </i>
    <i name="pawaedc">  -3496.63365365 </i>
    <i name="eentropy">     -0.18176049 </i>
    <i name="bandstr">  -1383.12963294 </i>
    <i name="atom">   6761.44252427 </i>
    <i name="e_fr_energy">   -191.16465513 </i>
    <i name="e_wo_entrp">   -190.98289464 </i>
    <i name="e_0_energy">   -191.07377489 </i>
   </energy>
  </scstep>
  <structure>
   <crystal>
    <varray name="basis" >
     <v>       8.27823830       4.77892704       0.00000000 </v>
     <v>      -8.27767754       4.77795339       0.00000000 </v>
     <v>       0.00000000       0.00000000      30.00000000 </v>
    </varray>
    <i name="volume">   2373.34361280 </i>
    <varray name="rec_basis" >
     <v>       0.06039522       0.10463311       0.00000000 </v>
     <v>      -0.06040752       0.10464020       0.00000000 </v>
     <v>       0.00000000       0.00000000       0.03333333 </v>
    </varray>
   </crystal>
   <varray name="positions" >
    <v>       0.33893628       0.33299927      -0.00001826 </v>
    <v>       0.65561840       0.00003708      -0.00000801 </v>
    <v>       0.00582857       0.66690764       0.00002695 </v>
    <v>       0.66054371       0.32770622      -0.00029314 </v>
    <v>       0.33872741      -0.00015578       0.00000539 </v>
    <v>       0.33283961       0.67236726       0.00028981 </v>
    <v>       0.00649268       0.00003685       0.00000095 </v>
    <v>       1.00016881       0.33958939       0.00042333 </v>
    <v>       0.66048802       0.66005883      -0.00042623 </v>
    <v>       0.11713277       0.22577371       0.94933723 </v>
    <v>       0.22550358       0.11728441       0.05151381 </v>
    <v>       0.10744666       0.55837678       0.94799610 </v>
    <v>       0.22472358       0.44086380       0.05073856 </v>
    <v>       0.10807542       0.88256097       0.94846990 </v>
    <v>       0.21560816       0.77501657       0.05217600 </v>
    <v>       0.44050682       0.22480402       0.94784427 </v>
    <v>       0.55873402       0.10752920       0.05267854 </v>
    <v>       0.44095633       0.54915869       0.94863723 </v>
    <v>       0.54895648       0.44140666       0.05200004 </v>
    <v>       0.45118411       0.89237758       0.94732288 </v>
    <v>       0.55969933       0.78408116       0.05134054 </v>
    <v>       0.77548836       0.21579748       0.94863507 </v>
    <v>       0.88285696       0.10795196       0.04996196 </v>
    <v>       0.78379438       0.55902198       0.94923145 </v>
    <v>       0.89179745       0.45068498       0.05138981 </v>
    <v>       0.77478047       0.89184960       0.95004997 </v>
    <v>       0.89132610       0.77412814       0.05067577 </v>
   </varray>
  </structure>
  <varray name="forces" >
   <v>       0.22086985       0.02442417      -0.02972466 </v>
   <v>      -0.28156478      -0.16201833       0.00473643 </v>
   <v>       0.13382336       0.17807318       0.02481840 </v>
   <v>      -0.03424270      -0.15277919       0.00742387 </v>
   <v>       0.00460207      -0.00540320      -0.00275177 </v>
   <v>      -0.15780442       0.04957097      -0.00359707 </v>
   <v>       0.28380979       0.16081787      -0.00375795 </v>
   <v>      -0.16806107       0.10560695       0.02849325 </v>
   <v>       0.01667778      -0.19752278      -0.02603477 </v>
   <v>      -0.01953587       0.03752729       0.05077565 </v>
   <v>       0.11186056       0.03129297       0.09953904 </v>
   <v>       0.00914707       0.05172640      -0.10864221 </v>
   <v>      -0.06203666       0.08112928      -0.05270487 </v>
   <v>       0.08467508       0.08313063      -0.08886349 </v>
   <v>       0.01373484       0.09820338       0.12649670 </v>
   <v>       0.09177683      -0.03700121      -0.12753928 </v>
   <v>      -0.06350947      -0.02652365       0.15656822 </v>
   <v>      -0.08434652      -0.03308919      -0.02015802 </v>
   <v>       0.04978627      -0.01249696       0.12274535 </v>
   <v>      -0.05720620      -0.04384477      -0.16299261 </v>
   <v>      -0.01725025      -0.04987551       0.01603786 </v>
   <v>      -0.05114921       0.01224617      -0.02083659 </v>
   <v>      -0.01246292       0.00412208      -0.17422085 </v>
   <v>       0.04142993      -0.09248175       0.05073638 </v>
   <v>      -0.07398917      -0.05719735       0.01327757 </v>
   <v>      -0.00060717      -0.01002007       0.18006311 </v>
   <v>       0.02157299      -0.03761738      -0.05988768 </v>
  </varray>
  <varray name="stress" >
   <v>      -0.35826256      -0.00675053      -0.04912501 </v>
   <v>      -0.00675039      -0.28881719       0.06822868 </v>
   <v>      -0.04912495       0.06822872      -0.66572968 </v>
  </varray>
  <energy>
   <i name="e_fr_energy">   -191.16465513 </i>
   <i name="e_wo_entrp">   -191.07377489 </i>
   <i name="e_0_energy">     -0.18176049 </i>
  </energy>
  <time name="totalsc">  356.58  357.53</time>
 </calculation>
 <calculation>
  <scstep>
   <time name="dav">   21.73   21.79</time>
   <time name="total">   22.24   22.30</time>
   <energy>
    <i name="alphaZ">     90.46072019 </i>
    <i name="ewald">  44780.35963283 </i>
    <i name="hartreedc"> -50794.04223647 </i>
    <i name="XCdc">   -233.24371987 </i>
    <i name="pawpsdc">   4080.80218522 </i>
    <i name="pawaedc">  -3496.69939726 </i>
    <i name="eentropy">     -0.18674823 </i>
    <i name="bandstr">  -1380.09783317 </i>
    <i name="atom">   6761.44252427 </i>
    <i name="e_fr_energy">   -191.20487249 </i>
    <i name="e_wo_entrp">   -191.01812425 </i>
    <i name="e_0_energy">   -191.11149837 </i>
   </energy>
  </scstep>
  <scstep>
   <time name="dav">   32.21   32.29</time>
   <time name="total">   32.72   32.80</time>
   <energy>
    <i name="e_fr_energy">   -191.21692117 </i>
    <i name="e_wo_entrp">   -191.02955377 </i>
    <i name="e_0_energy">   -191.12323747 </i>
   </energy>
  </scstep>
  <scstep>
   <time name="dav">   30.40   30.47</time>
   <time name="total">   30.91   30.99</time>
   <energy>
    <i name="e_fr_energy">   -191.21344946 </i>
    <i name="e_wo_entrp">   -191.02713817 </i>
    <i name="e_0_energy">   -191.12029382 </i>
   </energy>
  </scstep>
  <scstep>
   <time name="dav">   28.17   28.24</time>
   <time name="total">   28.68   28.75</time>
   <energy>
    <i name="e_fr_energy">   -191.20944718 </i>
    <i name="e_wo_entrp">   -191.02234158 </i>
    <i name="e_0_energy">   -191.11589438 </i>
   </energy>
  </scstep>
  <scstep>
   <time name="dav">   25.87   25.93</time>
   <time name="total">   26.38   26.45</time>
   <energy>
    <i name="e_fr_energy">   -191.20802084 </i>
    <i name="e_wo_entrp">   -191.02119875 </i>
    <i name="e_0_energy">   -191.11460980 </i>
   </energy>
  </scstep>
  <scstep>
   <time name="dav">   30.13   30.20</time>
   <time name="total">   30.64   30.72</time>
   <energy>
    <i name="e_fr_energy">   -191.20825716 </i>
    <i name="e_wo_entrp">   -191.02115604 </i>
    <i name="e_0_energy">   -191.11470660 </i>
   </energy>
  </scstep>
  <scstep>
   <time name="dav">   26.27   26.33</time>
   <time name="total">   26.78   26.85</time>
   <energy>
    <i name="e_fr_energy">   -191.20762875 </i>
    <i name="e_wo_entrp">   -191.02062829 </i>
    <i name="e_0_energy">   -191.11412852 </i>
   </energy>
  </scstep>
  <scstep>
   <time name="dav">   17.58   17.62</time>
   <time name="total">   17.61   17.67</time>
   <energy>
    <i name="alphaZ">     90.46072019 </i>
    <i name="ewald">  44780.35963283 </i>
    <i name="hartreedc"> -50792.90477511 </i>
    <i name="XCdc">   -233.31557627 </i>
    <i name="pawpsdc">   4080.33782346 </i>
    <i name="pawaedc">  -3496.21938644 </i>
    <i name="eentropy">     -0.18698881 </i>
    <i name="bandstr">  -1381.18163770 </i>
    <i name="atom">   6761.44252427 </i>
    <i name="e_fr_energy">   -191.20766358 </i>
    <i name="e_wo_entrp">   -191.02067477 </i>
    <i name="e_0_energy">   -191.11416917 </i>
   </energy>
  </scstep>
  <structure>
   <crystal>
    <varray name="basis" >
     <v>       8.26561749       4.77246421       0.00000000 </v>
     <v>      -8.26521875       4.77177107       0.00000000 </v>
     <v>       0.00000000       0.00000000      30.00000000 </v>
    </varray>
    <i name="volume">   2366.61285137 </i>
    <varray name="rec_basis" >
     <v>       0.06048861       0.10477276       0.00000000 </v>
     <v>      -0.06049740       0.10477782       0.00000000 </v>
     <v>       0.00000000       0.00000000       0.03333333 </v>
    </varray>
   </crystal>
   <varray name="positions" >
    <v>       0.33983974       0.33244078      -0.00006901 </v>
    <v>       0.65370470       0.00003876      -0.00000030 </v>
    <v>       0.00729022       0.66745265       0.00006971 </v>
    <v>       0.65952186       0.32690887      -0.00028305 </v>
    <v>       0.33879179      -0.00020011       0.00000104 </v>
    <v>       0.33260655       0.67320551       0.00028600 </v>
    <v>       0.00833259       0.00002294      -0.00000524 </v>
    <v>       1.00022175       0.34076981       0.00047728 </v>
    <v>       0.65938870       0.65884622      -0.00047631 </v>
    <v>       0.11733230       0.22607970       0.94935950 </v>
    <v>       0.22607625       0.11715390       0.05176569 </v>
    <v>       0.10774908       0.55866808       0.94771952 </v>
    <v>       0.22500461       0.44149006       0.05071736 </v>
    <v>       0.10879339       0.88269793       0.94823571 </v>
    <v>       0.21614088       0.77549737       0.05248758 </v>
    <v>       0.44056341       0.22432244       0.94753026 </v>
    <v>       0.55840959       0.10756366       0.05305091 </v>
    <v>       0.44045956       0.54919273       0.94852399 </v>
    <v>       0.54899123       0.44113972       0.05229981 </v>
    <v>       0.45081464       0.89234441       0.94694065 </v>
    <v>       0.55939950       0.78391714       0.05144632 </v>
    <v>       0.77536630       0.21597308       0.94852073 </v>
    <v>       0.88278445       0.10798346       0.04971618 </v>
    <v>       0.78347223       0.55840336       0.94924989 </v>
    <v>       0.89125471       0.45065745       0.05149154 </v>
    <v>       0.77470010       0.89182365       0.95030499 </v>
    <v>       0.89120431       0.77382089       0.05063914 </v>
   </varray>
  </structure>
  <varray name="forces" >
   <v>       0.25492498       0.02154943      -0.01950229 </v>
   <v>      -0.30279435      -0.17272267      -0.00132707 </v>
   <v>       0.14094895       0.20475791       0.02170391 </v>
   <v>      -0.03891385      -0.16355051       0.01222360 </v>
   <v>      -0.02520688      -0.00970943       0.00123548 </v>
   <v>      -0.15207371       0.05626184      -0.01415049 </v>
   <v>       0.33576813       0.20563988       0.00099253 </v>
   <v>      -0.20488581       0.11807091       0.03846223 </v>
   <v>       0.00752039      -0.25545885      -0.03890108 </v>
   <v>      -0.00552410       0.03160762       0.07613886 </v>
   <v>       0.06714439       0.03915842       0.10112959 </v>
   <v>      -0.00780444       0.03537955      -0.08165331 </v>
   <v>      -0.02879576       0.05810158      -0.09750632 </v>
   <v>       0.06990827       0.04227601      -0.10424887 </v>
   <v>       0.00277488       0.06349968       0.10324501 </v>
   <v>       0.05449524      -0.02775466      -0.09873446 </v>
   <v>      -0.04184666      -0.02641819       0.11382216 </v>
   <v>      -0.05557831      -0.05009588       0.01379356 </v>
   <v>       0.02366113      -0.02551307       0.08431666 </v>
   <v>      -0.04225465      -0.02333932      -0.11564550 </v>
   <v>      -0.01440761      -0.02290711      -0.00953219 </v>
   <v>      -0.02548530       0.00072861       0.00906159 </v>
   <v>       0.00358120      -0.00346873      -0.21744425 </v>
   <v>       0.03754553      -0.05570115       0.09003478 </v>
   <v>      -0.07362892      -0.02574171      -0.01199785 </v>
   <v>       0.00041208       0.00651097       0.22379215 </v>
   <v>       0.02051519      -0.02116113      -0.07930844 </v>
  </varray>
  <varray name="stress" >
   <v>       0.19052796       0.00305999      -0.06949278 </v>
   <v>       0.00305993       0.16923833       0.08247668 </v>
   <v>      -0.06949283       0.08247667      -1.18256411 </v>
  </varray>
  <energy>
   <i name="e_fr_energy">   -191.20766358 </i>
   <i name="e_wo_entrp">   -191.11416917 </i>
   <i name="e_0_energy">     -0.18698881 </i>
  </energy>
  <time name="totalsc">  258.34  259.03</time>
 </calculation>
 <calculation>
  <scstep>
   <time name="dav">   21.77   21.83</time>
   <time name="total">   22.29   22.34</time>
   <energy>
    <i name="alphaZ">     90.36485650 </i>
    <i name="ewald">  44744.04717305 </i>
    <i name="hartreedc"> -50755.31399558 </i>
    <i name="XCdc">   -233.35420860 </i>
    <i name="pawpsdc">   4080.42121847 </i>
    <i name="pawaedc">  -3496.30326859 </i>
    <i name="eentropy">     -0.18921206 </i>
    <i name="bandstr">  -1382.33500744 </i>
    <i name="atom">   6761.44252427 </i>
    <i name="e_fr_energy">   -191.21991997 </i>
    <i name="e_wo_entrp">   -191.03070791 </i>
    <i name="e_0_energy">   -191.12531394 </i>
   </energy>
  </scstep>
  <scstep>
   <time name="dav">   28.93   29.00</time>
   <time name="total">   29.44   29.52</time>
   <energy>
    <i name="e_fr_energy">   -191.22072202 </i>
    <i name="e_wo_entrp">   -191.03146569 </i>
    <i name="e_0_energy">   -191.12609386 </i>
   </energy>
  </scstep>
  <scstep>
   <time name="dav">   30.52   30.60</time>
   <time name="total">   31.03   31.11</time>
   <energy>
    <i name="e_fr_energy">   -191.22066705 </i>
    <i name="e_wo_entrp">   -191.03180774 </i>
    <i name="e_0_energy">   -191.12623739 </i>
   </energy>
  </scstep>
  <scstep>
   <time name="dav">   25.11   25.17</time>
   <time name="total">   25.62   25.69</time>
   <energy>
    <i name="e_fr_energy">   -191.22008983 </i>
    <i name="e_wo_entrp">   -191.03090141 </i>
    <i name="e_0_energy">   -191.12549562 </i>
   </energy>
  </scstep>
  <scstep>
   <time name="dav">   23.45   23.51</time>
   <time name="total">   23.49   23.55</time>
   <energy>
    <i name="alphaZ">     90.36485650 </i>
    <i name="ewald">  44744.04717305 </i>
    <i name="hartreedc"> -50756.53252725 </i>
    <i name="XCdc">   -233.31830065 </i>
    <i name="pawpsdc">   4081.69903112 </i>
    <i name="pawaedc">  -3497.59432920 </i>
    <i name="eentropy">     -0.18914287 </i>
    <i name="bandstr">  -1381.13930043 </i>
    <i name="atom">   6761.44252427 </i>
    <i name="e_fr_energy">   -191.22001546 </i>
    <i name="e_wo_entrp">   -191.03087259 </i>
    <i name="e_0_energy">   -191.12544402 </i>
   </energy>
  </scstep>
  <structure>
   <crystal>
    <varray name="basis" >
     <v>       8.27011964       4.77495269       0.00000000 </v>
     <v>      -8.26969779       4.77421955       0.00000000 </v>
     <v>       0.00000000       0.00000000      30.00000000 </v>
    </varray>
    <i name="volume">   2369.12347604 </i>
    <varray name="rec_basis" >
     <v>       0.06045552       0.10471845       0.00000000 </v>
     <v>      -0.06046480       0.10472379       0.00000000 </v>
     <v>       0.00000000       0.00000000       0.03333333 </v>
    </varray>
   </crystal>
   <varray name="positions" >
    <v>       0.34007314       0.33222714      -0.00007889 </v>
    <v>       0.65322022       0.00004335      -0.00000116 </v>
    <v>       0.00772287       0.66766330       0.00008098 </v>
    <v>       0.65926469       0.32672098      -0.00027454 </v>
    <v>       0.33869694      -0.00018867       0.00000173 </v>
    <v>       0.33256165       0.67339764       0.00027626 </v>
    <v>       0.00896176       0.00004435      -0.00000455 </v>
[...]
      <set comment="kpoint 31">
       <r>  -17.4845    1.0000 </r>
       <r>  -17.2871    1.0000 </r>
       <r>  -16.9354    1.0000 </r>
       <r>  -16.5927    1.0000 </r>
       <r>  -16.5274    1.0000 </r>
       <r>  -16.4360    1.0000 </r>
       <r>  -16.2830    1.0000 </r>
       <r>  -16.1542    1.0000 </r>
       <r>  -16.0793    1.0000 </r>
       <r>  -16.0422    1.0000 </r>
       <r>  -15.9224    1.0000 </r>
       <r>  -15.8952    1.0000 </r>
       <r>  -15.7908    1.0000 </r>
       <r>  -15.7416    1.0000 </r>
       <r>  -15.6593    1.0000 </r>
       <r>  -15.4940    1.0000 </r>
       <r>  -15.4761    1.0000 </r>
       <r>  -15.3372    1.0000 </r>
       <r>   -9.7193    1.0000 </r>
       <r>   -9.3804    1.0000 </r>
       <r>   -9.3117    1.0000 </r>
       <r>   -8.9332    1.0000 </r>
       <r>   -8.8500    1.0000 </r>
       <r>   -8.7476    1.0000 </r>
       <r>   -8.5924    1.0000 </r>
       <r>   -8.5576    1.0000 </r>
       <r>   -8.4187    1.0000 </r>
       <r>   -8.3336    1.0000 </r>
       <r>   -8.2531    1.0000 </r>
       <r>   -8.1799    1.0000 </r>
       <r>   -8.1095    1.0000 </r>
       <r>   -8.0640    1.0000 </r>
       <r>   -8.0256    1.0000 </r>
       <r>   -7.9307    1.0000 </r>
       <r>   -7.8187    1.0000 </r>
       <r>   -7.6273    1.0000 </r>
       <r>   -7.5731    1.0000 </r>
       <r>   -7.4842    1.0000 </r>
       <r>   -7.3687    1.0000 </r>
       <r>   -7.3179    1.0000 </r>
       <r>   -7.2559    1.0000 </r>
       <r>   -7.1096    1.0000 </r>
       <r>   -7.0177    1.0000 </r>
       <r>   -6.9704    1.0000 </r>
       <r>   -6.8652    1.0000 </r>
       <r>   -6.7928    1.0000 </r>
       <r>   -6.6878    1.0000 </r>
       <r>   -6.5829    1.0000 </r>
       <r>   -6.4807    1.0000 </r>
       <r>   -6.4570    1.0000 </r>
       <r>   -6.4142    1.0000 </r>
       <r>   -6.3617    1.0000 </r>
       <r>   -6.2797    1.0000 </r>
       <r>   -6.1538    1.0000 </r>
       <r>   -6.0901    1.0000 </r>
       <r>   -6.0260    1.0000 </r>
       <r>   -5.9601    1.0000 </r>
       <r>   -5.9196    1.0000 </r>
       <r>   -5.8285    1.0000 </r>
       <r>   -5.7375    1.0000 </r>
       <r>   -5.6694    1.0000 </r>
       <r>   -5.5636    1.0000 </r>
       <r>   -5.5479    1.0000 </r>
       <r>   -5.4786    1.0000 </r>
       <r>   -5.4005    1.0000 </r>
       <r>   -5.1917    1.0000 </r>
       <r>   -5.1220    1.0000 </r>
       <r>   -4.8757    1.0000 </r>
       <r>   -4.7673    1.0000 </r>
       <r>   -4.6866    1.0000 </r>
       <r>   -4.6126    1.0000 </r>
       <r>   -4.4298    1.0000 </r>
       <r>   -4.1821    1.0000 </r>
       <r>   -4.1497    1.0000 </r>
       <r>   -4.1188    1.0000 </r>
       <r>   -3.9359    1.0000 </r>
       <r>   -3.8158    0.9992 </r>
       <r>   -3.5981    0.9486 </r>
       <r>   -3.4812    0.7894 </r>
       <r>   -3.3916    0.5677 </r>
       <r>   -3.0839    0.0225 </r>
       <r>   -2.8316    0.0001 </r>
       <r>   -2.7394    0.0000 </r>
       <r>   -2.5033    0.0000 </r>
       <r>   -2.4454    0.0000 </r>
       <r>   -2.3529    0.0000 </r>
       <r>   -2.0320    0.0000 </r>
       <r>   -1.9112    0.0000 </r>
       <r>   -1.8836    0.0000 </r>
       <r>   -1.7786    0.0000 </r>
       <r>   -1.6216    0.0000 </r>
       <r>   -1.5266    0.0000 </r>
       <r>   -1.4437    0.0000 </r>
       <r>   -1.3384    0.0000 </r>
       <r>   -1.2514    0.0000 </r>
       <r>   -1.2343    0.0000 </r>
       <r>   -1.1096    0.0000 </r>
       <r>   -1.0764    0.0000 </r>
       <r>   -1.0093    0.0000 </r>
       <r>   -0.9782    0.0000 </r>
       <r>   -0.8751    0.0000 </r>
       <r>   -0.8234    0.0000 </r>
       <r>   -0.7813    0.0000 </r>
       <r>   -0.6375    0.0000 </r>
       <r>   -0.5875    0.0000 </r>
       <r>   -0.4638    0.0000 </r>
       <r>   -0.3467    0.0000 </r>
       <r>    0.0077    0.0000 </r>
       <r>    0.1390    0.0000 </r>
       <r>    0.1900    0.0000 </r>
       <r>    0.4850    0.0000 </r>
       <r>    0.8389    0.0000 </r>
       <r>    0.8745    0.0000 </r>
       <r>    1.0350    0.0000 </r>
       <r>    1.1387    0.0000 </r>
       <r>    1.2058    0.0000 </r>
       <r>    1.2649    0.0000 </r>
       <r>    2.1477    0.0000 </r>
       <r>    2.2906    0.0000 </r>
       <r>    2.4072    0.0000 </r>
      </set>
      <set comment="kpoint 32">
       <r>  -17.5080    1.0000 </r>
       <r>  -17.1761    1.0000 </r>
       <r>  -17.0800    1.0000 </r>
       <r>  -16.6070    1.0000 </r>
       <r>  -16.4725    1.0000 </r>
       <r>  -16.3195    1.0000 </r>
       <r>  -16.2705    1.0000 </r>
       <r>  -16.2274    1.0000 </r>
       <r>  -16.0698    1.0000 </r>
       <r>  -16.0125    1.0000 </r>
       <r>  -15.9746    1.0000 </r>
       <r>  -15.9342    1.0000 </r>
       <r>  -15.8150    1.0000 </r>
       <r>  -15.7375    1.0000 </r>
       <r>  -15.6519    1.0000 </r>
       <r>  -15.4927    1.0000 </r>
       <r>  -15.4682    1.0000 </r>
       <r>  -15.3219    1.0000 </r>
       <r>   -9.6464    1.0000 </r>
       <r>   -9.5365    1.0000 </r>
       <r>   -9.3533    1.0000 </r>
       <r>   -8.8459    1.0000 </r>
       <r>   -8.7450    1.0000 </r>
       <r>   -8.6434    1.0000 </r>
       <r>   -8.5498    1.0000 </r>
       <r>   -8.5030    1.0000 </r>
       <r>   -8.4517    1.0000 </r>
       <r>   -8.3571    1.0000 </r>
       <r>   -8.3283    1.0000 </r>
       <r>   -8.2321    1.0000 </r>
       <r>   -8.1635    1.0000 </r>
       <r>   -8.1500    1.0000 </r>
       <r>   -8.0342    1.0000 </r>
       <r>   -7.9200    1.0000 </r>
       <r>   -7.8759    1.0000 </r>
       <r>   -7.6466    1.0000 </r>
       <r>   -7.5180    1.0000 </r>
       <r>   -7.4149    1.0000 </r>
       <r>   -7.3115    1.0000 </r>
       <r>   -7.2583    1.0000 </r>
       <r>   -7.2311    1.0000 </r>
       <r>   -7.1419    1.0000 </r>
       <r>   -7.0870    1.0000 </r>
       <r>   -6.9910    1.0000 </r>
       <r>   -6.8791    1.0000 </r>
       <r>   -6.8087    1.0000 </r>
       <r>   -6.6638    1.0000 </r>
       <r>   -6.6224    1.0000 </r>
       <r>   -6.5126    1.0000 </r>
       <r>   -6.4579    1.0000 </r>
       <r>   -6.4117    1.0000 </r>
       <r>   -6.3465    1.0000 </r>
       <r>   -6.2938    1.0000 </r>
       <r>   -6.1912    1.0000 </r>
       <r>   -6.1141    1.0000 </r>
       <r>   -6.0452    1.0000 </r>
       <r>   -5.9189    1.0000 </r>
       <r>   -5.8699    1.0000 </r>
       <r>   -5.8003    1.0000 </r>
       <r>   -5.6974    1.0000 </r>
       <r>   -5.6566    1.0000 </r>
       <r>   -5.6044    1.0000 </r>
       <r>   -5.4870    1.0000 </r>
       <r>   -5.4492    1.0000 </r>
       <r>   -5.3599    1.0000 </r>
       <r>   -5.2329    1.0000 </r>
       <r>   -5.0694    1.0000 </r>
       <r>   -5.0142    1.0000 </r>
       <r>   -4.8232    1.0000 </r>
       <r>   -4.6643    1.0000 </r>
       <r>   -4.5764    1.0000 </r>
       <r>   -4.4320    1.0000 </r>
       <r>   -4.2621    1.0000 </r>
       <r>   -4.1834    1.0000 </r>
       <r>   -4.0823    1.0000 </r>
       <r>   -3.8950    0.9999 </r>
       <r>   -3.7649    0.9975 </r>
       <r>   -3.6554    0.9791 </r>
       <r>   -3.5333    0.8796 </r>
       <r>   -3.3759    0.5237 </r>
       <r>   -3.0527    0.0130 </r>
       <r>   -2.7912    0.0000 </r>
       <r>   -2.6643    0.0000 </r>
       <r>   -2.5195    0.0000 </r>
       <r>   -2.4122    0.0000 </r>
       <r>   -2.3093    0.0000 </r>
       <r>   -2.0672    0.0000 </r>
       <r>   -1.9272    0.0000 </r>
       <r>   -1.8821    0.0000 </r>
       <r>   -1.7734    0.0000 </r>
       <r>   -1.6312    0.0000 </r>
       <r>   -1.5533    0.0000 </r>
       <r>   -1.4494    0.0000 </r>
       <r>   -1.3526    0.0000 </r>
       <r>   -1.3038    0.0000 </r>
       <r>   -1.2365    0.0000 </r>
       <r>   -1.1067    0.0000 </r>
       <r>   -1.0569    0.0000 </r>
       <r>   -1.0369    0.0000 </r>
       <r>   -0.9537    0.0000 </r>
       <r>   -0.9155    0.0000 </r>
       <r>   -0.8503    0.0000 </r>
       <r>   -0.7769    0.0000 </r>
       <r>   -0.6818    0.0000 </r>
       <r>   -0.5585    0.0000 </r>
       <r>   -0.3936    0.0000 </r>
       <r>   -0.2731    0.0000 </r>
       <r>    0.0241    0.0000 </r>
       <r>    0.1442    0.0000 </r>
       <r>    0.1991    0.0000 </r>
       <r>    0.5032    0.0000 </r>
       <r>    0.7373    0.0000 </r>
       <r>    0.8227    0.0000 </r>
       <r>    0.9904    0.0000 </r>
       <r>    1.1314    0.0000 </r>
       <r>    1.2224    0.0000 </r>
       <r>    1.3269    0.0000 </r>
       <r>    2.1121    0.0000 </r>
       <r>    2.2598    0.0000 </r>
       <r>    2.5758    0.0000 </r>
      </set>
      <set comment="kpoint 33">
       <r>  -17.4877    1.0000 </r>
       <r>  -17.2896    1.0000 </r>
       <r>  -16.9313    1.0000 </r>
       <r>  -16.6224    1.0000 </r>
       <r>  -16.4989    1.0000 </r>
       <r>  -16.4374    1.0000 </r>
       <r>  -16.2621    1.0000 </r>
       <r>  -16.1307    1.0000 </r>
       <r>  -16.0415    1.0000 </r>
       <r>  -16.0153    1.0000 </r>
       <r>  -15.9655    1.0000 </r>
       <r>  -15.9221    1.0000 </r>
       <r>  -15.8437    1.0000 </r>
       <r>  -15.7441    1.0000 </r>
       <r>  -15.6625    1.0000 </r>
       <r>  -15.5001    1.0000 </r>
       <r>  -15.4695    1.0000 </r>
       <r>  -15.3165    1.0000 </r>
       <r>   -9.7141    1.0000 </r>
       <r>   -9.4460    1.0000 </r>
       <r>   -9.2437    1.0000 </r>
       <r>   -8.9575    1.0000 </r>
       <r>   -8.8090    1.0000 </r>
       <r>   -8.7353    1.0000 </r>
       <r>   -8.5235    1.0000 </r>
       <r>   -8.4746    1.0000 </r>
       <r>   -8.4367    1.0000 </r>
       <r>   -8.3866    1.0000 </r>
       <r>   -8.3244    1.0000 </r>
       <r>   -8.2524    1.0000 </r>
       <r>   -8.1817    1.0000 </r>
       <r>   -8.0961    1.0000 </r>
       <r>   -7.9421    1.0000 </r>
       <r>   -7.9082    1.0000 </r>
       <r>   -7.8220    1.0000 </r>
       <r>   -7.7131    1.0000 </r>
       <r>   -7.5310    1.0000 </r>
       <r>   -7.3986    1.0000 </r>
       <r>   -7.3586    1.0000 </r>
       <r>   -7.2767    1.0000 </r>
       <r>   -7.1508    1.0000 </r>
       <r>   -7.0985    1.0000 </r>
       <r>   -7.0127    1.0000 </r>
       <r>   -6.9733    1.0000 </r>
       <r>   -6.8854    1.0000 </r>
       <r>   -6.8336    1.0000 </r>
       <r>   -6.7467    1.0000 </r>
       <r>   -6.5743    1.0000 </r>
       <r>   -6.5229    1.0000 </r>
       <r>   -6.4693    1.0000 </r>
       <r>   -6.4029    1.0000 </r>
       <r>   -6.3380    1.0000 </r>
       <r>   -6.2736    1.0000 </r>
       <r>   -6.2004    1.0000 </r>
       <r>   -6.1737    1.0000 </r>
       <r>   -6.0798    1.0000 </r>
       <r>   -5.9954    1.0000 </r>
       <r>   -5.9042    1.0000 </r>
       <r>   -5.8282    1.0000 </r>
       <r>   -5.7687    1.0000 </r>
       <r>   -5.6971    1.0000 </r>
       <r>   -5.5971    1.0000 </r>
       <r>   -5.4991    1.0000 </r>
       <r>   -5.4332    1.0000 </r>
       <r>   -5.2765    1.0000 </r>
       <r>   -5.1322    1.0000 </r>
       <r>   -5.0729    1.0000 </r>
       <r>   -4.9336    1.0000 </r>
       <r>   -4.8260    1.0000 </r>
       <r>   -4.6937    1.0000 </r>
       <r>   -4.5213    1.0000 </r>
       <r>   -4.4071    1.0000 </r>
       <r>   -4.3112    1.0000 </r>
       <r>   -4.1877    1.0000 </r>
       <r>   -4.0940    1.0000 </r>
       <r>   -3.8764    0.9998 </r>
       <r>   -3.7876    0.9985 </r>
       <r>   -3.6790    0.9862 </r>
       <r>   -3.5860    0.9389 </r>
       <r>   -3.4160    0.6342 </r>
       <r>   -2.9794    0.0030 </r>
       <r>   -2.7615    0.0000 </r>
       <r>   -2.6162    0.0000 </r>
       <r>   -2.5402    0.0000 </r>
       <r>   -2.3758    0.0000 </r>
       <r>   -2.2711    0.0000 </r>
       <r>   -2.0929    0.0000 </r>
       <r>   -1.9282    0.0000 </r>
       <r>   -1.8667    0.0000 </r>
       <r>   -1.7464    0.0000 </r>
       <r>   -1.6390    0.0000 </r>
       <r>   -1.5664    0.0000 </r>
       <r>   -1.4679    0.0000 </r>
       <r>   -1.3961    0.0000 </r>
       <r>   -1.3218    0.0000 </r>
       <r>   -1.2357    0.0000 </r>
       <r>   -1.1351    0.0000 </r>
       <r>   -1.0536    0.0000 </r>
       <r>   -1.0423    0.0000 </r>
       <r>   -0.9832    0.0000 </r>
       <r>   -0.9372    0.0000 </r>
       <r>   -0.8463    0.0000 </r>
       <r>   -0.7770    0.0000 </r>
       <r>   -0.7181    0.0000 </r>
       <r>   -0.4844    0.0000 </r>
       <r>   -0.3773    0.0000 </r>
       <r>   -0.2124    0.0000 </r>
       <r>   -0.0345    0.0000 </r>
       <r>    0.1002    0.0000 </r>
       <r>    0.2695    0.0000 </r>
       <r>    0.5209    0.0000 </r>
       <r>    0.6673    0.0000 </r>
       <r>    0.8180    0.0000 </r>
       <r>    0.9516    0.0000 </r>
       <r>    1.0993    0.0000 </r>
       <r>    1.2639    0.0000 </r>
       <r>    1.4247    0.0000 </r>
       <r>    2.1397    0.0000 </r>
       <r>    2.2950    0.0000 </r>
       <r>    2.4007    0.0000 </r>
      </set>
      <set comment="kpoint 34">
       <r>  -17.4479    1.0000 </r>
       <r>  -17.3720    1.0000 </r>
       <r>  -16.7494    1.0000 </r>
       <r>  -16.7076    1.0000 </r>
       <r>  -16.5960    1.0000 </r>
       <r>  -16.4430    1.0000 </r>
       <r>  -16.2515    1.0000 </r>
       <r>  -16.1284    1.0000 </r>
       <r>  -16.0384    1.0000 </r>
       <r>  -16.0011    1.0000 </r>
       <r>  -15.9364    1.0000 </r>
       <r>  -15.8941    1.0000 </r>
       <r>  -15.8184    1.0000 </r>
       <r>  -15.7918    1.0000 </r>
       <r>  -15.6720    1.0000 </r>
       <r>  -15.5054    1.0000 </r>
       <r>  -15.4712    1.0000 </r>
       <r>  -15.3171    1.0000 </r>
       <r>   -9.7542    1.0000 </r>
       <r>   -9.2978    1.0000 </r>
       <r>   -9.1778    1.0000 </r>
       <r>   -9.0576    1.0000 </r>
       <r>   -8.9436    1.0000 </r>
       <r>   -8.7639    1.0000 </r>
       <r>   -8.5538    1.0000 </r>
       <r>   -8.4807    1.0000 </r>
       <r>   -8.4477    1.0000 </r>
       <r>   -8.3606    1.0000 </r>
       <r>   -8.2834    1.0000 </r>
       <r>   -8.2563    1.0000 </r>
       <r>   -8.2158    1.0000 </r>
       <r>   -8.0250    1.0000 </r>
       <r>   -7.9249    1.0000 </r>
       <r>   -7.8841    1.0000 </r>
       <r>   -7.7381    1.0000 </r>
       <r>   -7.6385    1.0000 </r>
       <r>   -7.5990    1.0000 </r>
       <r>   -7.5475    1.0000 </r>
       <r>   -7.3640    1.0000 </r>
       <r>   -7.2270    1.0000 </r>
       <r>   -7.1281    1.0000 </r>
       <r>   -7.0653    1.0000 </r>
       <r>   -7.0318    1.0000 </r>
       <r>   -6.9204    1.0000 </r>
       <r>   -6.9156    1.0000 </r>
       <r>   -6.7807    1.0000 </r>
       <r>   -6.6778    1.0000 </r>
       <r>   -6.6242    1.0000 </r>
       <r>   -6.5498    1.0000 </r>
       <r>   -6.4671    1.0000 </r>
       <r>   -6.4286    1.0000 </r>
       <r>   -6.3136    1.0000 </r>
       <r>   -6.2903    1.0000 </r>
       <r>   -6.2455    1.0000 </r>
       <r>   -6.1711    1.0000 </r>
       <r>   -6.0843    1.0000 </r>
       <r>   -6.0514    1.0000 </r>
       <r>   -5.9273    1.0000 </r>
       <r>   -5.8782    1.0000 </r>
       <r>   -5.7843    1.0000 </r>
       <r>   -5.6857    1.0000 </r>
       <r>   -5.5887    1.0000 </r>
       <r>   -5.5659    1.0000 </r>
       <r>   -5.4171    1.0000 </r>
       <r>   -5.2748    1.0000 </r>
       <r>   -5.1434    1.0000 </r>
       <r>   -4.8989    1.0000 </r>
       <r>   -4.8747    1.0000 </r>
       <r>   -4.8248    1.0000 </r>
       <r>   -4.7063    1.0000 </r>
       <r>   -4.5788    1.0000 </r>
       <r>   -4.4467    1.0000 </r>
       <r>   -4.2148    1.0000 </r>
       <r>   -4.1811    1.0000 </r>
       <r>   -4.1091    1.0000 </r>
       <r>   -3.9023    0.9999 </r>
       <r>   -3.8100    0.9991 </r>
       <r>   -3.6859    0.9878 </r>
       <r>   -3.6045    0.9531 </r>
       <r>   -3.4451    0.7085 </r>
       <r>   -2.9421    0.0013 </r>
       <r>   -2.7527    0.0000 </r>
       <r>   -2.6005    0.0000 </r>
       <r>   -2.5507    0.0000 </r>
       <r>   -2.3688    0.0000 </r>
       <r>   -2.2490    0.0000 </r>
       <r>   -2.0948    0.0000 </r>
       <r>   -1.9383    0.0000 </r>
       <r>   -1.8456    0.0000 </r>
       <r>   -1.7336    0.0000 </r>
       <r>   -1.6285    0.0000 </r>
       <r>   -1.5685    0.0000 </r>
       <r>   -1.4751    0.0000 </r>
       <r>   -1.4541    0.0000 </r>
       <r>   -1.3005    0.0000 </r>
       <r>   -1.2341    0.0000 </r>
       <r>   -1.1619    0.0000 </r>
       <r>   -1.0496    0.0000 </r>
       <r>   -1.0338    0.0000 </r>
       <r>   -0.9981    0.0000 </r>
       <r>   -0.9491    0.0000 </r>
       <r>   -0.8543    0.0000 </r>
       <r>   -0.7827    0.0000 </r>
       <r>   -0.7199    0.0000 </r>
       <r>   -0.4413    0.0000 </r>
       <r>   -0.3785    0.0000 </r>
       <r>   -0.2001    0.0000 </r>
       <r>   -0.0671    0.0000 </r>
       <r>    0.0718    0.0000 </r>
       <r>    0.2977    0.0000 </r>
       <r>    0.5236    0.0000 </r>
       <r>    0.6508    0.0000 </r>
       <r>    0.8366    0.0000 </r>
       <r>    0.9291    0.0000 </r>
       <r>    1.0937    0.0000 </r>
       <r>    1.2840    0.0000 </r>
       <r>    1.4720    0.0000 </r>
       <r>    2.2086    0.0000 </r>
       <r>    2.2673    0.0000 </r>
       <r>    2.3829    0.0000 </r>
      </set>
     </set>
    </set>
   </array>
  </eigenvalues>
  <separator name="orbital magnetization" >
   <v name="MAGDIPOLOUT">      0.00000000      0.00000000      0.00000000</v>
  </separator>
 </calculation>
 <structure name="finalpos" >
  <crystal>
   <varray name="basis" >
    <v>       8.34063264       4.81619686       0.00000000 </v>
    <v>      -8.33849339       4.81249148       0.00000000 </v>
    <v>       0.00000000       0.00000000      30.00000000 </v>
   </varray>
   <i name="volume">   2408.97147538 </i>
   <varray name="rec_basis" >
    <v>       0.05993211       0.10384299       0.00000000 </v>
    <v>      -0.05997826       0.10386963       0.00000000 </v>
    <v>       0.00000000       0.00000000       0.03333333 </v>
   </varray>
  </crystal>
  <varray name="positions" >
   <v>       0.35143708       0.31572403       0.00023963 </v>
   <v>       0.63623985       0.00111632      -0.00006929 </v>
   <v>       0.03548339       0.68395638      -0.00011630 </v>
   <v>       0.64532691       0.31852640       0.00053015 </v>
   <v>       0.33926943      -0.00019602       0.00003127 </v>
   <v>       0.32658643       0.68180654      -0.00049245 </v>
   <v>       0.03664862      -0.00028922       0.00001130 </v>
   <v>       0.99398573       0.36375105      -0.00015424 </v>
   <v>       0.63118064       0.63501838      -0.00000383 </v>
   <v>       0.11626012       0.22605743       0.95313181 </v>
   <v>       0.23428981       0.11735966       0.05500717 </v>
   <v>       0.10911158       0.56320260       0.94451631 </v>
   <v>       0.22315380       0.43878549       0.04498063 </v>
   <v>       0.11700913       0.88231502       0.94504336 </v>
   <v>       0.22371664       0.78190016       0.05497710 </v>
   <v>       0.44184062       0.21800562       0.94511732 </v>
   <v>       0.55814681       0.10943161       0.05524455 </v>
   <v>       0.42734385       0.53791513       0.94883771 </v>
   <v>       0.54559414       0.43654771       0.05557358 </v>
   <v>       0.44891297       0.89056038       0.94481334 </v>
   <v>       0.55634626       0.78289047       0.05048606 </v>
   <v>       0.77312106       0.21716964       0.94910044 </v>
   <v>       0.88714035       0.11105098       0.04211622 </v>
   <v>       0.78458623       0.56087085       0.95472996 </v>
   <v>       0.88916661       0.46196095       0.05131466 </v>
   <v>       0.77585066       0.88879266       0.95799453 </v>
   <v>       0.89046574       0.77398422       0.04703888 </v>
  </varray>
 </structure>
</modeling>
