<?xml version="1.0" encoding="ISO-8859-1"?>
<modeling>
 <generator>
  <i name="program" type="string">vasp </i>
  <i name="version" type="string">5.4.1  </i>
  <i name="subversion" type="string">05Feb16 (build Jul 05 2020 17:13:04) complex                          parallel </i>
  <i name="platform" type="string">IFC91_ompi </i>
  <i name="date" type="string">2024 08 03 </i>
  <i name="time" type="string">14:26:33 </i>
 </generator>
 <incar>
  <i type="int" name="ISTART">     0</i>
  <i type="string" name="PREC">normal</i>
  <i type="string" name="ALGO"> Normal</i>
  <i type="int" name="ISPIN">     1</i>
  <i type="int" name="ICHARG">     2</i>
  <i type="int" name="IBRION">     1</i>
  <i type="int" name="NSW">   100</i>
  <i type="int" name="ISIF">     3</i>
  <i type="int" name="ISYM">     0</i>
  <i name="SYMPREC">      0.00000001</i>
  <i name="POTIM">      0.50000000</i>
  <i type="logical" name="LREAL"> F  </i>
  <i type="logical" name="LPLANE"> F  </i>
  <i type="int" name="ISMEAR">     0</i>
  <i type="logical" name="LWAVE"> F  </i>
  <i type="logical" name="LCHARG"> F  </i>
  <v type="int" name="KPOINT_BSE">    -1     0     0     0</v>
 </incar>
 <kpoints>
  <generation param="Gamma">
   <v type="int" name="divisions">       8        8        1 </v>
   <v name="usershift">      0.00000000       0.00000000       0.00000000 </v>
   <v name="genvec1">      0.12500000       0.00000000       0.00000000 </v>
   <v name="genvec2">     -0.00000000       0.12500000       0.00000000 </v>
   <v name="genvec3">      0.00000000       0.00000000       1.00000000 </v>
   <v name="shift">      0.00000000       0.00000000       0.00000000 </v>
  </generation>
  <varray name="kpointlist" >
   <v>       0.00000000       0.00000000       0.00000000 </v>
   <v>       0.12500000       0.00000000       0.00000000 </v>
   <v>       0.25000000       0.00000000       0.00000000 </v>
   <v>       0.37500000       0.00000000       0.00000000 </v>
   <v>       0.50000000       0.00000000       0.00000000 </v>
   <v>       0.00000000       0.12500000       0.00000000 </v>
   <v>       0.12500000       0.12500000       0.00000000 </v>
   <v>       0.25000000       0.12500000       0.00000000 </v>
   <v>       0.37500000       0.12500000       0.00000000 </v>
   <v>       0.50000000       0.12500000       0.00000000 </v>
   <v>      -0.37500000       0.12500000       0.00000000 </v>
   <v>      -0.25000000       0.12500000       0.00000000 </v>
   <v>      -0.12500000       0.12500000       0.00000000 </v>
   <v>       0.00000000       0.25000000       0.00000000 </v>
   <v>       0.12500000       0.25000000       0.00000000 </v>
   <v>       0.25000000       0.25000000       0.00000000 </v>
   <v>       0.37500000       0.25000000       0.00000000 </v>
   <v>       0.50000000       0.25000000       0.00000000 </v>
   <v>      -0.37500000       0.25000000       0.00000000 </v>
   <v>      -0.25000000       0.25000000       0.00000000 </v>
   <v>      -0.12500000       0.25000000       0.00000000 </v>
   <v>      -0.00000000       0.37500000       0.00000000 </v>
   <v>       0.12500000       0.37500000       0.00000000 </v>
   <v>       0.25000000       0.37500000       0.00000000 </v>
   <v>       0.37500000       0.37500000       0.00000000 </v>
   <v>       0.50000000       0.37500000       0.00000000 </v>
   <v>      -0.37500000       0.37500000       0.00000000 </v>
   <v>      -0.25000000       0.37500000       0.00000000 </v>
   <v>      -0.12500000       0.37500000       0.00000000 </v>
   <v>       0.00000000       0.50000000       0.00000000 </v>
   <v>       0.12500000       0.50000000       0.00000000 </v>
   <v>       0.25000000       0.50000000       0.00000000 </v>
   <v>       0.37500000       0.50000000       0.00000000 </v>
   <v>       0.50000000       0.50000000       0.00000000 </v>
  </varray>
  <varray name="weights" >
   <v>       0.01562500 </v>
   <v>       0.03125000 </v>
   <v>       0.03125000 </v>
   <v>       0.03125000 </v>
   <v>       0.01562500 </v>
   <v>       0.03125000 </v>
   <v>       0.03125000 </v>
   <v>       0.03125000 </v>
   <v>       0.03125000 </v>
   <v>       0.03125000 </v>
   <v>       0.03125000 </v>
   <v>       0.03125000 </v>
   <v>       0.03125000 </v>
   <v>       0.03125000 </v>
   <v>       0.03125000 </v>
   <v>       0.03125000 </v>
   <v>       0.03125000 </v>
   <v>       0.03125000 </v>
   <v>       0.03125000 </v>
   <v>       0.03125000 </v>
   <v>       0.03125000 </v>
   <v>       0.03125000 </v>
   <v>       0.03125000 </v>
   <v>       0.03125000 </v>
   <v>       0.03125000 </v>
   <v>       0.03125000 </v>
   <v>       0.03125000 </v>
   <v>       0.03125000 </v>
   <v>       0.03125000 </v>
   <v>       0.01562500 </v>
   <v>       0.03125000 </v>
   <v>       0.03125000 </v>
   <v>       0.03125000 </v>
   <v>       0.01562500 </v>
  </varray>
 </kpoints>
 <parameters>
  <separator name="general" >
   <i type="string" name="SYSTEM">unknown system</i>
   <i type="logical" name="LCOMPAT"> F  </i>
  </separator>
  <separator name="electronic" >
   <i type="string" name="PREC">normal</i>
   <i name="ENMAX">    280.00000000</i>
   <i name="ENAUG">    373.43800000</i>
   <i name="EDIFF">      0.00010000</i>
   <i type="int" name="IALGO">    38</i>
   <i type="int" name="IWAVPR">    11</i>
   <i type="int" name="NBANDS">   120</i>
   <i name="NELECT">    159.00000000</i>
   <i type="int" name="TURBO">     0</i>
   <i type="int" name="IRESTART">     0</i>
   <i type="int" name="NREBOOT">     0</i>
   <i type="int" name="NMIN">     0</i>
   <i name="EREF">      0.00000000</i>
   <separator name="electronic smearing" >
    <i type="int" name="ISMEAR">     0</i>
    <i name="SIGMA">      0.20000000</i>
    <i name="KSPACING">      0.50000000</i>
    <i type="logical" name="KGAMMA"> T  </i>
   </separator>
   <separator name="electronic projectors" >
    <i type="logical" name="LREAL"> F  </i>
    <v name="ROPT">      0.00000000      0.00000000      0.00000000      0.00000000</v>
    <i type="int" name="LMAXPAW">  -100</i>
    <i type="int" name="LMAXMIX">     2</i>
    <i type="logical" name="NLSPLINE"> F  </i>
   </separator>
   <separator name="electronic startup" >
    <i type="int" name="ISTART">     0</i>
    <i type="int" name="ICHARG">     2</i>
    <i type="int" name="INIWAV">     1</i>
   </separator>
   <separator name="electronic spin" >
    <i type="int" name="ISPIN">     1</i>
    <i type="logical" name="LNONCOLLINEAR"> F  </i>
    <v name="MAGMOM">      1.00000000      1.00000000      1.00000000      1.00000000      1.00000000      1.00000000      1.00000000      1.00000000      1.00000000      1.00000000      1.00000000      1.00000000      1.00000000      1.00000000      1.00000000      1.00000000      1.00000000      1.00000000      1.00000000      1.00000000
      1.00000000      1.00000000      1.00000000      1.00000000      1.00000000      1.00000000      1.00000000</v>
    <i name="NUPDOWN">     -1.00000000</i>
    <i type="logical" name="LSORBIT"> F  </i>
    <v name="SAXIS">      0.00000000      0.00000000      1.00000000</v>
    <i type="logical" name="LSPIRAL"> F  </i>
    <v name="QSPIRAL">      0.00000000      0.00000000      0.00000000</v>
    <i type="logical" name="LZEROZ"> F  </i>
   </separator>
   <separator name="electronic exchange-correlation" >
    <i type="logical" name="LASPH"> F  </i>
    <i type="logical" name="LMETAGGA"> F  </i>
   </separator>
   <separator name="electronic convergence" >
    <i type="int" name="NELM">    60</i>
    <i type="int" name="NELMDL">    -5</i>
    <i type="int" name="NELMIN">     2</i>
    <i name="ENINI">    280.00000000</i>
    <separator name="electronic convergence detail" >
     <i type="logical" name="LDIAG"> T  </i>
     <i type="logical" name="LSUBROT"> F  </i>
     <i name="WEIMIN">      0.00100000</i>
     <i name="EBREAK">      0.00000021</i>
     <i name="DEPER">      0.30000000</i>
     <i type="int" name="NRMM">     4</i>
     <i name="TIME">      0.40000000</i>
    </separator>
   </separator>
   <separator name="electronic mixer" >
    <i name="AMIX">      0.40000000</i>
    <i name="BMIX">      1.00000000</i>
    <i name="AMIN">      0.10000000</i>
    <i name="AMIX_MAG">      1.60000000</i>
    <i name="BMIX_MAG">      1.00000000</i>
    <separator name="electronic mixer details" >
     <i type="int" name="IMIX">     4</i>
     <i type="logical" name="MIXFIRST"> F  </i>
     <i type="int" name="MAXMIX">   -45</i>
     <i name="WC">    100.00000000</i>
     <i type="int" name="INIMIX">     1</i>
     <i type="int" name="MIXPRE">     1</i>
     <i type="int" name="MREMOVE">     5</i>
    </separator>
   </separator>
   <separator name="electronic dipolcorrection" >
    <i type="logical" name="LDIPOL"> F  </i>
    <i type="logical" name="LMONO"> F  </i>
    <i type="int" name="IDIPOL">     0</i>
    <i name="EPSILON">      1.00000000</i>
    <v name="DIPOL">   -100.00000000   -100.00000000   -100.00000000</v>
    <i name="EFIELD">      0.00000000</i>
   </separator>
  </separator>
  <separator name="grids" >
   <i type="int" name="NGX">    42</i>
   <i type="int" name="NGY">    42</i>
   <i type="int" name="NGZ">   126</i>
   <i type="int" name="NGXF">    84</i>
   <i type="int" name="NGYF">    84</i>
   <i type="int" name="NGZF">   252</i>
   <i type="logical" name="ADDGRID"> F  </i>
  </separator>
  <separator name="ionic" >
   <i type="int" name="NSW">   100</i>
   <i type="int" name="IBRION">     1</i>
   <i type="int" name="ISIF">     3</i>
   <i name="PSTRESS">      0.00000000</i>
   <i name="EDIFFG">      0.00100000</i>
   <i type="int" name="NFREE">     0</i>
   <i name="POTIM">      0.50000000</i>
   <i name="SMASS">     -3.00000000</i>
   <i name="SCALEE">      1.00000000</i>
  </separator>
  <separator name="ionic md" >
   <i name="TEBEG">      0.00010000</i>
   <i name="TEEND">      0.00010000</i>
   <i type="int" name="NBLOCK">     1</i>
   <i type="int" name="KBLOCK">   100</i>
   <i type="int" name="NPACO">   256</i>
   <i name="APACO">     16.00000000</i>
  </separator>
  <separator name="symmetry" >
   <i type="int" name="ISYM">     0</i>
   <i name="SYMPREC">      0.00000001</i>
  </separator>
  <separator name="dos" >
   <i type="logical" name="LORBIT"> F  </i>
   <v name="RWIGS">     -1.00000000     -1.00000000     -1.00000000     -1.00000000</v>
   <i type="int" name="NEDOS">   301</i>
   <i name="EMIN">     10.00000000</i>
   <i name="EMAX">    -10.00000000</i>
   <i name="EFERMI">      0.00000000</i>
  </separator>
  <separator name="writing" >
   <i type="int" name="NWRITE">     2</i>
   <i type="logical" name="LWAVE"> F  </i>
   <i type="logical" name="LCHARG"> F  </i>
   <i type="logical" name="LPARD"> F  </i>
   <i type="logical" name="LVTOT"> F  </i>
   <i type="logical" name="LVHAR"> F  </i>
   <i type="logical" name="LELF"> F  </i>
   <i type="logical" name="LOPTICS"> F  </i>
   <v name="STM">      0.00000000      0.00000000      0.00000000      0.00000000      0.00000000      0.00000000      0.00000000</v>
  </separator>
  <separator name="performance" >
   <i type="int" name="NPAR">    40</i>
   <i type="int" name="NSIM">     4</i>
   <i type="int" name="NBLK">    -1</i>
   <i type="logical" name="LPLANE"> F  </i>
   <i type="logical" name="LSCALAPACK"> T  </i>
   <i type="logical" name="LSCAAWARE"> F  </i>
   <i type="logical" name="LSCALU"> F  </i>
   <i type="logical" name="LASYNC"> F  </i>
   <i type="logical" name="LORBITALREAL"> F  </i>
  </separator>
  <separator name="miscellaneous" >
   <i type="int" name="IDIOT">     3</i>
   <i type="logical" name="LMUSIC"> F  </i>
   <v name="POMASS">     50.94100000     95.94000000    183.85000000     32.06600000</v>
   <v name="DARWINR">      0.00000000      0.00000000      0.00000000      0.00000000</v>
   <v name="DARWINV">      1.00000000      1.00000000      1.00000000      1.00000000</v>
   <i type="logical" name="LCORR"> T  </i>
  </separator>
  <i type="logical" name="GGA_COMPAT"> T  </i>
  <i type="logical" name="LBERRY"> F  </i>
  <i type="int" name="ICORELEVEL">     0</i>
  <i type="logical" name="LDAU"> F  </i>
  <i type="int" name="I_CONSTRAINED_M">     0</i>
  <separator name="electronic exchange-correlation" >
   <i type="string" name="GGA">--</i>
   <i type="int" name="VOSKOWN">     0</i>
   <i type="logical" name="LHFCALC"> F  </i>
   <i type="string" name="PRECFOCK"></i>
   <i type="logical" name="LSYMGRAD"> F  </i>
   <i type="logical" name="LHFONE"> F  </i>
   <i type="logical" name="LRHFCALC"> F  </i>
   <i type="logical" name="LTHOMAS"> F  </i>
   <i type="logical" name="LMODELHF"> F  </i>
   <i name="ENCUT4O">     -1.00000000</i>
   <i type="int" name="EXXOEP">     0</i>
   <i type="int" name="FOURORBIT">     0</i>
   <i name="AEXX">      0.00000000</i>
   <i name="HFALPHA">      0.00000000</i>
   <i name="MCALPHA">      0.00000000</i>
   <i name="ALDAX">      1.00000000</i>
   <i name="AGGAX">      1.00000000</i>
   <i name="ALDAC">      1.00000000</i>
   <i name="AGGAC">      1.00000000</i>
   <i type="int" name="NKREDX">     1</i>
   <i type="int" name="NKREDY">     1</i>
   <i type="int" name="NKREDZ">     1</i>
   <i type="logical" name="SHIFTRED"> F  </i>
   <i type="logical" name="ODDONLY"> F  </i>
   <i type="logical" name="EVENONLY"> F  </i>
   <i type="int" name="LMAXFOCK">     0</i>
   <i type="int" name="NMAXFOCKAE">     0</i>
   <i type="logical" name="LFOCKAEDFT"> F  </i>
   <i name="HFSCREEN">      0.00000000</i>
   <i name="HFSCREENC">      0.00000000</i>
   <i type="int" name="NBANDSGWLOW">     0</i>
  </separator>
  <separator name="vdW DFT" >
   <i type="logical" name="LUSE_VDW"> F  </i>
   <i name="Zab_VDW">     -0.84910000</i>
   <i name="PARAM1">      0.12340000</i>
   <i name="PARAM2">      1.00000000</i>
   <i name="PARAM3">      0.00000000</i>
  </separator>
  <separator name="model GW" >
   <i type="int" name="MODEL_GW">     0</i>
   <i name="MODEL_EPS0">     58.26239943</i>
   <i name="MODEL_ALPHA">      1.00000000</i>
  </separator>
  <separator name="linear response parameters" >
   <i type="logical" name="LEPSILON"> F  </i>
   <i type="logical" name="LRPA"> F  </i>
   <i type="logical" name="LNABLA"> F  </i>
   <i type="logical" name="LVEL"> F  </i>
   <i type="int" name="KINTER">     0</i>
   <i name="CSHIFT">      0.10000000</i>
   <i name="OMEGAMAX">     -1.00000000</i>
   <i name="DEG_THRESHOLD">      0.00200000</i>
  </separator>
  <separator name="orbital magnetization" >
   <i type="logical" name="NUCIND"> F  </i>
   <v name="MAGPOS">      0.00000000      0.00000000      0.00000000</v>
   <i type="logical" name="LNICSALL"> T  </i>
   <i type="logical" name="ORBITALMAG"> F  </i>
   <i type="logical" name="LMAGBLOCH"> F  </i>
   <i type="logical" name="LCHIMAG"> F  </i>
   <i type="logical" name="LGAUGE"> T  </i>
   <i type="int" name="MAGATOM">     0</i>
   <v name="MAGDIPOL">      0.00000000      0.00000000      0.00000000</v>
   <v name="AVECCONST">      0.00000000      0.00000000      0.00000000</v>
  </separator>
  <separator name="response functions" >
   <i type="logical" name="LADDER"> F  </i>
   <i type="logical" name="LFXC"> F  </i>
   <i type="logical" name="LHARTREE"> T  </i>
   <i type="int" name="IBSE">     0</i>
   <v type="int" name="KPOINT">    -1     0     0     0</v>
   <i type="logical" name="LTCTE"> F  </i>
   <i type="logical" name="LTETE"> F  </i>
   <i type="logical" name="LTRIPLET"> F  </i>
   <i type="logical" name="LFXCEPS"> F  </i>
   <i type="logical" name="LFXHEG"> F  </i>
   <i type="int" name="NATURALO">     0</i>
   <i type="logical" name="L2ORDER"> F  </i>
   <i type="logical" name="LUSEW"> F  </i>
   <i name="ENCUTGW">     -2.00000000</i>
   <i name="ENCUTGWSOFT">     -2.00000000</i>
   <i name="ENCUTLF">     -1.00000000</i>
   <i type="int" name="LMAXMP2">    -1</i>
   <i name="SCISSOR">      0.00000000</i>
   <i type="int" name="NOMEGA">     0</i>
   <i type="int" name="NOMEGAR">     0</i>
   <i type="int" name="NBANDSGW">    -1</i>
   <i type="int" name="NBANDSO">    -1</i>
   <i type="int" name="NBANDSV">    -1</i>
   <i type="int" name="NELM">     1</i>
   <i type="int" name="NELMHF">     1</i>
   <i type="int" name="DIM">     3</i>
   <i type="int" name="ANTIRES">     0</i>
   <i name="OMEGAMAX">    -30.00000000</i>
   <i name="OMEGAMIN">    -30.00000000</i>
   <i name="OMEGATL">   -200.00000000</i>
   <i type="int" name="OMEGAGRID">     0</i>
   <i name="CSHIFT">     -0.10000000</i>
   <i type="logical" name="SELFENERGY"> F  </i>
   <i type="logical" name="LSPECTRAL"> F  </i>
   <i type="logical" name="LSPECTRALGW"> F  </i>
   <i type="logical" name="LSINGLES"> F  </i>
   <i type="logical" name="LFERMIGW"> F  </i>
   <i type="logical" name="ODDONLYGW"> F  </i>
   <i type="logical" name="EVENONLYGW"> F  </i>
   <i type="int" name="NKREDLFX">     1</i>
   <i type="int" name="NKREDLFY">     1</i>
   <i type="int" name="NKREDLFZ">     1</i>
   <i type="int" name="MAXMEM">  1800</i>
   <i type="int" name="TELESCOPE">     0</i>
   <i type="int" name="TAUPAR">     1</i>
   <i type="int" name="OMEGAPAR">    -1</i>
   <i name="LAMBDA">      1.00000000</i>
  </separator>
  <separator name="External order field" >
   <i name="OFIELD_KAPPA">      0.00000000</i>
   <v name="OFIELD_K">      0.00000000      0.00000000      0.00000000</v>
   <i name="OFIELD_Q6_NEAR">      0.00000000</i>
   <i name="OFIELD_Q6_FAR">      0.00000000</i>
   <i name="OFIELD_A">      0.00000000</i>
  </separator>
 </parameters>
 <atominfo>
  <atoms>      27 </atoms>
  <types>       4 </types>
  <array name="atoms" >
   <dimension dim="1">ion</dimension>
   <field type="string">element</field>
   <field type="int">atomtype</field>
   <set>
    <rc><c>V </c><c>   1</c></rc>
    <rc><c>V </c><c>   1</c></rc>
    <rc><c>V </c><c>   1</c></rc>
    <rc><c>Mo</c><c>   2</c></rc>
    <rc><c>Mo</c><c>   2</c></rc>
    <rc><c>Mo</c><c>   2</c></rc>
    <rc><c>W </c><c>   3</c></rc>
    <rc><c>W </c><c>   3</c></rc>
    <rc><c>W </c><c>   3</c></rc>
    <rc><c>S </c><c>   4</c></rc>
    <rc><c>S </c><c>   4</c></rc>
    <rc><c>S </c><c>   4</c></rc>
    <rc><c>S </c><c>   4</c></rc>
    <rc><c>S </c><c>   4</c></rc>
    <rc><c>S </c><c>   4</c></rc>
    <rc><c>S </c><c>   4</c></rc>
    <rc><c>S </c><c>   4</c></rc>
    <rc><c>S </c><c>   4</c></rc>
    <rc><c>S </c><c>   4</c></rc>
    <rc><c>S </c><c>   4</c></rc>
    <rc><c>S </c><c>   4</c></rc>
    <rc><c>S </c><c>   4</c></rc>
    <rc><c>S </c><c>   4</c></rc>
    <rc><c>S </c><c>   4</c></rc>
    <rc><c>S </c><c>   4</c></rc>
    <rc><c>S </c><c>   4</c></rc>
    <rc><c>S </c><c>   4</c></rc>
   </set>
  </array>
  <array name="atomtypes" >
   <dimension dim="1">type</dimension>
   <field type="int">atomspertype</field>
   <field type="string">element</field>
   <field>mass</field>
   <field>valence</field>
   <field type="string">pseudopotential</field>
   <set>
    <rc><c>   3</c><c>V </c><c>     50.94100000</c><c>      5.00000000</c><c> PAW_PBE V 08Apr2002                    </c></rc>
    <rc><c>   3</c><c>Mo</c><c>     95.94000000</c><c>      6.00000000</c><c> PAW_PBE Mo 08Apr2002                   </c></rc>
    <rc><c>   3</c><c>W </c><c>    183.85000000</c><c>      6.00000000</c><c> PAW_PBE W 08Apr2002                    </c></rc>
    <rc><c>  18</c><c>S </c><c>     32.06600000</c><c>      6.00000000</c><c>  PAW_PBE S 17Jan2003                   </c></rc>
   </set>
  </array>
 </atominfo>
 <structure name="initialpos" >
  <crystal>
   <varray name="basis" >
    <v>       8.66999996       5.03999989       0.00000000 </v>
    <v>      -8.66999982       5.04000013       0.00000000 </v>
    <v>       0.00000000       0.00000000      30.00000000 </v>
   </varray>
   <i name="volume">   2621.80797419 </i>
   <varray name="rec_basis" >
    <v>       0.05767013       0.09920635       0.00000000 </v>
    <v>      -0.05767013       0.09920635       0.00000000 </v>
    <v>       0.00000000       0.00000000       0.03333333 </v>
   </varray>
  </crystal>
  <varray name="positions" >
   <v>       0.66666669       0.66666669       0.00000000 </v>
   <v>       0.33333334       0.33333334       0.00000000 </v>
   <v>       1.00000000       0.33333334       0.00000000 </v>
   <v>       0.00000000       0.66666669       0.00000000 </v>
   <v>       0.66666669       0.33333334       0.00000000 </v>
   <v>       0.66666669       0.00000000       0.00000000 </v>
   <v>       0.00000000       0.00000000       0.00000000 </v>
   <v>       0.33333334       0.00000000       0.00000000 </v>
   <v>       0.33333334       0.66666669       0.00000000 </v>
   <v>       0.11068511       0.22244981       0.95539999 </v>
   <v>       0.22244981       0.11068511       0.04460000 </v>
   <v>       0.11068511       0.55578315       0.95539999 </v>
   <v>       0.22244981       0.44401845       0.04460000 </v>
   <v>       0.11068511       0.88911647       0.95539999 </v>
   <v>       0.22244981       0.77735180       0.04460000 </v>
   <v>       0.44401845       0.22244981       0.95539999 </v>
   <v>       0.55578315       0.11068511       0.04460000 </v>
   <v>       0.44401845       0.55578315       0.95539999 </v>
   <v>       0.55578315       0.44401845       0.04460000 </v>
   <v>       0.44401845       0.88911647       0.95539999 </v>
   <v>       0.55578315       0.77735180       0.04460000 </v>
   <v>       0.77735180       0.22244981       0.95539999 </v>
   <v>       0.88911647       0.11068511       0.04460000 </v>
   <v>       0.77735180       0.55578315       0.95539999 </v>
   <v>       0.88911647       0.44401845       0.04460000 </v>
   <v>       0.77735180       0.88911647       0.95539999 </v>
   <v>       0.88911647       0.77735180       0.04460000 </v>
  </varray>
 </structure>
 <calculation>
  <scstep>
   <time name="dav">   21.67   21.72</time>
   <time name="total">   21.71   21.77</time>
   <energy>
    <i name="alphaZ">     81.65567618 </i>
    <i name="ewald">  41890.23011081 </i>
    <i name="hartreedc"> -47722.86557400 </i>
    <i name="XCdc">   -242.92862446 </i>
    <i name="pawpsdc">   3467.42045192 </i>
    <i name="pawaedc">  -2871.19716117 </i>
    <i name="eentropy">     -0.52207349 </i>
    <i name="bandstr">   -239.76581772 </i>
    <i name="atom">   6761.44252427 </i>
    <i name="e_fr_energy">   1123.46951234 </i>
    <i name="e_wo_entrp">   1123.99158583 </i>
    <i name="e_0_energy">   1123.73054909 </i>
   </energy>
  </scstep>
  <scstep>
   <time name="dav">   27.89   27.96</time>
   <time name="total">   27.89   27.97</time>
   <energy>
    <i name="e_fr_energy">     -0.85930802 </i>
    <i name="e_wo_entrp">     -0.66935856 </i>
    <i name="e_0_energy">     -0.76433329 </i>
   </energy>
  </scstep>
  <scstep>
   <time name="dav">   27.37   27.44</time>
   <time name="total">   27.38   27.45</time>
   <energy>
    <i name="e_fr_energy">   -199.53872435 </i>
    <i name="e_wo_entrp">   -199.28653191 </i>
    <i name="e_0_energy">   -199.41262813 </i>
   </energy>
  </scstep>
  <scstep>
   <time name="dav">   29.70   29.77</time>
   <time name="total">   29.70   29.77</time>
   <energy>
    <i name="e_fr_energy">   -208.95243361 </i>
    <i name="e_wo_entrp">   -208.66829911 </i>
    <i name="e_0_energy">   -208.81036636 </i>
   </energy>
  </scstep>
  <scstep>
   <time name="dav">   28.69   28.76</time>
   <time name="total">   29.16   29.23</time>
   <energy>
    <i name="e_fr_energy">   -209.31300851 </i>
    <i name="e_wo_entrp">   -209.03232810 </i>
    <i name="e_0_energy">   -209.17266830 </i>
   </energy>
  </scstep>
  <scstep>
   <time name="dav">   31.10   31.18</time>
   <time name="total">   31.60   31.69</time>
   <energy>
    <i name="e_fr_energy">   -237.22715126 </i>
    <i name="e_wo_entrp">   -236.95139760 </i>
    <i name="e_0_energy">   -237.08927443 </i>
   </energy>
  </scstep>
  <scstep>
   <time name="dav">   32.45   32.53</time>
   <time name="total">   32.95   33.04</time>
   <energy>
    <i name="e_fr_energy">   -196.47013946 </i>
    <i name="e_wo_entrp">   -196.13983831 </i>
    <i name="e_0_energy">   -196.30498888 </i>
   </energy>
  </scstep>
  <scstep>
   <time name="dav">   29.43   29.50</time>
   <time name="total">   29.94   30.02</time>
   <energy>
    <i name="e_fr_energy">   -189.42595498 </i>
    <i name="e_wo_entrp">   -189.13434412 </i>
    <i name="e_0_energy">   -189.28014955 </i>
   </energy>
  </scstep>
  <scstep>
   <time name="dav">   30.88   30.96</time>
   <time name="total">   31.40   31.48</time>
   <energy>
    <i name="e_fr_energy">   -188.22907822 </i>
    <i name="e_wo_entrp">   -187.90905583 </i>
    <i name="e_0_energy">   -188.06906703 </i>
   </energy>
  </scstep>
  <scstep>
   <time name="dav">   32.65   32.73</time>
   <time name="total">   33.18   33.27</time>
   <energy>
    <i name="e_fr_energy">   -187.07930552 </i>
    <i name="e_wo_entrp">   -186.73231109 </i>
    <i name="e_0_energy">   -186.90580831 </i>
   </energy>
  </scstep>
  <scstep>
   <time name="dav">   32.88   32.96</time>
   <time name="total">   33.41   33.50</time>
   <energy>
    <i name="e_fr_energy">   -187.02947988 </i>
    <i name="e_wo_entrp">   -186.68144857 </i>
    <i name="e_0_energy">   -186.85546422 </i>
   </energy>
  </scstep>
  <scstep>
   <time name="dav">   31.14   31.22</time>
   <time name="total">   31.67   31.76</time>
   <energy>
    <i name="e_fr_energy">   -187.17360863 </i>
    <i name="e_wo_entrp">   -186.83523473 </i>
    <i name="e_0_energy">   -187.00442168 </i>
   </energy>
  </scstep>
  <scstep>
   <time name="dav">   32.38   32.46</time>
   <time name="total">   32.91   33.00</time>
   <energy>
    <i name="e_fr_energy">   -186.92707581 </i>
    <i name="e_wo_entrp">   -186.59250409 </i>
    <i name="e_0_energy">   -186.75978995 </i>
   </energy>
  </scstep>
  <scstep>
   <time name="dav">   32.43   32.51</time>
   <time name="total">   32.96   33.06</time>
   <energy>
    <i name="e_fr_energy">   -186.87974283 </i>
    <i name="e_wo_entrp">   -186.53599879 </i>
    <i name="e_0_energy">   -186.70787081 </i>
   </energy>
  </scstep>
  <scstep>
   <time name="dav">   30.70   30.77</time>
   <time name="total">   31.23   31.32</time>
   <energy>
    <i name="e_fr_energy">   -186.88169486 </i>
    <i name="e_wo_entrp">   -186.53673007 </i>
    <i name="e_0_energy">   -186.70921246 </i>
   </energy>
  </scstep>
  <scstep>
   <time name="dav">   32.16   32.23</time>
   <time name="total">   32.69   32.78</time>
   <energy>
    <i name="e_fr_energy">   -186.87261329 </i>
    <i name="e_wo_entrp">   -186.52713186 </i>
    <i name="e_0_energy">   -186.69987258 </i>
   </energy>
  </scstep>
  <scstep>
   <time name="dav">   31.17   31.24</time>
   <time name="total">   31.70   31.78</time>
   <energy>
    <i name="e_fr_energy">   -186.86928473 </i>
    <i name="e_wo_entrp">   -186.52623972 </i>
    <i name="e_0_energy">   -186.69776223 </i>
   </energy>
  </scstep>
  <scstep>
   <time name="dav">   29.54   29.61</time>
   <time name="total">   30.07   30.15</time>
   <energy>
    <i name="e_fr_energy">   -186.86909214 </i>
    <i name="e_wo_entrp">   -186.52563387 </i>
    <i name="e_0_energy">   -186.69736301 </i>
   </energy>
  </scstep>
  <scstep>
   <time name="dav">   28.27   28.33</time>
   <time name="total">   28.80   28.88</time>
   <energy>
    <i name="e_fr_energy">   -186.86874506 </i>
    <i name="e_wo_entrp">   -186.52514895 </i>
    <i name="e_0_energy">   -186.69694700 </i>
   </energy>
  </scstep>
  <scstep>
   <time name="dav">   23.81   23.87</time>
   <time name="total">   24.34   24.41</time>
   <energy>
    <i name="e_fr_energy">   -186.86951179 </i>
    <i name="e_wo_entrp">   -186.52618579 </i>
    <i name="e_0_energy">   -186.69784879 </i>
   </energy>
  </scstep>
  <scstep>
   <time name="dav">   21.78   21.83</time>
   <time name="total">   22.31   22.37</time>
   <energy>
    <i name="e_fr_energy">   -186.87011954 </i>
    <i name="e_wo_entrp">   -186.52676437 </i>
    <i name="e_0_energy">   -186.69844196 </i>
   </energy>
  </scstep>
  <scstep>
   <time name="dav">   20.55   20.60</time>
   <time name="total">   21.08   21.14</time>
   <energy>
    <i name="e_fr_energy">   -186.87122669 </i>
    <i name="e_wo_entrp">   -186.52784217 </i>
    <i name="e_0_energy">   -186.69953443 </i>
   </energy>
  </scstep>
  <scstep>
   <time name="dav">   20.39   20.44</time>
   <time name="total">   20.92   20.98</time>
   <energy>
    <i name="e_fr_energy">   -186.87245324 </i>
    <i name="e_wo_entrp">   -186.52915217 </i>
    <i name="e_0_energy">   -186.70080271 </i>
   </energy>
  </scstep>
  <scstep>
   <time name="dav">   19.09   19.13</time>
   <time name="total">   19.62   19.67</time>
   <energy>
    <i name="e_fr_energy">   -186.87303867 </i>
    <i name="e_wo_entrp">   -186.52970894 </i>
    <i name="e_0_energy">   -186.70137380 </i>
   </energy>
  </scstep>
  <scstep>
   <time name="dav">   16.22   16.26</time>
   <time name="total">   16.75   16.80</time>
   <energy>
    <i name="e_fr_energy">   -186.87341767 </i>
    <i name="e_wo_entrp">   -186.53005102 </i>
    <i name="e_0_energy">   -186.70173435 </i>
   </energy>
  </scstep>
  <scstep>
   <time name="dav">   19.09   19.13</time>
   <time name="total">   19.62   19.68</time>
   <energy>
    <i name="e_fr_energy">   -186.87363629 </i>
    <i name="e_wo_entrp">   -186.53028386 </i>
    <i name="e_0_energy">   -186.70196007 </i>
   </energy>
  </scstep>
  <scstep>
   <time name="dav">   19.33   19.38</time>
   <time name="total">   19.88   19.93</time>
   <energy>
    <i name="e_fr_energy">   -186.87374009 </i>
    <i name="e_wo_entrp">   -186.53039202 </i>
    <i name="e_0_energy">   -186.70206605 </i>
   </energy>
  </scstep>
  <scstep>
   <time name="dav">   19.95   20.00</time>
   <time name="total">   19.99   20.05</time>
   <energy>
    <i name="alphaZ">     81.65567618 </i>
    <i name="ewald">  41890.23011081 </i>
    <i name="hartreedc"> -47833.03446261 </i>
    <i name="XCdc">   -231.60127118 </i>
    <i name="pawpsdc">   4192.08584200 </i>
    <i name="pawaedc">  -3610.10368394 </i>
    <i name="eentropy">     -0.34334843 </i>
    <i name="bandstr">  -1437.20517741 </i>
    <i name="atom">   6761.44252427 </i>
    <i name="e_fr_energy">   -186.87379032 </i>
    <i name="e_wo_entrp">   -186.53044189 </i>
    <i name="e_0_energy">   -186.70211611 </i>
   </energy>
  </scstep>
  <structure>
   <crystal>
    <varray name="basis" >
     <v>       8.66999996       5.03999989       0.00000000 </v>
     <v>      -8.66999982       5.04000013       0.00000000 </v>
     <v>       0.00000000       0.00000000      30.00000000 </v>
    </varray>
    <i name="volume">   2621.80797419 </i>
    <varray name="rec_basis" >
     <v>       0.05767013       0.09920635       0.00000000 </v>
     <v>      -0.05767013       0.09920635       0.00000000 </v>
     <v>       0.00000000       0.00000000       0.03333333 </v>
    </varray>
   </crystal>
   <varray name="positions" >
    <v>       0.66666669       0.66666669       0.00000000 </v>
    <v>       0.33333334       0.33333334       0.00000000 </v>
    <v>       1.00000000       0.33333334       0.00000000 </v>
    <v>       0.00000000       0.66666669       0.00000000 </v>
    <v>       0.66666669       0.33333334       0.00000000 </v>
    <v>       0.66666669       0.00000000       0.00000000 </v>
    <v>       0.00000000       0.00000000       0.00000000 </v>
    <v>       0.33333334       0.00000000       0.00000000 </v>
    <v>       0.33333334       0.66666669       0.00000000 </v>
    <v>       0.11068511       0.22244981       0.95539999 </v>
    <v>       0.22244981       0.11068511       0.04460000 </v>
    <v>       0.11068511       0.55578315       0.95539999 </v>
    <v>       0.22244981       0.44401845       0.04460000 </v>
    <v>       0.11068511       0.88911647       0.95539999 </v>
    <v>       0.22244981       0.77735180       0.04460000 </v>
    <v>       0.44401845       0.22244981       0.95539999 </v>
    <v>       0.55578315       0.11068511       0.04460000 </v>
    <v>       0.44401845       0.55578315       0.95539999 </v>
    <v>       0.55578315       0.44401845       0.04460000 </v>
    <v>       0.44401845       0.88911647       0.95539999 </v>
    <v>       0.55578315       0.77735180       0.04460000 </v>
    <v>       0.77735180       0.22244981       0.95539999 </v>
    <v>       0.88911647       0.11068511       0.04460000 </v>
    <v>       0.77735180       0.55578315       0.95539999 </v>
    <v>       0.88911647       0.44401845       0.04460000 </v>
    <v>       0.77735180       0.88911647       0.95539999 </v>
    <v>       0.88911647       0.77735180       0.04460000 </v>
   </varray>
  </structure>
  <varray name="forces" >
   <v>       0.23380489       0.05700240       0.11785946 </v>
   <v>       0.14015859       0.14777761       0.01699103 </v>
   <v>      -0.36505657      -0.19809468      -0.10250373 </v>
   <v>       0.00473059      -0.27879158       0.07662271 </v>
   <v>       0.21648932       0.16242578       0.02288412 </v>
   <v>      -0.26460347       0.11442861      -0.10372358 </v>
   <v>      -0.10641334      -0.27868162      -0.05082405 </v>
   <v>       0.27073451       0.19355710      -0.01980113 </v>
   <v>      -0.12935500       0.06604258       0.02465666 </v>
   <v>      -0.25294171       0.51613597      -1.41318199 </v>
   <v>      -0.45173021       0.56238476       2.15786286 </v>
   <v>       0.64173772      -0.57450883      -2.15512918 </v>
   <v>       0.23562592      -0.51464200       1.38839428 </v>
   <v>       0.05948239       0.15953284      -2.85125113 </v>
   <v>      -0.07989571       0.12461398       2.92839216 </v>
   <v>      -0.65778989      -0.16096669      -2.10103987 </v>
   <v>      -0.23017512      -0.15850561       2.89533668 </v>
   <v>       0.74272728       0.00003570      -1.45584040 </v>
   <v>      -0.91479478       0.01821110       1.46251225 </v>
   <v>       0.05127583      -0.10959473      -2.95842616 </v>
   <v>       0.69011647      -0.15789420       2.09162630 </v>
   <v>       0.54646682       0.71226192      -2.20100072 </v>
   <v>      -0.35590379       0.70871902       2.14509980 </v>
   <v>      -0.74376131      -0.01015396      -2.11273138 </v>
   <v>       0.73189409       0.01077424       2.13645406 </v>
   <v>       0.60343197      -0.53676209      -2.14397850 </v>
   <v>      -0.61625552      -0.57530764       2.20473946 </v>
  </varray>
  <varray name="stress" >
   <v>       7.43255790       0.00222001      -1.61731774 </v>
   <v>       0.00222015       4.30856202       0.01835948 </v>
   <v>      -1.61731751       0.01835950      30.31166368 </v>
  </varray>
  <energy>
   <i name="e_fr_energy">   -186.87379032 </i>
   <i name="e_wo_entrp">   -186.70211611 </i>
   <i name="e_0_energy">     -0.34334843 </i>
  </energy>
  <time name="totalsc">  806.75  808.91</time>
 </calculation>
 <calculation>
  <scstep>
   <time name="dav">   21.60   21.65</time>
   <time name="total">   22.14   22.20</time>
   <energy>
    <i name="alphaZ">     78.92462744 </i>
    <i name="ewald">  39381.34467542 </i>
    <i name="hartreedc"> -45338.90800020 </i>
    <i name="XCdc">   -239.05452876 </i>
    <i name="pawpsdc">   4192.08579019 </i>
    <i name="pawaedc">  -3610.10365020 </i>
    <i name="eentropy">     -0.27939386 </i>
    <i name="bandstr">  -1412.95126485 </i>
    <i name="atom">   6761.44252427 </i>
    <i name="e_fr_energy">   -187.49922055 </i>
    <i name="e_wo_entrp">   -187.21982669 </i>
    <i name="e_0_energy">   -187.35952362 </i>
   </energy>
  </scstep>
  <scstep>
   <time name="dav">   30.32   30.39</time>
   <time name="total">   30.85   30.93</time>
   <energy>
    <i name="e_fr_energy">   -189.50083268 </i>
    <i name="e_wo_entrp">   -189.16704387 </i>
    <i name="e_0_energy">   -189.33393827 </i>
   </energy>
  </scstep>
  <scstep>
   <time name="dav">   30.62   30.69</time>
   <time name="total">   31.16   31.25</time>
   <energy>
    <i name="e_fr_energy">   -189.34045546 </i>
    <i name="e_wo_entrp">   -189.07694705 </i>
    <i name="e_0_energy">   -189.20870126 </i>
   </energy>
  </scstep>
  <scstep>
   <time name="dav">   29.31   29.38</time>
   <time name="total">   29.86   29.94</time>
   <energy>
    <i name="e_fr_energy">   -188.76732333 </i>
    <i name="e_wo_entrp">   -188.48479851 </i>
    <i name="e_0_energy">   -188.62606092 </i>
   </energy>
  </scstep>
  <scstep>
   <time name="dav">   30.15   30.22</time>
   <time name="total">   30.69   30.77</time>
   <energy>
    <i name="e_fr_energy">   -188.89990757 </i>
    <i name="e_wo_entrp">   -188.61325887 </i>
    <i name="e_0_energy">   -188.75658322 </i>
   </energy>
  </scstep>
  <scstep>
   <time name="dav">   31.16   31.23</time>
   <time name="total">   31.71   31.79</time>
   <energy>
    <i name="e_fr_energy">   -188.74232308 </i>
    <i name="e_wo_entrp">   -188.45852197 </i>
    <i name="e_0_energy">   -188.60042253 </i>
   </energy>
  </scstep>
  <scstep>
   <time name="dav">   29.06   29.13</time>
   <time name="total">   29.60   29.68</time>
   <energy>
    <i name="e_fr_energy">   -188.71233292 </i>
    <i name="e_wo_entrp">   -188.42743339 </i>
    <i name="e_0_energy">   -188.56988316 </i>
   </energy>
  </scstep>
  <scstep>
   <time name="dav">   31.66   31.73</time>
   <time name="total">   32.20   32.28</time>
   <energy>
    <i name="e_fr_energy">   -188.69538875 </i>
    <i name="e_wo_entrp">   -188.41484064 </i>
    <i name="e_0_energy">   -188.55511470 </i>
   </energy>
  </scstep>
  <scstep>
   <time name="dav">   29.62   29.69</time>
   <time name="total">   30.17   30.25</time>
   <energy>
    <i name="e_fr_energy">   -188.67036297 </i>
    <i name="e_wo_entrp">   -188.38866759 </i>
    <i name="e_0_energy">   -188.52951528 </i>
   </energy>
  </scstep>
  <scstep>
   <time name="dav">   27.82   27.89</time>
   <time name="total">   28.37   28.44</time>
   <energy>
    <i name="e_fr_energy">   -188.66869055 </i>
    <i name="e_wo_entrp">   -188.38840703 </i>
    <i name="e_0_energy">   -188.52854879 </i>
   </energy>
  </scstep>
  <scstep>
   <time name="dav">   32.08   32.15</time>
   <time name="total">   32.62   32.70</time>
   <energy>
    <i name="e_fr_energy">   -188.66813694 </i>
    <i name="e_wo_entrp">   -188.38859644 </i>
    <i name="e_0_energy">   -188.52836669 </i>
   </energy>
  </scstep>
  <scstep>
   <time name="dav">   29.29   29.36</time>
   <time name="total">   29.84   29.92</time>
   <energy>
    <i name="e_fr_energy">   -188.66807473 </i>
    <i name="e_wo_entrp">   -188.38869964 </i>
    <i name="e_0_energy">   -188.52838719 </i>
   </energy>
  </scstep>
  <scstep>
   <time name="dav">   20.57   20.62</time>
   <time name="total">   20.61   20.66</time>
   <energy>
    <i name="alphaZ">     78.92462744 </i>
    <i name="ewald">  39381.34467542 </i>
    <i name="hartreedc"> -45349.61745142 </i>
    <i name="XCdc">   -237.97300347 </i>
    <i name="pawpsdc">   3950.53227149 </i>
    <i name="pawaedc">  -3365.04522896 </i>
    <i name="eentropy">     -0.27971001 </i>
    <i name="bandstr">  -1407.99675905 </i>
    <i name="atom">   6761.44252427 </i>
    <i name="e_fr_energy">   -188.66805428 </i>
    <i name="e_wo_entrp">   -188.38834427 </i>
    <i name="e_0_energy">   -188.52819927 </i>
   </energy>
  </scstep>
  <structure>
   <crystal>
    <varray name="basis" >
     <v>       8.85844752       5.10354840       0.00000000 </v>
     <v>      -8.85838195       5.10343609       0.00000000 </v>
     <v>       0.00000000       0.00000000      30.00000000 </v>
    </varray>
    <i name="volume">   2712.53105497 </i>
    <varray name="rec_basis" >
     <v>       0.05644289       0.09797177       0.00000000 </v>
     <v>      -0.05644413       0.09797249       0.00000000 </v>
     <v>       0.00000000       0.00000000       0.03333333 </v>
    </varray>
   </crystal>
   <varray name="positions" >
    <v>       0.66758998       0.66628902       0.00018953 </v>
    <v>       0.33443055       0.33365066       0.00002732 </v>
    <v>       0.99803628       0.33340091      -0.00016484 </v>
    <v>      -0.00132113       0.66531924       0.00012322 </v>
    <v>       0.66804636       0.33350840       0.00003680 </v>
    <v>       0.66647817       0.00128382      -0.00016680 </v>
    <v>      -0.00162982      -0.00103771      -0.00008173 </v>
    <v>       0.33501293       0.00017313      -0.00003184 </v>
    <v>       0.33328954       0.66734265       0.00003965 </v>
    <v>       0.11245160       0.22562375       0.95312747 </v>
    <v>       0.22388458       0.11463346       0.04807003 </v>
    <v>       0.10972094       0.55124815       0.95193435 </v>
    <v>       0.22064229       0.44089984       0.04683266 </v>
    <v>       0.11161412       0.88971450       0.95081493 </v>
    <v>       0.22282393       0.77817048       0.04930911 </v>
    <v>       0.44141799       0.22350950       0.95202133 </v>
    <v>       0.55438416       0.11056689       0.04925596 </v>
    <v>       0.44608501       0.55371694       0.95305887 </v>
    <v>       0.55332520       0.44665072       0.04695185 </v>
    <v>       0.44363659       0.88844929       0.95064258 </v>
    <v>       0.55694749       0.77467610       0.04796352 </v>
    <v>       0.78228102       0.22433832       0.95186059 </v>
    <v>       0.89151820       0.11506720       0.04804951 </v>
    <v>       0.77523394       0.55780382       0.95200253 </v>
    <v>       0.89120428       0.44203377       0.04803561 </v>
    <v>       0.77646171       0.88486869       0.95195228 </v>
    <v>       0.88464854       0.77631291       0.04814541 </v>
   </varray>
  </structure>
  <varray name="forces" >
   <v>       0.24590692       0.11434345       0.04091633 </v>
   <v>       0.13332451       0.08534870       0.01653373 </v>
   <v>      -0.32186552      -0.21173232      -0.03135662 </v>
   <v>      -0.03467844      -0.12806740      -0.04196858 </v>
   <v>       0.31135374       0.06360578      -0.00555266 </v>
   <v>      -0.40877365       0.00335856       0.03758367 </v>
   <v>       0.02599745      -0.27566175      -0.08441455 </v>
   <v>       0.43031160       0.11494725      -0.00468836 </v>
   <v>      -0.37358457       0.22938778       0.09910443 </v>
   <v>       0.05115552      -0.07877789       0.19183350 </v>
   <v>       0.05393467      -0.07133953      -0.16990421 </v>
   <v>       0.09393364       0.03897749       0.02120179 </v>
   <v>      -0.06613659       0.06979854      -0.22725987 </v>
   <v>      -0.07410944       0.10403580       0.11032747 </v>
   <v>       0.06617845       0.09790973       0.02597878 </v>
   <v>       0.01958315      -0.08976915       0.02621964 </v>
   <v>      -0.05461088      -0.09648379       0.14402409 </v>
   <v>      -0.10219295       0.00449594       0.17996171 </v>
   <v>      -0.02976490       0.01279881      -0.06061729 </v>
   <v>      -0.07353738      -0.09210996      -0.14298161 </v>
   <v>      -0.02727979      -0.11031854      -0.09305559 </v>
   <v>       0.02856152       0.09337062      -0.19638511 </v>
   <v>       0.10812744       0.06582788      -0.07500791 </v>
   <v>      -0.06125606      -0.01434980      -0.05459480 </v>
   <v>       0.07164236       0.00069284       0.16613514 </v>
   <v>       0.07658910       0.04383030       0.03076659 </v>
   <v>      -0.08880989       0.02588067       0.09720031 </v>
  </varray>
  <varray name="stress" >
   <v>     -19.94151480       0.01052863       0.06881250 </v>
   <v>       0.01052854     -19.46701689      -0.01179482 </v>
   <v>       0.06881264      -0.01179489      -1.73874902 </v>
  </varray>
  <energy>
   <i name="e_fr_energy">   -188.66805428 </i>
   <i name="e_wo_entrp">   -188.52819927 </i>
   <i name="e_0_energy">     -0.27971001 </i>
  </energy>
  <time name="totalsc">  421.99  423.10</time>
 </calculation>
 <calculation>
  <scstep>
   <time name="dav">   23.76   23.82</time>
   <time name="total">   24.30   24.36</time>
   <energy>
    <i name="alphaZ">     82.35845205 </i>
    <i name="ewald">  41309.99685079 </i>
    <i name="hartreedc"> -47308.94748059 </i>
    <i name="XCdc">   -233.83842628 </i>
    <i name="pawpsdc">   3950.04132739 </i>
    <i name="pawaedc">  -3364.54946050 </i>
    <i name="eentropy">     -0.23295355 </i>
    <i name="bandstr">  -1386.86128270 </i>
    <i name="atom">   6761.44252427 </i>
    <i name="e_fr_energy">   -190.59044911 </i>
    <i name="e_wo_entrp">   -190.35749556 </i>
    <i name="e_0_energy">   -190.47397234 </i>
   </energy>
  </scstep>
  <scstep>
   <time name="dav">   27.92   27.99</time>
   <time name="total">   28.44   28.52</time>
   <energy>
    <i name="e_fr_energy">   -190.57310990 </i>
    <i name="e_wo_entrp">   -190.34520120 </i>
    <i name="e_0_energy">   -190.45915555 </i>
   </energy>
  </scstep>
  <scstep>
   <time name="dav">   30.30   30.37</time>
   <time name="total">   30.82   30.90</time>
   <energy>
    <i name="e_fr_energy">   -190.06236971 </i>
    <i name="e_wo_entrp">   -189.81379618 </i>
    <i name="e_0_energy">   -189.93808295 </i>
   </energy>
  </scstep>
  <scstep>
   <time name="dav">   31.30   31.37</time>
   <time name="total">   31.84   31.92</time>
   <energy>
    <i name="e_fr_energy">   -189.85613789 </i>
    <i name="e_wo_entrp">   -189.62776783 </i>
    <i name="e_0_energy">   -189.74195286 </i>
   </energy>
  </scstep>
  <scstep>
   <time name="dav">   27.73   27.80</time>
   <time name="total">   28.26   28.34</time>
   <energy>
    <i name="e_fr_energy">   -189.79147634 </i>
    <i name="e_wo_entrp">   -189.54904614 </i>
    <i name="e_0_energy">   -189.67026124 </i>
   </energy>
  </scstep>
  <scstep>
   <time name="dav">   31.24   31.32</time>
   <time name="total">   31.78   31.86</time>
   <energy>
    <i name="e_fr_energy">   -189.75974512 </i>
    <i name="e_wo_entrp">   -189.52726115 </i>
    <i name="e_0_energy">   -189.64350313 </i>
   </energy>
  </scstep>
  <scstep>
   <time name="dav">   30.92   31.00</time>
   <time name="total">   31.46   31.54</time>
   <energy>
    <i name="e_fr_energy">   -189.75228487 </i>
    <i name="e_wo_entrp">   -189.51764415 </i>
    <i name="e_0_energy">   -189.63496451 </i>
   </energy>
  </scstep>
  <scstep>
   <time name="dav">   26.40   26.46</time>
   <time name="total">   26.93   27.01</time>
   <energy>
    <i name="e_fr_energy">   -189.75230375 </i>
    <i name="e_wo_entrp">   -189.51788276 </i>
    <i name="e_0_energy">   -189.63509325 </i>
   </energy>
  </scstep>
  <scstep>
   <time name="dav">   26.44   26.50</time>
   <time name="total">   26.97   27.05</time>
   <energy>
    <i name="e_fr_energy">   -189.75252823 </i>
    <i name="e_wo_entrp">   -189.51801248 </i>
    <i name="e_0_energy">   -189.63527036 </i>
   </energy>
  </scstep>
  <scstep>
   <time name="dav">   26.32   26.39</time>
   <time name="total">   26.86   26.93</time>
   <energy>
    <i name="e_fr_energy">   -189.75269458 </i>
    <i name="e_wo_entrp">   -189.51802678 </i>
    <i name="e_0_energy">   -189.63536068 </i>
   </energy>
  </scstep>
  <scstep>
   <time name="dav">   24.66   24.72</time>
   <time name="total">   25.19   25.26</time>
   <energy>
    <i name="e_fr_energy">   -189.75239412 </i>
    <i name="e_wo_entrp">   -189.51771293 </i>
    <i name="e_0_energy">   -189.63505353 </i>
   </energy>
  </scstep>
  <scstep>
   <time name="dav">   17.15   17.19</time>
   <time name="total">   17.18   17.23</time>
   <energy>
    <i name="alphaZ">     82.35845205 </i>
    <i name="ewald">  41309.99685079 </i>
    <i name="hartreedc"> -47282.24659906 </i>
    <i name="XCdc">   -235.23592642 </i>
    <i name="pawpsdc">   4038.83853589 </i>
    <i name="pawaedc">  -3454.54624790 </i>
    <i name="eentropy">     -0.23462637 </i>
    <i name="bandstr">  -1410.12536397 </i>
    <i name="atom">   6761.44252427 </i>
    <i name="e_fr_energy">   -189.75240073 </i>
    <i name="e_wo_entrp">   -189.51777436 </i>
    <i name="e_0_energy">   -189.63508754 </i>
   </energy>
  </scstep>
  <structure>
   <crystal>
    <varray name="basis" >
     <v>       8.66962146       4.99741745       0.00000000 </v>
     <v>      -8.66944238       4.99710803       0.00000000 </v>
     <v>       0.00000000       0.00000000      30.00000000 </v>
    </varray>
    <i name="volume">   2599.43573004 </i>
    <varray name="rec_basis" >
     <v>       0.05767146       0.10005374       0.00000000 </v>
     <v>      -0.05767503       0.10005581       0.00000000 </v>
     <v>       0.00000000       0.00000000       0.03333333 </v>
    </varray>
   </crystal>
   <varray name="positions" >
    <v>       0.66801768       0.66624336       0.00021279 </v>
    <v>       0.33470145       0.33366492       0.00003672 </v>
    <v>       0.99737277       0.33335698      -0.00018266 </v>
    <v>      -0.00156846       0.66513866       0.00009936 </v>
    <v>       0.66845229       0.33331499       0.00003364 </v>
    <v>       0.66609035       0.00168287      -0.00014543 </v>
    <v>      -0.00206533      -0.00152326      -0.00012971 </v>
    <v>       0.33561913      -0.00004900      -0.00003451 </v>
    <v>       0.33331319       0.66808545       0.00009598 </v>
    <v>       0.11236923       0.22544290       0.95323651 </v>
    <v>       0.22381731       0.11446236       0.04797346 </v>
    <v>       0.10987647       0.55122286       0.95194640 </v>
    <v>       0.22069525       0.44108010       0.04670348 </v>
    <v>       0.11171660       0.88995963       0.95087764 </v>
    <v>       0.22305119       0.77827035       0.04932388 </v>
    <v>       0.44128687       0.22334068       0.95203624 </v>
    <v>       0.55417041       0.11045826       0.04933782 </v>
    <v>       0.44599416       0.55382281       0.95316116 </v>
    <v>       0.55331794       0.44670075       0.04691739 </v>
    <v>       0.44341193       0.88836619       0.95056131 </v>
    <v>       0.55673693       0.77451806       0.04791063 </v>
    <v>       0.78246450       0.22446682       0.95174896 </v>
    <v>       0.89173224       0.11507311       0.04800687 </v>
    <v>       0.77515101       0.55783880       0.95197150 </v>
    <v>       0.89127439       0.44196597       0.04813004 </v>
    <v>       0.77660865       0.88486820       0.95196977 </v>
    <v>       0.88460630       0.77644162       0.04820066 </v>
   </varray>
  </structure>
  <varray name="forces" >
   <v>       0.25975615       0.15782492       0.01285407 </v>
   <v>       0.14590752       0.05250142       0.01147250 </v>
   <v>      -0.32611087      -0.21717730      -0.00616294 </v>
   <v>      -0.05135677      -0.07255490      -0.05257102 </v>
   <v>       0.33835551       0.02239811      -0.01201108 </v>
   <v>      -0.46290546      -0.04674184       0.05269510 </v>
   <v>       0.08168346      -0.27533400      -0.06651931 </v>
   <v>       0.48187943       0.08040329      -0.00243136 </v>
   <v>      -0.45476217       0.28110976       0.08508027 </v>
   <v>      -0.02856669       0.05745416      -0.25998845 </v>
   <v>      -0.01465898       0.04269897       0.32094620 </v>
   <v>       0.09417791      -0.08313082      -0.47843896 </v>
   <v>       0.00624547      -0.06582169       0.21670668 </v>
   <v>      -0.02852894       0.04959208      -0.43055528 </v>
   <v>       0.00977413       0.03023481       0.59551439 </v>
   <v>      -0.08279151      -0.01101002      -0.46599662 </v>
   <v>      -0.02597481      -0.01407771       0.71153096 </v>
   <v>       0.04239781       0.01020077      -0.26637951 </v>
   <v>      -0.08775641       0.01419313       0.39111175 </v>
   <v>      -0.02499383      -0.02785681      -0.73593674 </v>
   <v>       0.08418245      -0.03170721       0.39996212 </v>
   <v>       0.06180874       0.15486278      -0.71265090 </v>
   <v>      -0.00663432       0.12545085       0.41507765 </v>
   <v>      -0.13296389      -0.02547813      -0.54155921 </v>
   <v>       0.14665587       0.00112072       0.66524610 </v>
   <v>       0.05638930      -0.10506431      -0.46486774 </v>
   <v>      -0.08120910      -0.10409099       0.61787131 </v>
  </varray>
  <varray name="stress" >
   <v>     -10.17521589       0.00109757       0.07150513 </v>
   <v>       0.00109760      -9.79006961      -0.01319282 </v>
   <v>       0.07150510      -0.01319271       6.54199833 </v>
  </varray>
  <energy>
   <i name="e_fr_energy">   -189.75240073 </i>
   <i name="e_wo_entrp">   -189.63508754 </i>
   <i name="e_0_energy">     -0.23462637 </i>
  </energy>
  <time name="totalsc">  372.46  373.44</time>
 </calculation>
 <calculation>
  <scstep>
   <time name="dav">   21.59   21.64</time>
   <time name="total">   22.11   22.16</time>
   <energy>
    <i name="alphaZ">     85.83395101 </i>
    <i name="ewald">  42838.23760724 </i>
    <i name="hartreedc"> -48855.05309995 </i>
    <i name="XCdc">   -232.95814432 </i>
    <i name="pawpsdc">   4038.95632687 </i>
    <i name="pawaedc">  -3454.66158961 </i>
    <i name="eentropy">     -0.19129101 </i>
    <i name="bandstr">  -1372.90207196 </i>
    <i name="atom">   6761.44252427 </i>
    <i name="e_fr_energy">   -191.29578746 </i>
    <i name="e_wo_entrp">   -191.10449645 </i>
    <i name="e_0_energy">   -191.20014195 </i>
   </energy>
  </scstep>
  <scstep>
   <time name="dav">   32.73   32.81</time>
   <time name="total">   33.24   33.33</time>
   <energy>
    <i name="e_fr_energy">   -191.18667650 </i>
    <i name="e_wo_entrp">   -190.98847889 </i>
    <i name="e_0_energy">   -191.08757769 </i>
   </energy>
  </scstep>
  <scstep>
   <time name="dav">   28.97   29.04</time>
   <time name="total">   29.48   29.56</time>
   <energy>
    <i name="e_fr_energy">   -191.23516798 </i>
    <i name="e_wo_entrp">   -191.02359009 </i>
    <i name="e_0_energy">   -191.12937903 </i>
   </energy>
  </scstep>
  <scstep>
   <time name="dav">   30.77   30.84</time>
   <time name="total">   31.28   31.37</time>
   <energy>
    <i name="e_fr_energy">   -190.90809474 </i>
    <i name="e_wo_entrp">   -190.69895254 </i>
    <i name="e_0_energy">   -190.80352364 </i>
   </energy>
  </scstep>
  <scstep>
   <time name="dav">   27.96   28.02</time>
   <time name="total">   28.48   28.55</time>
   <energy>
    <i name="e_fr_energy">   -190.89587793 </i>
    <i name="e_wo_entrp">   -190.71046369 </i>
    <i name="e_0_energy">   -190.80317081 </i>
   </energy>
  </scstep>
  <scstep>
   <time name="dav">   28.04   28.11</time>
   <time name="total">   28.56   28.63</time>
   <energy>
    <i name="e_fr_energy">   -190.71276274 </i>
    <i name="e_wo_entrp">   -190.51541723 </i>
    <i name="e_0_energy">   -190.61408999 </i>
   </energy>
  </scstep>
  <scstep>
   <time name="dav">   28.38   28.44</time>
   <time name="total">   28.89   28.97</time>
   <energy>
    <i name="e_fr_energy">   -190.71129240 </i>
    <i name="e_wo_entrp">   -190.51507096 </i>
    <i name="e_0_energy">   -190.61318168 </i>
   </energy>
  </scstep>
  <scstep>
   <time name="dav">   25.86   25.93</time>
   <time name="total">   26.38   26.45</time>
   <energy>
    <i name="e_fr_energy">   -190.70781265 </i>
    <i name="e_wo_entrp">   -190.51103214 </i>
    <i name="e_0_energy">   -190.60942240 </i>
   </energy>
  </scstep>
  <scstep>
   <time name="dav">   30.44   30.51</time>
   <time name="total">   30.95   31.04</time>
   <energy>
    <i name="e_fr_energy">   -190.70851102 </i>
    <i name="e_wo_entrp">   -190.51173317 </i>
    <i name="e_0_energy">   -190.61012209 </i>
   </energy>
  </scstep>
  <scstep>
   <time name="dav">   26.47   26.53</time>
   <time name="total">   26.99   27.06</time>
   <energy>
    <i name="e_fr_energy">   -190.70826816 </i>
    <i name="e_wo_entrp">   -190.51154651 </i>
    <i name="e_0_energy">   -190.60990733 </i>
   </energy>
  </scstep>
  <scstep>
   <time name="dav">   25.22   25.28</time>
   <time name="total">   25.74   25.81</time>
   <energy>
    <i name="e_fr_energy">   -190.70807682 </i>
    <i name="e_wo_entrp">   -190.51133472 </i>
    <i name="e_0_energy">   -190.60970577 </i>
   </energy>
  </scstep>
  <scstep>
   <time name="dav">   18.63   18.67</time>
   <time name="total">   18.66   18.72</time>
   <energy>
    <i name="alphaZ">     85.83395101 </i>
    <i name="ewald">  42838.23760724 </i>
    <i name="hartreedc"> -48826.47687858 </i>
    <i name="XCdc">   -234.29466614 </i>
    <i name="pawpsdc">   4063.15600209 </i>
    <i name="pawaedc">  -3479.02610232 </i>
    <i name="eentropy">     -0.19682577 </i>
    <i name="bandstr">  -1399.38370099 </i>
    <i name="atom">   6761.44252427 </i>
    <i name="e_fr_energy">   -190.70808920 </i>
    <i name="e_wo_entrp">   -190.51126342 </i>
    <i name="e_0_energy">   -190.60967631 </i>
   </energy>
  </scstep>
  <structure>
   <crystal>
    <varray name="basis" >
     <v>       8.48686811       4.89818727       0.00000000 </v>
     <v>      -8.48680986       4.89808706       0.00000000 </v>
     <v>       0.00000000       0.00000000      30.00000000 </v>
    </varray>
    <i name="volume">   2494.18208549 </i>
    <varray name="rec_basis" >
     <v>       0.05891415       0.10207927       0.00000000 </v>
     <v>      -0.05891535       0.10207997       0.00000000 </v>
     <v>       0.00000000       0.00000000       0.03333333 </v>
    </varray>
   </crystal>
   <varray name="positions" >
    <v>       0.67007347       0.66638216       0.00021566 </v>
    <v>       0.33549412       0.33336703       0.00005619 </v>
    <v>       0.99481352       0.33316676      -0.00017411 </v>
    <v>      -0.00209467       0.66503139      -0.00001846 </v>
    <v>       0.66975155       0.33209150       0.00000331 </v>
    <v>       0.66392257       0.00301572      -0.00002354 </v>
    <v>      -0.00341533      -0.00362318      -0.00025230 </v>
    <v>       0.33785233      -0.00144620      -0.00003763 </v>
    <v>       0.33344416       0.67173572       0.00026028 </v>
    <v>       0.11285062       0.22635915       0.95231600 </v>
    <v>       0.22421724       0.11516475       0.04905320 </v>
    <v>       0.10939250       0.55005752       0.95053313 </v>
    <v>       0.22007175       0.44020411       0.04752773 </v>
    <v>       0.11185427       0.89017293       0.94952863 </v>
    <v>       0.22302697       0.77833708       0.05103868 </v>
    <v>       0.44096787       0.22391331       0.95065501 </v>
    <v>       0.55423421       0.11062775       0.05129112 </v>
    <v>       0.44643259       0.55354061       0.95223206 </v>
    <v>       0.55301019       0.44719337       0.04810932 </v>
    <v>       0.44337629       0.88837212       0.94853595 </v>
    <v>       0.55719749       0.77405089       0.04915580 </v>
    <v>       0.78385900       0.22531939       0.94983668 </v>
    <v>       0.89247843       0.11619602       0.04928087 </v>
    <v>       0.77438047       0.55823466       0.95043826 </v>
    <v>       0.89191986       0.44133663       0.04992965 </v>
    <v>       0.77575478       0.88366463       0.95058799 </v>
    <v>       0.88334818       0.77574863       0.04992042 </v>
   </varray>
  </structure>
  <varray name="forces" >
   <v>       0.31301829       0.17134608      -0.04307183 </v>
   <v>       0.12662884       0.02713688       0.00432476 </v>
   <v>      -0.27349233      -0.19855926       0.04798296 </v>
   <v>      -0.08582829      -0.04024403      -0.03100645 </v>
   <v>       0.32738424      -0.02611356      -0.01235886 </v>
   <v>      -0.53703453      -0.10891455       0.02331830 </v>
   <v>       0.10936151      -0.25828411      -0.02018286 </v>
   <v>       0.52970673       0.09403807       0.01006287 </v>
   <v>      -0.45973227       0.31413060       0.02206454 </v>
   <v>      -0.02437955      -0.00001753      -0.18015174 </v>
   <v>       0.03636131      -0.00983447       0.16929051 </v>
   <v>       0.02641219      -0.01865624      -0.30685199 </v>
   <v>      -0.05578870      -0.00231772       0.09698407 </v>
   <v>       0.03180236       0.03117321      -0.26941687 </v>
   <v>      -0.06892918      -0.01275377       0.46199669 </v>
   <v>       0.03560990       0.02047047      -0.30162034 </v>
   <v>      -0.03672577       0.04401522       0.54759915 </v>
   <v>      -0.02317022       0.03155505      -0.13598567 </v>
   <v>       0.03305824       0.02918290       0.31877918 </v>
   <v>       0.02018900       0.03195885      -0.60083106 </v>
   <v>      -0.00175815       0.02260239       0.24525150 </v>
   <v>       0.02231515       0.03649416      -0.54919920 </v>
   <v>      -0.02826533       0.00696366       0.22033879 </v>
   <v>      -0.00792800      -0.04281500      -0.37378261 </v>
   <v>       0.03760686      -0.00026963       0.44741182 </v>
   <v>      -0.04348803      -0.07279967      -0.25886001 </v>
   <v>      -0.00293428      -0.06948798       0.46791436 </v>
  </varray>
  <varray name="stress" >
   <v>      -5.70159634       0.01947681      -0.12523376 </v>
   <v>       0.01947667      -5.90712656      -0.00804400 </v>
   <v>      -0.12523382      -0.00804414       4.52071812 </v>
  </varray>
  <energy>
   <i name="e_fr_energy">   -190.70808920 </i>
   <i name="e_wo_entrp">   -190.60967631 </i>
   <i name="e_0_energy">     -0.19682577 </i>
  </energy>
  <time name="totalsc">  372.49  373.48</time>
 </calculation>
 <calculation>
  <scstep>
   <time name="dav">   21.61   21.66</time>
   <time name="total">   22.11   22.17</time>
   <energy>
    <i name="alphaZ">     90.25217596 </i>
    <i name="ewald">  44705.21670680 </i>
    <i name="hartreedc"> -50749.30914781 </i>
    <i name="XCdc">   -231.76723701 </i>
    <i name="pawpsdc">   4063.12274750 </i>
    <i name="pawaedc">  -3478.98902993 </i>
    <i name="eentropy">     -0.17770043 </i>
    <i name="bandstr">  -1351.89088673 </i>
    <i name="atom">   6761.44252427 </i>
    <i name="e_fr_energy">   -192.09984738 </i>
    <i name="e_wo_entrp">   -191.92214695 </i>
    <i name="e_0_energy">   -192.01099716 </i>
   </energy>
  </scstep>
  <scstep>
   <time name="dav">   30.24   30.32</time>
   <time name="total">   30.74   30.83</time>
   <energy>
    <i name="e_fr_energy">   -191.94066525 </i>
    <i name="e_wo_entrp">   -191.74185052 </i>
    <i name="e_0_energy">   -191.84125789 </i>
   </energy>
  </scstep>
  <scstep>
   <time name="dav">   30.16   30.24</time>
   <time name="total">   30.67   30.75</time>
   <energy>
    <i name="e_fr_energy">   -192.38462237 </i>
    <i name="e_wo_entrp">   -192.19338561 </i>
    <i name="e_0_energy">   -192.28900399 </i>
   </energy>
  </scstep>
  <scstep>
   <time name="dav">   30.41   30.48</time>
   <time name="total">   30.91   30.99</time>
   <energy>
    <i name="e_fr_energy">   -191.53306740 </i>
    <i name="e_wo_entrp">   -191.35269138 </i>
    <i name="e_0_energy">   -191.44287939 </i>
   </energy>
  </scstep>
  <scstep>
   <time name="dav">   29.36   29.44</time>
   <time name="total">   29.87   29.95</time>
   <energy>
    <i name="e_fr_energy">   -191.50606073 </i>
    <i name="e_wo_entrp">   -191.30933568 </i>
    <i name="e_0_energy">   -191.40769821 </i>
   </energy>
  </scstep>
  <scstep>
   <time name="dav">   30.22   30.29</time>
   <time name="total">   30.72   30.80</time>
   <energy>
    <i name="e_fr_energy">   -191.37039531 </i>
    <i name="e_wo_entrp">   -191.18773724 </i>
    <i name="e_0_energy">   -191.27906628 </i>
   </energy>
  </scstep>
  <scstep>
   <time name="dav">   29.51   29.58</time>
   <time name="total">   30.01   30.09</time>
   <energy>
    <i name="e_fr_energy">   -191.34658771 </i>
    <i name="e_wo_entrp">   -191.16141020 </i>
    <i name="e_0_energy">   -191.25399895 </i>
   </energy>
  </scstep>
  <scstep>
   <time name="dav">   29.87   29.94</time>
   <time name="total">   30.38   30.46</time>
   <energy>
    <i name="e_fr_energy">   -191.34521072 </i>
    <i name="e_wo_entrp">   -191.15836196 </i>
    <i name="e_0_energy">   -191.25178634 </i>
   </energy>
  </scstep>
  <scstep>
   <time name="dav">   28.42   28.49</time>
   <time name="total">   28.92   29.00</time>
   <energy>
    <i name="e_fr_energy">   -191.33964566 </i>
    <i name="e_wo_entrp">   -191.15367876 </i>
    <i name="e_0_energy">   -191.24666221 </i>
   </energy>
  </scstep>
  <scstep>
   <time name="dav">   28.94   29.01</time>
   <time name="total">   29.44   29.52</time>
   <energy>
    <i name="e_fr_energy">   -191.33978529 </i>
    <i name="e_wo_entrp">   -191.15353785 </i>
    <i name="e_0_energy">   -191.24666157 </i>
   </energy>
  </scstep>
  <scstep>
   <time name="dav">   26.99   27.06</time>
   <time name="total">   27.50   27.57</time>
   <energy>
    <i name="e_fr_energy">   -191.33966330 </i>
    <i name="e_wo_entrp">   -191.15310762 </i>
    <i name="e_0_energy">   -191.24638546 </i>
   </energy>
  </scstep>
  <scstep>
   <time name="dav">   19.88   19.93</time>
   <time name="total">   19.91   19.97</time>
   <energy>
    <i name="alphaZ">     90.25217596 </i>
    <i name="ewald">  44705.21670680 </i>
    <i name="hartreedc"> -50714.76477525 </i>
    <i name="XCdc">   -233.33155182 </i>
    <i name="pawpsdc">   4085.43248325 </i>
    <i name="pawaedc">  -3501.38471782 </i>
    <i name="eentropy">     -0.18643557 </i>
    <i name="bandstr">  -1384.01603716 </i>
    <i name="atom">   6761.44252427 </i>
    <i name="e_fr_energy">   -191.33962734 </i>
    <i name="e_wo_entrp">   -191.15319177 </i>
    <i name="e_0_energy">   -191.24640955 </i>
   </energy>
  </scstep>
  <structure>
   <crystal>
    <varray name="basis" >
     <v>       8.28169264       4.77493318       0.00000000 </v>
     <v>      -8.28066310       4.77315048       0.00000000 </v>
     <v>       0.00000000       0.00000000      30.00000000 </v>
    </varray>
    <i name="volume">   2372.08134500 </i>
    <varray name="rec_basis" >
     <v>       0.06036661       0.10472655       0.00000000 </v>
     <v>      -0.06038916       0.10473957       0.00000000 </v>
     <v>       0.00000000       0.00000000       0.03333333 </v>
    </varray>
   </crystal>
   <varray name="positions" >
    <v>       0.67446754       0.66639850       0.00004590 </v>
    <v>       0.33671128       0.33271177       0.00007236 </v>
    <v>       0.99033540       0.33267791       0.00001344 </v>
    <v>      -0.00308541       0.66524547      -0.00016430 </v>
    <v>       0.67176747       0.32935937      -0.00005222 </v>
    <v>       0.65872340       0.00546085       0.00010013 </v>
    <v>      -0.00577255      -0.00766067      -0.00034026 </v>
    <v>       0.34267583      -0.00420521      -0.00000186 </v>
    <v>       0.33400732       0.67907037       0.00036845 </v>
    <v>       0.11302849       0.22715406       0.95111187 </v>
    <v>       0.22460639       0.11536358       0.05029035 </v>
    <v>       0.10895833       0.54911831       0.94872674 </v>
    <v>       0.21933251       0.43989671       0.04841295 </v>
    <v>       0.11235396       0.89018717       0.94783721 </v>
    <v>       0.22224177       0.77856379       0.05351332 </v>
    <v>       0.44136210       0.22436892       0.94888063 </v>
    <v>       0.55471183       0.11151030       0.05412229 </v>
    <v>       0.44693861       0.55377084       0.95118288 </v>
    <v>       0.55336974       0.44750830       0.04986363 </v>
    <v>       0.44403334       0.88866936       0.94548248 </v>
    <v>       0.55786449       0.77420924       0.05070042 </v>
    <v>       0.78493120       0.22588974       0.94704941 </v>
    <v>       0.89256291       0.11701892       0.05074438 </v>
    <v>       0.77355719       0.55800082       0.94837867 </v>
    <v>       0.89241514       0.44084179       0.05232222 </v>
    <v>       0.77413473       0.88253571       0.94895902 </v>
    <v>       0.88198143       0.77454855       0.05237979 </v>
   </varray>
  </structure>
  <varray name="forces" >
   <v>       0.41249602       0.06685317      -0.01299374 </v>
   <v>       0.08147153       0.02531336       0.00106969 </v>
   <v>      -0.16229114      -0.11810424      -0.00090901 </v>
   <v>      -0.11953225      -0.00358774       0.02975883 </v>
   <v>       0.09272349      -0.04722734       0.01995955 </v>
   <v>      -0.32962818      -0.09007192      -0.05684660 </v>
   <v>       0.16640931      -0.13978945      -0.01297621 </v>
   <v>       0.24563229       0.07480387       0.07972374 </v>
   <v>      -0.27693916       0.19675688      -0.01967720 </v>
   <v>      -0.01545660      -0.08329488       0.06115169 </v>
   <v>       0.15039000      -0.07996207      -0.06822695 </v>
   <v>      -0.04749385       0.06253058      -0.00775506 </v>
   <v>      -0.14256162       0.09703583      -0.12289391 </v>
   <v>       0.08861738       0.07549388      -0.00444038 </v>
   <v>      -0.12813297      -0.01303998       0.18613367 </v>
   <v>       0.17098181      -0.00957735      -0.02692436 </v>
   <v>      -0.07855979       0.05695768       0.25177006 </v>
   <v>      -0.10456253       0.07005117       0.10451797 </v>
   <v>       0.13074883       0.05449687       0.04527798 </v>
   <v>       0.02017478       0.07880773      -0.34926325 </v>
   <v>      -0.11117074       0.06366286      -0.08472804 </v>
   <v>      -0.01396806      -0.08220761      -0.16876532 </v>
   <v>      -0.03253173      -0.15939239      -0.06538883 </v>
   <v>       0.13608574      -0.05027966      -0.11482395 </v>
   <v>      -0.05547254       0.00284022       0.09260941 </v>
   <v>      -0.14768250      -0.02475561       0.07715316 </v>
   <v>       0.07025246      -0.02431386       0.16748706 </v>
  </varray>
  <varray name="stress" >
   <v>       0.19595950      -0.03267495      -0.31659048 </v>
   <v>      -0.03267500      -0.30404912      -0.04216493 </v>
   <v>      -0.31659046      -0.04216494      -0.26739054 </v>
  </varray>
  <energy>
   <i name="e_fr_energy">   -191.33962734 </i>
   <i name="e_wo_entrp">   -191.24640955 </i>
   <i name="e_0_energy">     -0.18643557 </i>
  </energy>
  <time name="totalsc">  383.23  384.24</time>
 </calculation>
 <calculation>
  <scstep>
   <time name="dav">   21.62   21.67</time>
   <time name="total">   22.12   22.18</time>
   <energy>
    <i name="alphaZ">     90.27597534 </i>
    <i name="ewald">  44694.98735555 </i>
    <i name="hartreedc"> -50705.54421743 </i>
    <i name="XCdc">   -233.40081448 </i>
    <i name="pawpsdc">   4085.31599976 </i>
    <i name="pawaedc">  -3501.26379561 </i>
    <i name="eentropy">     -0.18927940 </i>
    <i name="bandstr">  -1383.01371960 </i>
    <i name="atom">   6761.44252427 </i>
    <i name="e_fr_energy">   -191.38997160 </i>
    <i name="e_wo_entrp">   -191.20069220 </i>
    <i name="e_0_energy">   -191.29533190 </i>
   </energy>
  </scstep>
  <scstep>
   <time name="dav">   30.89   30.96</time>
   <time name="total">   31.39   31.47</time>
   <energy>
    <i name="e_fr_energy">   -191.44682179 </i>
    <i name="e_wo_entrp">   -191.24595135 </i>
    <i name="e_0_energy">   -191.34638657 </i>
   </energy>
  </scstep>
  <scstep>
   <time name="dav">   29.65   29.72</time>
   <time name="total">   30.15   30.24</time>
   <energy>
    <i name="e_fr_energy">   -191.39973777 </i>
    <i name="e_wo_entrp">   -191.21000210 </i>
    <i name="e_0_energy">   -191.30486993 </i>
   </energy>
  </scstep>
  <scstep>
   <time name="dav">   28.52   28.59</time>
   <time name="total">   29.03   29.10</time>
   <energy>
    <i name="e_fr_energy">   -191.40002569 </i>
    <i name="e_wo_entrp">   -191.20887157 </i>
    <i name="e_0_energy">   -191.30444863 </i>
   </energy>
  </scstep>
  <scstep>
   <time name="dav">   28.54   28.60</time>
   <time name="total">   29.04   29.12</time>
   <energy>
    <i name="e_fr_energy">   -191.39680883 </i>
    <i name="e_wo_entrp">   -191.20585138 </i>
    <i name="e_0_energy">   -191.30133010 </i>
   </energy>
  </scstep>
  <scstep>
   <time name="dav">   28.43   28.50</time>
   <time name="total">   28.94   29.02</time>
   <energy>
    <i name="e_fr_energy">   -191.39686876 </i>
    <i name="e_wo_entrp">   -191.20563604 </i>
    <i name="e_0_energy">   -191.30125240 </i>
   </energy>
  </scstep>
  <scstep>
   <time name="dav">   27.67   27.73</time>
   <time name="total">   28.17   28.24</time>
   <energy>
    <i name="e_fr_energy">   -191.39685235 </i>
    <i name="e_wo_entrp">   -191.20585641 </i>
    <i name="e_0_energy">   -191.30135438 </i>
   </energy>
  </scstep>
  <scstep>
   <time name="dav">   24.53   24.59</time>
   <time name="total">   25.03   25.10</time>
   <energy>
    <i name="e_fr_energy">   -191.39639144 </i>
    <i name="e_wo_entrp">   -191.20534916 </i>
    <i name="e_0_energy">   -191.30087030 </i>
   </energy>
  </scstep>
  <scstep>
   <time name="dav">   17.95   18.00</time>
   <time name="total">   17.99   18.04</time>
   <energy>
    <i name="alphaZ">     90.27597534 </i>
    <i name="ewald">  44694.98735555 </i>
    <i name="hartreedc"> -50706.29651765 </i>
    <i name="XCdc">   -233.38814063 </i>
    <i name="pawpsdc">   4082.79680117 </i>
    <i name="pawaedc">  -3498.70398253 </i>
    <i name="eentropy">     -0.19104827 </i>
    <i name="bandstr">  -1382.31937427 </i>
    <i name="atom">   6761.44252427 </i>
    <i name="e_fr_energy">   -191.39640702 </i>
    <i name="e_wo_entrp">   -191.20535875 </i>
    <i name="e_0_energy">   -191.30088288 </i>
   </energy>
  </scstep>
  <structure>
   <crystal>
    <varray name="basis" >
     <v>       8.28565758       4.77043709       0.00000000 </v>
     <v>      -8.28545233       4.77008659       0.00000000 </v>
     <v>       0.00000000       0.00000000      30.00000000 </v>
    </varray>
    <i name="volume">   2371.45599519 </i>
    <varray name="rec_basis" >
     <v>       0.06034377       0.10481475       0.00000000 </v>
     <v>      -0.06034821       0.10481735       0.00000000 </v>
     <v>       0.00000000       0.00000000       0.03333333 </v>
    </varray>
   </crystal>
   <varray name="positions" >
    <v>       0.67600129       0.66553557       0.00002516 </v>
    <v>       0.33707506       0.33260300       0.00007407 </v>
    <v>       0.98927086       0.33255447       0.00001184 </v>
    <v>      -0.00345049       0.66557495      -0.00011638 </v>
    <v>       0.67179733       0.32885336      -0.00002012 </v>
    <v>       0.65731412       0.00596357       0.00000872 </v>
    <v>      -0.00599214      -0.00884722      -0.00036104 </v>
    <v>       0.34376412      -0.00454025       0.00012615 </v>
    <v>       0.33419424       0.68086345       0.00033675 </v>
    <v>       0.11256292       0.22677777       0.95121124 </v>
    <v>       0.22463991       0.11452202       0.05017956 </v>
    <v>       0.10913624       0.54957304       0.94871594 </v>
    <v>       0.21940821       0.44080179       0.04821466 </v>
    <v>       0.11299232       0.89031037       0.94783167 </v>
    <v>       0.22180396       0.77887069       0.05381008 </v>
    <v>       0.44181085       0.22382251       0.94883902 </v>
    <v>       0.55477028       0.11202561       0.05452418 </v>
    <v>       0.44698742       0.55442858       0.95135179 </v>
    <v>       0.55402486       0.44740255       0.04993478 </v>
    <v>       0.44448912       0.88900811       0.94492418 </v>
    <v>       0.55786167       0.77485393       0.05056289 </v>
    <v>       0.78447472       0.22551495       0.94678077 </v>
    <v>       0.89166385       0.11630830       0.05063797 </v>
    <v>       0.77370005       0.55735117       0.94819609 </v>
    <v>       0.89226763       0.44101802       0.05246885 </v>
    <v>       0.77358171       0.88284161       0.94908446 </v>
    <v>       0.88206437       0.77422253       0.05264663 </v>
   </varray>
  </structure>
  <varray name="forces" >
   <v>       0.42503576       0.04024306      -0.01960105 </v>
   <v>       0.07674176       0.03482632      -0.02268888 </v>
   <v>      -0.15765390      -0.12640743       0.00390383 </v>
   <v>      -0.12622705      -0.00443951       0.01614618 </v>
   <v>       0.09022929      -0.04393555       0.01454219 </v>
   <v>      -0.36970396      -0.06951828      -0.01590898 </v>
   <v>       0.18770968      -0.14179641      -0.03020853 </v>
   <v>       0.27242882       0.07726976       0.02933708 </v>
   <v>      -0.31344876       0.20132028      -0.00941781 </v>
   <v>      -0.00867617      -0.06140305       0.09825464 </v>
   <v>       0.09508234      -0.05095447      -0.04669374 </v>
   <v>      -0.04328554       0.03649672       0.01184335 </v>
   <v>      -0.10141549       0.06878646      -0.14535089 </v>
   <v>       0.06197630       0.06010348       0.01641959 </v>
   <v>      -0.08296539      -0.00809190       0.11998010 </v>
   <v>       0.10638646      -0.01382165      -0.00328283 </v>
   <v>      -0.05065343       0.04571761       0.17830853 </v>
   <v>      -0.06429699       0.05652407       0.12922800 </v>
   <v>       0.08287456       0.03969130       0.03988684 </v>
   <v>      -0.02549303       0.04805378      -0.23018337 </v>
   <v>      -0.05771546       0.05110353      -0.12695765 </v>
   <v>      -0.02447860      -0.04459511      -0.12419548 </v>
   <v>      -0.01151847      -0.11468830      -0.10450457 </v>
   <v>       0.09933663      -0.02863705      -0.09661695 </v>
   <v>      -0.02626407       0.00669884       0.05746077 </v>
   <v>      -0.08570884      -0.03511640       0.11250944 </v>
   <v>       0.05170355      -0.02343012       0.14779019 </v>
  </varray>
  <varray name="stress" >
   <v>      -0.05528417       0.01698492      -0.12443545 </v>
   <v>       0.01698520      -0.13954097      -0.00344373 </v>
   <v>      -0.12443541      -0.00344380      -0.99058805 </v>
  </varray>
  <energy>
   <i name="e_fr_energy">   -191.39640702 </i>
   <i name="e_wo_entrp">   -191.30088288 </i>
   <i name="e_0_energy">     -0.19104827 </i>
  </energy>
  <time name="totalsc">  284.14  284.89</time>
 </calculation>
 <calculation>
  <scstep>
   <time name="dav">   21.61   21.66</time>
   <time name="total">   22.11   22.17</time>
   <energy>
    <i name="alphaZ">     90.39511871 </i>
    <i name="ewald">  44738.35357397 </i>
    <i name="hartreedc"> -50751.22007326 </i>
    <i name="XCdc">   -233.35147797 </i>
    <i name="pawpsdc">   4082.73633665 </i>
    <i name="pawaedc">  -3498.64244079 </i>
    <i name="eentropy">     -0.19072589 </i>
    <i name="bandstr">  -1380.99037525 </i>
    <i name="atom">   6761.44252427 </i>
    <i name="e_fr_energy">   -191.46753956 </i>
    <i name="e_wo_entrp">   -191.27681367 </i>
    <i name="e_0_energy">   -191.37217662 </i>
   </energy>
  </scstep>
  <scstep>
   <time name="dav">   31.92   32.00</time>
   <time name="total">   32.42   32.51</time>
   <energy>
    <i name="e_fr_energy">   -191.59149537 </i>
    <i name="e_wo_entrp">   -191.37164445 </i>
    <i name="e_0_energy">   -191.48156991 </i>
   </energy>
  </scstep>
  <scstep>
   <time name="dav">   29.66   29.73</time>
   <time name="total">   30.17   30.25</time>
   <energy>
    <i name="e_fr_energy">   -191.48506213 </i>
    <i name="e_wo_entrp">   -191.29300500 </i>
    <i name="e_0_energy">   -191.38903356 </i>
   </energy>
  </scstep>
  <scstep>
   <time name="dav">   28.91   28.98</time>
   <time name="total">   29.42   29.50</time>
   <energy>
    <i name="e_fr_energy">   -191.48412480 </i>
    <i name="e_wo_entrp">   -191.29011993 </i>
    <i name="e_0_energy">   -191.38712237 </i>
   </energy>
  </scstep>
  <scstep>
   <time name="dav">   29.03   29.10</time>
   <time name="total">   29.53   29.61</time>
   <energy>
    <i name="e_fr_energy">   -191.47591856 </i>
    <i name="e_wo_entrp">   -191.28145324 </i>
    <i name="e_0_energy">   -191.37868590 </i>
   </energy>
  </scstep>
  <scstep>
   <time name="dav">   28.26   28.33</time>
   <time name="total">   28.76   28.84</time>
   <energy>
    <i name="e_fr_energy">   -191.47602598 </i>
    <i name="e_wo_entrp">   -191.28078312 </i>
    <i name="e_0_energy">   -191.37840455 </i>
   </energy>
  </scstep>
  <scstep>
[...]
      <set comment="kpoint 31">
       <r>  -17.5446    1.0000 </r>
       <r>  -17.2343    1.0000 </r>
       <r>  -16.9128    1.0000 </r>
       <r>  -16.6488    1.0000 </r>
       <r>  -16.5030    1.0000 </r>
       <r>  -16.4326    1.0000 </r>
       <r>  -16.2719    1.0000 </r>
       <r>  -16.2223    1.0000 </r>
       <r>  -16.0766    1.0000 </r>
       <r>  -16.0032    1.0000 </r>
       <r>  -15.9044    1.0000 </r>
       <r>  -15.8598    1.0000 </r>
       <r>  -15.7900    1.0000 </r>
       <r>  -15.6862    1.0000 </r>
       <r>  -15.6168    1.0000 </r>
       <r>  -15.5346    1.0000 </r>
       <r>  -15.4246    1.0000 </r>
       <r>  -15.2842    1.0000 </r>
       <r>   -9.7614    1.0000 </r>
       <r>   -9.4502    1.0000 </r>
       <r>   -9.3396    1.0000 </r>
       <r>   -9.0294    1.0000 </r>
       <r>   -8.8272    1.0000 </r>
       <r>   -8.6913    1.0000 </r>
       <r>   -8.5553    1.0000 </r>
       <r>   -8.4821    1.0000 </r>
       <r>   -8.4068    1.0000 </r>
       <r>   -8.3213    1.0000 </r>
       <r>   -8.2759    1.0000 </r>
       <r>   -8.1972    1.0000 </r>
       <r>   -8.1428    1.0000 </r>
       <r>   -8.0971    1.0000 </r>
       <r>   -7.9949    1.0000 </r>
       <r>   -7.8949    1.0000 </r>
       <r>   -7.8109    1.0000 </r>
       <r>   -7.6446    1.0000 </r>
       <r>   -7.5706    1.0000 </r>
       <r>   -7.4832    1.0000 </r>
       <r>   -7.3447    1.0000 </r>
       <r>   -7.1840    1.0000 </r>
       <r>   -7.1097    1.0000 </r>
       <r>   -7.0329    1.0000 </r>
       <r>   -7.0090    1.0000 </r>
       <r>   -6.9793    1.0000 </r>
       <r>   -6.9020    1.0000 </r>
       <r>   -6.8357    1.0000 </r>
       <r>   -6.6909    1.0000 </r>
       <r>   -6.6140    1.0000 </r>
       <r>   -6.5757    1.0000 </r>
       <r>   -6.5374    1.0000 </r>
       <r>   -6.4278    1.0000 </r>
       <r>   -6.3069    1.0000 </r>
       <r>   -6.2408    1.0000 </r>
       <r>   -6.1721    1.0000 </r>
       <r>   -6.1042    1.0000 </r>
       <r>   -6.0163    1.0000 </r>
       <r>   -5.9394    1.0000 </r>
       <r>   -5.8921    1.0000 </r>
       <r>   -5.8577    1.0000 </r>
       <r>   -5.7771    1.0000 </r>
       <r>   -5.7249    1.0000 </r>
       <r>   -5.6084    1.0000 </r>
       <r>   -5.5354    1.0000 </r>
       <r>   -5.3416    1.0000 </r>
       <r>   -5.3099    1.0000 </r>
       <r>   -5.1845    1.0000 </r>
       <r>   -5.1008    1.0000 </r>
       <r>   -4.8723    1.0000 </r>
       <r>   -4.7901    1.0000 </r>
       <r>   -4.7193    1.0000 </r>
       <r>   -4.5296    1.0000 </r>
       <r>   -4.4362    1.0000 </r>
       <r>   -4.3873    1.0000 </r>
       <r>   -4.2457    1.0000 </r>
       <r>   -4.0575    1.0000 </r>
       <r>   -3.9943    1.0000 </r>
       <r>   -3.7879    0.9989 </r>
       <r>   -3.7377    0.9965 </r>
       <r>   -3.5888    0.9501 </r>
       <r>   -3.3725    0.5462 </r>
       <r>   -3.0579    0.0175 </r>
       <r>   -2.8513    0.0002 </r>
       <r>   -2.7973    0.0000 </r>
       <r>   -2.7021    0.0000 </r>
       <r>   -2.4905    0.0000 </r>
       <r>   -2.3779    0.0000 </r>
       <r>   -2.3389    0.0000 </r>
       <r>   -2.1244    0.0000 </r>
       <r>   -2.0664    0.0000 </r>
       <r>   -1.9853    0.0000 </r>
       <r>   -1.7449    0.0000 </r>
       <r>   -1.5464    0.0000 </r>
       <r>   -1.3788    0.0000 </r>
       <r>   -1.3117    0.0000 </r>
       <r>   -1.2575    0.0000 </r>
       <r>   -1.1917    0.0000 </r>
       <r>   -1.0925    0.0000 </r>
       <r>   -1.0492    0.0000 </r>
       <r>   -0.9553    0.0000 </r>
       <r>   -0.8882    0.0000 </r>
       <r>   -0.7981    0.0000 </r>
       <r>   -0.7325    0.0000 </r>
       <r>   -0.6511    0.0000 </r>
       <r>   -0.5146    0.0000 </r>
       <r>   -0.4628    0.0000 </r>
       <r>   -0.2777    0.0000 </r>
       <r>   -0.1955    0.0000 </r>
       <r>   -0.1296    0.0000 </r>
       <r>   -0.0505    0.0000 </r>
       <r>    0.0457    0.0000 </r>
       <r>    0.2970    0.0000 </r>
       <r>    0.5551    0.0000 </r>
       <r>    0.6759    0.0000 </r>
       <r>    1.0401    0.0000 </r>
       <r>    1.1236    0.0000 </r>
       <r>    1.2979    0.0000 </r>
       <r>    1.4499    0.0000 </r>
       <r>    2.1293    0.0000 </r>
       <r>    2.2980    0.0000 </r>
       <r>    2.3876    0.0000 </r>
      </set>
      <set comment="kpoint 32">
       <r>  -17.5529    1.0000 </r>
       <r>  -17.1614    1.0000 </r>
       <r>  -17.0331    1.0000 </r>
       <r>  -16.6543    1.0000 </r>
       <r>  -16.4290    1.0000 </r>
       <r>  -16.3775    1.0000 </r>
       <r>  -16.2747    1.0000 </r>
       <r>  -16.2119    1.0000 </r>
       <r>  -16.1161    1.0000 </r>
       <r>  -15.9940    1.0000 </r>
       <r>  -15.9358    1.0000 </r>
       <r>  -15.8771    1.0000 </r>
       <r>  -15.7947    1.0000 </r>
       <r>  -15.7011    1.0000 </r>
       <r>  -15.6106    1.0000 </r>
       <r>  -15.5395    1.0000 </r>
       <r>  -15.4391    1.0000 </r>
       <r>  -15.2485    1.0000 </r>
       <r>   -9.6807    1.0000 </r>
       <r>   -9.5332    1.0000 </r>
       <r>   -9.4387    1.0000 </r>
       <r>   -9.0490    1.0000 </r>
       <r>   -8.7453    1.0000 </r>
       <r>   -8.5220    1.0000 </r>
       <r>   -8.4945    1.0000 </r>
       <r>   -8.4510    1.0000 </r>
       <r>   -8.3727    1.0000 </r>
       <r>   -8.3504    1.0000 </r>
       <r>   -8.2865    1.0000 </r>
       <r>   -8.2378    1.0000 </r>
       <r>   -8.2082    1.0000 </r>
       <r>   -8.1150    1.0000 </r>
       <r>   -8.0272    1.0000 </r>
       <r>   -7.9598    1.0000 </r>
       <r>   -7.8761    1.0000 </r>
       <r>   -7.6481    1.0000 </r>
       <r>   -7.5215    1.0000 </r>
       <r>   -7.4683    1.0000 </r>
       <r>   -7.3316    1.0000 </r>
       <r>   -7.2167    1.0000 </r>
       <r>   -7.0828    1.0000 </r>
       <r>   -7.0446    1.0000 </r>
       <r>   -7.0317    1.0000 </r>
       <r>   -6.9667    1.0000 </r>
       <r>   -6.9312    1.0000 </r>
       <r>   -6.8394    1.0000 </r>
       <r>   -6.7062    1.0000 </r>
       <r>   -6.5977    1.0000 </r>
       <r>   -6.5243    1.0000 </r>
       <r>   -6.4675    1.0000 </r>
       <r>   -6.3939    1.0000 </r>
       <r>   -6.3615    1.0000 </r>
       <r>   -6.2793    1.0000 </r>
       <r>   -6.2063    1.0000 </r>
       <r>   -6.1437    1.0000 </r>
       <r>   -6.0037    1.0000 </r>
       <r>   -5.9758    1.0000 </r>
       <r>   -5.8900    1.0000 </r>
       <r>   -5.8004    1.0000 </r>
       <r>   -5.7337    1.0000 </r>
       <r>   -5.6462    1.0000 </r>
       <r>   -5.5908    1.0000 </r>
       <r>   -5.5213    1.0000 </r>
       <r>   -5.4205    1.0000 </r>
       <r>   -5.2901    1.0000 </r>
       <r>   -5.2032    1.0000 </r>
       <r>   -5.1456    1.0000 </r>
       <r>   -4.9963    1.0000 </r>
       <r>   -4.7694    1.0000 </r>
       <r>   -4.6142    1.0000 </r>
       <r>   -4.5090    1.0000 </r>
       <r>   -4.4521    1.0000 </r>
       <r>   -4.3569    1.0000 </r>
       <r>   -4.2402    1.0000 </r>
       <r>   -4.1310    1.0000 </r>
       <r>   -4.0799    1.0000 </r>
       <r>   -3.8332    0.9996 </r>
       <r>   -3.7083    0.9936 </r>
       <r>   -3.5467    0.9112 </r>
       <r>   -3.3719    0.5444 </r>
       <r>   -2.9615    0.0026 </r>
       <r>   -2.8510    0.0002 </r>
       <r>   -2.8082    0.0001 </r>
       <r>   -2.6415    0.0000 </r>
       <r>   -2.4963    0.0000 </r>
       <r>   -2.4111    0.0000 </r>
       <r>   -2.2844    0.0000 </r>
       <r>   -2.0979    0.0000 </r>
       <r>   -2.0505    0.0000 </r>
       <r>   -1.9695    0.0000 </r>
       <r>   -1.7080    0.0000 </r>
       <r>   -1.5790    0.0000 </r>
       <r>   -1.4315    0.0000 </r>
       <r>   -1.3602    0.0000 </r>
       <r>   -1.3217    0.0000 </r>
       <r>   -1.2040    0.0000 </r>
       <r>   -1.0748    0.0000 </r>
       <r>   -1.0458    0.0000 </r>
       <r>   -0.9931    0.0000 </r>
       <r>   -0.9139    0.0000 </r>
       <r>   -0.7881    0.0000 </r>
       <r>   -0.7100    0.0000 </r>
       <r>   -0.6221    0.0000 </r>
       <r>   -0.5457    0.0000 </r>
       <r>   -0.4044    0.0000 </r>
       <r>   -0.2706    0.0000 </r>
       <r>   -0.1983    0.0000 </r>
       <r>   -0.1222    0.0000 </r>
       <r>    0.0082    0.0000 </r>
       <r>    0.0975    0.0000 </r>
       <r>    0.3403    0.0000 </r>
       <r>    0.5334    0.0000 </r>
       <r>    0.6648    0.0000 </r>
       <r>    1.0434    0.0000 </r>
       <r>    1.0890    0.0000 </r>
       <r>    1.2452    0.0000 </r>
       <r>    1.3332    0.0000 </r>
       <r>    2.0937    0.0000 </r>
       <r>    2.2701    0.0000 </r>
       <r>    2.5639    0.0000 </r>
      </set>
      <set comment="kpoint 33">
       <r>  -17.5374    1.0000 </r>
       <r>  -17.2599    1.0000 </r>
       <r>  -16.8959    1.0000 </r>
       <r>  -16.6587    1.0000 </r>
       <r>  -16.4869    1.0000 </r>
       <r>  -16.4023    1.0000 </r>
       <r>  -16.3133    1.0000 </r>
       <r>  -16.1884    1.0000 </r>
       <r>  -16.0799    1.0000 </r>
       <r>  -15.9655    1.0000 </r>
       <r>  -15.9211    1.0000 </r>
       <r>  -15.8674    1.0000 </r>
       <r>  -15.8099    1.0000 </r>
       <r>  -15.7028    1.0000 </r>
       <r>  -15.6215    1.0000 </r>
       <r>  -15.5640    1.0000 </r>
       <r>  -15.4389    1.0000 </r>
       <r>  -15.2390    1.0000 </r>
       <r>   -9.7282    1.0000 </r>
       <r>   -9.4470    1.0000 </r>
       <r>   -9.3700    1.0000 </r>
       <r>   -9.0528    1.0000 </r>
       <r>   -8.8917    1.0000 </r>
       <r>   -8.6942    1.0000 </r>
       <r>   -8.4810    1.0000 </r>
       <r>   -8.4369    1.0000 </r>
       <r>   -8.3617    1.0000 </r>
       <r>   -8.3199    1.0000 </r>
       <r>   -8.2698    1.0000 </r>
       <r>   -8.2364    1.0000 </r>
       <r>   -8.1685    1.0000 </r>
       <r>   -8.0715    1.0000 </r>
       <r>   -8.0077    1.0000 </r>
       <r>   -7.9123    1.0000 </r>
       <r>   -7.8043    1.0000 </r>
       <r>   -7.6818    1.0000 </r>
       <r>   -7.5982    1.0000 </r>
       <r>   -7.4081    1.0000 </r>
       <r>   -7.2793    1.0000 </r>
       <r>   -7.2371    1.0000 </r>
       <r>   -7.1216    1.0000 </r>
       <r>   -7.0697    1.0000 </r>
       <r>   -7.0113    1.0000 </r>
       <r>   -6.9548    1.0000 </r>
       <r>   -6.8736    1.0000 </r>
       <r>   -6.8069    1.0000 </r>
       <r>   -6.6726    1.0000 </r>
       <r>   -6.6323    1.0000 </r>
       <r>   -6.5330    1.0000 </r>
       <r>   -6.4456    1.0000 </r>
       <r>   -6.4071    1.0000 </r>
       <r>   -6.3556    1.0000 </r>
       <r>   -6.3177    1.0000 </r>
       <r>   -6.2356    1.0000 </r>
       <r>   -6.1363    1.0000 </r>
       <r>   -6.0554    1.0000 </r>
       <r>   -5.9697    1.0000 </r>
       <r>   -5.9326    1.0000 </r>
       <r>   -5.8776    1.0000 </r>
       <r>   -5.8121    1.0000 </r>
       <r>   -5.6606    1.0000 </r>
       <r>   -5.6322    1.0000 </r>
       <r>   -5.5774    1.0000 </r>
       <r>   -5.4055    1.0000 </r>
       <r>   -5.2334    1.0000 </r>
       <r>   -5.1656    1.0000 </r>
       <r>   -5.0331    1.0000 </r>
       <r>   -4.8748    1.0000 </r>
       <r>   -4.8028    1.0000 </r>
       <r>   -4.5894    1.0000 </r>
       <r>   -4.5151    1.0000 </r>
       <r>   -4.3859    1.0000 </r>
       <r>   -4.3561    1.0000 </r>
       <r>   -4.2497    1.0000 </r>
       <r>   -4.2070    1.0000 </r>
       <r>   -4.1398    1.0000 </r>
       <r>   -3.8836    0.9999 </r>
       <r>   -3.7137    0.9943 </r>
       <r>   -3.5558    0.9211 </r>
       <r>   -3.3594    0.5093 </r>
       <r>   -2.9682    0.0030 </r>
       <r>   -2.8179    0.0001 </r>
       <r>   -2.7370    0.0000 </r>
       <r>   -2.6033    0.0000 </r>
       <r>   -2.5174    0.0000 </r>
       <r>   -2.4256    0.0000 </r>
       <r>   -2.2452    0.0000 </r>
       <r>   -2.0704    0.0000 </r>
       <r>   -2.0090    0.0000 </r>
       <r>   -1.9347    0.0000 </r>
       <r>   -1.6685    0.0000 </r>
       <r>   -1.5755    0.0000 </r>
       <r>   -1.4645    0.0000 </r>
       <r>   -1.4188    0.0000 </r>
       <r>   -1.3938    0.0000 </r>
       <r>   -1.2300    0.0000 </r>
       <r>   -1.1329    0.0000 </r>
       <r>   -1.0952    0.0000 </r>
       <r>   -0.9731    0.0000 </r>
       <r>   -0.9031    0.0000 </r>
       <r>   -0.7782    0.0000 </r>
       <r>   -0.6705    0.0000 </r>
       <r>   -0.5890    0.0000 </r>
       <r>   -0.5504    0.0000 </r>
       <r>   -0.4469    0.0000 </r>
       <r>   -0.3094    0.0000 </r>
       <r>   -0.2167    0.0000 </r>
       <r>   -0.0745    0.0000 </r>
       <r>    0.0243    0.0000 </r>
       <r>    0.1901    0.0000 </r>
       <r>    0.3792    0.0000 </r>
       <r>    0.5592    0.0000 </r>
       <r>    0.6577    0.0000 </r>
       <r>    1.0155    0.0000 </r>
       <r>    1.0954    0.0000 </r>
       <r>    1.1602    0.0000 </r>
       <r>    1.3186    0.0000 </r>
       <r>    2.1185    0.0000 </r>
       <r>    2.3035    0.0000 </r>
       <r>    2.3769    0.0000 </r>
      </set>
      <set comment="kpoint 34">
       <r>  -17.5198    1.0000 </r>
       <r>  -17.3168    1.0000 </r>
       <r>  -16.7371    1.0000 </r>
       <r>  -16.6603    1.0000 </r>
       <r>  -16.6403    1.0000 </r>
       <r>  -16.4132    1.0000 </r>
       <r>  -16.2951    1.0000 </r>
       <r>  -16.2086    1.0000 </r>
       <r>  -16.0478    1.0000 </r>
       <r>  -15.9629    1.0000 </r>
       <r>  -15.9143    1.0000 </r>
       <r>  -15.8386    1.0000 </r>
       <r>  -15.7888    1.0000 </r>
       <r>  -15.6998    1.0000 </r>
       <r>  -15.6643    1.0000 </r>
       <r>  -15.5694    1.0000 </r>
       <r>  -15.4355    1.0000 </r>
       <r>  -15.2411    1.0000 </r>
       <r>   -9.7636    1.0000 </r>
       <r>   -9.3679    1.0000 </r>
       <r>   -9.2708    1.0000 </r>
       <r>   -9.0334    1.0000 </r>
       <r>   -9.0070    1.0000 </r>
       <r>   -8.8629    1.0000 </r>
       <r>   -8.4915    1.0000 </r>
       <r>   -8.4418    1.0000 </r>
       <r>   -8.3737    1.0000 </r>
       <r>   -8.3101    1.0000 </r>
       <r>   -8.2500    1.0000 </r>
       <r>   -8.2314    1.0000 </r>
       <r>   -8.1362    1.0000 </r>
       <r>   -8.0447    1.0000 </r>
       <r>   -7.9403    1.0000 </r>
       <r>   -7.9332    1.0000 </r>
       <r>   -7.7877    1.0000 </r>
       <r>   -7.7128    1.0000 </r>
       <r>   -7.4906    1.0000 </r>
       <r>   -7.4069    1.0000 </r>
       <r>   -7.2936    1.0000 </r>
       <r>   -7.2104    1.0000 </r>
       <r>   -7.1299    1.0000 </r>
       <r>   -7.0782    1.0000 </r>
       <r>   -7.0426    1.0000 </r>
       <r>   -6.9268    1.0000 </r>
       <r>   -6.8822    1.0000 </r>
       <r>   -6.8073    1.0000 </r>
       <r>   -6.6565    1.0000 </r>
       <r>   -6.6082    1.0000 </r>
       <r>   -6.5641    1.0000 </r>
       <r>   -6.4504    1.0000 </r>
       <r>   -6.4079    1.0000 </r>
       <r>   -6.3791    1.0000 </r>
       <r>   -6.2431    1.0000 </r>
       <r>   -6.2354    1.0000 </r>
       <r>   -6.1959    1.0000 </r>
       <r>   -6.1084    1.0000 </r>
       <r>   -6.0068    1.0000 </r>
       <r>   -5.9400    1.0000 </r>
       <r>   -5.9151    1.0000 </r>
       <r>   -5.7970    1.0000 </r>
       <r>   -5.7552    1.0000 </r>
       <r>   -5.6003    1.0000 </r>
       <r>   -5.5667    1.0000 </r>
       <r>   -5.4729    1.0000 </r>
       <r>   -5.2130    1.0000 </r>
       <r>   -5.1684    1.0000 </r>
       <r>   -4.8847    1.0000 </r>
       <r>   -4.8086    1.0000 </r>
       <r>   -4.7403    1.0000 </r>
       <r>   -4.5805    1.0000 </r>
       <r>   -4.5565    1.0000 </r>
       <r>   -4.4855    1.0000 </r>
       <r>   -4.3047    1.0000 </r>
       <r>   -4.2706    1.0000 </r>
       <r>   -4.2176    1.0000 </r>
       <r>   -4.1233    1.0000 </r>
       <r>   -3.9033    0.9999 </r>
       <r>   -3.7303    0.9959 </r>
       <r>   -3.5841    0.9466 </r>
       <r>   -3.3516    0.4873 </r>
       <r>   -2.9819    0.0041 </r>
       <r>   -2.8183    0.0001 </r>
       <r>   -2.6742    0.0000 </r>
       <r>   -2.5974    0.0000 </r>
       <r>   -2.5310    0.0000 </r>
       <r>   -2.4155    0.0000 </r>
       <r>   -2.2427    0.0000 </r>
       <r>   -2.0544    0.0000 </r>
       <r>   -1.9889    0.0000 </r>
       <r>   -1.9193    0.0000 </r>
       <r>   -1.6196    0.0000 </r>
       <r>   -1.5775    0.0000 </r>
       <r>   -1.4808    0.0000 </r>
       <r>   -1.4576    0.0000 </r>
       <r>   -1.4168    0.0000 </r>
       <r>   -1.2439    0.0000 </r>
       <r>   -1.1747    0.0000 </r>
       <r>   -1.1181    0.0000 </r>
       <r>   -0.9672    0.0000 </r>
       <r>   -0.8744    0.0000 </r>
       <r>   -0.7813    0.0000 </r>
       <r>   -0.6517    0.0000 </r>
       <r>   -0.6005    0.0000 </r>
       <r>   -0.5429    0.0000 </r>
       <r>   -0.4773    0.0000 </r>
       <r>   -0.2903    0.0000 </r>
       <r>   -0.2602    0.0000 </r>
       <r>   -0.0546    0.0000 </r>
       <r>    0.0352    0.0000 </r>
       <r>    0.2050    0.0000 </r>
       <r>    0.4160    0.0000 </r>
       <r>    0.5779    0.0000 </r>
       <r>    0.6536    0.0000 </r>
       <r>    1.0096    0.0000 </r>
       <r>    1.0671    0.0000 </r>
       <r>    1.1590    0.0000 </r>
       <r>    1.3312    0.0000 </r>
       <r>    2.1783    0.0000 </r>
       <r>    2.2495    0.0000 </r>
       <r>    2.3913    0.0000 </r>
      </set>
     </set>
    </set>
   </array>
  </eigenvalues>
  <separator name="orbital magnetization" >
   <v name="MAGDIPOLOUT">      0.00000000      0.00000000      0.00000000</v>
  </separator>
 </calculation>
 <structure name="finalpos" >
  <crystal>
   <varray name="basis" >
    <v>       8.35738065       4.80027165       0.00000000 </v>
    <v>      -8.36522484       4.81407659       0.00000000 </v>
    <v>       0.00000000       0.00000000      30.00000000 </v>
   </varray>
   <i name="volume">   2411.65266540 </i>
   <varray name="rec_basis" >
    <v>       0.05988520       0.10406007       0.00000000 </v>
    <v>      -0.05971347       0.10396249       0.00000000 </v>
    <v>       0.00000000       0.00000000       0.03333333 </v>
   </varray>
  </crystal>
  <varray name="positions" >
   <v>       0.69305852       0.65430378       0.00181069 </v>
   <v>       0.35513323       0.36260056      -0.00165634 </v>
   <v>       0.97217548       0.33876689      -0.00175920 </v>
   <v>       0.00599554       0.67371714       0.00022584 </v>
   <v>       0.66849931       0.32609117       0.00055368 </v>
   <v>       0.64428391       0.01759473      -0.00238780 </v>
   <v>       0.01309860      -0.02727989       0.00220907 </v>
   <v>       0.33269427      -0.02116306       0.00085640 </v>
   <v>       0.32586788       0.68703638      -0.00062073 </v>
   <v>       0.10782214       0.22074756       0.95729202 </v>
   <v>       0.22832959       0.11582686       0.05031357 </v>
   <v>       0.10970917       0.54871739       0.94723046 </v>
   <v>       0.21455469       0.44246404       0.04523994 </v>
   <v>       0.11592900       0.88540193       0.94506463 </v>
   <v>       0.21881674       0.77441666       0.05668761 </v>
   <v>       0.43485289       0.22039556       0.95211271 </v>
   <v>       0.54746685       0.11222229       0.05514768 </v>
   <v>       0.45960137       0.56802941       0.95185247 </v>
   <v>       0.55368446       0.44786093       0.05176788 </v>
   <v>       0.44090360       0.88960086       0.94232333 </v>
   <v>       0.56156180       0.77859738       0.04462402 </v>
   <v>       0.77649249       0.22661869       0.94390484 </v>
   <v>       0.88804468       0.10962278       0.04374496 </v>
   <v>       0.77952414       0.55460745       0.94789528 </v>
   <v>       0.88794899       0.43918987       0.05315922 </v>
   <v>       0.77601915       0.88564014       0.95601931 </v>
   <v>       0.88614597       0.76658691       0.05638836 </v>
  </varray>
 </structure>
</modeling>
