       N       E                     dE             d eps       ncg     rms          rms(c)
DAV:   1     0.112583068681E+04    0.11258E+04   -0.35979E+04  8160   0.577E+02
DAV:   2    -0.185146131839E+00   -0.11260E+04   -0.10824E+04 11040   0.173E+02
DAV:   3    -0.199789054382E+03   -0.19960E+03   -0.19143E+03 10960   0.823E+01
DAV:   4    -0.209010265890E+03   -0.92212E+01   -0.89392E+01 12240   0.260E+01
DAV:   5    -0.209321212294E+03   -0.31095E+00   -0.31002E+00 11240   0.350E+00    0.275E+01
DAV:   6    -0.237931753686E+03   -0.28611E+02   -0.10718E+02 12640   0.601E+01    0.595E+01
DAV:   7    -0.196570144461E+03    0.41362E+02   -0.17567E+02 13400   0.153E+02    0.200E+01
DAV:   8    -0.189489953772E+03    0.70802E+01   -0.17912E+01 12000   0.127E+01    0.125E+01
DAV:   9    -0.188167745308E+03    0.13222E+01   -0.31323E+00 13480   0.624E+00    0.925E+00
DAV:  10    -0.186958065105E+03    0.12097E+01   -0.17565E+00 13280   0.770E+00    0.217E+00
DAV:  11    -0.187061772462E+03   -0.10371E+00   -0.59144E-01 13560   0.304E+00    0.388E+00
DAV:  12    -0.187004634897E+03    0.57138E-01   -0.82778E-01 12720   0.458E+00    0.369E+00
DAV:  13    -0.186887218361E+03    0.11742E+00   -0.30443E-01 13240   0.298E+00    0.187E+00
DAV:  14    -0.186850354665E+03    0.36864E-01   -0.10719E-01 13280   0.175E+00    0.906E-01
DAV:  15    -0.186848129390E+03    0.22253E-02   -0.28961E-02 12880   0.905E-01    0.815E-01
DAV:  16    -0.186842448472E+03    0.56809E-02   -0.11010E-02 13160   0.530E-01    0.272E-01
DAV:  17    -0.186841247718E+03    0.12008E-02   -0.44511E-03 12840   0.285E-01    0.182E-01
DAV:  18    -0.186841018485E+03    0.22923E-03   -0.18527E-03 11760   0.147E-01    0.130E-01
DAV:  19    -0.186840818756E+03    0.19973E-03   -0.81727E-04 11120   0.893E-02    0.583E-02
DAV:  20    -0.186841570935E+03   -0.75218E-03   -0.68489E-04  9120   0.738E-02    0.550E-02
DAV:  21    -0.186842406990E+03   -0.83606E-03   -0.24135E-04  8160   0.494E-02    0.321E-02
DAV:  22    -0.186843353206E+03   -0.94622E-03   -0.15713E-04  7520   0.382E-02    0.311E-02
DAV:  23    -0.186844505712E+03   -0.11525E-02   -0.10603E-04  7560   0.365E-02    0.131E-02
DAV:  24    -0.186845058136E+03   -0.55242E-03   -0.23918E-05  6800   0.153E-02    0.476E-03
DAV:  25    -0.186845453434E+03   -0.39530E-03   -0.16133E-05  5440   0.961E-03    0.320E-03
DAV:  26    -0.186845695034E+03   -0.24160E-03   -0.93122E-06  6840   0.702E-03    0.166E-03
DAV:  27    -0.186845783761E+03   -0.88727E-04   -0.32986E-06  7360   0.406E-03
   1 F= -.18684578E+03 E0= -.18667481E+03  d E =-.186846E+03
       N       E                     dE             d eps       ncg     rms          rms(c)
DAV:   1    -0.187499883993E+03   -0.65419E+00   -0.27222E+02  8160   0.350E+01    0.460E+00
DAV:   2    -0.189346042863E+03   -0.18462E+01   -0.19880E+01 12240   0.150E+01    0.856E+00
DAV:   3    -0.189359865619E+03   -0.13823E-01   -0.39310E+00 12440   0.120E+01    0.659E+00
DAV:   4    -0.188757108172E+03    0.60276E+00   -0.64181E-01 12520   0.476E+00    0.198E+00
DAV:   5    -0.188848464246E+03   -0.91356E-01   -0.41412E-01 11800   0.339E+00    0.485E+00
DAV:   6    -0.188755974113E+03    0.92490E-01   -0.73383E-01 12560   0.436E+00    0.270E+00
DAV:   7    -0.188676231703E+03    0.79742E-01   -0.21308E-01 12480   0.162E+00    0.101E+00
DAV:   8    -0.188661793801E+03    0.14438E-01   -0.50095E-02 11480   0.737E-01    0.659E-01
DAV:   9    -0.188657215218E+03    0.45786E-02   -0.12275E-02 12760   0.443E-01    0.441E-01
DAV:  10    -0.188657196031E+03    0.19187E-04   -0.57460E-03 11920   0.414E-01    0.413E-01
DAV:  11    -0.188655861302E+03    0.13347E-02   -0.36981E-03 12920   0.305E-01    0.128E-01
DAV:  12    -0.188655863060E+03   -0.17571E-05   -0.96796E-04 11760   0.990E-02
   2 F= -.18865586E+03 E0= -.18851712E+03  d E =-.181008E+01
       N       E                     dE             d eps       ncg     rms          rms(c)
DAV:   1    -0.190582358101E+03   -0.19265E+01   -0.31125E+01  9200   0.142E+01    0.445E+00
DAV:   2    -0.190528470719E+03    0.53887E-01   -0.27746E+00 11520   0.945E+00    0.718E+00
DAV:   3    -0.190064449349E+03    0.46402E+00   -0.12911E+00 12320   0.862E+00    0.425E+00
DAV:   4    -0.189852637977E+03    0.21181E+00   -0.68010E-01 13000   0.432E+00    0.253E+00
DAV:   5    -0.189822024105E+03    0.30614E-01   -0.36781E-01 12240   0.307E+00    0.281E+00
DAV:   6    -0.189751375847E+03    0.70648E-01   -0.15828E-01 12680   0.250E+00    0.752E-01
DAV:   7    -0.189745528748E+03    0.58471E-02   -0.15742E-02 11560   0.608E-01    0.385E-01
DAV:   8    -0.189745460948E+03    0.67800E-04   -0.58634E-03 12680   0.467E-01    0.346E-01
DAV:   9    -0.189744585218E+03    0.87573E-03   -0.21732E-03 11360   0.252E-01    0.121E-01
DAV:  10    -0.189745017025E+03   -0.43181E-03   -0.99508E-04 10720   0.106E-01    0.138E-01
DAV:  11    -0.189744709024E+03    0.30800E-03   -0.55721E-04  9480   0.843E-02    0.194E-02
DAV:  12    -0.189744731473E+03   -0.22449E-04   -0.64631E-05  7160   0.249E-02
   3 F= -.18974473E+03 E0= -.18962846E+03  d E =-.108887E+01
       N       E                     dE             d eps       ncg     rms          rms(c)
DAV:   1    -0.191299799429E+03   -0.15551E+01   -0.74223E+01  8160   0.196E+01    0.456E+00
DAV:   2    -0.191106028473E+03    0.19377E+00   -0.52549E+00 13440   0.750E+00    0.438E+00
DAV:   3    -0.191306316963E+03   -0.20029E+00   -0.14857E+00 12200   0.903E+00    0.733E+00
DAV:   4    -0.190898782351E+03    0.40753E+00   -0.16779E+00 11920   0.851E+00    0.352E+00
DAV:   5    -0.190903793320E+03   -0.50110E-02   -0.69537E-01 10960   0.545E+00    0.355E+00
DAV:   6    -0.190729019383E+03    0.17477E+00   -0.20363E-01 11400   0.313E+00    0.610E-01
DAV:   7    -0.190731721906E+03   -0.27025E-02   -0.34583E-02 12400   0.889E-01    0.737E-01
DAV:   8    -0.190728341754E+03    0.33802E-02   -0.17633E-02 11680   0.903E-01    0.534E-01
DAV:   9    -0.190725332263E+03    0.30095E-02   -0.46758E-03 11360   0.444E-01    0.150E-01
DAV:  10    -0.190725651311E+03   -0.31905E-03   -0.14574E-03 10080   0.138E-01    0.105E-01
DAV:  11    -0.190725499835E+03    0.15148E-03   -0.58572E-04  9880   0.909E-02    0.439E-02
DAV:  12    -0.190725498302E+03    0.15321E-05   -0.10340E-04  7120   0.359E-02
   4 F= -.19072550E+03 E0= -.19062790E+03  d E =-.980767E+00
       N       E                     dE             d eps       ncg     rms          rms(c)
DAV:   1    -0.192199866401E+03   -0.14744E+01   -0.17532E+02  8160   0.295E+01    0.587E+00
DAV:   2    -0.191896923088E+03    0.30294E+00   -0.98632E+00 10960   0.810E+00    0.404E+00
DAV:   3    -0.192373388467E+03   -0.47647E+00   -0.28128E+00 12200   0.109E+01    0.867E+00
DAV:   4    -0.191688126312E+03    0.68526E+00   -0.23513E+00 11560   0.110E+01    0.351E+00
DAV:   5    -0.191633697630E+03    0.54429E-01   -0.58680E-01 12200   0.565E+00    0.442E+00
DAV:   6    -0.191476131280E+03    0.15757E+00   -0.63444E-01 12320   0.524E+00    0.164E+00
DAV:   7    -0.191464910458E+03    0.11221E-01   -0.10146E-01 12480   0.188E+00    0.121E+00
DAV:   8    -0.191448725914E+03    0.16185E-01   -0.33590E-02 12240   0.139E+00    0.473E-01
DAV:   9    -0.191445921143E+03    0.28048E-02   -0.74304E-03 11360   0.493E-01    0.199E-01
DAV:  10    -0.191446056346E+03   -0.13520E-03   -0.28581E-03 11560   0.214E-01    0.104E-01
DAV:  11    -0.191445973878E+03    0.82468E-04   -0.61046E-04 10560   0.934E-02
   5 F= -.19144597E+03 E0= -.19135290E+03  d E =-.720476E+00
       N       E                     dE             d eps       ncg     rms          rms(c)
DAV:   1    -0.191519179650E+03   -0.73123E-01   -0.60996E+00  8160   0.520E+00    0.735E-01
DAV:   2    -0.191593020530E+03   -0.73841E-01   -0.31211E-01 13120   0.342E+00    0.241E+00
DAV:   3    -0.191528048483E+03    0.64972E-01   -0.11313E-01 12600   0.257E+00    0.334E-01
DAV:   4    -0.191530616519E+03   -0.25680E-02   -0.12124E-02 11520   0.738E-01    0.679E-01
DAV:   5    -0.191526400444E+03    0.42161E-02   -0.95803E-03 10800   0.702E-01    0.238E-01
DAV:   6    -0.191526708728E+03   -0.30828E-03   -0.37308E-03 11400   0.328E-01    0.275E-01
DAV:   7    -0.191526349222E+03    0.35951E-03   -0.34490E-03 11360   0.399E-01    0.232E-01
DAV:   8    -0.191525795169E+03    0.55405E-03   -0.11000E-03  9920   0.217E-01    0.414E-02
DAV:   9    -0.191525793651E+03    0.15181E-05   -0.10005E-04  6520   0.424E-02
   6 F= -.19152579E+03 E0= -.19143090E+03  d E =-.798198E-01
       N       E                     dE             d eps       ncg     rms          rms(c)
DAV:   1    -0.191626142753E+03   -0.10035E+00   -0.16463E+01  8160   0.846E+00    0.967E-01
DAV:   2    -0.191727154986E+03   -0.10101E+00   -0.46152E-01 13080   0.368E+00    0.278E+00
DAV:   3    -0.191641326731E+03    0.85828E-01   -0.18122E-01 12520   0.323E+00    0.641E-01
DAV:   4    -0.191648251629E+03   -0.69249E-02   -0.32564E-02 12000   0.123E+00    0.109E+00
DAV:   5    -0.191636791752E+03    0.11460E-01   -0.24058E-02 11800   0.109E+00    0.314E-01
DAV:   6    -0.191638281173E+03   -0.14894E-02   -0.79657E-03 11320   0.535E-01    0.480E-01
DAV:   7    -0.191636727982E+03    0.15532E-02   -0.77414E-03 11640   0.616E-01    0.289E-01
DAV:   8    -0.191635789170E+03    0.93881E-03   -0.19226E-03 10360   0.271E-01    0.553E-02
DAV:   9    -0.191635766232E+03    0.22938E-04   -0.22256E-04  7640   0.568E-02
   7 F= -.19163577E+03 E0= -.19154016E+03  d E =-.109973E+00
       N       E                     dE             d eps       ncg     rms          rms(c)
DAV:   1    -0.191665181618E+03   -0.29392E-01   -0.96485E-01  8160   0.216E+00    0.377E-01
DAV:   2    -0.191672473279E+03   -0.72917E-02   -0.49653E-02 12040   0.123E+00    0.863E-01
DAV:   3    -0.191664245036E+03    0.82282E-02   -0.17998E-02 11760   0.103E+00    0.220E-01
DAV:   4    -0.191664373540E+03   -0.12850E-03   -0.41786E-03 11880   0.393E-01    0.335E-01
DAV:   5    -0.191663592255E+03    0.78128E-03   -0.38005E-03 11080   0.443E-01    0.217E-01
DAV:   6    -0.191663113714E+03    0.47854E-03   -0.13676E-03 10360   0.221E-01    0.676E-02
DAV:   7    -0.191663105162E+03    0.85515E-05   -0.38572E-04  7880   0.111E-01
   8 F= -.19166311E+03 E0= -.19156703E+03  d E =-.273389E-01
       N       E                     dE             d eps       ncg     rms          rms(c)
DAV:   1    -0.191719443672E+03   -0.56330E-01   -0.59854E+00  8160   0.514E+00    0.548E-01
DAV:   2    -0.191746926826E+03   -0.27483E-01   -0.17247E-01 12760   0.203E+00    0.134E+00
DAV:   3    -0.191727153500E+03    0.19773E-01   -0.47973E-02 12480   0.163E+00    0.396E-01
DAV:   4    -0.191728384691E+03   -0.12312E-02   -0.10020E-02 12400   0.673E-01    0.556E-01
DAV:   5    -0.191725429132E+03    0.29556E-02   -0.68478E-03 10680   0.622E-01    0.220E-01
DAV:   6    -0.191725341877E+03    0.87255E-04   -0.23970E-03 11200   0.256E-01    0.145E-01
DAV:   7    -0.191725069237E+03    0.27264E-03   -0.11798E-03 10720   0.181E-01    0.121E-01
DAV:   8    -0.191724951541E+03    0.11770E-03   -0.44991E-04  8880   0.139E-01    0.545E-02
DAV:   9    -0.191724928410E+03    0.23131E-04   -0.72478E-05  5920   0.519E-02
   9 F= -.19172493E+03 E0= -.19162930E+03  d E =-.618232E-01
       N       E                     dE             d eps       ncg     rms          rms(c)
DAV:   1    -0.191750852684E+03   -0.25901E-01   -0.96055E-01  8160   0.212E+00    0.307E-01
DAV:   2    -0.191756656483E+03   -0.58038E-02   -0.40965E-02 13000   0.104E+00    0.706E-01
DAV:   3    -0.191751323467E+03    0.53330E-02   -0.12682E-02 11640   0.842E-01    0.208E-01
DAV:   4    -0.191751955950E+03   -0.63248E-03   -0.40612E-03 11680   0.421E-01    0.369E-01
DAV:   5    -0.191750688466E+03    0.12675E-02   -0.30864E-03 10960   0.401E-01    0.133E-01
DAV:   6    -0.191750594144E+03    0.94321E-04   -0.90960E-04  9880   0.163E-01
  10 F= -.19175059E+03 E0= -.19165505E+03  d E =-.256657E-01
       N       E                     dE             d eps       ncg     rms          rms(c)
DAV:   1    -0.191808928223E+03   -0.58240E-01   -0.67320E+00  8160   0.552E+00    0.605E-01
DAV:   2    -0.191837545160E+03   -0.28617E-01   -0.21904E-01 12440   0.206E+00    0.142E+00
DAV:   3    -0.191820238643E+03    0.17307E-01   -0.62215E-02 12400   0.167E+00    0.584E-01
DAV:   4    -0.191821763752E+03   -0.15251E-02   -0.18951E-02 12200   0.952E-01    0.715E-01
DAV:   5    -0.191816007080E+03    0.57567E-02   -0.97695E-03 11400   0.766E-01    0.197E-01
DAV:   6    -0.191816182895E+03   -0.17582E-03   -0.34633E-03 10920   0.265E-01    0.166E-01
DAV:   7    -0.191815742511E+03    0.44038E-03   -0.14708E-03 10800   0.212E-01    0.132E-01
DAV:   8    -0.191815597961E+03    0.14455E-03   -0.44429E-04  8680   0.150E-01    0.522E-02
DAV:   9    -0.191815569095E+03    0.28866E-04   -0.71499E-05  6040   0.486E-02
  11 F= -.19181557E+03 E0= -.19172086E+03  d E =-.649750E-01
       N       E                     dE             d eps       ncg     rms          rms(c)
DAV:   1    -0.191841690056E+03   -0.26092E-01   -0.10157E+00  8160   0.219E+00    0.303E-01
DAV:   2    -0.191846642089E+03   -0.49520E-02   -0.42294E-02 12200   0.897E-01    0.682E-01
DAV:   3    -0.191842980422E+03    0.36617E-02   -0.14635E-02 11760   0.802E-01    0.315E-01
DAV:   4    -0.191842639083E+03    0.34134E-03   -0.40435E-03 11480   0.433E-01    0.279E-01
DAV:   5    -0.191841874217E+03    0.76487E-03   -0.22515E-03 10560   0.380E-01    0.151E-01
DAV:   6    -0.191841666395E+03    0.20782E-03   -0.10867E-03  9800   0.193E-01    0.783E-02
DAV:   7    -0.191841636181E+03    0.30214E-04   -0.40038E-04  8400   0.126E-01
  12 F= -.19184164E+03 E0= -.19174711E+03  d E =-.260671E-01
       N       E                     dE             d eps       ncg     rms          rms(c)
DAV:   1    -0.191893833454E+03   -0.52167E-01   -0.52756E+00  8160   0.491E+00    0.537E-01
DAV:   2    -0.191915145008E+03   -0.21312E-01   -0.17424E-01 11600   0.163E+00    0.125E+00
DAV:   3    -0.191903960512E+03    0.11184E-01   -0.50225E-02 12520   0.145E+00    0.567E-01
DAV:   4    -0.191900968437E+03    0.29921E-02   -0.82985E-03 12000   0.517E-01    0.265E-01
DAV:   5    -0.191900208124E+03    0.76031E-03   -0.33790E-03 11720   0.375E-01    0.225E-01
DAV:   6    -0.191900526105E+03   -0.31798E-03   -0.34442E-03 12520   0.457E-01    0.256E-01
DAV:   7    -0.191899722120E+03    0.80399E-03   -0.15528E-03 10080   0.275E-01    0.110E-01
DAV:   8    -0.191899633028E+03    0.89092E-04   -0.32869E-04  8640   0.132E-01
  13 F= -.19189963E+03 E0= -.19180615E+03  d E =-.579968E-01
       N       E                     dE             d eps       ncg     rms          rms(c)
DAV:   1    -0.191916991915E+03   -0.17270E-01   -0.46345E-01  8160   0.148E+00    0.204E-01
DAV:   2    -0.191919737714E+03   -0.27458E-02   -0.20366E-02 11200   0.609E-01    0.500E-01
DAV:   3    -0.191917742124E+03    0.19956E-02   -0.71786E-03 11760   0.568E-01    0.202E-01
DAV:   4    -0.191917316152E+03    0.42597E-03   -0.11309E-03 10040   0.180E-01    0.788E-02
DAV:   5    -0.191917239337E+03    0.76816E-04   -0.41832E-04  9560   0.872E-02
  14 F= -.19191724E+03 E0= -.19182406E+03  d E =-.176063E-01
       N       E                     dE             d eps       ncg     rms          rms(c)
DAV:   1    -0.191973104669E+03   -0.55789E-01   -0.60847E+00  8160   0.531E+00    0.657E-01
DAV:   2    -0.192010510631E+03   -0.37406E-01   -0.23271E-01 11200   0.213E+00    0.182E+00
DAV:   3    -0.191983229232E+03    0.27281E-01   -0.81720E-02 12400   0.192E+00    0.571E-01
DAV:   4    -0.191981434796E+03    0.17944E-02   -0.12540E-02 11440   0.676E-01    0.488E-01
DAV:   5    -0.191979228813E+03    0.22060E-02   -0.84596E-03 12560   0.704E-01    0.324E-01
DAV:   6    -0.191979340908E+03   -0.11209E-03   -0.52286E-03 11640   0.508E-01    0.330E-01
DAV:   7    -0.191978652894E+03    0.68801E-03   -0.34291E-03 10920   0.457E-01    0.218E-01
DAV:   8    -0.191978029296E+03    0.62360E-03   -0.94457E-04 10000   0.223E-01    0.368E-02
DAV:   9    -0.191978021791E+03    0.75045E-05   -0.92226E-05  6720   0.391E-02
  15 F= -.19197802E+03 E0= -.19188600E+03  d E =-.607825E-01
       N       E                     dE             d eps       ncg     rms          rms(c)
DAV:   1    -0.192048530053E+03   -0.70501E-01   -0.22599E+01  8160   0.102E+01    0.122E+00
DAV:   2    -0.192191273038E+03   -0.14274E+00   -0.86978E-01 11200   0.411E+00    0.337E+00
DAV:   3    -0.192096350078E+03    0.94923E-01   -0.29073E-01 12240   0.371E+00    0.114E+00
DAV:   4    -0.192091278720E+03    0.50714E-02   -0.50377E-02 12160   0.164E+00    0.104E+00
DAV:   5    -0.192078204192E+03    0.13075E-01   -0.29692E-02 12400   0.140E+00    0.421E-01
DAV:   6    -0.192077772754E+03    0.43144E-03   -0.10744E-02 11840   0.584E-01    0.367E-01
DAV:   7    -0.192078014938E+03   -0.24218E-03   -0.82409E-03 12000   0.677E-01    0.480E-01
DAV:   8    -0.192075586943E+03    0.24280E-02   -0.35904E-03 11520   0.477E-01    0.720E-02
DAV:   9    -0.192075539804E+03    0.47139E-04   -0.32656E-04  8880   0.739E-02
  16 F= -.19207554E+03 E0= -.19198562E+03  d E =-.975180E-01
       N       E                     dE             d eps       ncg     rms          rms(c)
DAV:   1    -0.192100751498E+03   -0.25165E-01   -0.30017E+00  8160   0.373E+00    0.499E-01
DAV:   2    -0.192121554839E+03   -0.20803E-01   -0.14100E-01 11240   0.159E+00    0.129E+00
DAV:   3    -0.192107989923E+03    0.13565E-01   -0.42335E-02 12240   0.148E+00    0.474E-01
DAV:   4    -0.192105770283E+03    0.22196E-02   -0.63796E-03 11040   0.464E-01    0.269E-01
DAV:   5    -0.192105149080E+03    0.62120E-03   -0.35638E-03 12800   0.456E-01    0.214E-01
DAV:   6    -0.192104899194E+03    0.24989E-03   -0.21343E-03 11880   0.333E-01    0.149E-01
DAV:   7    -0.192104739153E+03    0.16004E-03   -0.11764E-03 10800   0.226E-01    0.133E-01
DAV:   8    -0.192104571746E+03    0.16741E-03   -0.38532E-04  8920   0.161E-01    0.501E-02
DAV:   9    -0.192104541075E+03    0.30671E-04   -0.54184E-05  6480   0.493E-02
  17 F= -.19210454E+03 E0= -.19201533E+03  d E =-.290013E-01
       N       E                     dE             d eps       ncg     rms          rms(c)
DAV:   1    -0.192128547999E+03   -0.23976E-01   -0.59390E+00  8160   0.518E+00    0.626E-01
DAV:   2    -0.192166387166E+03   -0.37839E-01   -0.23017E-01 11000   0.219E+00    0.160E+00
DAV:   3    -0.192141406672E+03    0.24980E-01   -0.63427E-02 12240   0.194E+00    0.587E-01
DAV:   4    -0.192140720671E+03    0.68600E-03   -0.12937E-02 11720   0.865E-01    0.550E-01
DAV:   5    -0.192137216374E+03    0.35043E-02   -0.71502E-03 12480   0.689E-01    0.198E-01
DAV:   6    -0.192137120556E+03    0.95818E-04   -0.25749E-03 11880   0.241E-01    0.136E-01
DAV:   7    -0.192136821780E+03    0.29878E-03   -0.11528E-03 10440   0.156E-01    0.878E-02
DAV:   8    -0.192136770734E+03    0.51046E-04   -0.29411E-04  9440   0.132E-01
  18 F= -.19213677E+03 E0= -.19204887E+03  d E =-.322297E-01
       N       E                     dE             d eps       ncg     rms          rms(c)
DAV:   1    -0.192146404474E+03   -0.95827E-02   -0.55467E-01  8160   0.161E+00    0.189E-01
DAV:   2    -0.192148094629E+03   -0.16902E-02   -0.18704E-02 11280   0.468E-01    0.288E-01
DAV:   3    -0.192147808379E+03    0.28625E-03   -0.36788E-03 12280   0.481E-01    0.250E-01
DAV:   4    -0.192147243747E+03    0.56463E-03   -0.10063E-03  9880   0.252E-01    0.111E-01
DAV:   5    -0.192147193396E+03    0.50351E-04   -0.55261E-04  8840   0.195E-01
  19 F= -.19214719E+03 E0= -.19206023E+03  d E =-.104227E-01
       N       E                     dE             d eps       ncg     rms          rms(c)
DAV:   1    -0.192153599571E+03   -0.63558E-02   -0.23187E-01  8160   0.104E+00    0.140E-01
DAV:   2    -0.192155157234E+03   -0.15577E-02   -0.85307E-03 11280   0.436E-01    0.344E-01
DAV:   3    -0.192153920942E+03    0.12363E-02   -0.25405E-03 12160   0.412E-01    0.113E-01
DAV:   4    -0.192153938617E+03   -0.17676E-04   -0.43713E-04  8600   0.172E-01
  20 F= -.19215394E+03 E0= -.19206670E+03  d E =-.674522E-02
       N       E                     dE             d eps       ncg     rms          rms(c)
DAV:   1    -0.192163041532E+03   -0.91206E-02   -0.45405E-01  8160   0.146E+00    0.183E-01
DAV:   2    -0.192164094365E+03   -0.10528E-02   -0.13074E-02 11560   0.431E-01    0.254E-01
DAV:   3    -0.192163892986E+03    0.20138E-03   -0.27757E-03 12240   0.430E-01    0.228E-01
DAV:   4    -0.192163505212E+03    0.38777E-03   -0.98074E-04  9920   0.259E-01    0.133E-01
DAV:   5    -0.192163379911E+03    0.12530E-03   -0.61575E-04  9200   0.212E-01    0.912E-02
DAV:   6    -0.192163352479E+03    0.27431E-04   -0.35247E-04  9320   0.128E-01
  21 F= -.19216335E+03 E0= -.19207664E+03  d E =-.941386E-02
       N       E                     dE             d eps       ncg     rms          rms(c)
DAV:   1    -0.192179463882E+03   -0.16084E-01   -0.14607E+00  8160   0.261E+00    0.311E-01
DAV:   2    -0.192184173750E+03   -0.47099E-02   -0.45400E-02 11200   0.812E-01    0.504E-01
DAV:   3    -0.192182075593E+03    0.20982E-02   -0.93019E-03 12040   0.785E-01    0.320E-01
DAV:   4    -0.192181716719E+03    0.35887E-03   -0.25586E-03 11480   0.435E-01    0.282E-01
DAV:   5    -0.192180915165E+03    0.80155E-03   -0.16969E-03 10160   0.365E-01    0.112E-01
DAV:   6    -0.192180911991E+03    0.31735E-05   -0.62277E-04 10440   0.138E-01
  22 F= -.19218091E+03 E0= -.19209444E+03  d E =-.175595E-01
       N       E                     dE             d eps       ncg     rms          rms(c)
DAV:   1    -0.192180876180E+03    0.38984E-04   -0.32812E-04  9960   0.142E-01    0.823E-02
DAV:   2    -0.192182588891E+03   -0.17127E-02   -0.27439E-03 11160   0.461E-01    0.403E-01
DAV:   3    -0.192180779241E+03    0.18096E-02   -0.19149E-03 10160   0.384E-01    0.212E-02
DAV:   4    -0.192180803331E+03   -0.24090E-04   -0.30101E-05  6000   0.329E-02
  23 F= -.19218080E+03 E0= -.19209452E+03  d E =0.108660E-03
       N       E                     dE             d eps       ncg     rms          rms(c)
DAV:   1    -0.192181664776E+03   -0.88553E-03   -0.56079E-02  8160   0.508E-01    0.746E-02
DAV:   2    -0.192182355884E+03   -0.69111E-03   -0.26668E-03 12440   0.304E-01    0.243E-01
DAV:   3    -0.192181724958E+03    0.63093E-03   -0.96225E-04  9680   0.261E-01    0.566E-02
DAV:   4    -0.192181705722E+03    0.19236E-04   -0.10074E-04  6080   0.678E-02
  24 F= -.19218171E+03 E0= -.19209545E+03  d E =-.902391E-03
       N       E                     dE             d eps       ncg     rms          rms(c)
DAV:   1    -0.192193398024E+03   -0.11673E-01   -0.68219E-01  8160   0.178E+00    0.221E-01
DAV:   2    -0.192195911574E+03   -0.25135E-02   -0.22227E-02 10840   0.618E-01    0.402E-01
DAV:   3    -0.192194560202E+03    0.13514E-02   -0.50419E-03 12600   0.568E-01    0.220E-01
DAV:   4    -0.192194320580E+03    0.23962E-03   -0.13067E-03  9800   0.292E-01    0.172E-01
DAV:   5    -0.192194012631E+03    0.30795E-03   -0.73890E-04  9960   0.249E-01    0.811E-02
DAV:   6    -0.192194014946E+03   -0.23145E-05   -0.27272E-04  8880   0.112E-01
  25 F= -.19219401E+03 E0= -.19210787E+03  d E =-.123092E-01
       N       E                     dE             d eps       ncg     rms          rms(c)
DAV:   1    -0.192193027137E+03    0.98549E-03   -0.42299E-03 10480   0.169E-01    0.473E-02
DAV:   2    -0.192193542837E+03   -0.51570E-03   -0.87317E-04 11120   0.251E-01    0.219E-01
DAV:   3    -0.192193000996E+03    0.54184E-03   -0.52891E-04  8840   0.212E-01    0.158E-02
DAV:   4    -0.192193009573E+03   -0.85777E-05   -0.20431E-05  5880   0.201E-02
  26 F= -.19219301E+03 E0= -.19210680E+03  d E =0.100537E-02
       N       E                     dE             d eps       ncg     rms          rms(c)
DAV:   1    -0.192190824271E+03    0.21767E-02   -0.85148E-02  8160   0.626E-01    0.112E-01
DAV:   2    -0.192192612690E+03   -0.17884E-02   -0.60551E-03 11800   0.508E-01    0.400E-01
DAV:   3    -0.192190891844E+03    0.17208E-02   -0.21823E-03 10840   0.407E-01    0.617E-02
DAV:   4    -0.192190887848E+03    0.39959E-05   -0.20603E-04  8680   0.105E-01
  27 F= -.19219089E+03 E0= -.19210479E+03  d E =0.212173E-02
       N       E                     dE             d eps       ncg     rms          rms(c)
DAV:   1    -0.192180275796E+03    0.10616E-01   -0.93702E-01  8160   0.208E+00    0.360E-01
DAV:   2    -0.192196306747E+03   -0.16031E-01   -0.56509E-02 12200   0.149E+00    0.121E+00
DAV:   3    -0.192181065958E+03    0.15241E-01   -0.21352E-02 12440   0.127E+00    0.213E-01
DAV:   4    -0.192180673712E+03    0.39225E-03   -0.22395E-03 10440   0.247E-01    0.163E-01
DAV:   5    -0.192180379472E+03    0.29424E-03   -0.13898E-03 11600   0.235E-01    0.153E-01
DAV:   6    -0.192180325710E+03    0.53762E-04   -0.10947E-03 10280   0.262E-01    0.136E-01
DAV:   7    -0.192180179151E+03    0.14656E-03   -0.53671E-04  8800   0.174E-01    0.818E-02
DAV:   8    -0.192180108698E+03    0.70453E-04   -0.14466E-04  6640   0.107E-01
  28 F= -.19218011E+03 E0= -.19209417E+03  d E =0.107791E-01
       N       E                     dE             d eps       ncg     rms          rms(c)
DAV:   1    -0.192204012290E+03   -0.23833E-01   -0.32481E+00  8160   0.388E+00    0.581E-01
DAV:   2    -0.192242620889E+03   -0.38609E-01   -0.16772E-01 12200   0.233E+00    0.172E+00
DAV:   3    -0.192208639706E+03    0.33981E-01   -0.47248E-02 12000   0.188E+00    0.371E-01
DAV:   4    -0.192208405943E+03    0.23376E-03   -0.67808E-03 11200   0.631E-01    0.394E-01
DAV:   5    -0.192206701334E+03    0.17046E-02   -0.48590E-03 12800   0.574E-01    0.224E-01
DAV:   6    -0.192206586020E+03    0.11531E-03   -0.25536E-03 12040   0.347E-01    0.213E-01
DAV:   7    -0.192206475900E+03    0.11012E-03   -0.16894E-03 10960   0.347E-01    0.196E-01
DAV:   8    -0.192206001758E+03    0.47414E-03   -0.65637E-04  8920   0.201E-01    0.281E-02
DAV:   9    -0.192206002624E+03   -0.86614E-06   -0.58790E-05  6440   0.316E-02
  29 F= -.19220600E+03 E0= -.19211950E+03  d E =-.258939E-01
       N       E                     dE             d eps       ncg     rms          rms(c)
DAV:   1    -0.192219202454E+03   -0.13201E-01   -0.87665E-01  8160   0.201E+00    0.246E-01
DAV:   2    -0.192222245633E+03   -0.30432E-02   -0.26652E-02 11280   0.675E-01    0.438E-01
DAV:   3    -0.192220346003E+03    0.18996E-02   -0.68608E-03 12440   0.636E-01    0.227E-01
DAV:   4    -0.192220333324E+03    0.12678E-04   -0.17412E-03 10400   0.342E-01    0.231E-01
DAV:   5    -0.192219770558E+03    0.56277E-03   -0.10683E-03  9960   0.301E-01    0.910E-02
DAV:   6    -0.192219748476E+03    0.22082E-04   -0.39837E-04  9280   0.113E-01
  30 F= -.19221975E+03 E0= -.19213262E+03  d E =-.137459E-01
       N       E                     dE             d eps       ncg     rms          rms(c)
DAV:   1    -0.192225314505E+03   -0.55439E-02   -0.15382E-01  8160   0.846E-01    0.116E-01
DAV:   2    -0.192226358000E+03   -0.10435E-02   -0.57573E-03 10760   0.389E-01    0.283E-01
DAV:   3    -0.192225474725E+03    0.88328E-03   -0.18126E-03 11520   0.341E-01    0.876E-02
DAV:   4    -0.192225534704E+03   -0.59979E-04   -0.34101E-04  8560   0.158E-01
  31 F= -.19222553E+03 E0= -.19213817E+03  d E =-.578623E-02
       N       E                     dE             d eps       ncg     rms          rms(c)
DAV:   1    -0.192228872602E+03   -0.33979E-02   -0.60061E-02  8160   0.556E-01    0.890E-02
DAV:   2    -0.192229261868E+03   -0.38927E-03   -0.26806E-03 12040   0.247E-01    0.189E-01
DAV:   3    -0.192228920746E+03    0.34112E-03   -0.87980E-04  9720   0.239E-01    0.760E-02
DAV:   4    -0.192228883295E+03    0.37450E-04   -0.14430E-04  6280   0.878E-02
  32 F= -.19222888E+03 E0= -.19214154E+03  d E =-.334859E-02
       N       E                     dE             d eps       ncg     rms          rms(c)
DAV:   1    -0.192237000093E+03   -0.80793E-02   -0.37417E-01  8160   0.133E+00    0.195E-01
DAV:   2    -0.192239112348E+03   -0.21123E-02   -0.15684E-02 11040   0.590E-01    0.428E-01
DAV:   3    -0.192237375206E+03    0.17371E-02   -0.47897E-03 11560   0.542E-01    0.163E-01
DAV:   4    -0.192237165557E+03    0.20965E-03   -0.79742E-04  9720   0.209E-01    0.107E-01
DAV:   5    -0.192237105316E+03    0.60241E-04   -0.48815E-04  9520   0.202E-01
  33 F= -.19223711E+03 E0= -.19214983E+03  d E =-.822202E-02
       N       E                     dE             d eps       ncg     rms          rms(c)
DAV:   1    -0.192259479104E+03   -0.22314E-01   -0.38595E+00  8160   0.421E+00    0.525E-01
DAV:   2    -0.192274800436E+03   -0.15321E-01   -0.13126E-01 11280   0.153E+00    0.990E-01
DAV:   3    -0.192264958369E+03    0.98421E-02   -0.34944E-02 12400   0.138E+00    0.469E-01
DAV:   4    -0.192264783960E+03    0.17441E-03   -0.75884E-03 11360   0.727E-01    0.472E-01
DAV:   5    -0.192262310648E+03    0.24733E-02   -0.44423E-03 10120   0.624E-01    0.180E-01
DAV:   6    -0.192262194149E+03    0.11650E-03   -0.18577E-03 11520   0.233E-01    0.114E-01
DAV:   7    -0.192261910182E+03    0.28397E-03   -0.65919E-04 11040   0.109E-01    0.422E-02
DAV:   8    -0.192261911305E+03   -0.11229E-05   -0.91350E-05  6960   0.776E-02
  34 F= -.19226191E+03 E0= -.19217344E+03  d E =-.248060E-01
       N       E                     dE             d eps       ncg     rms          rms(c)
DAV:   1    -0.192265947476E+03   -0.40373E-02   -0.10424E-01  8160   0.697E-01    0.928E-02
DAV:   2    -0.192266237190E+03   -0.28971E-03   -0.35437E-03 11200   0.209E-01    0.135E-01
DAV:   3    -0.192266134632E+03    0.10256E-03   -0.97847E-04 11240   0.233E-01    0.111E-01
DAV:   4    -0.192266038216E+03    0.96416E-04   -0.25767E-04  8320   0.130E-01
  35 F= -.19226604E+03 E0= -.19217725E+03  d E =-.412691E-02
       N       E                     dE             d eps       ncg     rms          rms(c)
DAV:   1    -0.192264986852E+03    0.11478E-02   -0.16617E-01  8160   0.908E-01    0.197E-01
DAV:   2    -0.192265498355E+03   -0.51150E-03   -0.11034E-02 11360   0.469E-01    0.316E-01
DAV:   3    -0.192264774719E+03    0.72364E-03   -0.38992E-03 11480   0.491E-01    0.201E-01
DAV:   4    -0.192264396620E+03    0.37810E-03   -0.13546E-03 10040   0.281E-01    0.139E-01
DAV:   5    -0.192264261162E+03    0.13546E-03   -0.67800E-04  9520   0.232E-01    0.996E-02
DAV:   6    -0.192264118442E+03    0.14272E-03   -0.30018E-04  7360   0.131E-01    0.326E-02
DAV:   7    -0.192264130108E+03   -0.11666E-04   -0.88063E-05  6640   0.736E-02
  36 F= -.19226413E+03 E0= -.19217477E+03  d E =0.190811E-02
       N       E                     dE             d eps       ncg     rms          rms(c)
DAV:   1    -0.192270579188E+03   -0.64607E-02   -0.29195E-01  8160   0.115E+00    0.160E-01
DAV:   2    -0.192272460273E+03   -0.18811E-02   -0.12113E-02 10440   0.563E-01    0.370E-01
DAV:   3    -0.192270895902E+03    0.15644E-02   -0.37462E-03 11800   0.466E-01    0.117E-01
DAV:   4    -0.192270967301E+03   -0.71399E-04   -0.69997E-04  9040   0.218E-01
  37 F= -.19227097E+03 E0= -.19218139E+03  d E =-.683719E-02
       N       E                     dE             d eps       ncg     rms          rms(c)
DAV:   1    -0.192276097777E+03   -0.52019E-02   -0.22553E-01  8160   0.102E+00    0.140E-01
DAV:   2    -0.192276855033E+03   -0.75726E-03   -0.73119E-03 11160   0.328E-01    0.235E-01
DAV:   3    -0.192276409982E+03    0.44505E-03   -0.23995E-03 11880   0.357E-01    0.158E-01
DAV:   4    -0.192276219065E+03    0.19092E-03   -0.53749E-04  8960   0.174E-01    0.749E-02
DAV:   5    -0.192276145063E+03    0.74002E-04   -0.27170E-04  7800   0.107E-01
  38 F= -.19227615E+03 E0= -.19218628E+03  d E =-.517776E-02
       N       E                     dE             d eps       ncg     rms          rms(c)
DAV:   1    -0.192290534870E+03   -0.14316E-01   -0.24422E+00  8160   0.333E+00    0.415E-01
DAV:   2    -0.192302696268E+03   -0.12161E-01   -0.88738E-02 10960   0.128E+00    0.882E-01
DAV:   3    -0.192294420441E+03    0.82758E-02   -0.26690E-02 12400   0.118E+00    0.360E-01
DAV:   4    -0.192294273345E+03    0.14710E-03   -0.44041E-03 10880   0.550E-01    0.347E-01
DAV:   5    -0.192292874811E+03    0.13985E-02   -0.24751E-03 10560   0.462E-01    0.131E-01
DAV:   6    -0.192292831229E+03    0.43582E-04   -0.10988E-03 10480   0.176E-01    0.906E-02
DAV:   7    -0.192292660674E+03    0.17055E-03   -0.40242E-04 10280   0.825E-02    0.258E-02
DAV:   8    -0.192292652508E+03    0.81659E-05   -0.44189E-05  7360   0.334E-02
  39 F= -.19229265E+03 E0= -.19220221E+03  d E =-.165074E-01
       N       E                     dE             d eps       ncg     rms          rms(c)
DAV:   1    -0.192305564284E+03   -0.12904E-01   -0.10888E+01  8160   0.702E+00    0.797E-01
DAV:   2    -0.192339690008E+03   -0.34126E-01   -0.34854E-01 11160   0.209E+00    0.123E+00
DAV:   3    -0.192326962878E+03    0.12727E-01   -0.79946E-02 12280   0.199E+00    0.834E-01
DAV:   4    -0.192322619180E+03    0.43437E-02   -0.19818E-02 12560   0.110E+00    0.605E-01
DAV:   5    -0.192318925125E+03    0.36941E-02   -0.96624E-03 11040   0.882E-01    0.324E-01
DAV:   6    -0.192318325729E+03    0.59940E-03   -0.50644E-03 12360   0.444E-01    0.198E-01
DAV:   7    -0.192317554737E+03    0.77099E-03   -0.17376E-03 10560   0.188E-01    0.534E-02
DAV:   8    -0.192317538607E+03    0.16130E-04   -0.22590E-04  8120   0.899E-02
  40 F= -.19231754E+03 E0= -.19222855E+03  d E =-.248861E-01
       N       E                     dE             d eps       ncg     rms          rms(c)
DAV:   1    -0.192319987944E+03   -0.24332E-02   -0.19434E-01  8160   0.938E-01    0.110E-01
DAV:   2    -0.192320663565E+03   -0.67562E-03   -0.79264E-03 12560   0.312E-01    0.145E-01
DAV:   3    -0.192320611012E+03    0.52553E-04   -0.10722E-03 11080   0.272E-01    0.134E-01
DAV:   4    -0.192320441313E+03    0.16970E-03   -0.42083E-04  8840   0.165E-01    0.647E-02
DAV:   5    -0.192320421374E+03    0.19938E-04   -0.18500E-04  7600   0.104E-01
  41 F= -.19232042E+03 E0= -.19223220E+03  d E =-.288277E-02
       N       E                     dE             d eps       ncg     rms          rms(c)
DAV:   1    -0.192324671435E+03   -0.42301E-02   -0.10123E+00  8160   0.213E+00    0.247E-01
DAV:   2    -0.192327603501E+03   -0.29321E-02   -0.33546E-02 12080   0.678E-01    0.330E-01
DAV:   3    -0.192326681242E+03    0.92226E-03   -0.49194E-03 12480   0.581E-01    0.216E-01
DAV:   4    -0.192326129872E+03    0.55137E-03   -0.10896E-03 10560   0.263E-01    0.105E-01
DAV:   5    -0.192326205323E+03   -0.75452E-04   -0.85477E-04 10680   0.217E-01
  42 F= -.19232621E+03 E0= -.19223990E+03  d E =-.578395E-02
       N       E                     dE             d eps       ncg     rms          rms(c)
DAV:   1    -0.192328977773E+03   -0.28479E-02   -0.54419E-01  8160   0.158E+00    0.180E-01
DAV:   2    -0.192330229545E+03   -0.12518E-02   -0.17297E-02 12440   0.406E-01    0.178E-01
DAV:   3    -0.192330258840E+03   -0.29295E-04   -0.22701E-03 12560   0.383E-01    0.192E-01
DAV:   4    -0.192329788448E+03    0.47039E-03   -0.73435E-04 10240   0.237E-01    0.651E-02
DAV:   5    -0.192329854529E+03   -0.66080E-04   -0.32086E-04  9120   0.126E-01
  43 F= -.19232985E+03 E0= -.19224506E+03  d E =-.364921E-02
       N       E                     dE             d eps       ncg     rms          rms(c)
DAV:   1    -0.192331704329E+03   -0.19159E-02   -0.18546E-01  8160   0.936E-01    0.133E-01
DAV:   2    -0.192333041390E+03   -0.13371E-02   -0.86876E-03 13400   0.401E-01    0.299E-01
DAV:   3    -0.192332035334E+03    0.10061E-02   -0.30543E-03 11840   0.407E-01    0.129E-01
DAV:   4    -0.192331916610E+03    0.11872E-03   -0.45592E-04  9120   0.145E-01    0.672E-02
DAV:   5    -0.192331869311E+03    0.47298E-04   -0.18706E-04  8280   0.106E-01
  44 F= -.19233187E+03 E0= -.19224794E+03  d E =-.201478E-02
       N       E                     dE             d eps       ncg     rms          rms(c)
DAV:   1    -0.192333918061E+03   -0.20015E-02   -0.30094E-01  8160   0.117E+00    0.141E-01
DAV:   2    -0.192334844291E+03   -0.92623E-03   -0.94784E-03 12560   0.370E-01    0.207E-01
DAV:   3    -0.192334429048E+03    0.41524E-03   -0.17152E-03 12120   0.341E-01    0.121E-01
DAV:   4    -0.192334320023E+03    0.10902E-03   -0.40392E-04  9320   0.153E-01    0.865E-02
DAV:   5    -0.192334289209E+03    0.30813E-04   -0.28990E-04  9280   0.151E-01
  45 F= -.19233429E+03 E0= -.19225172E+03  d E =-.241990E-02
       N       E                     dE             d eps       ncg     rms          rms(c)
DAV:   1    -0.192336289765E+03   -0.19697E-02   -0.48161E-01  8160   0.148E+00    0.165E-01
DAV:   2    -0.192337482288E+03   -0.11925E-02   -0.14186E-02 12040   0.409E-01    0.215E-01
DAV:   3    -0.192337331769E+03    0.15052E-03   -0.20568E-03 12360   0.399E-01    0.190E-01
DAV:   4    -0.192336953310E+03    0.37846E-03   -0.55644E-04  9920   0.215E-01    0.805E-02
DAV:   5    -0.192336954518E+03   -0.12080E-05   -0.32875E-04  8880   0.159E-01
  46 F= -.19233695E+03 E0= -.19225590E+03  d E =-.266531E-02
       N       E                     dE             d eps       ncg     rms          rms(c)
DAV:   1    -0.192338773556E+03   -0.18202E-02   -0.12642E+00  8160   0.240E+00    0.267E-01
DAV:   2    -0.192341973148E+03   -0.31996E-02   -0.38348E-02 12320   0.653E-01    0.341E-01
DAV:   3    -0.192341586687E+03    0.38646E-03   -0.58758E-03 12400   0.645E-01    0.313E-01
DAV:   4    -0.192340646004E+03    0.94068E-03   -0.20185E-03 11200   0.372E-01    0.148E-01
DAV:   5    -0.192340501412E+03    0.14459E-03   -0.10032E-03 10280   0.244E-01    0.117E-01
DAV:   6    -0.192340487396E+03    0.14016E-04   -0.68606E-04 10600   0.196E-01
  47 F= -.19234049E+03 E0= -.19226208E+03  d E =-.353288E-02
       N       E                     dE             d eps       ncg     rms          rms(c)
DAV:   1    -0.192341156749E+03   -0.65534E-03   -0.10196E-01  8240   0.693E-01    0.980E-02
DAV:   2    -0.192341987812E+03   -0.83106E-03   -0.43421E-03 13400   0.330E-01    0.250E-01
DAV:   3    -0.192341283703E+03    0.70411E-03   -0.13720E-03 10480   0.312E-01    0.679E-02
DAV:   4    -0.192341269878E+03    0.13825E-04   -0.15446E-04  6880   0.865E-02
  48 F= -.19234127E+03 E0= -.19226351E+03  d E =-.782481E-03
