<?xml version="1.0" encoding="ISO-8859-1"?>
<modeling>
 <generator>
  <i name="program" type="string">vasp </i>
  <i name="version" type="string">5.4.1  </i>
  <i name="subversion" type="string">05Feb16 (build Jul 05 2020 17:13:04) complex                          parallel </i>
  <i name="platform" type="string">IFC91_ompi </i>
  <i name="date" type="string">2024 08 10 </i>
  <i name="time" type="string">20:21:22 </i>
 </generator>
 <incar>
  <i type="int" name="ISTART">     0</i>
  <i type="string" name="PREC">normal</i>
  <i type="string" name="ALGO"> Normal</i>
  <i type="int" name="ISPIN">     1</i>
  <i type="int" name="ICHARG">     2</i>
  <i type="int" name="IBRION">     1</i>
  <i type="int" name="NSW">   100</i>
  <i type="int" name="ISIF">     3</i>
  <i type="int" name="ISYM">     0</i>
  <i name="SYMPREC">      0.00000001</i>
  <i name="POTIM">      0.50000000</i>
  <i type="logical" name="LREAL"> F  </i>
  <i type="logical" name="LPLANE"> F  </i>
  <i type="int" name="ISMEAR">     0</i>
  <i type="logical" name="LWAVE"> F  </i>
  <i type="logical" name="LCHARG"> F  </i>
  <v type="int" name="KPOINT_BSE">    -1     0     0     0</v>
 </incar>
 <kpoints>
  <generation param="Gamma">
   <v type="int" name="divisions">       8        8        1 </v>
   <v name="usershift">      0.00000000       0.00000000       0.00000000 </v>
   <v name="genvec1">      0.12500000       0.00000000       0.00000000 </v>
   <v name="genvec2">     -0.00000000       0.12500000       0.00000000 </v>
   <v name="genvec3">      0.00000000       0.00000000       1.00000000 </v>
   <v name="shift">      0.00000000       0.00000000       0.00000000 </v>
  </generation>
  <varray name="kpointlist" >
   <v>       0.00000000       0.00000000       0.00000000 </v>
   <v>       0.12500000       0.00000000       0.00000000 </v>
   <v>       0.25000000       0.00000000       0.00000000 </v>
   <v>       0.37500000       0.00000000       0.00000000 </v>
   <v>       0.50000000       0.00000000       0.00000000 </v>
   <v>       0.00000000       0.12500000       0.00000000 </v>
   <v>       0.12500000       0.12500000       0.00000000 </v>
   <v>       0.25000000       0.12500000       0.00000000 </v>
   <v>       0.37500000       0.12500000       0.00000000 </v>
   <v>       0.50000000       0.12500000       0.00000000 </v>
   <v>      -0.37500000       0.12500000       0.00000000 </v>
   <v>      -0.25000000       0.12500000       0.00000000 </v>
   <v>      -0.12500000       0.12500000       0.00000000 </v>
   <v>       0.00000000       0.25000000       0.00000000 </v>
   <v>       0.12500000       0.25000000       0.00000000 </v>
   <v>       0.25000000       0.25000000       0.00000000 </v>
   <v>       0.37500000       0.25000000       0.00000000 </v>
   <v>       0.50000000       0.25000000       0.00000000 </v>
   <v>      -0.37500000       0.25000000       0.00000000 </v>
   <v>      -0.25000000       0.25000000       0.00000000 </v>
   <v>      -0.12500000       0.25000000       0.00000000 </v>
   <v>      -0.00000000       0.37500000       0.00000000 </v>
   <v>       0.12500000       0.37500000       0.00000000 </v>
   <v>       0.25000000       0.37500000       0.00000000 </v>
   <v>       0.37500000       0.37500000       0.00000000 </v>
   <v>       0.50000000       0.37500000       0.00000000 </v>
   <v>      -0.37500000       0.37500000       0.00000000 </v>
   <v>      -0.25000000       0.37500000       0.00000000 </v>
   <v>      -0.12500000       0.37500000       0.00000000 </v>
   <v>       0.00000000       0.50000000       0.00000000 </v>
   <v>       0.12500000       0.50000000       0.00000000 </v>
   <v>       0.25000000       0.50000000       0.00000000 </v>
   <v>       0.37500000       0.50000000       0.00000000 </v>
   <v>       0.50000000       0.50000000       0.00000000 </v>
  </varray>
  <varray name="weights" >
   <v>       0.01562500 </v>
   <v>       0.03125000 </v>
   <v>       0.03125000 </v>
   <v>       0.03125000 </v>
   <v>       0.01562500 </v>
   <v>       0.03125000 </v>
   <v>       0.03125000 </v>
   <v>       0.03125000 </v>
   <v>       0.03125000 </v>
   <v>       0.03125000 </v>
   <v>       0.03125000 </v>
   <v>       0.03125000 </v>
   <v>       0.03125000 </v>
   <v>       0.03125000 </v>
   <v>       0.03125000 </v>
   <v>       0.03125000 </v>
   <v>       0.03125000 </v>
   <v>       0.03125000 </v>
   <v>       0.03125000 </v>
   <v>       0.03125000 </v>
   <v>       0.03125000 </v>
   <v>       0.03125000 </v>
   <v>       0.03125000 </v>
   <v>       0.03125000 </v>
   <v>       0.03125000 </v>
   <v>       0.03125000 </v>
   <v>       0.03125000 </v>
   <v>       0.03125000 </v>
   <v>       0.03125000 </v>
   <v>       0.01562500 </v>
   <v>       0.03125000 </v>
   <v>       0.03125000 </v>
   <v>       0.03125000 </v>
   <v>       0.01562500 </v>
  </varray>
 </kpoints>
 <parameters>
  <separator name="general" >
   <i type="string" name="SYSTEM">unknown system</i>
   <i type="logical" name="LCOMPAT"> F  </i>
  </separator>
  <separator name="electronic" >
   <i type="string" name="PREC">normal</i>
   <i name="ENMAX">    280.00000000</i>
   <i name="ENAUG">    373.43800000</i>
   <i name="EDIFF">      0.00010000</i>
   <i type="int" name="IALGO">    38</i>
   <i type="int" name="IWAVPR">    11</i>
   <i type="int" name="NBANDS">   120</i>
   <i name="NELECT">    159.00000000</i>
   <i type="int" name="TURBO">     0</i>
   <i type="int" name="IRESTART">     0</i>
   <i type="int" name="NREBOOT">     0</i>
   <i type="int" name="NMIN">     0</i>
   <i name="EREF">      0.00000000</i>
   <separator name="electronic smearing" >
    <i type="int" name="ISMEAR">     0</i>
    <i name="SIGMA">      0.20000000</i>
    <i name="KSPACING">      0.50000000</i>
    <i type="logical" name="KGAMMA"> T  </i>
   </separator>
   <separator name="electronic projectors" >
    <i type="logical" name="LREAL"> F  </i>
    <v name="ROPT">      0.00000000      0.00000000      0.00000000      0.00000000</v>
    <i type="int" name="LMAXPAW">  -100</i>
    <i type="int" name="LMAXMIX">     2</i>
    <i type="logical" name="NLSPLINE"> F  </i>
   </separator>
   <separator name="electronic startup" >
    <i type="int" name="ISTART">     0</i>
    <i type="int" name="ICHARG">     2</i>
    <i type="int" name="INIWAV">     1</i>
   </separator>
   <separator name="electronic spin" >
    <i type="int" name="ISPIN">     1</i>
    <i type="logical" name="LNONCOLLINEAR"> F  </i>
    <v name="MAGMOM">      1.00000000      1.00000000      1.00000000      1.00000000      1.00000000      1.00000000      1.00000000      1.00000000      1.00000000      1.00000000      1.00000000      1.00000000      1.00000000      1.00000000      1.00000000      1.00000000      1.00000000      1.00000000      1.00000000      1.00000000
      1.00000000      1.00000000      1.00000000      1.00000000      1.00000000      1.00000000      1.00000000</v>
    <i name="NUPDOWN">     -1.00000000</i>
    <i type="logical" name="LSORBIT"> F  </i>
    <v name="SAXIS">      0.00000000      0.00000000      1.00000000</v>
    <i type="logical" name="LSPIRAL"> F  </i>
    <v name="QSPIRAL">      0.00000000      0.00000000      0.00000000</v>
    <i type="logical" name="LZEROZ"> F  </i>
   </separator>
   <separator name="electronic exchange-correlation" >
    <i type="logical" name="LASPH"> F  </i>
    <i type="logical" name="LMETAGGA"> F  </i>
   </separator>
   <separator name="electronic convergence" >
    <i type="int" name="NELM">    60</i>
    <i type="int" name="NELMDL">    -5</i>
    <i type="int" name="NELMIN">     2</i>
    <i name="ENINI">    280.00000000</i>
    <separator name="electronic convergence detail" >
     <i type="logical" name="LDIAG"> T  </i>
     <i type="logical" name="LSUBROT"> F  </i>
     <i name="WEIMIN">      0.00100000</i>
     <i name="EBREAK">      0.00000021</i>
     <i name="DEPER">      0.30000000</i>
     <i type="int" name="NRMM">     4</i>
     <i name="TIME">      0.40000000</i>
    </separator>
   </separator>
   <separator name="electronic mixer" >
    <i name="AMIX">      0.40000000</i>
    <i name="BMIX">      1.00000000</i>
    <i name="AMIN">      0.10000000</i>
    <i name="AMIX_MAG">      1.60000000</i>
    <i name="BMIX_MAG">      1.00000000</i>
    <separator name="electronic mixer details" >
     <i type="int" name="IMIX">     4</i>
     <i type="logical" name="MIXFIRST"> F  </i>
     <i type="int" name="MAXMIX">   -45</i>
     <i name="WC">    100.00000000</i>
     <i type="int" name="INIMIX">     1</i>
     <i type="int" name="MIXPRE">     1</i>
     <i type="int" name="MREMOVE">     5</i>
    </separator>
   </separator>
   <separator name="electronic dipolcorrection" >
    <i type="logical" name="LDIPOL"> F  </i>
    <i type="logical" name="LMONO"> F  </i>
    <i type="int" name="IDIPOL">     0</i>
    <i name="EPSILON">      1.00000000</i>
    <v name="DIPOL">   -100.00000000   -100.00000000   -100.00000000</v>
    <i name="EFIELD">      0.00000000</i>
   </separator>
  </separator>
  <separator name="grids" >
   <i type="int" name="NGX">    42</i>
   <i type="int" name="NGY">    42</i>
   <i type="int" name="NGZ">   126</i>
   <i type="int" name="NGXF">    84</i>
   <i type="int" name="NGYF">    84</i>
   <i type="int" name="NGZF">   252</i>
   <i type="logical" name="ADDGRID"> F  </i>
  </separator>
  <separator name="ionic" >
   <i type="int" name="NSW">   100</i>
   <i type="int" name="IBRION">     1</i>
   <i type="int" name="ISIF">     3</i>
   <i name="PSTRESS">      0.00000000</i>
   <i name="EDIFFG">      0.00100000</i>
   <i type="int" name="NFREE">     0</i>
   <i name="POTIM">      0.50000000</i>
   <i name="SMASS">     -3.00000000</i>
   <i name="SCALEE">      1.00000000</i>
  </separator>
  <separator name="ionic md" >
   <i name="TEBEG">      0.00010000</i>
   <i name="TEEND">      0.00010000</i>
   <i type="int" name="NBLOCK">     1</i>
   <i type="int" name="KBLOCK">   100</i>
   <i type="int" name="NPACO">   256</i>
   <i name="APACO">     16.00000000</i>
  </separator>
  <separator name="symmetry" >
   <i type="int" name="ISYM">     0</i>
   <i name="SYMPREC">      0.00000001</i>
  </separator>
  <separator name="dos" >
   <i type="logical" name="LORBIT"> F  </i>
   <v name="RWIGS">     -1.00000000     -1.00000000     -1.00000000     -1.00000000</v>
   <i type="int" name="NEDOS">   301</i>
   <i name="EMIN">     10.00000000</i>
   <i name="EMAX">    -10.00000000</i>
   <i name="EFERMI">      0.00000000</i>
  </separator>
  <separator name="writing" >
   <i type="int" name="NWRITE">     2</i>
   <i type="logical" name="LWAVE"> F  </i>
   <i type="logical" name="LCHARG"> F  </i>
   <i type="logical" name="LPARD"> F  </i>
   <i type="logical" name="LVTOT"> F  </i>
   <i type="logical" name="LVHAR"> F  </i>
   <i type="logical" name="LELF"> F  </i>
   <i type="logical" name="LOPTICS"> F  </i>
   <v name="STM">      0.00000000      0.00000000      0.00000000      0.00000000      0.00000000      0.00000000      0.00000000</v>
  </separator>
  <separator name="performance" >
   <i type="int" name="NPAR">    40</i>
   <i type="int" name="NSIM">     4</i>
   <i type="int" name="NBLK">    -1</i>
   <i type="logical" name="LPLANE"> F  </i>
   <i type="logical" name="LSCALAPACK"> T  </i>
   <i type="logical" name="LSCAAWARE"> F  </i>
   <i type="logical" name="LSCALU"> F  </i>
   <i type="logical" name="LASYNC"> F  </i>
   <i type="logical" name="LORBITALREAL"> F  </i>
  </separator>
  <separator name="miscellaneous" >
   <i type="int" name="IDIOT">     3</i>
   <i type="logical" name="LMUSIC"> F  </i>
   <v name="POMASS">     50.94100000     95.94000000    183.85000000     32.06600000</v>
   <v name="DARWINR">      0.00000000      0.00000000      0.00000000      0.00000000</v>
   <v name="DARWINV">      1.00000000      1.00000000      1.00000000      1.00000000</v>
   <i type="logical" name="LCORR"> T  </i>
  </separator>
  <i type="logical" name="GGA_COMPAT"> T  </i>
  <i type="logical" name="LBERRY"> F  </i>
  <i type="int" name="ICORELEVEL">     0</i>
  <i type="logical" name="LDAU"> F  </i>
  <i type="int" name="I_CONSTRAINED_M">     0</i>
  <separator name="electronic exchange-correlation" >
   <i type="string" name="GGA">--</i>
   <i type="int" name="VOSKOWN">     0</i>
   <i type="logical" name="LHFCALC"> F  </i>
   <i type="string" name="PRECFOCK"></i>
   <i type="logical" name="LSYMGRAD"> F  </i>
   <i type="logical" name="LHFONE"> F  </i>
   <i type="logical" name="LRHFCALC"> F  </i>
   <i type="logical" name="LTHOMAS"> F  </i>
   <i type="logical" name="LMODELHF"> F  </i>
   <i name="ENCUT4O">     -1.00000000</i>
   <i type="int" name="EXXOEP">     0</i>
   <i type="int" name="FOURORBIT">     0</i>
   <i name="AEXX">      0.00000000</i>
   <i name="HFALPHA">      0.00000000</i>
   <i name="MCALPHA">      0.00000000</i>
   <i name="ALDAX">      1.00000000</i>
   <i name="AGGAX">      1.00000000</i>
   <i name="ALDAC">      1.00000000</i>
   <i name="AGGAC">      1.00000000</i>
   <i type="int" name="NKREDX">     1</i>
   <i type="int" name="NKREDY">     1</i>
   <i type="int" name="NKREDZ">     1</i>
   <i type="logical" name="SHIFTRED"> F  </i>
   <i type="logical" name="ODDONLY"> F  </i>
   <i type="logical" name="EVENONLY"> F  </i>
   <i type="int" name="LMAXFOCK">     0</i>
   <i type="int" name="NMAXFOCKAE">     0</i>
   <i type="logical" name="LFOCKAEDFT"> F  </i>
   <i name="HFSCREEN">      0.00000000</i>
   <i name="HFSCREENC">      0.00000000</i>
   <i type="int" name="NBANDSGWLOW">     0</i>
  </separator>
  <separator name="vdW DFT" >
   <i type="logical" name="LUSE_VDW"> F  </i>
   <i name="Zab_VDW">     -0.84910000</i>
   <i name="PARAM1">      0.12340000</i>
   <i name="PARAM2">      1.00000000</i>
   <i name="PARAM3">      0.00000000</i>
  </separator>
  <separator name="model GW" >
   <i type="int" name="MODEL_GW">     0</i>
   <i name="MODEL_EPS0">     58.26239943</i>
   <i name="MODEL_ALPHA">      1.00000000</i>
  </separator>
  <separator name="linear response parameters" >
   <i type="logical" name="LEPSILON"> F  </i>
   <i type="logical" name="LRPA"> F  </i>
   <i type="logical" name="LNABLA"> F  </i>
   <i type="logical" name="LVEL"> F  </i>
   <i type="int" name="KINTER">     0</i>
   <i name="CSHIFT">      0.10000000</i>
   <i name="OMEGAMAX">     -1.00000000</i>
   <i name="DEG_THRESHOLD">      0.00200000</i>
  </separator>
  <separator name="orbital magnetization" >
   <i type="logical" name="NUCIND"> F  </i>
   <v name="MAGPOS">      0.00000000      0.00000000      0.00000000</v>
   <i type="logical" name="LNICSALL"> T  </i>
   <i type="logical" name="ORBITALMAG"> F  </i>
   <i type="logical" name="LMAGBLOCH"> F  </i>
   <i type="logical" name="LCHIMAG"> F  </i>
   <i type="logical" name="LGAUGE"> T  </i>
   <i type="int" name="MAGATOM">     0</i>
   <v name="MAGDIPOL">      0.00000000      0.00000000      0.00000000</v>
   <v name="AVECCONST">      0.00000000      0.00000000      0.00000000</v>
  </separator>
  <separator name="response functions" >
   <i type="logical" name="LADDER"> F  </i>
   <i type="logical" name="LFXC"> F  </i>
   <i type="logical" name="LHARTREE"> T  </i>
   <i type="int" name="IBSE">     0</i>
   <v type="int" name="KPOINT">    -1     0     0     0</v>
   <i type="logical" name="LTCTE"> F  </i>
   <i type="logical" name="LTETE"> F  </i>
   <i type="logical" name="LTRIPLET"> F  </i>
   <i type="logical" name="LFXCEPS"> F  </i>
   <i type="logical" name="LFXHEG"> F  </i>
   <i type="int" name="NATURALO">     0</i>
   <i type="logical" name="L2ORDER"> F  </i>
   <i type="logical" name="LUSEW"> F  </i>
   <i name="ENCUTGW">     -2.00000000</i>
   <i name="ENCUTGWSOFT">     -2.00000000</i>
   <i name="ENCUTLF">     -1.00000000</i>
   <i type="int" name="LMAXMP2">    -1</i>
   <i name="SCISSOR">      0.00000000</i>
   <i type="int" name="NOMEGA">     0</i>
   <i type="int" name="NOMEGAR">     0</i>
   <i type="int" name="NBANDSGW">    -1</i>
   <i type="int" name="NBANDSO">    -1</i>
   <i type="int" name="NBANDSV">    -1</i>
   <i type="int" name="NELM">     1</i>
   <i type="int" name="NELMHF">     1</i>
   <i type="int" name="DIM">     3</i>
   <i type="int" name="ANTIRES">     0</i>
   <i name="OMEGAMAX">    -30.00000000</i>
   <i name="OMEGAMIN">    -30.00000000</i>
   <i name="OMEGATL">   -200.00000000</i>
   <i type="int" name="OMEGAGRID">     0</i>
   <i name="CSHIFT">     -0.10000000</i>
   <i type="logical" name="SELFENERGY"> F  </i>
   <i type="logical" name="LSPECTRAL"> F  </i>
   <i type="logical" name="LSPECTRALGW"> F  </i>
   <i type="logical" name="LSINGLES"> F  </i>
   <i type="logical" name="LFERMIGW"> F  </i>
   <i type="logical" name="ODDONLYGW"> F  </i>
   <i type="logical" name="EVENONLYGW"> F  </i>
   <i type="int" name="NKREDLFX">     1</i>
   <i type="int" name="NKREDLFY">     1</i>
   <i type="int" name="NKREDLFZ">     1</i>
   <i type="int" name="MAXMEM">  1800</i>
   <i type="int" name="TELESCOPE">     0</i>
   <i type="int" name="TAUPAR">     1</i>
   <i type="int" name="OMEGAPAR">    -1</i>
   <i name="LAMBDA">      1.00000000</i>
  </separator>
  <separator name="External order field" >
   <i name="OFIELD_KAPPA">      0.00000000</i>
   <v name="OFIELD_K">      0.00000000      0.00000000      0.00000000</v>
   <i name="OFIELD_Q6_NEAR">      0.00000000</i>
   <i name="OFIELD_Q6_FAR">      0.00000000</i>
   <i name="OFIELD_A">      0.00000000</i>
  </separator>
 </parameters>
 <atominfo>
  <atoms>      27 </atoms>
  <types>       4 </types>
  <array name="atoms" >
   <dimension dim="1">ion</dimension>
   <field type="string">element</field>
   <field type="int">atomtype</field>
   <set>
    <rc><c>V </c><c>   1</c></rc>
    <rc><c>V </c><c>   1</c></rc>
    <rc><c>V </c><c>   1</c></rc>
    <rc><c>Mo</c><c>   2</c></rc>
    <rc><c>Mo</c><c>   2</c></rc>
    <rc><c>Mo</c><c>   2</c></rc>
    <rc><c>W </c><c>   3</c></rc>
    <rc><c>W </c><c>   3</c></rc>
    <rc><c>W </c><c>   3</c></rc>
    <rc><c>S </c><c>   4</c></rc>
    <rc><c>S </c><c>   4</c></rc>
    <rc><c>S </c><c>   4</c></rc>
    <rc><c>S </c><c>   4</c></rc>
    <rc><c>S </c><c>   4</c></rc>
    <rc><c>S </c><c>   4</c></rc>
    <rc><c>S </c><c>   4</c></rc>
    <rc><c>S </c><c>   4</c></rc>
    <rc><c>S </c><c>   4</c></rc>
    <rc><c>S </c><c>   4</c></rc>
    <rc><c>S </c><c>   4</c></rc>
    <rc><c>S </c><c>   4</c></rc>
    <rc><c>S </c><c>   4</c></rc>
    <rc><c>S </c><c>   4</c></rc>
    <rc><c>S </c><c>   4</c></rc>
    <rc><c>S </c><c>   4</c></rc>
    <rc><c>S </c><c>   4</c></rc>
    <rc><c>S </c><c>   4</c></rc>
   </set>
  </array>
  <array name="atomtypes" >
   <dimension dim="1">type</dimension>
   <field type="int">atomspertype</field>
   <field type="string">element</field>
   <field>mass</field>
   <field>valence</field>
   <field type="string">pseudopotential</field>
   <set>
    <rc><c>   3</c><c>V </c><c>     50.94100000</c><c>      5.00000000</c><c> PAW_PBE V 08Apr2002                    </c></rc>
    <rc><c>   3</c><c>Mo</c><c>     95.94000000</c><c>      6.00000000</c><c> PAW_PBE Mo 08Apr2002                   </c></rc>
    <rc><c>   3</c><c>W </c><c>    183.85000000</c><c>      6.00000000</c><c> PAW_PBE W 08Apr2002                    </c></rc>
    <rc><c>  18</c><c>S </c><c>     32.06600000</c><c>      6.00000000</c><c>  PAW_PBE S 17Jan2003                   </c></rc>
   </set>
  </array>
 </atominfo>
 <structure name="initialpos" >
  <crystal>
   <varray name="basis" >
    <v>       8.66999996       5.03999989       0.00000000 </v>
    <v>      -8.66999982       5.04000013       0.00000000 </v>
    <v>       0.00000000       0.00000000      30.00000000 </v>
   </varray>
   <i name="volume">   2621.80797419 </i>
   <varray name="rec_basis" >
    <v>       0.05767013       0.09920635       0.00000000 </v>
    <v>      -0.05767013       0.09920635       0.00000000 </v>
    <v>       0.00000000       0.00000000       0.03333333 </v>
   </varray>
  </crystal>
  <varray name="positions" >
   <v>       0.33333334       0.33333334       0.00000000 </v>
   <v>       0.00000000       0.66666669       0.00000000 </v>
   <v>       0.66666669       0.66666669       0.00000000 </v>
   <v>       0.00000000       0.00000000       0.00000000 </v>
   <v>       0.66666669       0.00000000       0.00000000 </v>
   <v>       0.66666669       0.33333334       0.00000000 </v>
   <v>       1.00000000       0.33333334       0.00000000 </v>
   <v>       0.33333334       0.00000000       0.00000000 </v>
   <v>       0.33333334       0.66666669       0.00000000 </v>
   <v>       0.11068511       0.22244981       0.95539999 </v>
   <v>       0.22244981       0.11068511       0.04460000 </v>
   <v>       0.11068511       0.55578315       0.95539999 </v>
   <v>       0.22244981       0.44401845       0.04460000 </v>
   <v>       0.11068511       0.88911647       0.95539999 </v>
   <v>       0.22244981       0.77735180       0.04460000 </v>
   <v>       0.44401845       0.22244981       0.95539999 </v>
   <v>       0.55578315       0.11068511       0.04460000 </v>
   <v>       0.44401845       0.55578315       0.95539999 </v>
   <v>       0.55578315       0.44401845       0.04460000 </v>
   <v>       0.44401845       0.88911647       0.95539999 </v>
   <v>       0.55578315       0.77735180       0.04460000 </v>
   <v>       0.77735180       0.22244981       0.95539999 </v>
   <v>       0.88911647       0.11068511       0.04460000 </v>
   <v>       0.77735180       0.55578315       0.95539999 </v>
   <v>       0.88911647       0.44401845       0.04460000 </v>
   <v>       0.77735180       0.88911647       0.95539999 </v>
   <v>       0.88911647       0.77735180       0.04460000 </v>
  </varray>
 </structure>
 <calculation>
  <scstep>
   <time name="dav">   21.74   21.79</time>
   <time name="total">   21.79   21.84</time>
   <energy>
    <i name="alphaZ">     81.65567618 </i>
    <i name="ewald">  41890.23010383 </i>
    <i name="hartreedc"> -47722.86569377 </i>
    <i name="XCdc">   -242.92872169 </i>
    <i name="pawpsdc">   3467.42045192 </i>
    <i name="pawaedc">  -2871.19716117 </i>
    <i name="eentropy">     -0.51949135 </i>
    <i name="bandstr">   -239.49048494 </i>
    <i name="atom">   6761.44252427 </i>
    <i name="e_fr_energy">   1123.74720327 </i>
    <i name="e_wo_entrp">   1124.26669462 </i>
    <i name="e_0_energy">   1124.00694895 </i>
   </energy>
  </scstep>
  <scstep>
   <time name="dav">   28.72   28.79</time>
   <time name="total">   28.72   28.80</time>
   <energy>
    <i name="e_fr_energy">     -6.34720301 </i>
    <i name="e_wo_entrp">     -6.14157895 </i>
    <i name="e_0_energy">     -6.24439098 </i>
   </energy>
  </scstep>
  <scstep>
   <time name="dav">   27.59   27.65</time>
   <time name="total">   27.59   27.66</time>
   <energy>
    <i name="e_fr_energy">   -200.12600639 </i>
    <i name="e_wo_entrp">   -199.85484642 </i>
    <i name="e_0_energy">   -199.99042641 </i>
   </energy>
  </scstep>
  <scstep>
   <time name="dav">   30.37   30.44</time>
   <time name="total">   30.37   30.45</time>
   <energy>
    <i name="e_fr_energy">   -209.00152846 </i>
    <i name="e_wo_entrp">   -208.68504314 </i>
    <i name="e_0_energy">   -208.84328580 </i>
   </energy>
  </scstep>
  <scstep>
   <time name="dav">   28.36   28.43</time>
   <time name="total">   28.83   28.90</time>
   <energy>
    <i name="e_fr_energy">   -209.28908023 </i>
    <i name="e_wo_entrp">   -208.97490606 </i>
    <i name="e_0_energy">   -209.13199315 </i>
   </energy>
  </scstep>
  <scstep>
   <time name="dav">   31.34   31.41</time>
   <time name="total">   31.83   31.92</time>
   <energy>
    <i name="e_fr_energy">   -236.81182597 </i>
    <i name="e_wo_entrp">   -236.52448709 </i>
    <i name="e_0_energy">   -236.66815653 </i>
   </energy>
  </scstep>
  <scstep>
   <time name="dav">   32.19   32.26</time>
   <time name="total">   32.69   32.78</time>
   <energy>
    <i name="e_fr_energy">   -196.66887260 </i>
    <i name="e_wo_entrp">   -196.34696894 </i>
    <i name="e_0_energy">   -196.50792077 </i>
   </energy>
  </scstep>
  <scstep>
   <time name="dav">   29.54   29.61</time>
   <time name="total">   30.05   30.12</time>
   <energy>
    <i name="e_fr_energy">   -190.02909953 </i>
    <i name="e_wo_entrp">   -189.75518598 </i>
    <i name="e_0_energy">   -189.89214275 </i>
   </energy>
  </scstep>
  <scstep>
   <time name="dav">   29.68   29.75</time>
   <time name="total">   30.20   30.28</time>
   <energy>
    <i name="e_fr_energy">   -188.23930334 </i>
    <i name="e_wo_entrp">   -187.90081316 </i>
    <i name="e_0_energy">   -188.07005825 </i>
   </energy>
  </scstep>
  <scstep>
   <time name="dav">   32.55   32.63</time>
   <time name="total">   33.08   33.17</time>
   <energy>
    <i name="e_fr_energy">   -187.05650957 </i>
    <i name="e_wo_entrp">   -186.71275653 </i>
    <i name="e_0_energy">   -186.88463305 </i>
   </energy>
  </scstep>
  <scstep>
   <time name="dav">   31.03   31.10</time>
   <time name="total">   31.56   31.65</time>
   <energy>
    <i name="e_fr_energy">   -186.99937697 </i>
    <i name="e_wo_entrp">   -186.64796628 </i>
    <i name="e_0_energy">   -186.82367163 </i>
   </energy>
  </scstep>
  <scstep>
   <time name="dav">   30.77   30.84</time>
   <time name="total">   31.29   31.38</time>
   <energy>
    <i name="e_fr_energy">   -187.08523093 </i>
    <i name="e_wo_entrp">   -186.75136373 </i>
    <i name="e_0_energy">   -186.91829733 </i>
   </energy>
  </scstep>
  <scstep>
   <time name="dav">   31.75   31.83</time>
   <time name="total">   32.29   32.38</time>
   <energy>
    <i name="e_fr_energy">   -186.90908931 </i>
    <i name="e_wo_entrp">   -186.57091416 </i>
    <i name="e_0_energy">   -186.74000173 </i>
   </energy>
  </scstep>
  <scstep>
   <time name="dav">   31.98   32.06</time>
   <time name="total">   32.51   32.60</time>
   <energy>
    <i name="e_fr_energy">   -186.89806395 </i>
    <i name="e_wo_entrp">   -186.55408481 </i>
    <i name="e_0_energy">   -186.72607438 </i>
   </energy>
  </scstep>
  <scstep>
   <time name="dav">   31.24   31.32</time>
   <time name="total">   31.78   31.86</time>
   <energy>
    <i name="e_fr_energy">   -186.87233290 </i>
    <i name="e_wo_entrp">   -186.52559202 </i>
    <i name="e_0_energy">   -186.69896246 </i>
   </energy>
  </scstep>
  <scstep>
   <time name="dav">   30.55   30.62</time>
   <time name="total">   31.08   31.16</time>
   <energy>
    <i name="e_fr_energy">   -186.86785078 </i>
    <i name="e_wo_entrp">   -186.52213110 </i>
    <i name="e_0_energy">   -186.69499094 </i>
   </energy>
  </scstep>
  <scstep>
   <time name="dav">   31.29   31.37</time>
   <time name="total">   31.83   31.91</time>
   <energy>
    <i name="e_fr_energy">   -186.86608790 </i>
    <i name="e_wo_entrp">   -186.52188928 </i>
    <i name="e_0_energy">   -186.69398859 </i>
   </energy>
  </scstep>
  <scstep>
   <time name="dav">   29.04   29.11</time>
   <time name="total">   29.57   29.65</time>
   <energy>
    <i name="e_fr_energy">   -186.86542833 </i>
    <i name="e_wo_entrp">   -186.52107693 </i>
    <i name="e_0_energy">   -186.69325263 </i>
   </energy>
  </scstep>
  <scstep>
   <time name="dav">   25.55   25.61</time>
   <time name="total">   26.08   26.15</time>
   <energy>
    <i name="e_fr_energy">   -186.86530248 </i>
    <i name="e_wo_entrp">   -186.52071172 </i>
    <i name="e_0_energy">   -186.69300710 </i>
   </energy>
  </scstep>
  <scstep>
   <time name="dav">   23.45   23.50</time>
   <time name="total">   23.98   24.04</time>
   <energy>
    <i name="e_fr_energy">   -186.86614570 </i>
    <i name="e_wo_entrp">   -186.52174744 </i>
    <i name="e_0_energy">   -186.69394657 </i>
   </energy>
  </scstep>
  <scstep>
   <time name="dav">   21.90   21.95</time>
   <time name="total">   22.44   22.71</time>
   <energy>
    <i name="e_fr_energy">   -186.86683052 </i>
    <i name="e_wo_entrp">   -186.52250910 </i>
    <i name="e_0_energy">   -186.69466981 </i>
   </energy>
  </scstep>
  <scstep>
   <time name="dav">   20.40   20.45</time>
   <time name="total">   20.93   20.99</time>
   <energy>
    <i name="e_fr_energy">   -186.86785262 </i>
    <i name="e_wo_entrp">   -186.52339692 </i>
    <i name="e_0_energy">   -186.69562477 </i>
   </energy>
  </scstep>
  <scstep>
   <time name="dav">   20.37   20.42</time>
   <time name="total">   20.90   20.96</time>
   <energy>
    <i name="e_fr_energy">   -186.86901257 </i>
    <i name="e_wo_entrp">   -186.52468874 </i>
    <i name="e_0_energy">   -186.69685065 </i>
   </energy>
  </scstep>
  <scstep>
   <time name="dav">   18.99   19.04</time>
   <time name="total">   19.53   19.58</time>
   <energy>
    <i name="e_fr_energy">   -186.86958687 </i>
    <i name="e_wo_entrp">   -186.52521489 </i>
    <i name="e_0_energy">   -186.69740088 </i>
   </energy>
  </scstep>
  <scstep>
   <time name="dav">   16.25   16.29</time>
   <time name="total">   16.79   16.84</time>
   <energy>
    <i name="e_fr_energy">   -186.86995112 </i>
    <i name="e_wo_entrp">   -186.52555778 </i>
    <i name="e_0_energy">   -186.69775445 </i>
   </energy>
  </scstep>
  <scstep>
   <time name="dav">   18.99   19.03</time>
   <time name="total">   19.52   19.57</time>
   <energy>
    <i name="e_fr_energy">   -186.87019517 </i>
    <i name="e_wo_entrp">   -186.52581915 </i>
    <i name="e_0_energy">   -186.69800716 </i>
   </energy>
  </scstep>
  <scstep>
   <time name="dav">   19.95   20.00</time>
   <time name="total">   19.98   20.04</time>
   <energy>
    <i name="alphaZ">     81.65567618 </i>
    <i name="ewald">  41890.23010383 </i>
    <i name="hartreedc"> -47832.99256678 </i>
    <i name="XCdc">   -231.60402500 </i>
    <i name="pawpsdc">   4192.12462193 </i>
    <i name="pawaedc">  -3610.13959509 </i>
    <i name="eentropy">     -0.34438136 </i>
    <i name="bandstr">  -1437.24264296 </i>
    <i name="atom">   6761.44252427 </i>
    <i name="e_fr_energy">   -186.87028498 </i>
    <i name="e_wo_entrp">   -186.52590362 </i>
    <i name="e_0_energy">   -186.69809430 </i>
   </energy>
  </scstep>
  <structure>
   <crystal>
    <varray name="basis" >
     <v>       8.66999996       5.03999989       0.00000000 </v>
     <v>      -8.66999982       5.04000013       0.00000000 </v>
     <v>       0.00000000       0.00000000      30.00000000 </v>
    </varray>
    <i name="volume">   2621.80797419 </i>
    <varray name="rec_basis" >
     <v>       0.05767013       0.09920635       0.00000000 </v>
     <v>      -0.05767013       0.09920635       0.00000000 </v>
     <v>       0.00000000       0.00000000       0.03333333 </v>
    </varray>
   </crystal>
   <varray name="positions" >
    <v>       0.33333334       0.33333334       0.00000000 </v>
    <v>       0.00000000       0.66666669       0.00000000 </v>
    <v>       0.66666669       0.66666669       0.00000000 </v>
    <v>       0.00000000       0.00000000       0.00000000 </v>
    <v>       0.66666669       0.00000000       0.00000000 </v>
    <v>       0.66666669       0.33333334       0.00000000 </v>
    <v>       1.00000000       0.33333334       0.00000000 </v>
    <v>       0.33333334       0.00000000       0.00000000 </v>
    <v>       0.33333334       0.66666669       0.00000000 </v>
    <v>       0.11068511       0.22244981       0.95539999 </v>
    <v>       0.22244981       0.11068511       0.04460000 </v>
    <v>       0.11068511       0.55578315       0.95539999 </v>
    <v>       0.22244981       0.44401845       0.04460000 </v>
    <v>       0.11068511       0.88911647       0.95539999 </v>
    <v>       0.22244981       0.77735180       0.04460000 </v>
    <v>       0.44401845       0.22244981       0.95539999 </v>
    <v>       0.55578315       0.11068511       0.04460000 </v>
    <v>       0.44401845       0.55578315       0.95539999 </v>
    <v>       0.55578315       0.44401845       0.04460000 </v>
    <v>       0.44401845       0.88911647       0.95539999 </v>
    <v>       0.55578315       0.77735180       0.04460000 </v>
    <v>       0.77735180       0.22244981       0.95539999 </v>
    <v>       0.88911647       0.11068511       0.04460000 </v>
    <v>       0.77735180       0.55578315       0.95539999 </v>
    <v>       0.88911647       0.44401845       0.04460000 </v>
    <v>       0.77735180       0.88911647       0.95539999 </v>
    <v>       0.88911647       0.77735180       0.04460000 </v>
   </varray>
  </structure>
  <varray name="forces" >
   <v>       0.22485799      -0.02489643      -0.06404726 </v>
   <v>      -0.28550247      -0.15118577       0.08097857 </v>
   <v>       0.08436803       0.19468546       0.01359838 </v>
   <v>      -0.26062525      -0.18681011      -0.02534192 </v>
   <v>       0.01803479       0.28450625      -0.02626558 </v>
   <v>       0.16804970      -0.11267905       0.04984584 </v>
   <v>       0.00751898      -0.61703263      -0.12862115 </v>
   <v>      -0.05841029       0.28776725       0.10968059 </v>
   <v>       0.09145681       0.30617956      -0.02825375 </v>
   <v>       0.35740461       0.73052555      -2.17704510 </v>
   <v>      -0.34423043       0.68735353       2.14859387 </v>
   <v>      -0.58177777      -0.00251656      -2.07064493 </v>
   <v>       0.59230405       0.01387973       2.06496318 </v>
   <v>       0.60904028      -0.55266683      -2.10357188 </v>
   <v>      -0.48218066      -0.58474945       2.19507755 </v>
   <v>      -0.69427716      -0.13876580      -2.14825626 </v>
   <v>      -0.20220717      -0.17737252       2.89554207 </v>
   <v>       0.73683316      -0.02461898      -1.48307844 </v>
   <v>      -0.88921773      -0.00294488       1.43657288 </v>
   <v>       0.08131503      -0.11666195      -2.89125230 </v>
   <v>       0.65060128      -0.14542592       2.11336164 </v>
   <v>       0.21946906       0.16949897      -2.93652709 </v>
   <v>      -0.19495580       0.13312014       2.93515487 </v>
   <v>      -0.32352193       0.66677469      -1.42371233 </v>
   <v>      -0.39208880       0.72874248       2.16385476 </v>
   <v>       0.52392924      -0.69273702      -2.14794499 </v>
   <v>       0.34381245      -0.67196971       1.44733877 </v>
  </varray>
  <varray name="stress" >
   <v>       7.29405184      -0.09681795      -1.50678654 </v>
   <v>      -0.09681816       4.46907657      -0.04750074 </v>
   <v>      -1.50678680      -0.04750089      30.29950529 </v>
  </varray>
  <energy>
   <i name="e_fr_energy">   -186.87028498 </i>
   <i name="e_wo_entrp">   -186.69809430 </i>
   <i name="e_0_energy">     -0.34438136 </i>
  </energy>
  <time name="totalsc">  779.97  782.25</time>
 </calculation>
 <calculation>
  <scstep>
   <time name="dav">   21.83   21.88</time>
   <time name="total">   22.37   22.43</time>
   <energy>
    <i name="alphaZ">     78.91935055 </i>
    <i name="ewald">  39378.96540507 </i>
    <i name="hartreedc"> -45336.44861272 </i>
    <i name="XCdc">   -239.06233144 </i>
    <i name="pawpsdc">   4192.10646181 </i>
    <i name="pawaedc">  -3610.12156761 </i>
    <i name="eentropy">     -0.28525857 </i>
    <i name="bandstr">  -1413.02173663 </i>
    <i name="atom">   6761.44252427 </i>
    <i name="e_fr_energy">   -187.50576527 </i>
    <i name="e_wo_entrp">   -187.22050670 </i>
    <i name="e_0_energy">   -187.36313598 </i>
   </energy>
  </scstep>
  <scstep>
   <time name="dav">   30.35   30.43</time>
   <time name="total">   30.89   30.97</time>
   <energy>
    <i name="e_fr_energy">   -189.49819126 </i>
    <i name="e_wo_entrp">   -189.16449149 </i>
    <i name="e_0_energy">   -189.33134138 </i>
   </energy>
  </scstep>
  <scstep>
   <time name="dav">   30.35   30.42</time>
   <time name="total">   30.90   30.98</time>
   <energy>
    <i name="e_fr_energy">   -189.35550757 </i>
    <i name="e_wo_entrp">   -189.07636250 </i>
    <i name="e_0_energy">   -189.21593503 </i>
   </energy>
  </scstep>
  <scstep>
   <time name="dav">   30.50   30.57</time>
   <time name="total">   31.05   31.13</time>
   <energy>
    <i name="e_fr_energy">   -188.79478813 </i>
    <i name="e_wo_entrp">   -188.50974416 </i>
    <i name="e_0_energy">   -188.65226615 </i>
   </energy>
  </scstep>
  <scstep>
   <time name="dav">   28.52   28.59</time>
   <time name="total">   29.06   29.14</time>
   <energy>
    <i name="e_fr_energy">   -188.86819061 </i>
    <i name="e_wo_entrp">   -188.57798049 </i>
    <i name="e_0_energy">   -188.72308555 </i>
   </energy>
  </scstep>
  <scstep>
   <time name="dav">   30.78   30.85</time>
   <time name="total">   31.32   31.40</time>
   <energy>
    <i name="e_fr_energy">   -188.78274461 </i>
    <i name="e_wo_entrp">   -188.49514713 </i>
    <i name="e_0_energy">   -188.63894587 </i>
   </energy>
  </scstep>
  <scstep>
   <time name="dav">   28.81   28.88</time>
   <time name="total">   29.36   29.44</time>
   <energy>
    <i name="e_fr_energy">   -188.70000789 </i>
    <i name="e_wo_entrp">   -188.41491595 </i>
    <i name="e_0_energy">   -188.55746192 </i>
   </energy>
  </scstep>
  <scstep>
   <time name="dav">   28.72   28.79</time>
   <time name="total">   29.27   29.35</time>
   <energy>
    <i name="e_fr_energy">   -188.68308552 </i>
    <i name="e_wo_entrp">   -188.39940573 </i>
    <i name="e_0_energy">   -188.54124562 </i>
   </energy>
  </scstep>
  <scstep>
   <time name="dav">   28.67   28.74</time>
   <time name="total">   29.21   29.29</time>
   <energy>
    <i name="e_fr_energy">   -188.68022426 </i>
    <i name="e_wo_entrp">   -188.39651881 </i>
    <i name="e_0_energy">   -188.53837153 </i>
   </energy>
  </scstep>
  <scstep>
   <time name="dav">   28.96   29.03</time>
   <time name="total">   29.51   29.59</time>
   <energy>
    <i name="e_fr_energy">   -188.67598109 </i>
    <i name="e_wo_entrp">   -188.39236657 </i>
    <i name="e_0_energy">   -188.53417383 </i>
   </energy>
  </scstep>
  <scstep>
   <time name="dav">   31.87   31.94</time>
   <time name="total">   32.41   32.50</time>
   <energy>
    <i name="e_fr_energy">   -188.67535145 </i>
    <i name="e_wo_entrp">   -188.39237683 </i>
    <i name="e_0_energy">   -188.53386414 </i>
   </energy>
  </scstep>
  <scstep>
   <time name="dav">   29.85   29.93</time>
   <time name="total">   30.40   30.48</time>
   <energy>
    <i name="e_fr_energy">   -188.67518944 </i>
    <i name="e_wo_entrp">   -188.39259377 </i>
    <i name="e_0_energy">   -188.53389161 </i>
   </energy>
  </scstep>
  <scstep>
   <time name="dav">   20.86   20.91</time>
   <time name="total">   20.90   20.96</time>
   <energy>
    <i name="alphaZ">     78.91935055 </i>
    <i name="ewald">  39378.96540507 </i>
    <i name="hartreedc"> -45347.20976574 </i>
    <i name="XCdc">   -237.97582666 </i>
    <i name="pawpsdc">   3950.41320274 </i>
    <i name="pawaedc">  -3364.92500034 </i>
    <i name="eentropy">     -0.28278809 </i>
    <i name="bandstr">  -1408.02232412 </i>
    <i name="atom">   6761.44252427 </i>
    <i name="e_fr_energy">   -188.67522232 </i>
    <i name="e_wo_entrp">   -188.39243423 </i>
    <i name="e_0_energy">   -188.53382828 </i>
   </energy>
  </scstep>
  <structure>
   <crystal>
    <varray name="basis" >
     <v>       8.85347695       5.10340319       0.00000000 </v>
     <v>      -8.85633029       5.10831209       0.00000000 </v>
     <v>       0.00000000       0.00000000      30.00000000 </v>
    </varray>
    <i name="volume">   2712.71242652 </i>
    <varray name="rec_basis" >
     <v>       0.05649304       0.09794253       0.00000000 </v>
     <v>      -0.05643875       0.09791097       0.00000000 </v>
     <v>       0.00000000       0.00000000       0.03333333 </v>
    </varray>
   </crystal>
   <varray name="positions" >
    <v>       0.33383978       0.33258860      -0.00010299 </v>
    <v>      -0.00151789       0.66673743       0.00013022 </v>
    <v>       0.66783317       0.66736372       0.00002187 </v>
    <v>      -0.00161917      -0.00016897      -0.00004075 </v>
    <v>       0.66807850       0.00131146      -0.00004224 </v>
    <v>       0.66659495       0.33232652       0.00008016 </v>
    <v>       0.99706781       0.33035932      -0.00020683 </v>
    <v>       0.33454808       0.00153975       0.00017638 </v>
    <v>       0.33505316       0.66787761      -0.00004543 </v>
    <v>       0.11517575       0.22495173       0.95189911 </v>
    <v>       0.22478176       0.11493247       0.04805513 </v>
    <v>       0.10905447       0.55738971       0.95207021 </v>
    <v>       0.22416412       0.44243700       0.04792064 </v>
    <v>       0.10973451       0.88477697       0.95201726 </v>
    <v>       0.21830971       0.77589470       0.04812988 </v>
    <v>       0.44142273       0.22371727       0.95194540 </v>
    <v>       0.55437168       0.11039878       0.04925629 </v>
    <v>       0.44595062       0.55361534       0.95301507 </v>
    <v>       0.55329511       0.44647831       0.04691014 </v>
    <v>       0.44368634       0.88833189       0.95075060 </v>
    <v>       0.55689722       0.77484571       0.04799847 </v>
    <v>       0.77877361       0.22265043       0.95067779 </v>
    <v>       0.88921118       0.11186462       0.04931999 </v>
    <v>       0.77964288       0.55987441       0.95311053 </v>
    <v>       0.89151336       0.44859705       0.04807967 </v>
    <v>       0.77549403       0.88434339       0.95194590 </v>
    <v>       0.88685698       0.77317922       0.04692745 </v>
   </varray>
  </structure>
  <varray name="forces" >
   <v>       0.19353622      -0.05809946       0.07265115 </v>
   <v>      -0.18616564      -0.07190767      -0.05158434 </v>
   <v>       0.02707334       0.16106223       0.00135015 </v>
   <v>      -0.39117007      -0.07041098      -0.08483241 </v>
   <v>      -0.11018069       0.39972328      -0.00969261 </v>
   <v>       0.41353106      -0.24405209       0.08129339 </v>
   <v>       0.02222750      -0.72902492      -0.03357894 </v>
   <v>       0.10948903       0.26314959       0.04021532 </v>
   <v>      -0.07108504       0.34914889       0.01199154 </v>
   <v>      -0.11867916       0.05748493      -0.00448708 </v>
   <v>       0.10244754       0.05107358      -0.05489872 </v>
   <v>       0.09473403      -0.00178133       0.23121302 </v>
   <v>      -0.09936311       0.00322183      -0.27114776 </v>
   <v>       0.07905149       0.05532245       0.16571230 </v>
   <v>       0.04491000       0.06277530      -0.10640696 </v>
   <v>       0.00885717      -0.09755942      -0.07553606 </v>
   <v>      -0.04077704      -0.12060282       0.17573542 </v>
   <v>      -0.09461464       0.00748162       0.12623595 </v>
   <v>      -0.03146417       0.00829645      -0.16163215 </v>
   <v>      -0.06996690      -0.08389939      -0.00062085 </v>
   <v>      -0.01849295      -0.10258246      -0.01359676 </v>
   <v>       0.06334596       0.10633306      -0.27855924 </v>
   <v>      -0.06291361       0.10328562       0.22650321 </v>
   <v>      -0.01637126       0.02757544       0.08823685 </v>
   <v>       0.11744499       0.05873899      -0.03345425 </v>
   <v>       0.04043023      -0.07883413      -0.07285614 </v>
   <v>      -0.00583429      -0.05591856       0.03174597 </v>
  </varray>
  <varray name="stress" >
   <v>     -19.90477295       0.01818479       0.01131929 </v>
   <v>       0.01818489     -19.50034943       0.02036385 </v>
   <v>       0.01131907       0.02036390      -1.74821928 </v>
  </varray>
  <energy>
   <i name="e_fr_energy">   -188.67522232 </i>
   <i name="e_wo_entrp">   -188.53382828 </i>
   <i name="e_0_energy">     -0.28278809 </i>
  </energy>
  <time name="totalsc">  419.29  420.39</time>
 </calculation>
 <calculation>
  <scstep>
   <time name="dav">   23.80   23.85</time>
   <time name="total">   24.33   24.39</time>
   <energy>
    <i name="alphaZ">     82.33972522 </i>
    <i name="ewald">  41300.33712932 </i>
    <i name="hartreedc"> -47299.12967240 </i>
    <i name="XCdc">   -233.85602631 </i>
    <i name="pawpsdc">   3949.96346647 </i>
    <i name="pawaedc">  -3364.47078511 </i>
    <i name="eentropy">     -0.23718418 </i>
    <i name="bandstr">  -1386.98376572 </i>
    <i name="atom">   6761.44252427 </i>
    <i name="e_fr_energy">   -190.59458845 </i>
    <i name="e_wo_entrp">   -190.35740427 </i>
    <i name="e_0_energy">   -190.47599636 </i>
   </energy>
  </scstep>
  <scstep>
   <time name="dav">   27.93   28.00</time>
   <time name="total">   28.45   28.53</time>
   <energy>
    <i name="e_fr_energy">   -190.55951803 </i>
    <i name="e_wo_entrp">   -190.31603534 </i>
    <i name="e_0_energy">   -190.43777669 </i>
   </energy>
  </scstep>
  <scstep>
   <time name="dav">   30.22   30.29</time>
   <time name="total">   30.75   30.83</time>
   <energy>
    <i name="e_fr_energy">   -190.07911775 </i>
    <i name="e_wo_entrp">   -189.82833322 </i>
    <i name="e_0_energy">   -189.95372549 </i>
   </energy>
  </scstep>
  <scstep>
   <time name="dav">   31.01   31.09</time>
   <time name="total">   31.55   31.63</time>
   <energy>
    <i name="e_fr_energy">   -189.87514326 </i>
    <i name="e_wo_entrp">   -189.63591691 </i>
    <i name="e_0_energy">   -189.75553009 </i>
   </energy>
  </scstep>
  <scstep>
   <time name="dav">   30.10   30.17</time>
   <time name="total">   30.63   30.71</time>
   <energy>
    <i name="e_fr_energy">   -189.91458171 </i>
    <i name="e_wo_entrp">   -189.66794036 </i>
    <i name="e_0_energy">   -189.79126103 </i>
   </energy>
  </scstep>
  <scstep>
   <time name="dav">   30.11   30.19</time>
   <time name="total">   30.64   30.72</time>
   <energy>
    <i name="e_fr_energy">   -189.77095574 </i>
    <i name="e_wo_entrp">   -189.53074979 </i>
    <i name="e_0_energy">   -189.65085277 </i>
   </energy>
  </scstep>
  <scstep>
   <time name="dav">   30.13   30.20</time>
   <time name="total">   30.66   30.74</time>
   <energy>
    <i name="e_fr_energy">   -189.76441932 </i>
    <i name="e_wo_entrp">   -189.52412818 </i>
    <i name="e_0_energy">   -189.64427375 </i>
   </energy>
  </scstep>
  <scstep>
   <time name="dav">   29.16   29.23</time>
   <time name="total">   29.69   29.77</time>
   <energy>
    <i name="e_fr_energy">   -189.76511235 </i>
    <i name="e_wo_entrp">   -189.52486677 </i>
    <i name="e_0_energy">   -189.64498956 </i>
   </energy>
  </scstep>
  <scstep>
   <time name="dav">   26.20   26.27</time>
   <time name="total">   26.74   26.81</time>
   <energy>
    <i name="e_fr_energy">   -189.76448747 </i>
    <i name="e_wo_entrp">   -189.52425764 </i>
    <i name="e_0_energy">   -189.64437255 </i>
   </energy>
  </scstep>
  <scstep>
   <time name="dav">   25.52   25.58</time>
   <time name="total">   26.05   26.12</time>
   <energy>
    <i name="e_fr_energy">   -189.76463863 </i>
    <i name="e_wo_entrp">   -189.52427589 </i>
    <i name="e_0_energy">   -189.64445726 </i>
   </energy>
  </scstep>
  <scstep>
   <time name="dav">   23.07   23.12</time>
   <time name="total">   23.60   23.66</time>
   <energy>
    <i name="e_fr_energy">   -189.76445584 </i>
    <i name="e_wo_entrp">   -189.52412115 </i>
    <i name="e_0_energy">   -189.64428850 </i>
   </energy>
  </scstep>
  <scstep>
   <time name="dav">   20.29   20.34</time>
   <time name="total">   20.33   20.38</time>
   <energy>
    <i name="alphaZ">     82.33972522 </i>
    <i name="ewald">  41300.33712932 </i>
    <i name="hartreedc"> -47272.60488095 </i>
    <i name="XCdc">   -235.24663252 </i>
    <i name="pawpsdc">   4038.77010360 </i>
    <i name="pawaedc">  -3454.47619187 </i>
    <i name="eentropy">     -0.24031711 </i>
    <i name="bandstr">  -1410.08593598 </i>
    <i name="atom">   6761.44252427 </i>
    <i name="e_fr_energy">   -189.76447602 </i>
    <i name="e_wo_entrp">   -189.52415891 </i>
    <i name="e_0_energy">   -189.64431747 </i>
   </energy>
  </scstep>
  <structure>
   <crystal>
    <varray name="basis" >
     <v>       8.66583262       4.99755285       0.00000000 </v>
     <v>      -8.66842762       5.00201667       0.00000000 </v>
     <v>       0.00000000       0.00000000      30.00000000 </v>
    </varray>
    <i name="volume">   2600.02692947 </i>
    <varray name="rec_basis" >
     <v>       0.05771498       0.10001928       0.00000000 </v>
     <v>      -0.05766347       0.09998934       0.00000000 </v>
     <v>       0.00000000       0.00000000       0.03333333 </v>
    </varray>
   </crystal>
   <varray name="positions" >
    <v>       0.33392885       0.33230639      -0.00006185 </v>
    <v>      -0.00181621       0.66679632       0.00010101 </v>
    <v>       0.66812715       0.66760567       0.00002263 </v>
    <v>      -0.00211176       0.00008898      -0.00008879 </v>
    <v>       0.66863787       0.00208201      -0.00004773 </v>
    <v>       0.66658575       0.33152406       0.00012619 </v>
    <v>       0.99587610       0.32912535      -0.00022585 </v>
    <v>       0.33509103       0.00187249       0.00019915 </v>
    <v>       0.33556589       0.66852654      -0.00003864 </v>
    <v>       0.11515749       0.22516114       0.95189657 </v>
    <v>       0.22496507       0.11491920       0.04802404 </v>
    <v>       0.10914242       0.55729591       0.95220114 </v>
    <v>       0.22407412       0.44253763       0.04776709 </v>
    <v>       0.10990243       0.88479319       0.95211110 </v>
    <v>       0.21845726       0.77595606       0.04806962 </v>
    <v>       0.44126890       0.22354650       0.95190263 </v>
    <v>       0.55413187       0.11023727       0.04935580 </v>
    <v>       0.44587226       0.55371850       0.95308656 </v>
    <v>       0.55327872       0.44652227       0.04681860 </v>
    <v>       0.44347959       0.88825942       0.95075025 </v>
    <v>       0.55670879       0.77469281       0.04799077 </v>
    <v>       0.77901134       0.22276657       0.95052005 </v>
    <v>       0.88932266       0.11209675       0.04944825 </v>
    <v>       0.77967305       0.55993598       0.95316050 </v>
    <v>       0.89172381       0.44858215       0.04806072 </v>
    <v>       0.77540166       0.88417349       0.95190465 </v>
    <v>       0.88675833       0.77309180       0.04694543 </v>
   </varray>
  </structure>
  <varray name="forces" >
   <v>       0.19664459      -0.08720079       0.08632489 </v>
   <v>      -0.13986538      -0.03378602      -0.07282703 </v>
   <v>      -0.00351951       0.15188987      -0.00199296 </v>
   <v>      -0.42271294      -0.03166247      -0.07704910 </v>
   <v>      -0.16454165       0.43086539      -0.00305238 </v>
   <v>       0.48765212      -0.29210659       0.06280673 </v>
   <v>       0.02256927      -0.74799835       0.00219050 </v>
   <v>       0.16481871       0.25350643       0.00585805 </v>
   <v>      -0.12934805       0.34869710       0.02073411 </v>
   <v>      -0.00390686       0.12438398      -0.51424562 </v>
   <v>      -0.02205940       0.09807387       0.43717194 </v>
   <v>      -0.03845507      -0.01348056      -0.24574550 </v>
   <v>       0.02516120      -0.01235226       0.19771582 </v>
   <v>       0.07256846      -0.05788532      -0.30602251 </v>
   <v>      -0.04149454      -0.06022026       0.40910634 </v>
   <v>      -0.09367036      -0.01990215      -0.57944436 </v>
   <v>       0.00947556      -0.05034101       0.74893137 </v>
   <v>       0.07389887       0.01223276      -0.33863359 </v>
   <v>      -0.09587948       0.01547123       0.27517522 </v>
   <v>      -0.03933454      -0.00066876      -0.56290818 </v>
   <v>       0.09674550      -0.00796650       0.48906223 </v>
   <v>       0.01048830       0.02492134      -0.87122031 </v>
   <v>      -0.02219573       0.03080458       0.80183414 </v>
   <v>      -0.04584854       0.06915897      -0.34700543 </v>
   <v>       0.01275733       0.11836054       0.46258978 </v>
   <v>       0.06912859      -0.15212873      -0.56874763 </v>
   <v>       0.02092357      -0.11066629       0.48939349 </v>
  </varray>
  <varray name="stress" >
   <v>     -10.14569904       0.02143118      -0.01399281 </v>
   <v>       0.02143124      -9.85379101       0.03883331 </v>
   <v>      -0.01399287       0.03883308       6.48737287 </v>
  </varray>
  <energy>
   <i name="e_fr_energy">   -189.76447602 </i>
   <i name="e_wo_entrp">   -189.64431747 </i>
   <i name="e_0_energy">     -0.24031711 </i>
  </energy>
  <time name="totalsc">  376.10  377.09</time>
 </calculation>
 <calculation>
  <scstep>
   <time name="dav">   21.81   21.86</time>
   <time name="total">   22.33   22.38</time>
   <energy>
    <i name="alphaZ">     85.81940773 </i>
    <i name="ewald">  42832.49502871 </i>
    <i name="hartreedc"> -48849.23582604 </i>
    <i name="XCdc">   -232.95853077 </i>
    <i name="pawpsdc">   4038.81524365 </i>
    <i name="pawaedc">  -3454.51889044 </i>
    <i name="eentropy">     -0.20362354 </i>
    <i name="bandstr">  -1372.98902546 </i>
    <i name="atom">   6761.44252427 </i>
    <i name="e_fr_energy">   -191.33369191 </i>
    <i name="e_wo_entrp">   -191.13006836 </i>
    <i name="e_0_energy">   -191.23188014 </i>
   </energy>
  </scstep>
  <scstep>
   <time name="dav">   32.07   32.15</time>
   <time name="total">   32.58   32.67</time>
   <energy>
    <i name="e_fr_energy">   -191.17977713 </i>
    <i name="e_wo_entrp">   -190.97034434 </i>
    <i name="e_0_energy">   -191.07506073 </i>
   </energy>
  </scstep>
  <scstep>
   <time name="dav">   30.07   30.14</time>
   <time name="total">   30.58   30.67</time>
   <energy>
    <i name="e_fr_energy">   -191.27849392 </i>
    <i name="e_wo_entrp">   -191.05737594 </i>
    <i name="e_0_energy">   -191.16793493 </i>
   </energy>
  </scstep>
  <scstep>
   <time name="dav">   31.51   31.59</time>
   <time name="total">   32.03   32.12</time>
   <energy>
    <i name="e_fr_energy">   -190.88042812 </i>
    <i name="e_wo_entrp">   -190.67318335 </i>
    <i name="e_0_energy">   -190.77680573 </i>
   </energy>
  </scstep>
  <scstep>
   <time name="dav">   30.15   30.22</time>
   <time name="total">   30.67   30.75</time>
   <energy>
    <i name="e_fr_energy">   -190.80531692 </i>
    <i name="e_wo_entrp">   -190.59491451 </i>
    <i name="e_0_energy">   -190.70011571 </i>
   </energy>
  </scstep>
  <scstep>
   <time name="dav">   30.66   30.73</time>
   <time name="total">   31.17   31.25</time>
   <energy>
    <i name="e_fr_energy">   -190.77228797 </i>
    <i name="e_wo_entrp">   -190.56159318 </i>
    <i name="e_0_energy">   -190.66694058 </i>
   </energy>
  </scstep>
  <scstep>
   <time name="dav">   29.20   29.27</time>
   <time name="total">   29.72   29.79</time>
   <energy>
    <i name="e_fr_energy">   -190.75294100 </i>
    <i name="e_wo_entrp">   -190.54304820 </i>
    <i name="e_0_energy">   -190.64799460 </i>
   </energy>
  </scstep>
  <scstep>
   <time name="dav">   27.75   27.82</time>
   <time name="total">   28.27   28.34</time>
   <energy>
    <i name="e_fr_energy">   -190.74980963 </i>
    <i name="e_wo_entrp">   -190.53986620 </i>
    <i name="e_0_energy">   -190.64483792 </i>
   </energy>
  </scstep>
  <scstep>
   <time name="dav">   27.70   27.76</time>
   <time name="total">   28.22   28.29</time>
   <energy>
    <i name="e_fr_energy">   -190.74958716 </i>
    <i name="e_wo_entrp">   -190.53966251 </i>
    <i name="e_0_energy">   -190.64462483 </i>
   </energy>
  </scstep>
  <scstep>
   <time name="dav">   28.02   28.09</time>
   <time name="total">   28.54   28.61</time>
   <energy>
    <i name="e_fr_energy">   -190.74966367 </i>
    <i name="e_wo_entrp">   -190.53949332 </i>
    <i name="e_0_energy">   -190.64457850 </i>
   </energy>
  </scstep>
  <scstep>
   <time name="dav">   25.63   25.69</time>
   <time name="total">   26.15   26.22</time>
   <energy>
    <i name="e_fr_energy">   -190.74943184 </i>
    <i name="e_wo_entrp">   -190.53952010 </i>
    <i name="e_0_energy">   -190.64447597 </i>
   </energy>
  </scstep>
  <scstep>
   <time name="dav">   20.21   20.26</time>
   <time name="total">   20.24   20.30</time>
   <energy>
    <i name="alphaZ">     85.81940773 </i>
    <i name="ewald">  42832.49502871 </i>
    <i name="hartreedc"> -48820.62929328 </i>
    <i name="XCdc">   -234.28803169 </i>
    <i name="pawpsdc">   4063.76399540 </i>
    <i name="pawaedc">  -3479.65209301 </i>
    <i name="eentropy">     -0.20993950 </i>
    <i name="bandstr">  -1399.49102475 </i>
    <i name="atom">   6761.44252427 </i>
    <i name="e_fr_energy">   -190.74942611 </i>
    <i name="e_wo_entrp">   -190.53948661 </i>
    <i name="e_0_energy">   -190.64445636 </i>
   </energy>
  </scstep>
  <structure>
   <crystal>
    <varray name="basis" >
     <v>       8.48500683       4.89805740       0.00000000 </v>
     <v>      -8.48672285       4.90100210       0.00000000 </v>
     <v>       0.00000000       0.00000000      30.00000000 </v>
    </varray>
    <i name="volume">   2494.60475905 </i>
    <varray name="rec_basis" >
     <v>       0.05893922       0.10206093       0.00000000 </v>
     <v>      -0.05890381       0.10204029       0.00000000 </v>
     <v>       0.00000000       0.00000000       0.03333333 </v>
    </varray>
   </crystal>
   <varray name="positions" >
    <v>       0.33402539       0.33097332       0.00012840 </v>
    <v>      -0.00237163       0.66711837      -0.00006773 </v>
    <v>       0.66899875       0.66859041       0.00001567 </v>
    <v>      -0.00378658       0.00155916      -0.00024164 </v>
    <v>       0.67074091       0.00552944      -0.00004841 </v>
    <v>       0.66650573       0.32770798       0.00024048 </v>
    <v>       0.99122654       0.32431311      -0.00019096 </v>
    <v>       0.33732984       0.00276086       0.00018211 </v>
    <v>       0.33719716       0.67125930       0.00001169 </v>
    <v>       0.11625426       0.22595582       0.95039969 </v>
    <v>       0.22543764       0.11590897       0.04934640 </v>
    <v>       0.10869825       0.55751262       0.95128776 </v>
    <v>       0.22422799       0.44215165       0.04857421 </v>
    <v>       0.10951055       0.88389582       0.95107741 </v>
    <v>       0.21749913       0.77554642       0.04935380 </v>
    <v>       0.44085190       0.22410111       0.95027579 </v>
    <v>       0.55409837       0.10999084       0.05139220 </v>
    <v>       0.44647021       0.55329790       0.95199120 </v>
    <v>       0.55295431       0.44707583       0.04775881 </v>
    <v>       0.44358487       0.88856076       0.94910808 </v>
    <v>       0.55741029       0.77436385       0.04942951 </v>
    <v>       0.77892625       0.22275771       0.94821406 </v>
    <v>       0.88931316       0.11213054       0.05159594 </v>
    <v>       0.78000175       0.56068056       0.95207297 </v>
    <v>       0.89250925       0.44957618       0.04943906 </v>
    <v>       0.77455730       0.88274746       0.95030675 </v>
    <v>       0.88604287       0.77214846       0.04834664 </v>
   </varray>
  </structure>
  <varray name="forces" >
   <v>       0.22304479      -0.09806754       0.08290877 </v>
   <v>      -0.09510436       0.02795404      -0.08147225 </v>
   <v>      -0.02970487       0.11162276      -0.00665960 </v>
   <v>      -0.44400955      -0.02273295      -0.04271100 </v>
   <v>      -0.22161745       0.41333571       0.00293386 </v>
   <v>       0.50396848      -0.32283917       0.00823552 </v>
   <v>       0.02081438      -0.74443579       0.03157955 </v>
   <v>       0.23762600       0.25123770      -0.03106365 </v>
   <v>      -0.17364381       0.39725085       0.03441275 </v>
   <v>      -0.03077919       0.02833741      -0.38277231 </v>
   <v>      -0.01133331      -0.00984225       0.26016572 </v>
   <v>       0.03417357      -0.05512821      -0.07668476 </v>
   <v>      -0.04964505      -0.04636894       0.00008549 </v>
   <v>      -0.03615254       0.02273204      -0.14810866 </v>
   <v>      -0.06860257      -0.00465157       0.31304166 </v>
   <v>       0.00513855       0.02679967      -0.39001299 </v>
   <v>       0.04538330      -0.00717705       0.59778106 </v>
   <v>       0.04228159       0.03164721      -0.23154739 </v>
   <v>       0.05184006       0.02281033       0.19186988 </v>
   <v>       0.00579795       0.09497222      -0.41291376 </v>
   <v>       0.02435479       0.08398793       0.31953597 </v>
   <v>      -0.00191178      -0.02932060      -0.70396920 </v>
   <v>      -0.00548576      -0.04276088       0.61768054 </v>
   <v>       0.01262511      -0.05443387      -0.22318475 </v>
   <v>       0.02190118      -0.01562516       0.30460322 </v>
   <v>      -0.01609670      -0.04511071      -0.40040193 </v>
   <v>      -0.04486283      -0.01419319       0.36666828 </v>
  </varray>
  <varray name="stress" >
   <v>      -5.79073242      -0.07900331      -0.04021969 </v>
   <v>      -0.07900325      -5.70909980      -0.05339761 </v>
   <v>      -0.04021956      -0.05339767       4.48885443 </v>
  </varray>
  <energy>
   <i name="e_fr_energy">   -190.74942611 </i>
   <i name="e_wo_entrp">   -190.64445636 </i>
   <i name="e_0_energy">     -0.20993950 </i>
  </energy>
  <time name="totalsc">  382.88  383.89</time>
 </calculation>
 <calculation>
  <scstep>
   <time name="dav">   21.83   21.88</time>
   <time name="total">   22.35   22.40</time>
   <energy>
    <i name="alphaZ">     90.18193734 </i>
    <i name="ewald">  44667.04101892 </i>
    <i name="hartreedc"> -50710.58017560 </i>
    <i name="XCdc">   -231.83421272 </i>
    <i name="pawpsdc">   4063.73548566 </i>
    <i name="pawaedc">  -3479.61822964 </i>
    <i name="eentropy">     -0.19659211 </i>
    <i name="bandstr">  -1352.29294347 </i>
    <i name="atom">   6761.44252427 </i>
    <i name="e_fr_energy">   -192.12118736 </i>
    <i name="e_wo_entrp">   -191.92459525 </i>
    <i name="e_0_energy">   -192.02289130 </i>
   </energy>
  </scstep>
  <scstep>
   <time name="dav">   28.06   28.13</time>
   <time name="total">   28.56   28.64</time>
   <energy>
    <i name="e_fr_energy">   -191.85347702 </i>
    <i name="e_wo_entrp">   -191.65011225 </i>
    <i name="e_0_energy">   -191.75179464 </i>
   </energy>
  </scstep>
  <scstep>
   <time name="dav">   29.41   29.49</time>
   <time name="total">   29.92   30.00</time>
   <energy>
    <i name="e_fr_energy">   -191.98177995 </i>
    <i name="e_wo_entrp">   -191.77777980 </i>
    <i name="e_0_energy">   -191.87977987 </i>
   </energy>
  </scstep>
  <scstep>
   <time name="dav">   28.47   28.54</time>
   <time name="total">   28.97   29.05</time>
   <energy>
    <i name="e_fr_energy">   -191.74785238 </i>
    <i name="e_wo_entrp">   -191.54747416 </i>
    <i name="e_0_energy">   -191.64766327 </i>
   </energy>
  </scstep>
  <scstep>
   <time name="dav">   30.18   30.25</time>
   <time name="total">   30.69   30.77</time>
   <energy>
    <i name="e_fr_energy">   -191.57689964 </i>
    <i name="e_wo_entrp">   -191.37339728 </i>
    <i name="e_0_energy">   -191.47514846 </i>
   </energy>
  </scstep>
  <scstep>
   <time name="dav">   30.19   30.27</time>
   <time name="total">   30.70   30.78</time>
   <energy>
    <i name="e_fr_energy">   -191.43564735 </i>
    <i name="e_wo_entrp">   -191.22982890 </i>
    <i name="e_0_energy">   -191.33273812 </i>
   </energy>
  </scstep>
  <scstep>
   <time name="dav">   30.13   30.20</time>
   <time name="total">   30.64   30.72</time>
   <energy>
    <i name="e_fr_energy">   -191.42791862 </i>
    <i name="e_wo_entrp">   -191.22395391 </i>
    <i name="e_0_energy">   -191.32593627 </i>
   </energy>
  </scstep>
  <scstep>
   <time name="dav">   29.85   29.92</time>
   <time name="total">   30.36   30.44</time>
   <energy>
    <i name="e_fr_energy">   -191.42568224 </i>
    <i name="e_wo_entrp">   -191.22087807 </i>
    <i name="e_0_energy">   -191.32328015 </i>
   </energy>
  </scstep>
  <scstep>
   <time name="dav">   30.53   30.61</time>
   <time name="total">   31.04   31.13</time>
   <energy>
    <i name="e_fr_energy">   -191.41901063 </i>
    <i name="e_wo_entrp">   -191.21419983 </i>
    <i name="e_0_energy">   -191.31660523 </i>
   </energy>
  </scstep>
  <scstep>
   <time name="dav">   27.62   27.69</time>
   <time name="total">   28.12   28.20</time>
   <energy>
    <i name="e_fr_energy">   -191.41931775 </i>
    <i name="e_wo_entrp">   -191.21423846 </i>
    <i name="e_0_energy">   -191.31677810 </i>
   </energy>
  </scstep>
  <scstep>
   <time name="dav">   27.98   28.05</time>
   <time name="total">   28.49   28.57</time>
   <energy>
    <i name="e_fr_energy">   -191.41916807 </i>
    <i name="e_wo_entrp">   -191.21423327 </i>
    <i name="e_0_energy">   -191.31670067 </i>
   </energy>
  </scstep>
  <scstep>
   <time name="dav">   19.34   19.39</time>
   <time name="total">   19.37   19.43</time>
   <energy>
    <i name="alphaZ">     90.18193734 </i>
    <i name="ewald">  44667.04101892 </i>
    <i name="hartreedc"> -50676.60848762 </i>
    <i name="XCdc">   -233.36227972 </i>
    <i name="pawpsdc">   4085.79575381 </i>
    <i name="pawaedc">  -3501.77447547 </i>
    <i name="eentropy">     -0.20501408 </i>
    <i name="bandstr">  -1383.93012879 </i>
    <i name="atom">   6761.44252427 </i>
    <i name="e_fr_energy">   -191.41915135 </i>
    <i name="e_wo_entrp">   -191.21413727 </i>
    <i name="e_0_energy">   -191.31664431 </i>
   </energy>
  </scstep>
  <structure>
   <crystal>
    <varray name="basis" >
     <v>       8.27289521       4.77551058       0.00000000 </v>
     <v>      -8.27899742       4.78605385       0.00000000 </v>
     <v>       0.00000000       0.00000000      30.00000000 </v>
    </varray>
    <i name="volume">   2373.92885156 </i>
    <varray name="rec_basis" >
     <v>       0.06048270       0.10462400       0.00000000 </v>
     <v>      -0.06034946       0.10454688       0.00000000 </v>
     <v>       0.00000000       0.00000000       0.03333333 </v>
    </varray>
   </crystal>
   <varray name="positions" >
    <v>       0.33431749       0.32813452       0.00047644 </v>
    <v>      -0.00266217       0.66811173      -0.00041100 </v>
    <v>       0.67017700       0.67024250      -0.00001185 </v>
    <v>      -0.00715926       0.00456469      -0.00042377 </v>
    <v>       0.67433901       0.01234945      -0.00003329 </v>
    <v>       0.66613426       0.31995469       0.00028455 </v>
    <v>       0.98214753       0.31493554      -0.00004470 </v>
    <v>       0.34211222       0.00411904       0.00004336 </v>
    <v>       0.34071757       0.67735721       0.00015107 </v>
    <v>       0.11695644       0.22666015       0.94829031 </v>
    <v>       0.22533380       0.11640298       0.05097073 </v>
    <v>       0.10800530       0.55691899       0.95041892 </v>
    <v>       0.22359582       0.44166518       0.04914299 </v>
    <v>       0.10916466       0.88387612       0.94993307 </v>
    <v>       0.21638635       0.77564579       0.05117004 </v>
    <v>       0.44109888       0.22480804       0.94811205 </v>
    <v>       0.55451367       0.10966206       0.05443754 </v>
    <v>       0.44745423       0.55305650       0.95054604 </v>
    <v>       0.55336231       0.44724671       0.04900432 </v>
    <v>       0.44488492       0.88976274       0.94681600 </v>
    <v>       0.55900099       0.77508327       0.05129852 </v>
    <v>       0.77832979       0.22234129       0.94471475 </v>
    <v>       0.88871226       0.11150395       0.05474094 </v>
    <v>       0.77964241       0.56035300       0.95068162 </v>
    <v>       0.89268534       0.44980824       0.05123543 </v>
    <v>       0.77362624       0.88178529       0.94812053 </v>
    <v>       0.88533737       0.77186477       0.05033531 </v>
   </varray>
  </structure>
  <varray name="forces" >
   <v>       0.29898458      -0.11098287       0.01922437 </v>
   <v>      -0.08629293       0.07568362      -0.01619506 </v>
   <v>      -0.03115725       0.06491857      -0.02162631 </v>
   <v>      -0.30199533      -0.07835966       0.02465807 </v>
   <v>      -0.07590460      -0.06315732       0.03362741 </v>
   <v>       0.14166485      -0.20645277      -0.05549846 </v>
   <v>       0.01075093      -0.28864466      -0.04817060 </v>
   <v>       0.31493603       0.21211611       0.04782122 </v>
   <v>      -0.21822127       0.48988901       0.05965468 </v>
   <v>      -0.11574851      -0.05382320      -0.05875053 </v>
   <v>       0.07009374      -0.12190588      -0.06956490 </v>
   <v>       0.16548883      -0.11513307       0.24433854 </v>
   <v>      -0.18577208      -0.09282453      -0.33787709 </v>
   <v>      -0.16273416       0.16071733       0.11925136 </v>
   <v>      -0.07636654       0.07942226       0.06412135 </v>
   <v>       0.10071397       0.02624010      -0.11054995 </v>
   <v>       0.07292092      -0.00415680       0.24537757 </v>
   <v>      -0.04275528       0.02647636       0.07183739 </v>
   <v>       0.23433367       0.01428760      -0.04485029 </v>
   <v>       0.02944216       0.17364259      -0.22928438 </v>
   <v>      -0.07085280       0.14792206       0.05903789 </v>
   <v>      -0.00836547      -0.04763530      -0.29295437 </v>
   <v>      -0.00688347      -0.12217929       0.28746132 </v>
   <v>       0.07346394      -0.15968657       0.07452844 </v>
   <v>       0.08355609      -0.15773429      -0.02082156 </v>
   <v>      -0.14525515       0.07947277      -0.06614714 </v>
   <v>      -0.06804487       0.07188781       0.02135104 </v>
  </varray>
  <varray name="stress" >
   <v>       0.10553695      -0.28360662       0.18465173 </v>
   <v>      -0.28360671       0.27462193      -0.29785257 </v>
   <v>       0.18465176      -0.29785266      -0.57868209 </v>
  </varray>
  <energy>
   <i name="e_fr_energy">   -191.41915135 </i>
   <i name="e_wo_entrp">   -191.31664431 </i>
   <i name="e_0_energy">     -0.20501408 </i>
  </energy>
  <time name="totalsc">  381.85  382.86</time>
 </calculation>
 <calculation>
  <scstep>
   <time name="dav">   21.87   21.92</time>
   <time name="total">   22.39   22.44</time>
   <energy>
    <i name="alphaZ">     90.05232558 </i>
    <i name="ewald">  44593.67391465 </i>
    <i name="hartreedc"> -50602.42124904 </i>
    <i name="XCdc">   -233.51198456 </i>
    <i name="pawpsdc">   4085.72980031 </i>
    <i name="pawaedc">  -3501.70419377 </i>
    <i name="eentropy">     -0.20876918 </i>
    <i name="bandstr">  -1384.54046590 </i>
    <i name="atom">   6761.44252427 </i>
    <i name="e_fr_energy">   -191.48809763 </i>
    <i name="e_wo_entrp">   -191.27932845 </i>
    <i name="e_0_energy">   -191.38371304 </i>
   </energy>
  </scstep>
  <scstep>
   <time name="dav">   32.87   32.95</time>
   <time name="total">   33.38   33.47</time>
   <energy>
    <i name="e_fr_energy">   -191.55545998 </i>
    <i name="e_wo_entrp">   -191.34168846 </i>
    <i name="e_0_energy">   -191.44857422 </i>
   </energy>
  </scstep>
  <scstep>
   <time name="dav">   30.41   30.48</time>
   <time name="total">   30.92   31.00</time>
   <energy>
    <i name="e_fr_energy">   -191.50132876 </i>
    <i name="e_wo_entrp">   -191.29170743 </i>
    <i name="e_0_energy">   -191.39651810 </i>
   </energy>
  </scstep>
  <scstep>
   <time name="dav">   28.32   28.39</time>
   <time name="total">   28.82   28.90</time>
   <energy>
    <i name="e_fr_energy">   -191.50308966 </i>
    <i name="e_wo_entrp">   -191.29384170 </i>
    <i name="e_0_energy">   -191.39846568 </i>
   </energy>
  </scstep>
  <scstep>
   <time name="dav">   28.26   28.33</time>
   <time name="total">   28.77   28.85</time>
   <energy>
    <i name="e_fr_energy">   -191.49864568 </i>
    <i name="e_wo_entrp">   -191.28874049 </i>
    <i name="e_0_energy">   -191.39369308 </i>
   </energy>
  </scstep>
  <scstep>
   <time name="dav">   26.73   26.79</time>
   <time name="total">   27.23   27.31</time>
   <energy>
    <i name="e_fr_energy">   -191.49851932 </i>
    <i name="e_wo_entrp">   -191.28861912 </i>
    <i name="e_0_energy">   -191.39356922 </i>
   </energy>
  </scstep>
  <scstep>
   <time name="dav">   28.60   28.67</time>
   <time name="total">   29.12   29.20</time>
   <energy>
    <i name="e_fr_energy">   -191.49907844 </i>
    <i name="e_wo_entrp">   -191.28941598 </i>
    <i name="e_0_energy">   -191.39424721 </i>
   </energy>
  </scstep>
  <scstep>
   <time name="dav">   24.69   24.75</time>
   <time name="total">   25.19   25.26</time>
   <energy>
    <i name="e_fr_energy">   -191.49801672 </i>
    <i name="e_wo_entrp">   -191.28813502 </i>
    <i name="e_0_energy">   -191.39307587 </i>
   </energy>
  </scstep>
  <scstep>
   <time name="dav">   16.83   16.87</time>
   <time name="total">   16.86   16.91</time>
   <energy>
    <i name="alphaZ">     90.05232558 </i>
    <i name="ewald">  44593.67391465 </i>
    <i name="hartreedc"> -50604.41198103 </i>
    <i name="XCdc">   -233.44896310 </i>
    <i name="pawpsdc">   4082.97329897 </i>
    <i name="pawaedc">  -3498.90796238 </i>
    <i name="eentropy">     -0.20974641 </i>
    <i name="bandstr">  -1382.66143871 </i>
    <i name="atom">   6761.44252427 </i>
    <i name="e_fr_energy">   -191.49802815 </i>
    <i name="e_wo_entrp">   -191.28828174 </i>
    <i name="e_0_energy">   -191.39315495 </i>
   </energy>
  </scstep>
  <structure>
   <crystal>
    <varray name="basis" >
     <v>       8.27361691       4.77397532       0.00000000 </v>
     <v>      -8.28665073       4.79652234       0.00000000 </v>
     <v>       0.00000000       0.00000000      30.00000000 </v>
    </varray>
    <i name="volume">   2377.34563263 </i>
    <varray name="rec_basis" >
     <v>       0.06052787       0.10457021       0.00000000 </v>
     <v>      -0.06024335       0.10440573       0.00000000 </v>
     <v>       0.00000000       0.00000000       0.03333333 </v>
    </varray>
   </crystal>
   <varray name="positions" >
    <v>       0.33461776       0.32678750       0.00050087 </v>
    <v>      -0.00253123       0.66871253      -0.00043076 </v>
    <v>       0.67038869       0.67062273      -0.00004527 </v>
    <v>      -0.00834950       0.00498695      -0.00038217 </v>
    <v>       0.67375513       0.01214480       0.00001908 </v>
    <v>       0.66552785       0.31866424       0.00019685 </v>
    <v>       0.98090409       0.31363690      -0.00012264 </v>
    <v>       0.34397352       0.00424690       0.00012057 </v>
    <v>       0.34245069       0.68028507       0.00024225 </v>
    <v>       0.11634597       0.22671135       0.94823776 </v>
    <v>       0.22493448       0.11559221       0.05082998 </v>
    <v>       0.10792334       0.55589048       0.95082114 </v>
    <v>       0.22261886       0.44174649       0.04859899 </v>
    <v>       0.10950152       0.88513279       0.95014369 </v>
    <v>       0.21658331       0.77625418       0.05123578 </v>
    <v>       0.44151129       0.22463585       0.94797952 </v>
    <v>       0.55469191       0.10943929       0.05476671 </v>
    <v>       0.44744419       0.55331502       0.95068683 </v>
    <v>       0.55409431       0.44664719       0.04890937 </v>
    <v>       0.44580033       0.89051214       0.94649999 </v>
    <v>       0.55949737       0.77600057       0.05135518 </v>
    <v>       0.77808373       0.22213842       0.94431857 </v>
    <v>       0.88810220       0.11093489       0.05513421 </v>
    <v>       0.77906975       0.55936125       0.95082556 </v>
    <v>       0.89214255       0.44878704       0.05116835 </v>
    <v>       0.77362164       0.88260802       0.94805767 </v>
    <v>       0.88551074       0.77241966       0.05033181 </v>
   </varray>
  </structure>
  <varray name="forces" >
   <v>       0.36088431      -0.11430153       0.03135520 </v>
   <v>      -0.09262716       0.04354529      -0.04508173 </v>
   <v>      -0.01616368       0.07274177      -0.04698291 </v>
   <v>      -0.38155921      -0.09252073       0.00886700 </v>
   <v>      -0.07405363      -0.03991674      -0.00036428 </v>
   <v>       0.13732754      -0.22667706      -0.02538808 </v>
   <v>       0.03649111      -0.42516163       0.01389316 </v>
   <v>       0.35712505       0.24783574       0.01216058 </v>
   <v>      -0.25142749       0.55039967       0.03493310 </v>
   <v>      -0.05601130      -0.03432637      -0.03300204 </v>
   <v>       0.06420680      -0.09312258      -0.08174042 </v>
   <v>       0.11668282      -0.04737288       0.24946844 </v>
   <v>      -0.13482740      -0.01106540      -0.36878595 </v>
   <v>      -0.11059254       0.12810867       0.16638664 </v>
   <v>      -0.05728129       0.06595865       0.06887411 </v>
   <v>       0.06287970      -0.01524045      -0.11820036 </v>
   <v>       0.04173102       0.01086482       0.20960720 </v>
   <v>      -0.04994027       0.01333921       0.12011904 </v>
   <v>       0.14082787       0.00741723      -0.06620294 </v>
   <v>       0.00250819       0.10945225      -0.23514992 </v>
   <v>      -0.02150713       0.09037792       0.10935840 </v>
   <v>       0.00441710      -0.05769869      -0.18577030 </v>
   <v>      -0.03751844      -0.06581762       0.17899808 </v>
   <v>       0.04711956      -0.09877796       0.09338520 </v>
   <v>       0.04431097      -0.09516909      -0.05205764 </v>
   <v>      -0.08958592       0.03736811      -0.05281099 </v>
   <v>      -0.04341657       0.03975940       0.01413140 </v>
  </varray>
  <varray name="stress" >
   <v>      -0.07690607      -0.03545152       0.08329787 </v>
   <v>      -0.03545142      -0.17237384      -0.08523433 </v>
   <v>       0.08329777      -0.08523450      -1.18849104 </v>
  </varray>
  <energy>
   <i name="e_fr_energy">   -191.49802815 </i>
   <i name="e_wo_entrp">   -191.39315495 </i>
   <i name="e_0_energy">     -0.20974641 </i>
  </energy>
  <time name="totalsc">  285.23  285.99</time>
 </calculation>
 <calculation>
  <scstep>
   <time name="dav">   21.80   21.85</time>
   <time name="total">   22.31   22.36</time>
   <energy>
    <i name="alphaZ">     90.09501605 </i>
    <i name="ewald">  44613.76032760 </i>
    <i name="hartreedc"> -50624.91958157 </i>
    <i name="XCdc">   -233.41884657 </i>
    <i name="pawpsdc">   4082.80098644 </i>
    <i name="pawaedc">  -3498.73387871 </i>
    <i name="eentropy">     -0.21079054 </i>
    <i name="bandstr">  -1382.36068312 </i>
    <i name="atom">   6761.44252427 </i>
    <i name="e_fr_energy">   -191.54492614 </i>
    <i name="e_wo_entrp">   -191.33413560 </i>
    <i name="e_0_energy">   -191.43953087 </i>
   </energy>
  </scstep>
  <scstep>
   <time name="dav">   33.07   33.15</time>
   <time name="total">   33.58   33.66</time>
   <energy>
    <i name="e_fr_energy">   -191.56158421 </i>
    <i name="e_wo_entrp">   -191.34741833 </i>
    <i name="e_0_energy">   -191.45450127 </i>
   </energy>
  </scstep>
  <scstep>
   <time name="dav">   30.15   30.22</time>
   <time name="total">   30.65   30.73</time>
   <energy>
    <i name="e_fr_energy">   -191.54816950 </i>
    <i name="e_wo_entrp">   -191.33701450 </i>
    <i name="e_0_energy">   -191.44259200 </i>
   </energy>
  </scstep>
  <scstep>
   <time name="dav">   27.71   27.78</time>
   <time name="total">   28.22   28.30</time>
   <energy>
    <i name="e_fr_energy">   -191.54869346 </i>
    <i name="e_wo_entrp">   -191.33769732 </i>
    <i name="e_0_energy">   -191.44319539 </i>
   </energy>
  </scstep>
  <scstep>
   <time name="dav">   27.58   27.64</time>
   <time name="total">   28.09   28.16</time>
   <energy>
    <i name="e_fr_energy">   -191.54712865 </i>
    <i name="e_wo_entrp">   -191.33560438 </i>
    <i name="e_0_energy">   -191.44136652 </i>
   </energy>
  </scstep>
  <scstep>
   <time name="dav">   25.80   25.86</time>
   <time name="total">   25.83   25.90</time>
   <energy>
    <i name="alphaZ">     90.09501605 </i>
    <i name="ewald">  44613.76032760 </i>
    <i name="hartreedc"> -50624.92239842 </i>
    <i name="XCdc">   -233.42310954 </i>
    <i name="pawpsdc">   4083.82326532 </i>
    <i name="pawaedc">  -3499.76863700 </i>
    <i name="eentropy">     -0.21150803 </i>
    <i name="bandstr">  -1382.34255189 </i>
    <i name="atom">   6761.44252427 </i>
    <i name="e_fr_energy">   -191.54707162 </i>
    <i name="e_wo_entrp">   -191.33556359 </i>
[...]
      <set comment="kpoint 31">
       <r>  -17.4923    1.0000 </r>
       <r>  -17.3056    1.0000 </r>
       <r>  -16.8814    1.0000 </r>
       <r>  -16.5055    1.0000 </r>
       <r>  -16.4168    1.0000 </r>
       <r>  -16.3632    1.0000 </r>
       <r>  -16.2782    1.0000 </r>
       <r>  -16.1315    1.0000 </r>
       <r>  -16.0914    1.0000 </r>
       <r>  -16.0727    1.0000 </r>
       <r>  -15.9739    1.0000 </r>
       <r>  -15.8877    1.0000 </r>
       <r>  -15.7837    1.0000 </r>
       <r>  -15.6921    1.0000 </r>
       <r>  -15.6292    1.0000 </r>
       <r>  -15.5883    1.0000 </r>
       <r>  -15.5075    1.0000 </r>
       <r>  -15.4561    1.0000 </r>
       <r>   -9.7634    1.0000 </r>
       <r>   -9.3852    1.0000 </r>
       <r>   -9.3710    1.0000 </r>
       <r>   -8.8896    1.0000 </r>
       <r>   -8.8440    1.0000 </r>
       <r>   -8.7050    1.0000 </r>
       <r>   -8.5801    1.0000 </r>
       <r>   -8.4635    1.0000 </r>
       <r>   -8.3686    1.0000 </r>
       <r>   -8.3335    1.0000 </r>
       <r>   -8.2479    1.0000 </r>
       <r>   -8.2044    1.0000 </r>
       <r>   -8.1499    1.0000 </r>
       <r>   -8.0901    1.0000 </r>
       <r>   -7.9389    1.0000 </r>
       <r>   -7.8721    1.0000 </r>
       <r>   -7.8281    1.0000 </r>
       <r>   -7.5522    1.0000 </r>
       <r>   -7.5088    1.0000 </r>
       <r>   -7.3627    1.0000 </r>
       <r>   -7.2886    1.0000 </r>
       <r>   -7.1799    1.0000 </r>
       <r>   -7.1150    1.0000 </r>
       <r>   -7.0099    1.0000 </r>
       <r>   -6.9972    1.0000 </r>
       <r>   -6.9225    1.0000 </r>
       <r>   -6.8499    1.0000 </r>
       <r>   -6.7869    1.0000 </r>
       <r>   -6.7186    1.0000 </r>
       <r>   -6.6646    1.0000 </r>
       <r>   -6.5847    1.0000 </r>
       <r>   -6.5126    1.0000 </r>
       <r>   -6.4258    1.0000 </r>
       <r>   -6.3044    1.0000 </r>
       <r>   -6.2472    1.0000 </r>
       <r>   -6.1512    1.0000 </r>
       <r>   -6.1287    1.0000 </r>
       <r>   -6.0187    1.0000 </r>
       <r>   -5.9767    1.0000 </r>
       <r>   -5.9405    1.0000 </r>
       <r>   -5.8696    1.0000 </r>
       <r>   -5.8225    1.0000 </r>
       <r>   -5.7653    1.0000 </r>
       <r>   -5.6619    1.0000 </r>
       <r>   -5.6096    1.0000 </r>
       <r>   -5.5339    1.0000 </r>
       <r>   -5.2395    1.0000 </r>
       <r>   -5.1363    1.0000 </r>
       <r>   -5.0528    1.0000 </r>
       <r>   -4.9329    1.0000 </r>
       <r>   -4.9023    1.0000 </r>
       <r>   -4.7102    1.0000 </r>
       <r>   -4.5637    1.0000 </r>
       <r>   -4.4072    1.0000 </r>
       <r>   -4.1976    1.0000 </r>
       <r>   -4.1022    1.0000 </r>
       <r>   -3.8900    1.0000 </r>
       <r>   -3.6557    1.0000 </r>
       <r>   -3.5521    0.9999 </r>
       <r>   -3.3977    0.9958 </r>
       <r>   -3.2192    0.9151 </r>
       <r>   -3.0123    0.4639 </r>
       <r>   -2.8959    0.1805 </r>
       <r>   -2.7177    0.0149 </r>
       <r>   -2.6495    0.0040 </r>
       <r>   -2.5943    0.0012 </r>
       <r>   -2.4739    0.0000 </r>
       <r>   -2.4320    0.0000 </r>
       <r>   -2.2971    0.0000 </r>
       <r>   -2.2827    0.0000 </r>
       <r>   -2.1763    0.0000 </r>
       <r>   -2.0196    0.0000 </r>
       <r>   -1.8514    0.0000 </r>
       <r>   -1.7290    0.0000 </r>
       <r>   -1.5965    0.0000 </r>
       <r>   -1.4168    0.0000 </r>
       <r>   -1.2735    0.0000 </r>
       <r>   -1.1931    0.0000 </r>
       <r>   -1.1177    0.0000 </r>
       <r>   -0.9415    0.0000 </r>
       <r>   -0.8311    0.0000 </r>
       <r>   -0.7748    0.0000 </r>
       <r>   -0.7193    0.0000 </r>
       <r>   -0.6499    0.0000 </r>
       <r>   -0.5752    0.0000 </r>
       <r>   -0.5401    0.0000 </r>
       <r>   -0.4713    0.0000 </r>
       <r>   -0.2826    0.0000 </r>
       <r>   -0.1571    0.0000 </r>
       <r>    0.0032    0.0000 </r>
       <r>    0.1037    0.0000 </r>
       <r>    0.2746    0.0000 </r>
       <r>    0.5144    0.0000 </r>
       <r>    0.6968    0.0000 </r>
       <r>    0.8504    0.0000 </r>
       <r>    1.1832    0.0000 </r>
       <r>    1.2340    0.0000 </r>
       <r>    1.3911    0.0000 </r>
       <r>    1.4733    0.0000 </r>
       <r>    2.1645    0.0000 </r>
       <r>    2.2951    0.0000 </r>
       <r>    2.4238    0.0000 </r>
      </set>
      <set comment="kpoint 32">
       <r>  -17.5219    1.0000 </r>
       <r>  -17.1998    1.0000 </r>
       <r>  -17.0148    1.0000 </r>
       <r>  -16.4949    1.0000 </r>
       <r>  -16.3532    1.0000 </r>
       <r>  -16.3284    1.0000 </r>
       <r>  -16.2358    1.0000 </r>
       <r>  -16.1883    1.0000 </r>
       <r>  -16.1147    1.0000 </r>
       <r>  -16.0354    1.0000 </r>
       <r>  -15.9690    1.0000 </r>
       <r>  -15.9342    1.0000 </r>
       <r>  -15.8269    1.0000 </r>
       <r>  -15.7004    1.0000 </r>
       <r>  -15.6428    1.0000 </r>
       <r>  -15.5698    1.0000 </r>
       <r>  -15.4972    1.0000 </r>
       <r>  -15.4283    1.0000 </r>
       <r>   -9.6788    1.0000 </r>
       <r>   -9.5429    1.0000 </r>
       <r>   -9.4126    1.0000 </r>
       <r>   -8.8900    1.0000 </r>
       <r>   -8.7212    1.0000 </r>
       <r>   -8.5780    1.0000 </r>
       <r>   -8.4900    1.0000 </r>
       <r>   -8.4030    1.0000 </r>
       <r>   -8.3868    1.0000 </r>
       <r>   -8.3425    1.0000 </r>
       <r>   -8.3006    1.0000 </r>
       <r>   -8.2503    1.0000 </r>
       <r>   -8.2116    1.0000 </r>
       <r>   -8.1322    1.0000 </r>
       <r>   -8.0998    1.0000 </r>
       <r>   -7.9112    1.0000 </r>
       <r>   -7.7943    1.0000 </r>
       <r>   -7.5046    1.0000 </r>
       <r>   -7.3990    1.0000 </r>
       <r>   -7.3751    1.0000 </r>
       <r>   -7.3146    1.0000 </r>
       <r>   -7.1988    1.0000 </r>
       <r>   -7.1393    1.0000 </r>
       <r>   -7.0548    1.0000 </r>
       <r>   -6.9935    1.0000 </r>
       <r>   -6.9187    1.0000 </r>
       <r>   -6.8610    1.0000 </r>
       <r>   -6.7892    1.0000 </r>
       <r>   -6.7465    1.0000 </r>
       <r>   -6.6636    1.0000 </r>
       <r>   -6.4975    1.0000 </r>
       <r>   -6.4650    1.0000 </r>
       <r>   -6.4463    1.0000 </r>
       <r>   -6.4024    1.0000 </r>
       <r>   -6.2870    1.0000 </r>
       <r>   -6.2192    1.0000 </r>
       <r>   -6.1313    1.0000 </r>
       <r>   -6.0115    1.0000 </r>
       <r>   -5.9547    1.0000 </r>
       <r>   -5.8709    1.0000 </r>
       <r>   -5.8426    1.0000 </r>
       <r>   -5.7450    1.0000 </r>
       <r>   -5.6853    1.0000 </r>
       <r>   -5.5295    1.0000 </r>
       <r>   -5.4351    1.0000 </r>
       <r>   -5.4037    1.0000 </r>
       <r>   -5.3222    1.0000 </r>
       <r>   -5.2942    1.0000 </r>
       <r>   -5.1753    1.0000 </r>
       <r>   -5.0913    1.0000 </r>
       <r>   -4.9711    1.0000 </r>
       <r>   -4.6840    1.0000 </r>
       <r>   -4.5979    1.0000 </r>
       <r>   -4.4436    1.0000 </r>
       <r>   -4.1996    1.0000 </r>
       <r>   -3.9769    1.0000 </r>
       <r>   -3.8922    1.0000 </r>
       <r>   -3.6384    1.0000 </r>
       <r>   -3.5362    0.9998 </r>
       <r>   -3.4240    0.9976 </r>
       <r>   -3.2053    0.8988 </r>
       <r>   -2.9935    0.4118 </r>
       <r>   -2.8465    0.1034 </r>
       <r>   -2.6977    0.0103 </r>
       <r>   -2.6430    0.0035 </r>
       <r>   -2.5947    0.0012 </r>
       <r>   -2.5194    0.0002 </r>
       <r>   -2.4629    0.0000 </r>
       <r>   -2.3648    0.0000 </r>
       <r>   -2.3432    0.0000 </r>
       <r>   -2.1594    0.0000 </r>
       <r>   -2.0833    0.0000 </r>
       <r>   -1.8352    0.0000 </r>
       <r>   -1.7267    0.0000 </r>
       <r>   -1.4881    0.0000 </r>
       <r>   -1.4320    0.0000 </r>
       <r>   -1.2609    0.0000 </r>
       <r>   -1.1861    0.0000 </r>
       <r>   -1.1005    0.0000 </r>
       <r>   -0.9674    0.0000 </r>
       <r>   -0.8205    0.0000 </r>
       <r>   -0.7757    0.0000 </r>
       <r>   -0.7382    0.0000 </r>
       <r>   -0.6978    0.0000 </r>
       <r>   -0.5611    0.0000 </r>
       <r>   -0.4812    0.0000 </r>
       <r>   -0.3815    0.0000 </r>
       <r>   -0.2755    0.0000 </r>
       <r>   -0.2071    0.0000 </r>
       <r>   -0.0271    0.0000 </r>
       <r>    0.0987    0.0000 </r>
       <r>    0.2071    0.0000 </r>
       <r>    0.4791    0.0000 </r>
       <r>    0.7253    0.0000 </r>
       <r>    0.8763    0.0000 </r>
       <r>    1.1416    0.0000 </r>
       <r>    1.2631    0.0000 </r>
       <r>    1.4080    0.0000 </r>
       <r>    1.4672    0.0000 </r>
       <r>    2.1337    0.0000 </r>
       <r>    2.2672    0.0000 </r>
       <r>    2.6029    0.0000 </r>
      </set>
      <set comment="kpoint 33">
       <r>  -17.5126    1.0000 </r>
       <r>  -17.2632    1.0000 </r>
       <r>  -16.9030    1.0000 </r>
       <r>  -16.4902    1.0000 </r>
       <r>  -16.4552    1.0000 </r>
       <r>  -16.3824    1.0000 </r>
       <r>  -16.2654    1.0000 </r>
       <r>  -16.1421    1.0000 </r>
       <r>  -16.0844    1.0000 </r>
       <r>  -16.0237    1.0000 </r>
       <r>  -15.9408    1.0000 </r>
       <r>  -15.8798    1.0000 </r>
       <r>  -15.8342    1.0000 </r>
       <r>  -15.7275    1.0000 </r>
       <r>  -15.6365    1.0000 </r>
       <r>  -15.5821    1.0000 </r>
       <r>  -15.4758    1.0000 </r>
       <r>  -15.4566    1.0000 </r>
       <r>   -9.7460    1.0000 </r>
       <r>   -9.4310    1.0000 </r>
       <r>   -9.3215    1.0000 </r>
       <r>   -8.9140    1.0000 </r>
       <r>   -8.8266    1.0000 </r>
       <r>   -8.7774    1.0000 </r>
       <r>   -8.5168    1.0000 </r>
       <r>   -8.4642    1.0000 </r>
       <r>   -8.3932    1.0000 </r>
       <r>   -8.2961    1.0000 </r>
       <r>   -8.2706    1.0000 </r>
       <r>   -8.2365    1.0000 </r>
       <r>   -8.1473    1.0000 </r>
       <r>   -8.0805    1.0000 </r>
       <r>   -7.9560    1.0000 </r>
       <r>   -7.9158    1.0000 </r>
       <r>   -7.7131    1.0000 </r>
       <r>   -7.5755    1.0000 </r>
       <r>   -7.5299    1.0000 </r>
       <r>   -7.4010    1.0000 </r>
       <r>   -7.3390    1.0000 </r>
       <r>   -7.1838    1.0000 </r>
       <r>   -7.1015    1.0000 </r>
       <r>   -7.0194    1.0000 </r>
       <r>   -6.9546    1.0000 </r>
       <r>   -6.9050    1.0000 </r>
       <r>   -6.8521    1.0000 </r>
       <r>   -6.8060    1.0000 </r>
       <r>   -6.7067    1.0000 </r>
       <r>   -6.6346    1.0000 </r>
       <r>   -6.6028    1.0000 </r>
       <r>   -6.4622    1.0000 </r>
       <r>   -6.4088    1.0000 </r>
       <r>   -6.3307    1.0000 </r>
       <r>   -6.2706    1.0000 </r>
       <r>   -6.2071    1.0000 </r>
       <r>   -6.0875    1.0000 </r>
       <r>   -6.0001    1.0000 </r>
       <r>   -5.9365    1.0000 </r>
       <r>   -5.8510    1.0000 </r>
       <r>   -5.8279    1.0000 </r>
       <r>   -5.8153    1.0000 </r>
       <r>   -5.7349    1.0000 </r>
       <r>   -5.6693    1.0000 </r>
       <r>   -5.6346    1.0000 </r>
       <r>   -5.5662    1.0000 </r>
       <r>   -5.3131    1.0000 </r>
       <r>   -5.1519    1.0000 </r>
       <r>   -5.0422    1.0000 </r>
       <r>   -4.9492    1.0000 </r>
       <r>   -4.8798    1.0000 </r>
       <r>   -4.7645    1.0000 </r>
       <r>   -4.5782    1.0000 </r>
       <r>   -4.3872    1.0000 </r>
       <r>   -4.3627    1.0000 </r>
       <r>   -3.9363    1.0000 </r>
       <r>   -3.7964    1.0000 </r>
       <r>   -3.6561    1.0000 </r>
       <r>   -3.5263    0.9998 </r>
       <r>   -3.4420    0.9984 </r>
       <r>   -3.2137    0.9089 </r>
       <r>   -2.9810    0.3778 </r>
       <r>   -2.9733    0.3572 </r>
       <r>   -2.6959    0.0100 </r>
       <r>   -2.6593    0.0048 </r>
       <r>   -2.5722    0.0007 </r>
       <r>   -2.4921    0.0001 </r>
       <r>   -2.4140    0.0000 </r>
       <r>   -2.3954    0.0000 </r>
       <r>   -2.3399    0.0000 </r>
       <r>   -2.1714    0.0000 </r>
       <r>   -2.1596    0.0000 </r>
       <r>   -1.8061    0.0000 </r>
       <r>   -1.7294    0.0000 </r>
       <r>   -1.4597    0.0000 </r>
       <r>   -1.4202    0.0000 </r>
       <r>   -1.2387    0.0000 </r>
       <r>   -1.1666    0.0000 </r>
       <r>   -1.0697    0.0000 </r>
       <r>   -0.9556    0.0000 </r>
       <r>   -0.8578    0.0000 </r>
       <r>   -0.7668    0.0000 </r>
       <r>   -0.7011    0.0000 </r>
       <r>   -0.6707    0.0000 </r>
       <r>   -0.5851    0.0000 </r>
       <r>   -0.5221    0.0000 </r>
       <r>   -0.4238    0.0000 </r>
       <r>   -0.3225    0.0000 </r>
       <r>   -0.1981    0.0000 </r>
       <r>   -0.1157    0.0000 </r>
       <r>    0.0514    0.0000 </r>
       <r>    0.2391    0.0000 </r>
       <r>    0.5625    0.0000 </r>
       <r>    0.6961    0.0000 </r>
       <r>    0.9673    0.0000 </r>
       <r>    1.0861    0.0000 </r>
       <r>    1.2934    0.0000 </r>
       <r>    1.4567    0.0000 </r>
       <r>    1.4990    0.0000 </r>
       <r>    2.1674    0.0000 </r>
       <r>    2.3019    0.0000 </r>
       <r>    2.4292    0.0000 </r>
      </set>
      <set comment="kpoint 34">
       <r>  -17.4946    1.0000 </r>
       <r>  -17.3195    1.0000 </r>
       <r>  -16.7321    1.0000 </r>
       <r>  -16.6467    1.0000 </r>
       <r>  -16.4629    1.0000 </r>
       <r>  -16.4180    1.0000 </r>
       <r>  -16.2346    1.0000 </r>
       <r>  -16.1627    1.0000 </r>
       <r>  -16.0677    1.0000 </r>
       <r>  -16.0310    1.0000 </r>
       <r>  -15.9121    1.0000 </r>
       <r>  -15.8629    1.0000 </r>
       <r>  -15.7834    1.0000 </r>
       <r>  -15.7224    1.0000 </r>
       <r>  -15.6793    1.0000 </r>
       <r>  -15.5524    1.0000 </r>
       <r>  -15.5101    1.0000 </r>
       <r>  -15.4633    1.0000 </r>
       <r>   -9.7879    1.0000 </r>
       <r>   -9.3018    1.0000 </r>
       <r>   -9.1581    1.0000 </r>
       <r>   -9.0602    1.0000 </r>
       <r>   -8.9804    1.0000 </r>
       <r>   -8.8527    1.0000 </r>
       <r>   -8.5557    1.0000 </r>
       <r>   -8.4665    1.0000 </r>
       <r>   -8.3982    1.0000 </r>
       <r>   -8.3107    1.0000 </r>
       <r>   -8.2535    1.0000 </r>
       <r>   -8.1939    1.0000 </r>
       <r>   -8.1428    1.0000 </r>
       <r>   -7.9848    1.0000 </r>
       <r>   -7.9080    1.0000 </r>
       <r>   -7.8079    1.0000 </r>
       <r>   -7.7395    1.0000 </r>
       <r>   -7.6331    1.0000 </r>
       <r>   -7.5332    1.0000 </r>
       <r>   -7.3966    1.0000 </r>
       <r>   -7.3602    1.0000 </r>
       <r>   -7.2968    1.0000 </r>
       <r>   -7.1019    1.0000 </r>
       <r>   -7.0172    1.0000 </r>
       <r>   -6.9570    1.0000 </r>
       <r>   -6.8643    1.0000 </r>
       <r>   -6.8342    1.0000 </r>
       <r>   -6.7196    1.0000 </r>
       <r>   -6.6795    1.0000 </r>
       <r>   -6.6401    1.0000 </r>
       <r>   -6.5104    1.0000 </r>
       <r>   -6.4480    1.0000 </r>
       <r>   -6.4165    1.0000 </r>
       <r>   -6.3640    1.0000 </r>
       <r>   -6.2814    1.0000 </r>
       <r>   -6.1649    1.0000 </r>
       <r>   -6.0892    1.0000 </r>
       <r>   -6.0718    1.0000 </r>
       <r>   -6.0285    1.0000 </r>
       <r>   -5.8572    1.0000 </r>
       <r>   -5.8267    1.0000 </r>
       <r>   -5.7670    1.0000 </r>
       <r>   -5.7521    1.0000 </r>
       <r>   -5.7174    1.0000 </r>
       <r>   -5.6722    1.0000 </r>
       <r>   -5.6004    1.0000 </r>
       <r>   -5.5294    1.0000 </r>
       <r>   -4.9983    1.0000 </r>
       <r>   -4.9713    1.0000 </r>
       <r>   -4.8679    1.0000 </r>
       <r>   -4.8105    1.0000 </r>
       <r>   -4.6773    1.0000 </r>
       <r>   -4.6094    1.0000 </r>
       <r>   -4.5137    1.0000 </r>
       <r>   -4.3387    1.0000 </r>
       <r>   -3.9354    1.0000 </r>
       <r>   -3.7976    1.0000 </r>
       <r>   -3.6217    1.0000 </r>
       <r>   -3.5381    0.9999 </r>
       <r>   -3.4445    0.9985 </r>
       <r>   -3.2195    0.9154 </r>
       <r>   -3.0454    0.5572 </r>
       <r>   -2.9773    0.3677 </r>
       <r>   -2.7178    0.0149 </r>
       <r>   -2.7072    0.0123 </r>
       <r>   -2.5388    0.0003 </r>
       <r>   -2.4648    0.0000 </r>
       <r>   -2.4021    0.0000 </r>
       <r>   -2.3428    0.0000 </r>
       <r>   -2.2993    0.0000 </r>
       <r>   -2.2557    0.0000 </r>
       <r>   -2.1684    0.0000 </r>
       <r>   -1.7899    0.0000 </r>
       <r>   -1.7358    0.0000 </r>
       <r>   -1.4604    0.0000 </r>
       <r>   -1.4101    0.0000 </r>
       <r>   -1.2295    0.0000 </r>
       <r>   -1.1585    0.0000 </r>
       <r>   -1.0480    0.0000 </r>
       <r>   -0.9395    0.0000 </r>
       <r>   -0.8928    0.0000 </r>
       <r>   -0.7227    0.0000 </r>
       <r>   -0.6690    0.0000 </r>
       <r>   -0.6365    0.0000 </r>
       <r>   -0.6048    0.0000 </r>
       <r>   -0.5642    0.0000 </r>
       <r>   -0.4832    0.0000 </r>
       <r>   -0.4052    0.0000 </r>
       <r>   -0.2255    0.0000 </r>
       <r>   -0.1004    0.0000 </r>
       <r>    0.0361    0.0000 </r>
       <r>    0.2811    0.0000 </r>
       <r>    0.6255    0.0000 </r>
       <r>    0.6487    0.0000 </r>
       <r>    1.0074    0.0000 </r>
       <r>    1.0826    0.0000 </r>
       <r>    1.3057    0.0000 </r>
       <r>    1.4906    0.0000 </r>
       <r>    1.5118    0.0000 </r>
       <r>    2.2597    0.0000 </r>
       <r>    2.2725    0.0000 </r>
       <r>    2.3880    0.0000 </r>
      </set>
     </set>
    </set>
   </array>
  </eigenvalues>
  <separator name="orbital magnetization" >
   <v name="MAGDIPOLOUT">      0.00000000      0.00000000      0.00000000</v>
  </separator>
 </calculation>
 <structure name="finalpos" >
  <crystal>
   <varray name="basis" >
    <v>       8.27964340       4.77940236       0.00000000 </v>
    <v>      -8.30086429       4.81612538       0.00000000 </v>
    <v>       0.00000000       0.00000000      30.00000000 </v>
   </varray>
   <i name="volume">   2386.46913414 </i>
   <varray name="rec_basis" >
    <v>       0.06054290       0.10434911       0.00000000 </v>
    <v>      -0.06008126       0.10408234       0.00000000 </v>
    <v>       0.00000000       0.00000000       0.03333333 </v>
   </varray>
  </crystal>
  <varray name="positions" >
   <v>       0.33055410       0.32803202       0.00006554 </v>
   <v>      -0.00451451       0.66343704      -0.00029126 </v>
   <v>       0.66415083       0.66248924       0.00011237 </v>
   <v>       0.00303390       0.01285159      -0.00021985 </v>
   <v>       0.68342066       0.02357427       0.00007133 </v>
   <v>       0.67172206       0.31602823      -0.00004355 </v>
   <v>       0.97836672       0.31505865      -0.00024610 </v>
   <v>       0.33776656       0.01212858      -0.00006133 </v>
   <v>       0.33489725       0.66573322       0.00049986 </v>
   <v>       0.11648185       0.22887805       0.94774478 </v>
   <v>       0.22688202       0.11931017       0.05246893 </v>
   <v>       0.10651060       0.55464322       0.95012157 </v>
   <v>       0.21973317       0.43957475       0.04962233 </v>
   <v>       0.10869082       0.88464888       0.95011944 </v>
   <v>       0.21538990       0.77706450       0.05017431 </v>
   <v>       0.44350876       0.22678270       0.94821157 </v>
   <v>       0.55412820       0.10801720       0.05455601 </v>
   <v>       0.44580246       0.55192716       0.95003328 </v>
   <v>       0.55515657       0.44308510       0.04827587 </v>
   <v>       0.44648166       0.89066052       0.94942206 </v>
   <v>       0.56082430       0.77966614       0.04952655 </v>
   <v>       0.77927437       0.22180854       0.94257618 </v>
   <v>       0.89020659       0.11191240       0.05550743 </v>
   <v>       0.77776699       0.55680117       0.95076206 </v>
   <v>       0.89100859       0.44635842       0.05215337 </v>
   <v>       0.77485117       0.88455089       0.94974241 </v>
   <v>       0.88611887       0.77319182       0.04909471 </v>
  </varray>
 </structure>
</modeling>
