unknown system                          
           1
     8.858978    5.104966    0.000000
    -8.857820    5.102975    0.000000
     0.000000    0.000000   30.000000
   V    Mo   W    S 
   3   3   3  18
Direct configuration=     1
   0.00000000  0.66666669  0.00000000
   0.66666669  0.33333334  0.00000000
   0.00000000  0.00000000  0.00000000
   0.33333334  0.66666669  0.00000000
   0.33333334  0.33333334  0.00000000
   1.00000000  0.33333334  0.00000000
   0.33333334  0.00000000  0.00000000
   0.66666669  0.00000000  0.00000000
   0.66666669  0.66666669  0.00000000
   0.11068511  0.22244981  0.95539999
   0.22244981  0.11068511  0.04460000
   0.11068511  0.55578315  0.95539999
   0.22244981  0.44401845  0.04460000
   0.11068511  0.88911647  0.95539999
   0.22244981  0.77735180  0.04460000
   0.44401845  0.22244981  0.95539999
   0.55578315  0.11068511  0.04460000
   0.44401845  0.55578315  0.95539999
   0.55578315  0.44401845  0.04460000
   0.44401845  0.88911647  0.95539999
   0.55578315  0.77735180  0.04460000
   0.77735180  0.22244981  0.95539999
   0.88911647  0.11068511  0.04460000
   0.77735180  0.55578315  0.95539999
   0.88911647  0.44401845  0.04460000
   0.77735180  0.88911647  0.95539999
   0.88911647  0.77735180  0.04460000
unknown system                          
           1
     8.670405    4.998722    0.000000
    -8.669414    4.997019    0.000000
     0.000000    0.000000   30.000000
   V    Mo   W    S 
   3   3   3  18
Direct configuration=     2
   0.00081917  0.66549002  0.00007135
   0.66698109  0.33361167  0.00014806
   0.00104881  0.00185430 -0.00011675
   0.33202500  0.66384317 -0.00002833
   0.33186508  0.33483667 -0.00023097
   1.00265629  0.33480900  0.00000156
   0.33277472 -0.00009724 -0.00007540
   0.66691012  0.00022385  0.00015223
   0.66447645  0.66515233  0.00008241
   0.10884697  0.21755510  0.95188072
   0.21813206  0.10834987  0.04803045
   0.10865392  0.55789937  0.95197286
   0.22210203  0.44443239  0.04932752
   0.10754664  0.88738958  0.95309048
   0.21818212  0.77645071  0.04803922
   0.44828679  0.22336008  0.95200709
   0.55737865  0.11483789  0.04817326
   0.44525774  0.55586119  0.95067939
   0.55852260  0.44288900  0.04799326
   0.44469917  0.88945131  0.95079935
   0.55625159  0.77825571  0.04928337
   0.77484897  0.22360673  0.95206616
   0.89014478  0.10810058  0.04796749
   0.77942857  0.55370629  0.95305062
   0.88651536  0.44649814  0.04695176
   0.78158976  0.89063337  0.95188906
   0.89226999  0.77921338  0.04679367
unknown system                          
           1
     8.488242    4.899369    0.000000
    -8.487494    4.898086    0.000000
     0.000000    0.000000   30.000000
   V    Mo   W    S 
   3   3   3  18
Direct configuration=     3
   0.00109315  0.66520137  0.00012677
   0.66700141  0.33351419  0.00012707
   0.00139051  0.00244966 -0.00008737
   0.33185269  0.66281147 -0.00002965
   0.33142027  0.33563601 -0.00024886
   1.00380123  0.33533466 -0.00000394
   0.33293353 -0.00007946 -0.00012282
   0.66671064  0.00012203  0.00011925
   0.66345683  0.66479007  0.00014132
   0.10876465  0.21743021  0.95176431
   0.21815778  0.10817317  0.04798048
   0.10858076  0.55794180  0.95187743
   0.22210369  0.44441227  0.04952909
   0.10771356  0.88744639  0.95315279
   0.21819954  0.77661324  0.04800900
   0.44825604  0.22319116  0.95207870
   0.55734995  0.11472239  0.04816442
   0.44546546  0.55597377  0.95051860
   0.55864899  0.44307590  0.04798787
   0.44478973  0.88966007  0.95086089
   0.55645305  0.77834195  0.04930177
   0.77471668  0.22342225  0.95214640
   0.88996055  0.10794423  0.04795260
   0.77933944  0.55381797  0.95315444
   0.88651753  0.44654889  0.04691425
   0.78146240  0.89058006  0.95197083
   0.89207438  0.77913873  0.04661426
unknown system                          
           1
     8.290988    4.780216    0.000000
    -8.290233    4.778922    0.000000
     0.000000    0.000000   30.000000
   V    Mo   W    S 
   3   3   3  18
Direct configuration=     4
   0.00226101  0.66432592  0.00030264
   0.66669200  0.33252066 -0.00000801
   0.00253890  0.00472153  0.00007631
   0.33183410  0.65903726 -0.00002312
   0.32989187  0.33905497 -0.00022011
   1.00816989  0.33707915 -0.00003188
   0.33420059  0.00010346 -0.00023725
   0.66542621 -0.00058876 -0.00005382
   0.65918870  0.66374890  0.00030530
   0.10811753  0.21631155  0.94984679
   0.21732426  0.10779097  0.04919674
   0.10798085  0.55845490  0.95007849
   0.22210027  0.44430903  0.05190636
   0.10664100  0.88677423  0.95203631
   0.21729217  0.77603660  0.04932162
   0.44917871  0.22389853  0.95094390
   0.55792656  0.11577168  0.04966050
   0.44544485  0.55599059  0.94823294
   0.55881043  0.44240485  0.04941512
   0.44465470  0.88945374  0.94950110
   0.55628797  0.77828687  0.05102138
   0.77455432  0.22404623  0.95105271
   0.89051312  0.10760080  0.04931737
   0.77976719  0.55358295  0.95223877
   0.88623399  0.44698428  0.04807887
   0.78240159  0.89093602  0.95081942
   0.89278165  0.77957754  0.04722146
unknown system                          
           1
     8.302344    4.781778    0.000000
    -8.300716    4.778970    0.000000
     0.000000    0.000000   30.000000
   V    Mo   W    S 
   3   3   3  18
Direct configuration=     5
   0.00445931  0.66302791  0.00047353
   0.66591308  0.32990454 -0.00026685
   0.00487227  0.00902513  0.00038070
   0.33257332  0.65243539  0.00000010
   0.32728457  0.34558897 -0.00010241
   1.01605800  0.34010813 -0.00011799
   0.33700110  0.00059947 -0.00029418
   0.66242452 -0.00209125 -0.00027952
   0.65100244  0.66175926  0.00040767
   0.10807022  0.21595536  0.94709722
   0.21717450  0.10844479  0.05056175
   0.10793173  0.55863919  0.94768420
   0.22204877  0.44434020  0.05533750
   0.10558226  0.88599463  0.95061284
   0.21692749  0.77506660  0.05091551
   0.44940938  0.22518747  0.94961983
   0.55864337  0.11702898  0.05174862
   0.44471739  0.55547829  0.94491935
   0.55793841  0.44148900  0.05118138
   0.44373824  0.88782404  0.94774023
   0.55507855  0.77798959  0.05343933
   0.77571065  0.22519181  0.94979987
   0.89126121  0.10807182  0.05092013
   0.77993212  0.55356575  0.95123294
   0.88650481  0.44703257  0.04972560
   0.78319783  0.89083165  0.94947727
   0.89275890  0.77972518  0.04778529
unknown system                          
           1
     8.295991    4.778911    0.000000
    -8.292736    4.773278    0.000000
     0.000000    0.000000   30.000000
   V    Mo   W    S 
   3   3   3  18
Direct configuration=     6
   0.00523274  0.66265895  0.00046569
   0.66585674  0.32866750 -0.00023713
   0.00601193  0.01062458  0.00034141
   0.33323302  0.65286036  0.00007653
   0.32697834  0.34572873 -0.00012738
   1.01683644  0.34047787 -0.00007503
   0.33803899  0.00055878 -0.00030516
   0.66066330 -0.00295973 -0.00023536
   0.64919149  0.66146759  0.00032622
   0.10864487  0.21662059  0.94691878
   0.21815172  0.10950820  0.05044127
   0.10863678  0.55842813  0.94759995
   0.22207226  0.44464435  0.05566384
   0.10583776  0.88614012  0.95069476
   0.21770202  0.77492688  0.05086513
   0.44857506  0.22553462  0.94977938
   0.55878800  0.11697832  0.05193215
   0.44427997  0.55508988  0.94457442
   0.55706617  0.44147394  0.05109530
   0.44308247  0.88673188  0.94764627
   0.55442898  0.77788553  0.05366343
   0.77681965  0.22529435  0.94991603
   0.89117152  0.10872187  0.05076486
   0.77951706  0.55379847  0.95144504
   0.88687594  0.44654742  0.04969505
   0.78275947  0.89045428  0.94960431
   0.89176177  0.77935098  0.04747013
unknown system                          
           1
     8.300819    4.781650    0.000000
    -8.296979    4.775002    0.000000
     0.000000    0.000000   30.000000
   V    Mo   W    S 
   3   3   3  18
Direct configuration=     7
   0.00625350  0.66205558  0.00045479
   0.66591775  0.32730000 -0.00027637
   0.00765962  0.01271812  0.00035809
   0.33399551  0.65276030  0.00011115
   0.32610542  0.34654487 -0.00007198
   1.01859452  0.34142480 -0.00001754
   0.33931071  0.00039839 -0.00035202
   0.65819446 -0.00427505 -0.00024222
   0.64669021  0.66105173  0.00027909
   0.10894535  0.21705265  0.94658958
   0.21891984  0.11021401  0.05040321
   0.10912948  0.55832200  0.94741111
   0.22217374  0.44489406  0.05600905
   0.10601586  0.88622414  0.95073768
   0.21818332  0.77487471  0.05095676
   0.44810931  0.22578722  0.94988675
   0.55891566  0.11698638  0.05225612
   0.44376632  0.55476718  0.94415559
   0.55645851  0.44140655  0.05107417
   0.44254231  0.88596800  0.94738712
   0.55402317  0.77786858  0.05403238
   0.77755288  0.22525645  0.95000391
   0.89104192  0.10914552  0.05064876
   0.77916521  0.55389505  0.95168017
   0.88711200  0.44620098  0.04974431
   0.78238702  0.89025518  0.94969292
   0.89105087  0.77911704  0.04708732
unknown system                          
           1
     8.281474    4.769280    0.000000
    -8.280245    4.767166    0.000000
     0.000000    0.000000   30.000000
   V    Mo   W    S 
   3   3   3  18
Direct configuration=     8
   0.00649378  0.66193689  0.00045475
   0.66599535  0.32702104 -0.00028394
   0.00814077  0.01322645  0.00036102
   0.33418757  0.65306977  0.00012017
   0.32586507  0.34644868 -0.00007871
   1.01883234  0.34157500 -0.00000873
   0.33955007  0.00029913 -0.00036212
   0.65751446 -0.00465951 -0.00023534
   0.64634689  0.66106065  0.00027165
   0.10897627  0.21712426  0.94659580
   0.21906933  0.11030971  0.05035380
   0.10922369  0.55830144  0.94742576
   0.22221533  0.44499454  0.05599744
   0.10608003  0.88627235  0.95079610
   0.21825960  0.77492188  0.05094674
   0.44803482  0.22578552  0.94996511
   0.55889954  0.11693435  0.05227474
   0.44365409  0.55469051  0.94415905
   0.55638193  0.44141882  0.05100935
   0.44245606  0.88587623  0.94734556
   0.55400474  0.77789949  0.05406070
   0.77763817  0.22515107  0.95007391
   0.89096581  0.10918902  0.05054796
   0.77908000  0.55390306  0.95178157
   0.88713452  0.44613349  0.04971166
   0.78228714  0.89023123  0.94976993
   0.89092707  0.77909937  0.04694597
unknown system                          
           1
     8.284725    4.770298    0.000000
    -8.282761    4.766906    0.000000
     0.000000    0.000000   30.000000
   V    Mo   W    S 
   3   3   3  18
Direct configuration=     9
   0.00507926  0.66260196  0.00044889
   0.66523123  0.32774229 -0.00024582
   0.00589370  0.01124549  0.00032681
   0.33363548  0.65174978  0.00011230
   0.32693441  0.34658957 -0.00010677
   1.01747008  0.34020000 -0.00005615
   0.33889574  0.00135237 -0.00030430
   0.66080100 -0.00262611 -0.00026847
   0.64780986  0.66106299  0.00028900
   0.10897626  0.21689008  0.94667004
   0.21845391  0.11000603  0.05047279
   0.10907590  0.55826655  0.94737392
   0.22200675  0.44455032  0.05603807
   0.10591749  0.88629209  0.95057500
   0.21833522  0.77478484  0.05094293
   0.44831085  0.22586558  0.94966530
   0.55907886  0.11727599  0.05217708
   0.44412077  0.55495809  0.94414781
   0.55665234  0.44139883  0.05125918
   0.44277505  0.88608943  0.94761931
   0.55396705  0.77770267  0.05387812
   0.77740338  0.22576682  0.94981280
   0.89144037  0.10910845  0.05097848
   0.77915976  0.55373819  0.95134757
   0.88689924  0.44613160  0.04983116
   0.78272602  0.89024194  0.94947111
   0.89116445  0.77922861  0.04754373
unknown system                          
           1
     8.295815    4.776325    0.000000
    -8.291944    4.769622    0.000000
     0.000000    0.000000   30.000000
   V    Mo   W    S 
   3   3   3  18
Direct configuration=    10
   0.00536964  0.66240361  0.00045557
   0.66509598  0.32703145 -0.00025398
   0.00641391  0.01209152  0.00032674
   0.33391727  0.65163281  0.00013547
   0.32663510  0.34682717 -0.00010856
   1.01805561  0.34036709 -0.00004146
   0.33952427  0.00150163 -0.00031341
   0.66003669 -0.00293124 -0.00027300
   0.64685722  0.66092202  0.00027130
   0.10911324  0.21702802  0.94651698
   0.21871552  0.11029077  0.05047453
   0.10930787  0.55820064  0.94727443
   0.22202760  0.44464020  0.05623881
   0.10598620  0.88637152  0.95057409
   0.21858309  0.77477053  0.05098052
   0.44816854  0.22602243  0.94966361
   0.55918978  0.11734875  0.05234393
   0.44391307  0.55479090  0.94391891
   0.55641844  0.44136138  0.05128796
   0.44256100  0.88573979  0.94751562
   0.55379543  0.77771970  0.05404757
   0.77771153  0.22581602  0.94981405
   0.89143719  0.10926382  0.05098869
   0.77896693  0.55371975  0.95140750
   0.88693546  0.44594582  0.04986551
   0.78262729  0.89016128  0.94947184
   0.89085058  0.77917708  0.04741666
unknown system                          
           1
     8.297459    4.777606    0.000000
    -8.293791    4.771257    0.000000
     0.000000    0.000000   30.000000
   V    Mo   W    S 
   3   3   3  18
Direct configuration=    11
   0.00657709  0.66176132  0.00047011
   0.66527245  0.32556077 -0.00026643
   0.00824593  0.01438913  0.00033426
   0.33443880  0.65210549  0.00016208
   0.32561856  0.34694635 -0.00005750
   1.01952759  0.34132097  0.00003306
   0.34077442  0.00115873 -0.00036818
   0.65734408 -0.00435615 -0.00026371
   0.64484722  0.66082495  0.00023185
   0.10927136  0.21731325  0.94632042
   0.21939883  0.11077271  0.05035315
   0.10966771  0.55809391  0.94730994
   0.22214606  0.44493244  0.05634618
   0.10627406  0.88653606  0.95079887
   0.21887552  0.77491235  0.05091870
   0.44783441  0.22613415  0.94983013
   0.55923784  0.11716581  0.05259228
   0.44340935  0.55443584  0.94372140
   0.55598215  0.44143128  0.05111246
   0.44215581  0.88526616  0.94733419
   0.55369975  0.77795097  0.05428312
   0.77823769  0.22547930  0.94998641
   0.89113546  0.10944694  0.05073556
   0.77863435  0.55379785  0.95180105
   0.88715840  0.44573396  0.04974679
   0.78217561  0.89006056  0.94969455
   0.89027396  0.77903934  0.04683915
unknown system                          
           1
     8.315397    4.788828    0.000000
    -8.312432    4.783703    0.000000
     0.000000    0.000000   30.000000
   V    Mo   W    S 
   3   3   3  18
Direct configuration=    12
   0.00635937  0.66186687  0.00046709
   0.66529617  0.32591328 -0.00026066
   0.00787798  0.01386096  0.00033012
   0.33428626  0.65206779  0.00015295
   0.32585910  0.34690626 -0.00006022
   1.01920149  0.34121408  0.00002102
   0.34047616  0.00115150 -0.00035673
   0.65785249 -0.00409006 -0.00026314
   0.64530428  0.66083925  0.00023967
   0.10923721  0.21726182  0.94636940
   0.21928534  0.11067847  0.05037487
   0.10958047  0.55812769  0.94732960
   0.22212722  0.44487743  0.05629591
   0.10621997  0.88648512  0.95076725
   0.21878445  0.77488368  0.05091425
   0.44789826  0.22610360  0.94980517
   0.55922161  0.11718573  0.05253036
   0.44350395  0.55450680  0.94378143
   0.55607474  0.44141502  0.05113429
   0.44224215  0.88537955  0.94737565
   0.55374292  0.77792693  0.05422628
   0.77811810  0.22551870  0.94996170
   0.89115860  0.10939727  0.05077250
   0.77872599  0.55379364  0.95173726
   0.88712560  0.44580338  0.04975103
   0.78224893  0.89009223  0.94965883
   0.89040566  0.77904745  0.04694401
unknown system                          
           1
     8.315225    4.788582    0.000000
    -8.312970    4.784693    0.000000
     0.000000    0.000000   30.000000
   V    Mo   W    S 
   3   3   3  18
Direct configuration=    13
   0.00588117  0.66192620  0.00045988
   0.66546523  0.32632863 -0.00026909
   0.00780946  0.01357100  0.00034147
   0.33415998  0.65207404  0.00015154
   0.32564781  0.34656441 -0.00009410
   1.01891743  0.34085791 -0.00001034
   0.34015105  0.00130831 -0.00035606
   0.65839100 -0.00369263 -0.00026223
   0.64590963  0.66079937  0.00026529
   0.10914241  0.21719449  0.94658371
   0.21907949  0.11047105  0.05027555
   0.10952709  0.55815787  0.94741901
   0.22211160  0.44486066  0.05613641
   0.10622095  0.88654579  0.95083982
   0.21873914  0.77490997  0.05085033
   0.44804523  0.22599829  0.94992887
   0.55919932  0.11721598  0.05234124
   0.44361155  0.55461236  0.94396793
   0.55628638  0.44139364  0.05103819
   0.44240652  0.88560346  0.94748117
   0.55383438  0.77789026  0.05405903
   0.77790733  0.22549274  0.95007526
   0.89116015  0.10929362  0.05063077
   0.77871227  0.55362978  0.95174895
   0.88697865  0.44579512  0.04967677
   0.78233477  0.89021065  0.94976864
   0.89058445  0.77920147  0.04695189
unknown system                          
           1
     8.315883    4.787672    0.000000
    -8.313067    4.782818    0.000000
     0.000000    0.000000   30.000000
   V    Mo   W    S 
   3   3   3  18
Direct configuration=    14
   0.00536399  0.66206718  0.00046405
   0.66553150  0.32684209 -0.00025137
   0.00736441  0.01292942  0.00033840
   0.33396333  0.65181779  0.00014007
   0.32580173  0.34650472 -0.00009233
   1.01853423  0.34057882 -0.00002436
   0.33973493  0.00142044 -0.00034438
   0.65921587 -0.00319347 -0.00027471
   0.64652518  0.66073978  0.00028754
   0.10908862  0.21711332  0.94670229
   0.21888608  0.11032492  0.05025133
   0.10944635  0.55816815  0.94749684
   0.22205133  0.44475163  0.05602308
   0.10619329  0.88654723  0.95084356
   0.21868415  0.77490039  0.05078058
   0.44813206  0.22594178  0.94994173
   0.55919314  0.11726314  0.05219865
   0.44378206  0.55473246  0.94409388
   0.55641382  0.44138629  0.05101594
   0.44257214  0.88580592  0.94761934
   0.55390642  0.77784249  0.05391006
   0.77775807  0.22557402  0.95008665
   0.89122168  0.10923149  0.05062959
   0.77877138  0.55355913  0.95167171
   0.88690913  0.44583986  0.04963668
   0.78243480  0.89025283  0.94978600
   0.89073476  0.77927262  0.04706907
unknown system                          
           1
     8.316669    4.787450    0.000000
    -8.312168    4.779672    0.000000
     0.000000    0.000000   30.000000
   V    Mo   W    S 
   3   3   3  18
Direct configuration=    15
   0.00453587  0.66213146  0.00050207
   0.66592730  0.32730460 -0.00020443
   0.00738897  0.01241782  0.00031591
   0.33409781  0.65128982  0.00010755
   0.32587934  0.34681866 -0.00011409
   1.01855357  0.34071841 -0.00003603
   0.33943770  0.00152379 -0.00034317
   0.65950886 -0.00276008 -0.00029230
   0.64652353  0.66032676  0.00030724
   0.10909365  0.21701686  0.94669580
   0.21886251  0.11035406  0.05024664
   0.10947394  0.55819086  0.94769645
   0.22198891  0.44472055  0.05602321
   0.10614653  0.88654555  0.95091654
   0.21868618  0.77485499  0.05051496
   0.44802966  0.22599061  0.95000645
   0.55923791  0.11732897  0.05208542
   0.44387576  0.55468584  0.94420179
   0.55625981  0.44128654  0.05094424
   0.44257664  0.88577987  0.94785574
   0.55397530  0.77783925  0.05370949
   0.77782559  0.22569977  0.95008478
   0.89121055  0.10914841  0.05061648
   0.77885898  0.55353715  0.95161559
   0.88695556  0.44591929  0.04953462
   0.78253158  0.89021416  0.94991275
   0.89077244  0.77933048  0.04709618
unknown system                          
           1
     8.310423    4.783738    0.000000
    -8.306930    4.777708    0.000000
     0.000000    0.000000   30.000000
   V    Mo   W    S 
   3   3   3  18
Direct configuration=    16
   0.00495016  0.66161910  0.00051109
   0.66638734  0.32624366 -0.00025928
   0.00925075  0.01417494  0.00034194
   0.33468448  0.65142978  0.00018185
   0.32498094  0.34693459 -0.00008818
   1.01969409  0.34145818  0.00000371
   0.34043276  0.00153372 -0.00036333
   0.65726232 -0.00366950 -0.00026208
   0.64499482  0.66005713  0.00026932
   0.10919793  0.21727029  0.94646119
   0.21943645  0.11081524  0.05025964
   0.10976047  0.55822823  0.94763852
   0.22211092  0.44504088  0.05623757
   0.10622624  0.88654998  0.95097643
   0.21888795  0.77490244  0.05049147
   0.44782379  0.22619132  0.95013045
   0.55924546  0.11722087  0.05234408
   0.44350817  0.55432697  0.94390896
   0.55575990  0.44116840  0.05087419
   0.44210760  0.88523549  0.94762034
   0.55389143  0.77802128  0.05394992
   0.77827490  0.22551355  0.95013966
   0.89101707  0.10927456  0.05043964
   0.77867962  0.55363722  0.95183045
   0.88715658  0.44578283  0.04956416
   0.78218473  0.89005103  0.95007406
   0.89030757  0.77920228  0.04672413
unknown system                          
           1
     8.308219    4.781498    0.000000
    -8.307465    4.780219    0.000000
     0.000000    0.000000   30.000000
   V    Mo   W    S 
   3   3   3  18
Direct configuration=    17
   0.00508108  0.66190717  0.00050328
   0.66593072  0.32666277 -0.00024447
   0.00806873  0.01338251  0.00034285
   0.33427919  0.65138812  0.00016987
   0.32549824  0.34689600 -0.00008075
   1.01916101  0.34106897 -0.00000747
   0.33999449  0.00143247 -0.00034172
   0.65849346 -0.00330286 -0.00026854
   0.64574486  0.66033847  0.00028355
   0.10917937  0.21717174  0.94656286
   0.21915230  0.11057191  0.05022301
   0.10959406  0.55815881  0.94763784
   0.22206115  0.44487378  0.05612101
   0.10621469  0.88654452  0.95095216
   0.21880908  0.77489651  0.05054175
   0.44787695  0.22604531  0.95003625
   0.55923123  0.11720935  0.05223290
   0.44368700  0.55452940  0.94401960
   0.55601944  0.44130247  0.05093015
   0.44237356  0.88551730  0.94771268
   0.55388669  0.77794090  0.05386182
   0.77807183  0.22559713  0.95011835
   0.89111651  0.10925468  0.05056298
   0.77876231  0.55364521  0.95175605
   0.88709861  0.44585915  0.04954494
   0.78232481  0.89010805  0.94994255
   0.89050307  0.77921461  0.04688641
unknown system                          
           1
     8.303555    4.780611    0.000000
    -8.301076    4.776333    0.000000
     0.000000    0.000000   30.000000
   V    Mo   W    S 
   3   3   3  18
Direct configuration=    18
   0.00511278  0.66263061  0.00047930
   0.66495568  0.32770373 -0.00022223
   0.00538838  0.01168170  0.00034171
   0.33339254  0.65102395  0.00014007
   0.32655561  0.34679231 -0.00008740
   1.01798182  0.34003173 -0.00004820
   0.33894114  0.00132122 -0.00028561
   0.66156414 -0.00224212 -0.00027919
   0.64740346  0.66086388  0.00029816
   0.10916066  0.21690958  0.94674490
   0.21851792  0.11007875  0.05015730
   0.10928711  0.55805745  0.94764624
   0.22193214  0.44449991  0.05596856
   0.10611894  0.88650792  0.95089040
   0.21871107  0.77480913  0.05062023
   0.44790771  0.22579055  0.94979813
   0.55925697  0.11720832  0.05202079
   0.44408581  0.55494049  0.94418354
   0.55645956  0.44149626  0.05111168
   0.44291168  0.88599319  0.94794740
   0.55383727  0.77779870  0.05368513
   0.77775374  0.22590337  0.95002601
   0.89137723  0.10920189  0.05090190
   0.77897842  0.55370049  0.95153632
   0.88701836  0.44603669  0.04952144
   0.78270498  0.89021790  0.94962954
   0.89089933  0.77925686  0.04727381
unknown system                          
           1
     8.308531    4.783461    0.000000
    -8.305132    4.777586    0.000000
     0.000000    0.000000   30.000000
   V    Mo   W    S 
   3   3   3  18
Direct configuration=    19
   0.00609263  0.66233132  0.00047426
   0.66449506  0.32691774 -0.00026382
   0.00529842  0.01255959  0.00032595
   0.33332853  0.65085235  0.00011932
   0.32666871  0.34732339 -0.00011463
   1.01866358  0.34044075 -0.00002336
   0.33977467  0.00119865 -0.00034037
   0.66101084 -0.00261594 -0.00027719
   0.64625798  0.66080439  0.00027341
   0.10930604  0.21710857  0.94659360
   0.21888244  0.11033838  0.05013031
   0.10941738  0.55798164  0.94757467
   0.22199012  0.44456457  0.05613337
   0.10619682  0.88651053  0.95096145
   0.21884511  0.77478539  0.05069865
   0.44770877  0.22581310  0.94983803
   0.55935432  0.11715499  0.05215970
   0.44377750  0.55476517  0.94403572
   0.55621889  0.44155655  0.05110269
   0.44277301  0.88570622  0.94787189
   0.55374042  0.77788987  0.05384923
   0.77801496  0.22585411  0.95008770
   0.89131563  0.10940260  0.05096841
   0.77885926  0.55385635  0.95172885
   0.88716607  0.44593314  0.04948198
   0.78249313  0.89012520  0.94958270
   0.89056415  0.77905583  0.04702738
unknown system                          
           1
     8.311224    4.784675    0.000000
    -8.308079    4.779240    0.000000
     0.000000    0.000000   30.000000
   V    Mo   W    S 
   3   3   3  18
Direct configuration=    20
   0.00631927  0.66197729  0.00048252
   0.66487669  0.32627639 -0.00027573
   0.00666224  0.01363065  0.00033562
   0.33379595  0.65123237  0.00014739
   0.32603516  0.34725400 -0.00010504
   1.01930674  0.34090912  0.00000092
   0.34037302  0.00117802 -0.00036124
   0.65935279 -0.00330851 -0.00026789
   0.64538545  0.66065645  0.00026053
   0.10931074  0.21722343  0.94649158
   0.21917814  0.11055534  0.05014406
   0.10957335  0.55802145  0.94752058
   0.22207939  0.44477192  0.05622592
   0.10625525  0.88655075  0.95099306
   0.21890721  0.77484418  0.05071452
   0.44768723  0.22593608  0.94993457
   0.55932565  0.11713790  0.05229829
   0.44355488  0.55457105  0.94392572
   0.55602352  0.44146527  0.05102771
   0.44251080  0.88545608  0.94770085
   0.55372076  0.77795355  0.05398018
   0.77818825  0.22568547  0.95012981
   0.89118840  0.10944544  0.05080478
   0.77872809  0.55383422  0.95185208
   0.88718599  0.44581799  0.04951454
   0.78231727  0.89008372  0.94971660
   0.89037221  0.77905485  0.04680798
unknown system                          
           1
     8.311074    4.784930    0.000000
    -8.306174    4.776447    0.000000
     0.000000    0.000000   30.000000
   V    Mo   W    S 
   3   3   3  18
Direct configuration=    21
   0.00709728  0.66186975  0.00048732
   0.66432740  0.32576383 -0.00029350
   0.00621289  0.01413503  0.00034787
   0.33362876  0.65121011  0.00019530
   0.32612870  0.34744888 -0.00008301
   1.01960333  0.34093018  0.00003165
   0.34089550  0.00109540 -0.00035318
   0.65939966 -0.00339004 -0.00025399
   0.64486295  0.66075491  0.00025179
   0.10940216  0.21730996  0.94641520
   0.21928826  0.11061188  0.05006242
   0.10962426  0.55793788  0.94741471
   0.22213715  0.44478053  0.05630139
   0.10631454  0.88659452  0.95104441
   0.21901303  0.77484593  0.05079971
   0.44758971  0.22593143  0.94991294
   0.55938221  0.11712478  0.05237412
   0.44342333  0.55453819  0.94379789
   0.55595010  0.44151173  0.05104689
   0.44252189  0.88531039  0.94763515
   0.55358871  0.77796173  0.05406600
   0.77832781  0.22571769  0.95015852
   0.89120592  0.10958879  0.05088186
   0.77863615  0.55391516  0.95196161
   0.88720496  0.44571900  0.04949671
   0.78224798  0.89003567  0.94963756
   0.89019982  0.77896114  0.04666257
unknown system                          
           1
     8.306122    4.782073    0.000000
    -8.301734    4.774477    0.000000
     0.000000    0.000000   30.000000
   V    Mo   W    S 
   3   3   3  18
Direct configuration=    22
   0.00744300  0.66139401  0.00049375
   0.66495750  0.32497842 -0.00031130
   0.00821337  0.01559763  0.00036239
   0.33434355  0.65188985  0.00020477
   0.32521218  0.34732296 -0.00008108
   1.02050802  0.34166507  0.00005435
   0.34161899  0.00093082 -0.00040059
   0.65691691 -0.00455133 -0.00025636
   0.64373152  0.66059380  0.00023665
   0.10937390  0.21745202  0.94630848
   0.21965894  0.11086190  0.05007628
   0.10979736  0.55797565  0.94738136
   0.22225707  0.44508284  0.05637534
   0.10641360  0.88664551  0.95110285
   0.21904245  0.77496085  0.05081834
   0.44755450  0.22603443  0.95007314
   0.55929839  0.11704433  0.05253378
   0.44312939  0.55429198  0.94373123
   0.55573257  0.44144004  0.05091039
   0.44219155  0.88506714  0.94741091
   0.55360793  0.77804363  0.05422671
   0.77850874  0.22541678  0.95024770
   0.89100371  0.10964047  0.05061417
   0.77847565  0.55388752  0.95214953
   0.88724830  0.44559580  0.04952622
   0.78199004  0.88998244  0.94985679
   0.88998533  0.77896987  0.04635411
unknown system                          
           1
     8.317202    4.789090    0.000000
    -8.310116    4.776811    0.000000
     0.000000    0.000000   30.000000
   V    Mo   W    S 
   3   3   3  18
Direct configuration=    23
   0.00821062  0.66141312  0.00048421
   0.66405171  0.32467860 -0.00032921
   0.00683803  0.01552776  0.00035221
   0.33377622  0.65151540  0.00019597
   0.32567711  0.34765168 -0.00009194
   1.02054360  0.34152612  0.00005280
   0.34201272  0.00086307 -0.00041057
   0.65789073 -0.00410669 -0.00027665
   0.64360350  0.66069486  0.00021745
   0.10949558  0.21752625  0.94632122
   0.21963452  0.11077265  0.04994489
   0.10976830  0.55783494  0.94734179
   0.22226174  0.44494385  0.05639404
   0.10651062  0.88668222  0.95119433
   0.21912911  0.77495015  0.05088353
   0.44746409  0.22592506  0.95002364
   0.55939090  0.11705738  0.05252459
   0.44308617  0.55437146  0.94372139
   0.55577791  0.44156017  0.05095017
   0.44240168  0.88511056  0.94750173
   0.55349442  0.77802844  0.05421376
   0.77855138  0.22556821  0.95028752
   0.89108605  0.10979143  0.05079741
   0.77843477  0.55397414  0.95223700
   0.88725515  0.44555505  0.04945641
   0.78198028  0.88995274  0.94972233
   0.88988753  0.77884583  0.04628990
unknown system                          
           1
     8.319737    4.790903    0.000000
    -8.311903    4.777323    0.000000
     0.000000    0.000000   30.000000
   V    Mo   W    S 
   3   3   3  18
Direct configuration=    24
   0.00888338  0.66075940  0.00049276
   0.66515041  0.32380012 -0.00035202
   0.00981234  0.01758049  0.00038283
   0.33475158  0.65282735  0.00022177
   0.32435626  0.34731368 -0.00007969
   1.02176119  0.34265144  0.00008878
   0.34273981  0.00031198 -0.00046860
   0.65422303 -0.00605290 -0.00024934
   0.64219498  0.66063307  0.00020654
   0.10940728  0.21767128  0.94613114
   0.22014598  0.11112308  0.05001173
   0.10994809  0.55793804  0.94725206
   0.22246255  0.44545264  0.05651975
   0.10655630  0.88668322  0.95123828
   0.21905429  0.77509670  0.05096407
   0.44738866  0.22607837  0.95022939
   0.55922253  0.11688420  0.05277821
   0.44266313  0.55402214  0.94359157
   0.55549352  0.44142621  0.05078645
   0.44188455  0.88473925  0.94707732