   27   27  100    1
  0.9710400E+02  0.1002848E-08  0.1002848E-08  0.3000000E-08  0.5000000E-15
  1.000000000000000E-004
  CAR 
 unknown system                          
    159     34    120
 
  0.0000000E+00  0.0000000E+00  0.0000000E+00  0.1562500E-01
    1      -17.820388   1.000000
    2      -16.718389   1.000000
    3      -16.647870   1.000000
    4      -16.585394   1.000000
    5      -16.556936   1.000000
    6      -16.492413   1.000000
    7      -16.393154   1.000000
    8      -16.294794   1.000000
    9      -16.176414   1.000000
   10      -16.139324   1.000000
   11      -16.091016   1.000000
   12      -15.924562   1.000000
   13      -15.864951   1.000000
   14      -15.797982   1.000000
   15      -15.629497   1.000000
   16      -15.441693   1.000000
   17      -15.333101   1.000000
   18      -15.250686   1.000000
   19       -9.330691   1.000000
   20       -8.997002   1.000000
   21       -8.948079   1.000000
   22       -8.777187   1.000000
   23       -8.724494   1.000000
   24       -8.685899   1.000000
   25       -8.656248   1.000000
   26       -8.629121   1.000000
   27       -8.517971   1.000000
   28       -8.509217   1.000000
   29       -8.453608   1.000000
   30       -8.408325   1.000000
   31       -8.292072   1.000000
   32       -8.110859   1.000000
   33       -8.081910   1.000000
   34       -7.998609   1.000000
   35       -7.855798   1.000000
   36       -7.815819   1.000000
   37       -7.704678   1.000000
   38       -7.572675   1.000000
   39       -7.547204   1.000000
   40       -7.392623   1.000000
   41       -7.334023   1.000000
   42       -7.267763   1.000000
   43       -7.039389   1.000000
   44       -6.957530   1.000000
   45       -6.902781   1.000000
   46       -6.813795   1.000000
   47       -6.733740   1.000000
   48       -6.638481   1.000000
   49       -6.609653   1.000000
   50       -6.546222   1.000000
   51       -6.467722   1.000000
   52       -6.305289   1.000000
   53       -6.289256   1.000000
   54       -6.232089   1.000000
   55       -6.187087   1.000000
   56       -6.093531   1.000000
   57       -6.014684   1.000000
   58       -5.951576   1.000000
   59       -5.769237   1.000000
   60       -5.617194   1.000000
   61       -5.526614   1.000000
   62       -5.342994   1.000000
   63       -5.265972   1.000000
   64       -5.177865   1.000000
   65       -5.009154   1.000000
   66       -4.981206   1.000000
   67       -4.898742   1.000000
   68       -4.847514   1.000000
   69       -4.769960   1.000000
   70       -4.700003   1.000000
   71       -4.664026   1.000000
   72       -4.548019   1.000000
   73       -4.534591   1.000000
   74       -4.305728   1.000000
   75       -4.220728   1.000000
   76       -3.928548   0.999999
   77       -3.701628   0.999482
   78       -3.591509   0.993825
   79       -3.441376   0.925123
   80       -3.344289   0.774543
   81       -3.261697   0.567448
   82       -2.845934   0.002803
   83       -2.686580   0.000049
   84       -2.632268   0.000009
   85       -2.569469   0.000001
   86       -2.447061   0.000000
   87       -2.327872   0.000000
   88       -2.239259   0.000000
   89       -2.178494   0.000000
   90       -2.122178   0.000000
   91       -1.717166   0.000000
   92       -1.587742   0.000000
   93       -1.475183   0.000000
   94       -1.388408   0.000000
   95       -1.301017   0.000000
   96       -1.128924   0.000000
   97       -1.031382   0.000000
   98       -0.902326   0.000000
   99       -0.746500   0.000000
  100       -0.629395   0.000000
  101       -0.590987   0.000000
  102       -0.464047   0.000000
  103       -0.391725   0.000000
  104       -0.336133   0.000000
  105       -0.200332   0.000000
  106       -0.134017   0.000000
  107       -0.059344   0.000000
  108        0.049563   0.000000
  109        0.201367   0.000000
  110        0.354487   0.000000
  111        0.414870   0.000000
  112        0.482060   0.000000
  113        0.654503   0.000000
  114        0.760379   0.000000
  115        0.906191   0.000000
  116        1.041162   0.000000
  117        1.051183   0.000000
  118        1.640945   0.000000
  119        1.833074   0.000000
  120        2.157574   0.000000
 
  0.1250000E+00  0.2775558E-16  0.0000000E+00  0.3125000E-01
    1      -17.795512   1.000000
    2      -16.794535   1.000000
    3      -16.694509   1.000000
    4      -16.630127   1.000000
    5      -16.531946   1.000000
    6      -16.480116   1.000000
    7      -16.357664   1.000000
    8      -16.269026   1.000000
    9      -16.232662   1.000000
   10      -16.105509   1.000000
   11      -16.016941   1.000000
   12      -15.935187   1.000000
   13      -15.836864   1.000000
   14      -15.782610   1.000000
   15      -15.631776   1.000000
   16      -15.445659   1.000000
   17      -15.352280   1.000000
   18      -15.253864   1.000000
   19       -9.326982   1.000000
   20       -9.162603   1.000000
   21       -9.021399   1.000000
   22       -8.912110   1.000000
   23       -8.765515   1.000000
   24       -8.713456   1.000000
   25       -8.649267   1.000000
   26       -8.588389   1.000000
   27       -8.532722   1.000000
   28       -8.502416   1.000000
   29       -8.424103   1.000000
   30       -8.277930   1.000000
   31       -8.196455   1.000000
   32       -8.096629   1.000000
   33       -7.985418   1.000000
   34       -7.914582   1.000000
   35       -7.858091   1.000000
   36       -7.751685   1.000000
   37       -7.669337   1.000000
   38       -7.567626   1.000000
   39       -7.484737   1.000000
   40       -7.456562   1.000000
   41       -7.329537   1.000000
   42       -7.239539   1.000000
   43       -7.068279   1.000000
   44       -7.003387   1.000000
   45       -6.894691   1.000000
   46       -6.845640   1.000000
   47       -6.768681   1.000000
   48       -6.682278   1.000000
   49       -6.558821   1.000000
   50       -6.550731   1.000000
   51       -6.453414   1.000000
   52       -6.336379   1.000000
   53       -6.291822   1.000000
   54       -6.216456   1.000000
   55       -6.172583   1.000000
   56       -6.077531   1.000000
   57       -6.009566   1.000000
   58       -5.925787   1.000000
   59       -5.740847   1.000000
   60       -5.582755   1.000000
   61       -5.483113   1.000000
   62       -5.381446   1.000000
   63       -5.279126   1.000000
   64       -5.251159   1.000000
   65       -5.209449   1.000000
   66       -5.016914   1.000000
   67       -4.951798   1.000000
   68       -4.890320   1.000000
   69       -4.742308   1.000000
   70       -4.672682   1.000000
   71       -4.628675   1.000000
   72       -4.504684   1.000000
   73       -4.469804   1.000000
   74       -4.224773   1.000000
   75       -4.159386   1.000000
   76       -3.899351   0.999999
   77       -3.775321   0.999928
   78       -3.647647   0.998128
   79       -3.607655   0.995554
   80       -3.321195   0.722605
   81       -3.084680   0.139667
   82       -2.819115   0.001540
   83       -2.711602   0.000100
   84       -2.664160   0.000025
   85       -2.556277   0.000001
   86       -2.445766   0.000000
   87       -2.325302   0.000000
   88       -2.239229   0.000000
   89       -2.160428   0.000000
   90       -2.112903   0.000000
   91       -1.705705   0.000000
   92       -1.550531   0.000000
   93       -1.480890   0.000000
   94       -1.392419   0.000000
   95       -1.297619   0.000000
   96       -1.124362   0.000000
   97       -1.017181   0.000000
   98       -0.897816   0.000000
   99       -0.777381   0.000000
  100       -0.692713   0.000000
  101       -0.656185   0.000000
  102       -0.545423   0.000000
  103       -0.489937   0.000000
  104       -0.380340   0.000000
  105       -0.253180   0.000000
  106       -0.139125   0.000000
  107       -0.089728   0.000000
  108        0.147302   0.000000
  109        0.203585   0.000000
  110        0.327643   0.000000
  111        0.401529   0.000000
  112        0.472548   0.000000
  113        0.649149   0.000000
  114        0.771234   0.000000
  115        0.938550   0.000000
  116        1.068223   0.000000
  117        1.114579   0.000000
  118        1.685486   0.000000
  119        1.870800   0.000000
  120        2.192819   0.000000
 
  0.2500000E+00  0.5551115E-16  0.0000000E+00  0.3125000E-01
    1      -17.722516   1.000000
    2      -16.993006   1.000000
    3      -16.721286   1.000000
    4      -16.673517   1.000000
    5      -16.570247   1.000000
    6      -16.428021   1.000000
    7      -16.369857   1.000000
    8      -16.215210   1.000000
    9      -16.190150   1.000000
   10      -16.065537   1.000000
   11      -15.993019   1.000000
   12      -15.912722   1.000000
   13      -15.791747   1.000000
   14      -15.735343   1.000000
   15      -15.617371   1.000000
   16      -15.455926   1.000000
   17      -15.394853   1.000000
   18      -15.267677   1.000000
   19       -9.508655   1.000000
   20       -9.276896   1.000000
   21       -9.124785   1.000000
   22       -9.001599   1.000000
   23       -8.903085   1.000000
   24       -8.798056   1.000000
   25       -8.598041   1.000000
   26       -8.572202   1.000000
   27       -8.509717   1.000000
   28       -8.413557   1.000000
   29       -8.345426   1.000000
   30       -8.217702   1.000000
   31       -8.111933   1.000000
   32       -8.037381   1.000000
   33       -7.970945   1.000000
   34       -7.821568   1.000000
   35       -7.757430   1.000000
   36       -7.638342   1.000000
   37       -7.610803   1.000000
   38       -7.548756   1.000000
   39       -7.443056   1.000000
   40       -7.358453   1.000000
   41       -7.302540   1.000000
   42       -7.179423   1.000000
   43       -7.113510   1.000000
   44       -7.034830   1.000000
   45       -6.934618   1.000000
   46       -6.834611   1.000000
   47       -6.761746   1.000000
   48       -6.692871   1.000000
   49       -6.604530   1.000000
   50       -6.539609   1.000000
   51       -6.413939   1.000000
   52       -6.365670   1.000000
   53       -6.275681   1.000000
   54       -6.186971   1.000000
   55       -6.134159   1.000000
   56       -6.081199   1.000000
   57       -5.970325   1.000000
   58       -5.851007   1.000000
   59       -5.689631   1.000000
   60       -5.635848   1.000000
   61       -5.589056   1.000000
   62       -5.518130   1.000000
   63       -5.486868   1.000000
   64       -5.335567   1.000000
   65       -5.202761   1.000000
   66       -5.149649   1.000000
   67       -5.018207   1.000000
   68       -4.891485   1.000000
   69       -4.748488   1.000000
   70       -4.595935   1.000000
   71       -4.511373   1.000000
   72       -4.431380   1.000000
   73       -4.384121   1.000000
   74       -4.210928   1.000000
   75       -4.149819   1.000000
   76       -3.977414   1.000000
   77       -3.872036   0.999996
   78       -3.723606   0.999705
   79       -3.540631   0.983913
   80       -3.258307   0.558005
   81       -2.951648   0.021563
   82       -2.794613   0.000865
   83       -2.755898   0.000329
   84       -2.683653   0.000045
   85       -2.539792   0.000000
   86       -2.464081   0.000000
   87       -2.341788   0.000000
   88       -2.217478   0.000000
   89       -2.102721   0.000000
   90       -2.071068   0.000000
   91       -1.677082   0.000000
   92       -1.516812   0.000000
   93       -1.467135   0.000000
   94       -1.394878   0.000000
   95       -1.290625   0.000000
   96       -1.118791   0.000000
   97       -1.001125   0.000000
   98       -0.948338   0.000000
   99       -0.864195   0.000000
  100       -0.806488   0.000000
  101       -0.791509   0.000000
  102       -0.674300   0.000000
  103       -0.621444   0.000000
  104       -0.460210   0.000000
  105       -0.377801   0.000000
  106       -0.149768   0.000000
  107       -0.079422   0.000000
  108        0.083121   0.000000
  109        0.104521   0.000000
  110        0.308452   0.000000
  111        0.383077   0.000000
  112        0.493453   0.000000
  113        0.640523   0.000000
  114        0.859923   0.000000
  115        1.030784   0.000000
  116        1.147757   0.000000
  117        1.241951   0.000000
  118        1.810021   0.000000
  119        1.980488   0.000000
  120        2.297434   0.000000
 
  0.3750000E+00  0.0000000E+00  0.0000000E+00  0.3125000E-01
    1      -17.609063   1.000000
    2      -17.199429   1.000000
    3      -16.767385   1.000000
    4      -16.664232   1.000000
    5      -16.601286   1.000000
    6      -16.448847   1.000000
    7      -16.352213   1.000000
    8      -16.181856   1.000000
    9      -16.108863   1.000000
   10      -16.041357   1.000000
   11      -15.977712   1.000000
   12      -15.900926   1.000000
   13      -15.786991   1.000000
   14      -15.684682   1.000000
   15      -15.594454   1.000000
   16      -15.462380   1.000000
   17      -15.412779   1.000000
   18      -15.293955   1.000000
   19       -9.725217   1.000000
   20       -9.335540   1.000000
   21       -9.184124   1.000000
   22       -9.022869   1.000000
   23       -8.954062   1.000000
   24       -8.862164   1.000000
   25       -8.569194   1.000000
   26       -8.534369   1.000000
   27       -8.475366   1.000000
   28       -8.319122   1.000000
   29       -8.276063   1.000000
   30       -8.234154   1.000000
   31       -8.144857   1.000000
   32       -8.014906   1.000000
   33       -7.957255   1.000000
   34       -7.833415   1.000000
   35       -7.736593   1.000000
   36       -7.660986   1.000000
   37       -7.570445   1.000000
   38       -7.524416   1.000000
   39       -7.380814   1.000000
   40       -7.293063   1.000000
   41       -7.185289   1.000000
   42       -7.144739   1.000000
   43       -7.045177   1.000000
   44       -6.961259   1.000000
   45       -6.879165   1.000000
   46       -6.802236   1.000000
   47       -6.714972   1.000000
   48       -6.619497   1.000000
   49       -6.605541   1.000000
   50       -6.540393   1.000000
   51       -6.370440   1.000000
   52       -6.317477   1.000000
   53       -6.262969   1.000000
   54       -6.185444   1.000000
   55       -6.092827   1.000000
   56       -6.051922   1.000000
   57       -5.982884   1.000000
   58       -5.944249   1.000000
   59       -5.849718   1.000000
   60       -5.746819   1.000000
   61       -5.692781   1.000000
   62       -5.648984   1.000000
   63       -5.576220   1.000000
   64       -5.341822   1.000000
   65       -5.258206   1.000000
   66       -5.083376   1.000000
   67       -5.029784   1.000000
   68       -4.870884   1.000000
   69       -4.791807   1.000000
   70       -4.659810   1.000000
   71       -4.520402   1.000000
   72       -4.407888   1.000000
   73       -4.347859   1.000000
   74       -4.249978   1.000000
   75       -4.203757   1.000000
   76       -3.971743   1.000000
   77       -3.801215   0.999966
   78       -3.696460   0.999411
   79       -3.428004   0.910825
   80       -3.209898   0.422153
   81       -2.920695   0.012501
   82       -2.852890   0.003256
   83       -2.728435   0.000159
   84       -2.674912   0.000035
   85       -2.542891   0.000000
   86       -2.469124   0.000000
   87       -2.363431   0.000000
   88       -2.180695   0.000000
   89       -2.036260   0.000000
   90       -2.007490   0.000000
   91       -1.643725   0.000000
   92       -1.553506   0.000000
   93       -1.433538   0.000000
   94       -1.379844   0.000000
   95       -1.298068   0.000000
   96       -1.157413   0.000000
   97       -1.078558   0.000000
   98       -1.008593   0.000000
   99       -0.950095   0.000000
  100       -0.896786   0.000000
  101       -0.823235   0.000000
  102       -0.747416   0.000000
  103       -0.694846   0.000000
  104       -0.533011   0.000000
  105       -0.440484   0.000000
  106       -0.212775   0.000000
  107       -0.124692   0.000000
  108       -0.038451   0.000000
  109        0.009631   0.000000
  110        0.299523   0.000000
  111        0.352397   0.000000
  112        0.489567   0.000000
  113        0.684719   0.000000
  114        0.955982   0.000000
  115        1.114662   0.000000
  116        1.250901   0.000000
  117        1.344960   0.000000
  118        1.996266   0.000000
  119        2.154731   0.000000
  120        2.467634   0.000000
 
  0.5000000E+00  0.1110223E-15  0.0000000E+00  0.1562500E-01
    1      -17.513922   1.000000
    2      -17.327787   1.000000
    3      -16.783965   1.000000
    4      -16.659763   1.000000
    5      -16.609921   1.000000
    6      -16.465449   1.000000
    7      -16.341341   1.000000
    8      -16.170233   1.000000
    9      -16.075696   1.000000
   10      -16.031393   1.000000
   11      -15.961637   1.000000
   12      -15.907053   1.000000
   13      -15.785953   1.000000
   14      -15.643216   1.000000
   15      -15.628217   1.000000
   16      -15.464479   1.000000
   17      -15.389220   1.000000
   18      -15.316683   1.000000
   19       -9.804210   1.000000
   20       -9.368668   1.000000
   21       -9.205724   1.000000
   22       -9.048240   1.000000
   23       -8.936359   1.000000
   24       -8.849949   1.000000
   25       -8.602448   1.000000
   26       -8.542315   1.000000
   27       -8.443828   1.000000
   28       -8.290393   1.000000
   29       -8.237587   1.000000
   30       -8.185718   1.000000
   31       -8.142309   1.000000
   32       -8.039368   1.000000
   33       -7.972315   1.000000
   34       -7.857513   1.000000
   35       -7.795434   1.000000
   36       -7.654210   1.000000
   37       -7.584807   1.000000
   38       -7.466884   1.000000
   39       -7.444627   1.000000
   40       -7.302523   1.000000
   41       -7.154069   1.000000
   42       -7.033215   1.000000
   43       -6.987419   1.000000
   44       -6.896048   1.000000
   45       -6.749132   1.000000
   46       -6.726302   1.000000
   47       -6.698597   1.000000
   48       -6.621300   1.000000
   49       -6.547177   1.000000
   50       -6.545228   1.000000
   51       -6.462099   1.000000
   52       -6.347874   1.000000
   53       -6.281920   1.000000
   54       -6.233788   1.000000
   55       -6.157498   1.000000
   56       -6.055785   1.000000
   57       -6.000081   1.000000
   58       -5.855274   1.000000
   59       -5.851465   1.000000
   60       -5.731570   1.000000
   61       -5.710609   1.000000
   62       -5.670462   1.000000
   63       -5.577851   1.000000
   64       -5.451802   1.000000
   65       -5.309250   1.000000
   66       -5.114027   1.000000
   67       -5.022735   1.000000
   68       -4.952542   1.000000
   69       -4.849733   1.000000
   70       -4.592674   1.000000
   71       -4.495099   1.000000
   72       -4.392192   1.000000
   73       -4.333913   1.000000
   74       -4.317736   1.000000
   75       -4.221377   1.000000
   76       -3.884910   0.999998
   77       -3.807621   0.999972
   78       -3.673879   0.998980
   79       -3.382723   0.847475
   80       -3.176911   0.333726
   81       -2.933308   0.015692
   82       -2.878103   0.005503
   83       -2.729771   0.000164
   84       -2.661527   0.000023
   85       -2.541582   0.000000
   86       -2.466248   0.000000
   87       -2.368521   0.000000
   88       -2.167779   0.000000
   89       -2.004684   0.000000
   90       -1.973408   0.000000
   91       -1.626962   0.000000
   92       -1.581326   0.000000
   93       -1.410511   0.000000
   94       -1.375297   0.000000
   95       -1.324756   0.000000
   96       -1.201162   0.000000
   97       -1.111000   0.000000
   98       -1.030661   0.000000
   99       -0.970813   0.000000
  100       -0.929262   0.000000
  101       -0.842597   0.000000
  102       -0.768091   0.000000
  103       -0.663386   0.000000
  104       -0.597771   0.000000
  105       -0.462850   0.000000
  106       -0.245905   0.000000
  107       -0.153157   0.000000
  108       -0.087089   0.000000
  109       -0.026597   0.000000
  110        0.303733   0.000000
  111        0.337084   0.000000
  112        0.484254   0.000000
  113        0.708727   0.000000
  114        0.988173   0.000000
  115        1.149358   0.000000
  116        1.294556   0.000000
  117        1.383462   0.000000
  118        2.214897   0.000000
  119        2.248923   0.000000
  120        2.380176   0.000000
 
  0.0000000E+00  0.1250000E+00  0.0000000E+00  0.3125000E-01
    1      -17.795670   1.000000
    2      -16.785189   1.000000
    3      -16.722924   1.000000
    4      -16.617586   1.000000
    5      -16.557768   1.000000
    6      -16.427359   1.000000
    7      -16.360999   1.000000
    8      -16.287893   1.000000
    9      -16.221962   1.000000
   10      -16.097416   1.000000
   11      -16.024286   1.000000
   12      -15.922333   1.000000
   13      -15.856279   1.000000
   14      -15.786527   1.000000
   15      -15.636875   1.000000
   16      -15.455297   1.000000
   17      -15.338753   1.000000
   18      -15.252349   1.000000
   19       -9.329759   1.000000
   20       -9.182043   1.000000
   21       -8.996946   1.000000
   22       -8.883134   1.000000
   23       -8.812979   1.000000
   24       -8.693469   1.000000
   25       -8.670739   1.000000
   26       -8.589863   1.000000
   27       -8.516926   1.000000
   28       -8.458959   1.000000
   29       -8.417219   1.000000
   30       -8.284771   1.000000
   31       -8.203967   1.000000
   32       -8.103798   1.000000
   33       -7.996919   1.000000
   34       -7.939292   1.000000
   35       -7.826905   1.000000
   36       -7.744803   1.000000
   37       -7.674410   1.000000
   38       -7.596162   1.000000
   39       -7.510324   1.000000
   40       -7.463938   1.000000
   41       -7.302443   1.000000
   42       -7.210574   1.000000
   43       -7.062288   1.000000
   44       -7.032552   1.000000
   45       -6.935318   1.000000
   46       -6.812732   1.000000
   47       -6.779926   1.000000
   48       -6.637969   1.000000
   49       -6.596084   1.000000
   50       -6.479086   1.000000
   51       -6.415751   1.000000
   52       -6.357667   1.000000
   53       -6.291602   1.000000
   54       -6.257925   1.000000
   55       -6.179699   1.000000
   56       -6.109563   1.000000
   57       -6.004265   1.000000
   58       -5.946039   1.000000
   59       -5.703039   1.000000
   60       -5.619338   1.000000
   61       -5.519538   1.000000
   62       -5.387298   1.000000
   63       -5.333079   1.000000
   64       -5.265824   1.000000
   65       -5.116273   1.000000
   66       -4.965528   1.000000
   67       -4.930383   1.000000
   68       -4.838470   1.000000
   69       -4.763792   1.000000
   70       -4.710514   1.000000
   71       -4.650001   1.000000
   72       -4.515591   1.000000
   73       -4.479600   1.000000
   74       -4.194051   1.000000
   75       -4.154097   1.000000
   76       -3.969879   1.000000
   77       -3.752574   0.999864
   78       -3.701527   0.999481
   79       -3.532150   0.981341
   80       -3.245531   0.522160
   81       -3.183879   0.351833
   82       -2.811402   0.001288
   83       -2.687304   0.000050
   84       -2.622786   0.000007
   85       -2.576525   0.000001
   86       -2.427588   0.000000
   87       -2.319439   0.000000
   88       -2.232504   0.000000
   89       -2.188460   0.000000
   90       -2.101527   0.000000
   91       -1.712432   0.000000
   92       -1.570619   0.000000
   93       -1.480465   0.000000
   94       -1.393810   0.000000
   95       -1.290944   0.000000
   96       -1.117617   0.000000
   97       -1.018538   0.000000
   98       -0.909272   0.000000
   99       -0.791095   0.000000
  100       -0.691864   0.000000
  101       -0.644842   0.000000
  102       -0.555657   0.000000
  103       -0.489055   0.000000
  104       -0.378090   0.000000
  105       -0.233387   0.000000
  106       -0.175888   0.000000
  107       -0.051687   0.000000
  108        0.086327   0.000000
  109        0.228642   0.000000
  110        0.302878   0.000000
  111        0.446704   0.000000
  112        0.486178   0.000000
  113        0.717825   0.000000
  114        0.766246   0.000000
  115        0.927962   0.000000
  116        1.026398   0.000000
  117        1.082457   0.000000
  118        1.684547   0.000000
  119        1.872292   0.000000
  120        2.192433   0.000000
 
  0.1250000E+00  0.1250000E+00  0.0000000E+00  0.3125000E-01
    1      -17.746815   1.000000
    2      -16.916613   1.000000
    3      -16.780662   1.000000
    4      -16.672786   1.000000
    5      -16.486539   1.000000
    6      -16.417708   1.000000
    7      -16.348249   1.000000
    8      -16.280719   1.000000
    9      -16.222259   1.000000
   10      -16.061962   1.000000
   11      -15.981585   1.000000
   12      -15.890958   1.000000
   13      -15.827134   1.000000
   14      -15.770828   1.000000
   15      -15.632627   1.000000
   16      -15.469454   1.000000
   17      -15.367542   1.000000
   18      -15.253134   1.000000
   19       -9.395136   1.000000
   20       -9.325686   1.000000
   21       -9.134230   1.000000
   22       -9.007975   1.000000
   23       -8.831705   1.000000
   24       -8.676773   1.000000
   25       -8.624152   1.000000
   26       -8.574515   1.000000
   27       -8.508006   1.000000
   28       -8.449501   1.000000
   29       -8.324931   1.000000
   30       -8.272525   1.000000
   31       -8.145923   1.000000
   32       -8.076442   1.000000
   33       -8.002996   1.000000
   34       -7.838631   1.000000
   35       -7.743939   1.000000
   36       -7.688245   1.000000
   37       -7.577598   1.000000
   38       -7.532800   1.000000
   39       -7.514570   1.000000
   40       -7.348069   1.000000
   41       -7.308472   1.000000
   42       -7.201931   1.000000
   43       -7.130683   1.000000
   44       -7.057382   1.000000
   45       -6.945182   1.000000
   46       -6.833850   1.000000
   47       -6.818438   1.000000
   48       -6.654184   1.000000
   49       -6.588528   1.000000
   50       -6.476905   1.000000
   51       -6.375780   1.000000
   52       -6.355688   1.000000
   53       -6.283967   1.000000
   54       -6.249388   1.000000
   55       -6.176156   1.000000
   56       -6.089459   1.000000
   57       -5.956367   1.000000
   58       -5.937369   1.000000
   59       -5.705741   1.000000
   60       -5.600410   1.000000
   61       -5.540748   1.000000
   62       -5.498877   1.000000
   63       -5.382363   1.000000
   64       -5.299151   1.000000
   65       -5.247272   1.000000
   66       -5.138080   1.000000
   67       -4.984509   1.000000
   68       -4.826411   1.000000
   69       -4.787431   1.000000
   70       -4.627026   1.000000
   71       -4.557924   1.000000
   72       -4.456871   1.000000
   73       -4.397287   1.000000
   74       -4.166355   1.000000
   75       -4.118900   1.000000
   76       -3.974473   1.000000
   77       -3.890489   0.999998
   78       -3.743472   0.999826
   79       -3.567094   0.990080
   80       -3.214749   0.435618
   81       -3.014962   0.057652
   82       -2.766425   0.000431
   83       -2.713941   0.000106
   84       -2.671015   0.000031
   85       -2.557412   0.000001
   86       -2.428082   0.000000
   87       -2.332605   0.000000
   88       -2.219549   0.000000
   89       -2.135950   0.000000
   90       -2.093769   0.000000
   91       -1.701015   0.000000
   92       -1.529712   0.000000
   93       -1.478680   0.000000
   94       -1.391978   0.000000
   95       -1.295645   0.000000
   96       -1.116366   0.000000
   97       -1.007337   0.000000
   98       -0.949137   0.000000
   99       -0.848886   0.000000
  100       -0.790309   0.000000
  101       -0.750279   0.000000
  102       -0.659212   0.000000
  103       -0.604909   0.000000
  104       -0.423790   0.000000
  105       -0.289341   0.000000
  106       -0.189450   0.000000
  107       -0.063817   0.000000
  108        0.136218   0.000000
  109        0.221611   0.000000
  110        0.294573   0.000000
  111        0.392737   0.000000
  112        0.474266   0.000000
  113        0.650476   0.000000
  114        0.804012   0.000000
  115        0.975510   0.000000
  116        1.116583   0.000000
  117        1.175893   0.000000
  118        1.767982   0.000000
  119        1.946942   0.000000
  120        2.262060   0.000000
 
  0.2500000E+00  0.1250000E+00  0.0000000E+00  0.3125000E-01
    1      -17.652711   1.000000
    2      -17.095893   1.000000
    3      -16.880326   1.000000
    4      -16.657711   1.000000
    5      -16.476445   1.000000
    6      -16.399837   1.000000
    7      -16.373024   1.000000
    8      -16.206224   1.000000
    9      -16.188116   1.000000
   10      -16.032942   1.000000
   11      -16.003240   1.000000
   12      -15.855504   1.000000
   13      -15.804398   1.000000
   14      -15.709650   1.000000
   15      -15.614530   1.000000
   16      -15.478237   1.000000
   17      -15.406037   1.000000
   18      -15.263246   1.000000
   19       -9.614408   1.000000
   20       -9.418491   1.000000
   21       -9.244244   1.000000
   22       -9.037720   1.000000
   23       -8.847580   1.000000
   24       -8.692828   1.000000
   25       -8.563278   1.000000
   26       -8.508815   1.000000
   27       -8.481969   1.000000
   28       -8.407266   1.000000
   29       -8.292446   1.000000
   30       -8.226487   1.000000
   31       -8.151305   1.000000
   32       -8.052704   1.000000
   33       -8.033726   1.000000
   34       -7.857630   1.000000
   35       -7.805957   1.000000
   36       -7.613854   1.000000
   37       -7.502492   1.000000
   38       -7.411044   1.000000
   39       -7.392413   1.000000
   40       -7.321269   1.000000
   41       -7.249303   1.000000
   42       -7.163557   1.000000
   43       -7.139940   1.000000
   44       -7.017243   1.000000
   45       -6.927498   1.000000
   46       -6.836294   1.000000
   47       -6.724490   1.000000