 vasp.5.4.1 05Feb16 (build Jul 05 2020 17:13:04) complex                        
  
 executed on           IFC91_ompi date 2024.07.14  16:23:46
 running on   40 total cores
 distrk:  each k-point on   40 cores,    1 groups
 distr:  one band on NCORES_PER_BAND=   1 cores,   40 groups


--------------------------------------------------------------------------------------------------------


 INCAR:
 POTCAR:   PAW_PBE V 08Apr2002                    
 POTCAR:   PAW_PBE Mo 08Apr2002                   
 POTCAR:   PAW_PBE W 08Apr2002                    
 POTCAR:    PAW_PBE S 17Jan2003                   

 ----------------------------------------------------------------------------- 
|                                                                             |
|           W    W    AA    RRRRR   N    N  II  N    N   GGGG   !!!           |
|           W    W   A  A   R    R  NN   N  II  NN   N  G    G  !!!           |
|           W    W  A    A  R    R  N N  N  II  N N  N  G       !!!           |
|           W WW W  AAAAAA  RRRRR   N  N N  II  N  N N  G  GGG   !            |
|           WW  WW  A    A  R   R   N   NN  II  N   NN  G    G                |
|           W    W  A    A  R    R  N    N  II  N    N   GGGG   !!!           |
|                                                                             |
|      For optimal performance we recommend to set                            |
|        NCORE= 4 - approx SQRT( number of cores)                             |
|      NCORE specifies how many cores store one orbital (NPAR=cpu/NCORE).     |
|      This setting can  greatly improve the performance of VASP for DFT.     |
|      The default, NPAR=number of cores might be grossly inefficient         |
|      on modern multi-core architectures or massively parallel machines.     |
|      Do your own testing !!!!                                               |
|      Unfortunately you need to use the default for GW and RPA calculations. |
|      (for HF NCORE is supported but not extensively tested yet)             |
|                                                                             |
 ----------------------------------------------------------------------------- 

 POTCAR:   PAW_PBE V 08Apr2002                    
   VRHFIN =V: p6 d4 s1                                                          
   LEXCH  = PE                                                                  
   EATOM  =   170.8679 eV,   12.5584 Ry                                         
                                                                                
   TITEL  = PAW_PBE V 08Apr2002                                                 
   LULTRA =        F    use ultrasoft PP ?                                      
   IUNSCR =        1    unscreen: 0-lin 1-nonlin 2-no                           
   RPACOR =    2.000    partial core radius                                     
   POMASS =   50.941; ZVAL   =    5.000    mass and valenz                      
   RCORE  =    2.700    outmost cutoff radius                                   
   RWIGS  =    2.500; RWIGS  =    1.323    wigner-seitz radius (au A)           
   ENMAX  =  192.543; ENMIN  =  144.408 eV                                      
   RCLOC  =    1.779    cutoff for local pot                                    
   LCOR   =        T    correct aug charges                                     
   LPAW   =        T    paw PP                                                  
   EAUG   =  358.662                                                            
   DEXC   =    -.034                                                            
   RMAX   =    3.323    core radius for proj-oper                               
   RAUG   =    1.300    factor for augmentation sphere                          
   RDEP   =    2.762    radius for radial grids                                 
   QCUT   =   -3.762; QGAM   =    7.524    optimization parameters              
                                                                                
   Description                                                                  
     l     E      TYP  RCUT    TYP  RCUT                                        
     2   .000     23  2.700                                                     
     2   .000     23  2.700                                                     
     0   .000     23  2.700                                                     
     0  2.000     23  2.700                                                     
     1   .000     23  2.700                                                     
     1  2.000     23  2.700                                                     
     3   .000      7   .000                                                     
  local pseudopotential read in
  partial core-charges read in
  atomic valenz-charges read in
  non local Contribution for L=           2  read in
    real space projection operators read in
  non local Contribution for L=           2  read in
    real space projection operators read in
  non local Contribution for L=           0  read in
    real space projection operators read in
  non local Contribution for L=           0  read in
    real space projection operators read in
  non local Contribution for L=           1  read in
    real space projection operators read in
  non local Contribution for L=           1  read in
    real space projection operators read in
    PAW grid and wavefunctions read in
 
   number of l-projection  operators is LMAX  =           6
   number of lm-projection operators is LMMAX =          18
 
 POTCAR:   PAW_PBE Mo 08Apr2002                   
   VRHFIN =Mo: 4p5s4d                                                           
   LEXCH  = PE                                                                  
   EATOM  =   217.5180 eV,   15.9871 Ry                                         
                                                                                
   TITEL  = PAW_PBE Mo 08Apr2002                                                
   LULTRA =        F    use ultrasoft PP ?                                      
   IUNSCR =        1    unscreen: 0-lin 1-nonlin 2-no                           
   RPACOR =    2.200    partial core radius                                     
   POMASS =   95.940; ZVAL   =    6.000    mass and valenz                      
   RCORE  =    2.750    outmost cutoff radius                                   
   RWIGS  =    2.750; RWIGS  =    1.455    wigner-seitz radius (au A)           
   ENMAX  =  224.584; ENMIN  =  168.438 eV                                      
   RCLOC  =    2.111    cutoff for local pot                                    
   LCOR   =        T    correct aug charges                                     
   LPAW   =        T    paw PP                                                  
   EAUG   =  345.278                                                            
   DEXC   =    -.088                                                            
   RMAX   =    3.077    core radius for proj-oper                               
   RAUG   =    1.300    factor for augmentation sphere                          
   RDEP   =    2.815    radius for radial grids                                 
   QCUT   =   -4.063; QGAM   =    8.126    optimization parameters              
                                                                                
   Description                                                                  
     l     E      TYP  RCUT    TYP  RCUT                                        
     2   .000     23  2.500                                                     
     2   .000     23  2.500                                                     
     0   .000     23  2.600                                                     
     0  1.000     23  2.600                                                     
     1   .400     23  2.750                                                     
     1  2.000     23  2.750                                                     
     3   .000      7   .000                                                     
  local pseudopotential read in
  partial core-charges read in
  atomic valenz-charges read in
  non local Contribution for L=           2  read in
    real space projection operators read in
  non local Contribution for L=           2  read in
    real space projection operators read in
  non local Contribution for L=           0  read in
    real space projection operators read in
  non local Contribution for L=           0  read in
    real space projection operators read in
  non local Contribution for L=           1  read in
    real space projection operators read in
  non local Contribution for L=           1  read in
    real space projection operators read in
    PAW grid and wavefunctions read in
 
   number of l-projection  operators is LMAX  =           6
   number of lm-projection operators is LMMAX =          18
 
 POTCAR:   PAW_PBE W 08Apr2002                    
   VRHFIN =W : 6s5d                                                             
   LEXCH  = PE                                                                  
   EATOM  =   204.6100 eV,   15.0384 Ry                                         
                                                                                
   TITEL  = PAW_PBE W 08Apr2002                                                 
   LULTRA =        F    use ultrasoft PP ?                                      
   IUNSCR =        1    unscreen: 0-lin 1-nonlin 2-no                           
   RPACOR =    2.330    partial core radius                                     
   POMASS =  183.850; ZVAL   =    6.000    mass and valenz                      
   RCORE  =    2.750    outmost cutoff radius                                   
   RWIGS  =    2.750; RWIGS  =    1.455    wigner-seitz radius (au A)           
   ENMAX  =  223.057; ENMIN  =  167.293 eV                                      
   RCLOC  =    2.147    cutoff for local pot                                    
   LCOR   =        T    correct aug charges                                     
   LPAW   =        T    paw PP                                                  
   EAUG   =  373.438                                                            
   DEXC   =    -.060                                                            
   RMAX   =    3.087    core radius for proj-oper                               
   RAUG   =    1.300    factor for augmentation sphere                          
   RDEP   =    2.886    radius for radial grids                                 
   QCUT   =   -4.049; QGAM   =    8.098    optimization parameters              
                                                                                
   Description                                                                  
     l     E      TYP  RCUT    TYP  RCUT                                        
     2   .000     23  2.500                                                     
     2   .000     23  2.500                                                     
     0   .000     23  2.500                                                     
     0   .000     23  2.500                                                     
     1   .200     23  2.750                                                     
     1  2.000     23  2.750                                                     
     3   .000      7   .000                                                     
  local pseudopotential read in
  partial core-charges read in
  atomic valenz-charges read in
  non local Contribution for L=           2  read in
    real space projection operators read in
  non local Contribution for L=           2  read in
    real space projection operators read in
  non local Contribution for L=           0  read in
    real space projection operators read in
  non local Contribution for L=           0  read in
    real space projection operators read in
  non local Contribution for L=           1  read in
    real space projection operators read in
  non local Contribution for L=           1  read in
    real space projection operators read in
    PAW grid and wavefunctions read in
 
   number of l-projection  operators is LMAX  =           6
   number of lm-projection operators is LMMAX =          18
 
 POTCAR:    PAW_PBE S 17Jan2003                   
   VRHFIN =S : s2p4                                                             
   LEXCH  = PE                                                                  
   EATOM  =   276.8230 eV,   20.3459 Ry                                         
                                                                                
   TITEL  = PAW_PBE S 17Jan2003                                                 
   LULTRA =        F    use ultrasoft PP ?                                      
   IUNSCR =        1    unscreen: 0-lin 1-nonlin 2-no                           
   RPACOR =    1.500    partial core radius                                     
   POMASS =   32.066; ZVAL   =    6.000    mass and valenz                      
   RCORE  =    1.900    outmost cutoff radius                                   
   RWIGS  =    2.200; RWIGS  =    1.164    wigner-seitz radius (au A)           
   ENMAX  =  280.000; ENMIN  =  194.016 eV                                      
   ICORE  =        2    local potential                                         
   LCOR   =        T    correct aug charges                                     
   LPAW   =        T    paw PP                                                  
   EAUG   =  335.092                                                            
   DEXC   =     .000                                                            
   RMAX   =    2.867    core radius for proj-oper                               
   RAUG   =    1.300    factor for augmentation sphere                          
   RDEP   =    1.954    radius for radial grids                                 
   QCUT   =   -4.360; QGAM   =    8.721    optimization parameters              
                                                                                
   Description                                                                  
     l     E      TYP  RCUT    TYP  RCUT                                        
     0   .000     23  1.900                                                     
     0   .000     23  1.900                                                     
     1   .000     23  1.900                                                     
     1   .000     23  1.900                                                     
     2   .000     23  1.900                                                     
  local pseudopotential read in
  partial core-charges read in
  atomic valenz-charges read in
  non local Contribution for L=           0  read in
    real space projection operators read in
  non local Contribution for L=           0  read in
    real space projection operators read in
  non local Contribution for L=           1  read in
    real space projection operators read in
  non local Contribution for L=           1  read in
    real space projection operators read in
    PAW grid and wavefunctions read in
 
   number of l-projection  operators is LMAX  =           4
   number of lm-projection operators is LMMAX =           8
 

 ----------------------------------------------------------------------------- 
|                                                                             |
|  ADVICE TO THIS USER RUNNING 'VASP/VAMP'   (HEAR YOUR MASTER'S VOICE ...):  |
|                                                                             |
|      You have a (more or less) 'large supercell' and for larger cells       |
|      it might be more efficient to use real space projection operators      |
|      So try LREAL= Auto  in the INCAR   file.                               |
|      Mind: If you want to do a very accurate calculations keep the          |
|      reciprocal projection scheme          (i.e. LREAL=.FALSE.)             |
|                                                                             |
 ----------------------------------------------------------------------------- 

 PAW_PBE V 08Apr2002                    :
 energy of atom  1       EATOM= -170.8679
 kinetic energy error for atom=    0.0047 (will be added to EATOM!!)
 PAW_PBE Mo 08Apr2002                   :
 energy of atom  2       EATOM= -217.5180
 kinetic energy error for atom=    0.0215 (will be added to EATOM!!)
 PAW_PBE W 08Apr2002                    :
 energy of atom  3       EATOM= -204.6100
 kinetic energy error for atom=    0.0205 (will be added to EATOM!!)
  PAW_PBE S 17Jan2003                   :
 energy of atom  4       EATOM= -276.8230
 kinetic energy error for atom=    0.0122 (will be added to EATOM!!)
 
 
 POSCAR: crystal structure from VMoWS2 with Hexag
  positions in cartesian coordinates
  No initial velocities read in
 exchange correlation table for  LEXCH =        8
   RHO(1)=    0.500       N(1)  =     2000
   RHO(2)=  100.500       N(2)  =     4000
 


--------------------------------------------------------------------------------------------------------


 ion  position               nearest neighbor table
   1  0.000  0.667  0.000-  27 2.34  12 2.34  14 2.36  15 2.36  24 2.36  25 2.36
   2  0.667  0.667  0.000-  21 2.34  24 2.34  27 2.36  26 2.36  19 2.36  18 2.36
   3  1.000  0.333  0.000-  25 2.34  10 2.34  13 2.36  12 2.36  22 2.36  23 2.36
   4  0.333  0.000  0.000-  11 2.34  20 2.34  17 2.36  16 2.36  15 2.36  14 2.36   8 3.34   7 3.34
                             6 3.34   5 3.34   9 3.36
   5  0.000  0.000  0.000-  23 2.34  14 2.34  11 2.36  10 2.36  27 2.36  26 2.36   6 3.34   4 3.34
                             7 3.36
   6  0.667  0.000  0.000-  17 2.34  26 2.34  23 2.36  22 2.36  21 2.36  20 2.36   5 3.34   9 3.34
                             4 3.34   8 3.36
   7  0.333  0.333  0.000-  13 2.34  16 2.34  19 2.36  18 2.36  11 2.36  10 2.36   8 3.34   4 3.34
                             9 3.34   5 3.36
   8  0.333  0.667  0.000-  15 2.34  18 2.34  20 2.36  21 2.36  13 2.36  12 2.36   4 3.34   7 3.34
                             6 3.36
   9  0.667  0.333  0.000-  19 2.34  22 2.34  25 2.36  24 2.36  17 2.36  16 2.36   6 3.34   7 3.34
                             4 3.36
  10  0.111  0.222  0.955-   3 2.34   5 2.36   7 2.36
  11  0.222  0.111  0.045-   4 2.34   5 2.36   7 2.36
  12  0.111  0.556  0.955-   1 2.34   3 2.36   8 2.36
  13  0.222  0.444  0.045-   7 2.34   3 2.36   8 2.36
  14  0.111  0.889  0.955-   5 2.34   1 2.36   4 2.36
  15  0.222  0.777  0.045-   8 2.34   1 2.36   4 2.36
  16  0.444  0.222  0.955-   7 2.34   4 2.36   9 2.36
  17  0.556  0.111  0.045-   6 2.34   4 2.36   9 2.36
  18  0.444  0.556  0.955-   8 2.34   7 2.36   2 2.36
  19  0.556  0.444  0.045-   9 2.34   7 2.36   2 2.36
  20  0.444  0.889  0.955-   4 2.34   8 2.36   6 2.36
  21  0.556  0.777  0.045-   2 2.34   8 2.36   6 2.36
  22  0.777  0.222  0.955-   9 2.34   6 2.36   3 2.36
  23  0.889  0.111  0.045-   5 2.34   6 2.36   3 2.36
  24  0.777  0.556  0.955-   2 2.34   9 2.36   1 2.36
  25  0.889  0.444  0.045-   3 2.34   9 2.36   1 2.36
  26  0.777  0.889  0.955-   6 2.34   2 2.36   5 2.36
  27  0.889  0.777  0.045-   1 2.34   2 2.36   5 2.36
 

IMPORTANT INFORMATION: All symmetrisations will be switched off!
NOSYMM: (Re-)initialisation of all symmetry stuff for point group C_1.

 
 
 KPOINTS: K-POINTS 	#supercell of CrS2 in hexagona

Automatic generation of k-mesh.
Space group operators:
 irot       det(A)        alpha          n_x          n_y          n_z        tau_x        tau_y        tau_z
    1     1.000000     0.000000     1.000000     0.000000     0.000000     0.000000     0.000000     0.000000
 
 Subroutine IBZKPT returns following result:
 ===========================================
 
 Found     34 irreducible k-points:
 
 Following reciprocal coordinates:
            Coordinates               Weight
  0.000000  0.000000  0.000000      1.000000
  0.125000  0.000000  0.000000      2.000000
  0.250000  0.000000  0.000000      2.000000
  0.375000  0.000000  0.000000      2.000000
  0.500000  0.000000  0.000000      1.000000
  0.000000  0.125000  0.000000      2.000000
  0.125000  0.125000  0.000000      2.000000
  0.250000  0.125000  0.000000      2.000000
  0.375000  0.125000  0.000000      2.000000
  0.500000  0.125000  0.000000      2.000000
 -0.375000  0.125000  0.000000      2.000000
 -0.250000  0.125000  0.000000      2.000000
 -0.125000  0.125000  0.000000      2.000000
  0.000000  0.250000  0.000000      2.000000
  0.125000  0.250000  0.000000      2.000000
  0.250000  0.250000  0.000000      2.000000
  0.375000  0.250000  0.000000      2.000000
  0.500000  0.250000  0.000000      2.000000
 -0.375000  0.250000  0.000000      2.000000
 -0.250000  0.250000  0.000000      2.000000
 -0.125000  0.250000  0.000000      2.000000
 -0.000000  0.375000  0.000000      2.000000
  0.125000  0.375000  0.000000      2.000000
  0.250000  0.375000  0.000000      2.000000
  0.375000  0.375000  0.000000      2.000000
  0.500000  0.375000  0.000000      2.000000
 -0.375000  0.375000  0.000000      2.000000
 -0.250000  0.375000  0.000000      2.000000
 -0.125000  0.375000  0.000000      2.000000
  0.000000  0.500000  0.000000      1.000000
  0.125000  0.500000  0.000000      2.000000
  0.250000  0.500000  0.000000      2.000000
  0.375000  0.500000  0.000000      2.000000
  0.500000  0.500000  0.000000      1.000000
 
 Following cartesian coordinates:
            Coordinates               Weight
  0.000000  0.000000  0.000000      1.000000
  0.007209  0.012401  0.000000      2.000000
  0.014418  0.024802  0.000000      2.000000
  0.021626  0.037202  0.000000      2.000000
  0.028835  0.049603  0.000000      1.000000
 -0.007209  0.012401  0.000000      2.000000
  0.000000  0.024802  0.000000      2.000000
  0.007209  0.037202  0.000000      2.000000
  0.014418  0.049603  0.000000      2.000000
  0.021626  0.062004  0.000000      2.000000
 -0.028835 -0.024802  0.000000      2.000000
 -0.021626 -0.012401  0.000000      2.000000
 -0.014418  0.000000  0.000000      2.000000
 -0.014418  0.024802  0.000000      2.000000
 -0.007209  0.037202  0.000000      2.000000
  0.000000  0.049603  0.000000      2.000000
  0.007209  0.062004  0.000000      2.000000
  0.014418  0.074405  0.000000      2.000000
 -0.036044 -0.012401  0.000000      2.000000
 -0.028835  0.000000  0.000000      2.000000
 -0.021626  0.012401  0.000000      2.000000
 -0.021626  0.037202  0.000000      2.000000
 -0.014418  0.049603  0.000000      2.000000
 -0.007209  0.062004  0.000000      2.000000
  0.000000  0.074405  0.000000      2.000000
  0.007209  0.086806  0.000000      2.000000
 -0.043253  0.000000  0.000000      2.000000
 -0.036044  0.012401  0.000000      2.000000
 -0.028835  0.024802  0.000000      2.000000
 -0.028835  0.049603  0.000000      1.000000
 -0.021626  0.062004  0.000000      2.000000
 -0.014418  0.074405  0.000000      2.000000
 -0.007209  0.086806  0.000000      2.000000
  0.000000  0.099206  0.000000      1.000000
 


--------------------------------------------------------------------------------------------------------




 Dimension of arrays:
   k-points           NKPTS =     34   k-points in BZ     NKDIM =     34   number of bands    NBANDS=    120
   number of dos      NEDOS =    301   number of ions     NIONS =     27
   non local maximal  LDIM  =      6   non local SUM 2l+1 LMDIM =     18
   total plane-waves  NPLWV = 222264
   max r-space proj   IRMAX =      1   max aug-charges    IRDMAX=   5642
   dimension x,y,z NGX =    42 NGY =   42 NGZ =  126
   dimension x,y,z NGXF=    84 NGYF=   84 NGZF=  252
   support grid    NGXF=    84 NGYF=   84 NGZF=  252
   ions per type =               3   3   3  18
 NGX,Y,Z   is equivalent  to a cutoff of   6.96,  6.96,  6.98 a.u.
 NGXF,Y,Z  is equivalent  to a cutoff of  13.92, 13.92, 13.96 a.u.


 I would recommend the setting:
   dimension x,y,z NGX =    41 NGY =   41 NGZ =  123
 SYSTEM =  unknown system                          
 POSCAR =  crystal structure from VMoWS2 with Hexag

 Startparameter for this run:
   NWRITE =      2    write-flag & timer
   PREC   = normal    normal or accurate (medium, high low for compatibility)
   ISTART =      0    job   : 0-new  1-cont  2-samecut
   ICHARG =      2    charge: 1-file 2-atom 10-const
   ISPIN  =      1    spin polarized calculation?
   LNONCOLLINEAR =      F non collinear calculations
   LSORBIT =      F    spin-orbit coupling
   INIWAV =      1    electr: 0-lowe 1-rand  2-diag
   LASPH  =      F    aspherical Exc in radial PAW
   METAGGA=      F    non-selfconsistent MetaGGA calc.

 Electronic Relaxation 1
   ENCUT  =  280.0 eV  20.58 Ry    4.54 a.u.  13.68 13.68 40.93*2*pi/ulx,y,z
   ENINI  =  280.0     initial cutoff
   ENAUG  =  373.4 eV  augmentation charge cutoff
   NELM   =     60;   NELMIN=  2; NELMDL= -5     # of ELM steps 
   EDIFF  = 0.1E-03   stopping-criterion for ELM
   LREAL  =      F    real-space projection
   NLSPLINE    = F    spline interpolate recip. space projectors
   LCOMPAT=      F    compatible to vasp.4.4
   GGA_COMPAT  = T    GGA compatible to vasp.4.4-vasp.4.6
   LMAXPAW     = -100 max onsite density
   LMAXMIX     =    2 max onsite mixed and CHGCAR
   VOSKOWN=      0    Vosko Wilk Nusair interpolation
   ROPT   =    0.00000   0.00000   0.00000   0.00000
 Ionic relaxation
   EDIFFG = 0.1E-02   stopping-criterion for IOM
   NSW    =    100    number of steps for IOM
   NBLOCK =      1;   KBLOCK =    100    inner block; outer block 
   IBRION =      1    ionic relax: 0-MD 1-quasi-New 2-CG
   NFREE  =      0    steps in history (QN), initial steepest desc. (CG)
   ISIF   =      3    stress and relaxation
   IWAVPR =     11    prediction:  0-non 1-charg 2-wave 3-comb
   ISYM   =      0    0-nonsym 1-usesym 2-fastsym
   LCORR  =      T    Harris-Foulkes like correction to forces

   POTIM  = 0.5000    time-step for ionic-motion
   TEIN   =    0.0    initial temperature
   TEBEG  =    0.0;   TEEND  =   0.0 temperature during run
   SMASS  =  -3.00    Nose mass-parameter (am)
   estimated Nose-frequenzy (Omega)   =  0.10E-29 period in steps =****** mass=  -0.230E-26a.u.
   SCALEE = 1.0000    scale energy and forces
   NPACO  =    256;   APACO  = 16.0  distance and # of slots for P.C.
   PSTRESS=    0.0 pullay stress

  Mass of Ions in am
   POMASS =  50.94 95.94183.85 32.07
  Ionic Valenz
   ZVAL   =   5.00  6.00  6.00  6.00
  Atomic Wigner-Seitz radii
   RWIGS  =  -1.00 -1.00 -1.00 -1.00
  virtual crystal weights 
   VCA    =   1.00  1.00  1.00  1.00
   NELECT =     159.0000    total number of electrons
   NUPDOWN=      -1.0000    fix difference up-down

 DOS related values:
   EMIN   =  10.00;   EMAX   =-10.00  energy-range for DOS
   EFERMI =   0.00
   ISMEAR =     0;   SIGMA  =   0.20  broadening in eV -4-tet -1-fermi 0-gaus

 Electronic relaxation 2 (details)
   IALGO  =     38    algorithm
   LDIAG  =      T    sub-space diagonalisation (order eigenvalues)
   LSUBROT=      F    optimize rotation matrix (better conditioning)
   TURBO    =      0    0=normal 1=particle mesh
   IRESTART =      0    0=no restart 2=restart with 2 vectors
   NREBOOT  =      0    no. of reboots
   NMIN     =      0    reboot dimension
   EREF     =   0.00    reference energy to select bands
   IMIX   =      4    mixing-type and parameters
     AMIX     =   0.40;   BMIX     =  1.00
     AMIX_MAG =   1.60;   BMIX_MAG =  1.00
     AMIN     =   0.10
     WC   =   100.;   INIMIX=   1;  MIXPRE=   1;  MAXMIX= -45

 Intra band minimization:
   WEIMIN = 0.0010     energy-eigenvalue tresh-hold
   EBREAK =  0.21E-06  absolut break condition
   DEPER  =   0.30     relativ break condition  

   TIME   =   0.40     timestep for ELM

  volume/ion in A,a.u.               =      97.10       655.29
  Fermi-wavevector in a.u.,A,eV,Ry     =   0.643191  1.215456  5.628665  0.413695
  Thomas-Fermi vector in A             =   1.710110
 
 Write flags
   LWAVE  =      F    write WAVECAR
   LCHARG =      F    write CHGCAR
   LVTOT  =      F    write LOCPOT, total local potential
   LVHAR  =      F    write LOCPOT, Hartree potential only
   LELF   =      F    write electronic localiz. function (ELF)
   LORBIT =      0    0 simple, 1 ext, 2 COOP (PROOUT)


 Dipole corrections
   LMONO  =      F    monopole corrections only (constant potential shift)
   LDIPOL =      F    correct potential (dipole corrections)
   IDIPOL =      0    1-x, 2-y, 3-z, 4-all directions 
   EPSILON=  1.0000000 bulk dielectric constant

 Exchange correlation treatment:
   GGA     =    --    GGA type
   LEXCH   =     8    internal setting for exchange type
   VOSKOWN=      0    Vosko Wilk Nusair interpolation
   LHFCALC =     F    Hartree Fock is set to
   LHFONE  =     F    Hartree Fock one center treatment
   AEXX    =    0.0000 exact exchange contribution

 Linear response parameters
   LEPSILON=     F    determine dielectric tensor
   LRPA    =     F    only Hartree local field effects (RPA)
   LNABLA  =     F    use nabla operator in PAW spheres
   LVEL    =     F    velocity operator in full k-point grid
   LINTERFAST=   F  fast interpolation
   KINTER  =     0    interpolate to denser k-point grid
   CSHIFT  =0.1000    complex shift for real part using Kramers Kronig
   OMEGAMAX=  -1.0    maximum frequency
   DEG_THRESHOLD= 0.2000000E-02 threshold for treating states as degnerate
   RTIME   =    0.100 relaxation time in fs

 Orbital magnetization related:
   ORBITALMAG=     F  switch on orbital magnetization
   LCHIMAG   =     F  perturbation theory with respect to B field
   DQ        =  0.001000  dq finite difference perturbation B field



--------------------------------------------------------------------------------------------------------


 quasi-Newton-method for relaxation of ions
 charge density and potential will be updated during run
 non-spin polarized calculation
 Variant of blocked Davidson
 Davidson routine will perform the subspace rotation
 perform sub-space diagonalisation
    after iterative eigenvector-optimisation
 modified Broyden-mixing scheme, WC =      100.0
 initial mixing is a Kerker type mixing with AMIX =  0.4000 and BMIX =      1.0000
 Hartree-type preconditioning will be used
 using additional bands           40
 reciprocal scheme for non local part
 use partial core corrections
 calculate Harris-corrections to forces 
   (improved forces if not selfconsistent)
 use gradient corrections 
 use of overlap-Matrix (Vanderbilt PP)
 Gauss-broadening in eV      SIGMA  =   0.20


--------------------------------------------------------------------------------------------------------


  energy-cutoff  :      280.00
  volume of cell :     2621.81
      direct lattice vectors                 reciprocal lattice vectors
     8.669999960  5.039999894  0.000000000     0.057670129  0.099206348  0.000000000
    -8.669999821  5.040000133  0.000000000    -0.057670126  0.099206350  0.000000000
     0.000000000  0.000000000 30.000000000     0.000000000  0.000000000  0.033333333

  length of vectors
    10.028484344 10.028484344 30.000000000     0.114750788  0.114750788  0.033333333


 
 k-points in units of 2pi/SCALE and weight: K-POINTS 	#supercell of CrS2 in hexagona
   0.00000000  0.00000000  0.00000000       0.016
   0.00720877  0.01240079  0.00000000       0.031
   0.01441753  0.02480159  0.00000000       0.031
   0.02162630  0.03720238  0.00000000       0.031
   0.02883506  0.04960317  0.00000000       0.016
  -0.00720877  0.01240079  0.00000000       0.031
   0.00000000  0.02480159  0.00000000       0.031
   0.00720877  0.03720238  0.00000000       0.031
   0.01441753  0.04960317  0.00000000       0.031
   0.02162630  0.06200397  0.00000000       0.031
  -0.02883506 -0.02480159  0.00000000       0.031
  -0.02162630 -0.01240079  0.00000000       0.031
  -0.01441753  0.00000000  0.00000000       0.031
  -0.01441753  0.02480159  0.00000000       0.031
  -0.00720877  0.03720238  0.00000000       0.031
   0.00000000  0.04960317  0.00000000       0.031
   0.00720877  0.06200397  0.00000000       0.031
   0.01441753  0.07440476  0.00000000       0.031
  -0.03604383 -0.01240079  0.00000000       0.031
  -0.02883506  0.00000000  0.00000000       0.031
  -0.02162630  0.01240079  0.00000000       0.031
  -0.02162630  0.03720238  0.00000000       0.031
  -0.01441753  0.04960317  0.00000000       0.031
  -0.00720877  0.06200397  0.00000000       0.031
   0.00000000  0.07440476  0.00000000       0.031
   0.00720877  0.08680556  0.00000000       0.031
  -0.04325260  0.00000000  0.00000000       0.031
  -0.03604383  0.01240079  0.00000000       0.031
  -0.02883506  0.02480159  0.00000000       0.031
  -0.02883506  0.04960317  0.00000000       0.016
  -0.02162630  0.06200397  0.00000000       0.031
  -0.01441753  0.07440476  0.00000000       0.031
  -0.00720876  0.08680556  0.00000000       0.031
   0.00000000  0.09920635  0.00000000       0.016
 
 k-points in reciprocal lattice and weights: K-POINTS 	#supercell of CrS2 in hexagona
   0.00000000  0.00000000  0.00000000       0.016
   0.12500000  0.00000000  0.00000000       0.031
   0.25000000  0.00000000  0.00000000       0.031
   0.37500000  0.00000000  0.00000000       0.031
   0.50000000  0.00000000  0.00000000       0.016
   0.00000000  0.12500000  0.00000000       0.031
   0.12500000  0.12500000  0.00000000       0.031
   0.25000000  0.12500000  0.00000000       0.031
   0.37500000  0.12500000  0.00000000       0.031
   0.50000000  0.12500000  0.00000000       0.031
  -0.37500000  0.12500000  0.00000000       0.031
  -0.25000000  0.12500000  0.00000000       0.031
  -0.12500000  0.12500000  0.00000000       0.031
   0.00000000  0.25000000  0.00000000       0.031
   0.12500000  0.25000000  0.00000000       0.031
   0.25000000  0.25000000  0.00000000       0.031
   0.37500000  0.25000000  0.00000000       0.031
   0.50000000  0.25000000  0.00000000       0.031
  -0.37500000  0.25000000  0.00000000       0.031
  -0.25000000  0.25000000  0.00000000       0.031
  -0.12500000  0.25000000  0.00000000       0.031
  -0.00000000  0.37500000  0.00000000       0.031
   0.12500000  0.37500000  0.00000000       0.031
   0.25000000  0.37500000  0.00000000       0.031
   0.37500000  0.37500000  0.00000000       0.031
   0.50000000  0.37500000  0.00000000       0.031
  -0.37500000  0.37500000  0.00000000       0.031
  -0.25000000  0.37500000  0.00000000       0.031
  -0.12500000  0.37500000  0.00000000       0.031
   0.00000000  0.50000000  0.00000000       0.016
   0.12500000  0.50000000  0.00000000       0.031
   0.25000000  0.50000000  0.00000000       0.031
   0.37500000  0.50000000  0.00000000       0.031
   0.50000000  0.50000000  0.00000000       0.016
 
 position of ions in fractional coordinates (direct lattice) 
   0.00000000  0.66666669  0.00000000
   0.66666669  0.66666669  0.00000000
   1.00000000  0.33333334  0.00000000
   0.33333334  0.00000000  0.00000000
   0.00000000  0.00000000  0.00000000
   0.66666669  0.00000000  0.00000000
   0.33333334  0.33333334  0.00000000
   0.33333334  0.66666669  0.00000000
   0.66666669  0.33333334  0.00000000
   0.11068511  0.22244981  0.95539999
   0.22244981  0.11068511  0.04460000
   0.11068511  0.55578315  0.95539999
   0.22244981  0.44401845  0.04460000
   0.11068511  0.88911647  0.95539999
   0.22244981  0.77735180  0.04460000
   0.44401845  0.22244981  0.95539999
   0.55578315  0.11068511  0.04460000
   0.44401845  0.55578315  0.95539999
   0.55578315  0.44401845  0.04460000
   0.44401845  0.88911647  0.95539999
   0.55578315  0.77735180  0.04460000
   0.77735180  0.22244981  0.95539999
   0.88911647  0.11068511  0.04460000
   0.77735180  0.55578315  0.95539999
   0.88911647  0.44401845  0.04460000
   0.77735180  0.88911647  0.95539999
   0.88911647  0.77735180  0.04460000
 
 position of ions in cartesian coordinates  (Angst):
  -5.78000005  3.36000019  0.00000000
   0.00000009  6.72000022  0.00000000
   5.77999993  6.71999999  0.00000000
   2.89000007  1.68000002  0.00000000
   0.00000000  0.00000000  0.00000000
   5.78000015  3.36000003  0.00000000
   0.00000005  3.36000011  0.00000000
  -2.88999998  5.04000020  0.00000000
   2.89000012  5.04000012  0.00000000
  -0.96899991  1.67900001 28.66199970
   0.96899995  1.67899998  1.33799996
  -3.85899993  3.35900011 28.66199970
  -1.92100007  3.35900008  1.33799996
  -6.74899970  5.03900005 28.66199970
  -4.81100010  5.03900017  1.33799996
   1.92100017  3.35900003 28.66199970
   3.85900003  3.35900000  1.33799996
  -0.96899986  5.03900012 28.66199970
   0.96900000  5.03900009  1.33799996
  -3.85899963  6.71900006 28.66199970
  -1.92100003  6.71900019  1.33799996
   4.81100024  5.03900004 28.66199970
   6.74899984  5.03899987  1.33799996
   1.92100021  6.71900014 28.66199970
   3.85899981  6.71899996  1.33799996
  -0.96899956  8.39900008 28.66199970
   0.96899979  8.39900005  1.33799996
 


--------------------------------------------------------------------------------------------------------


 k-point  1 :   0.0000 0.0000 0.0000  plane waves:   27959
 k-point  2 :   0.1250 0.0000 0.0000  plane waves:   27889
 k-point  3 :   0.2500 0.0000 0.0000  plane waves:   27875
 k-point  4 :   0.3750 0.0000 0.0000  plane waves:   27893
 k-point  5 :   0.5000 0.0000 0.0000  plane waves:   27932
 k-point  6 :   0.0000 0.1250 0.0000  plane waves:   27889
 k-point  7 :   0.1250 0.1250 0.0000  plane waves:   27906
 k-point  8 :   0.2500 0.1250 0.0000  plane waves:   27898
 k-point  9 :   0.3750 0.1250 0.0000  plane waves:   27888
 k-point 10 :   0.5000 0.1250 0.0000  plane waves:   27873
 k-point 11 :  -0.3750 0.1250 0.0000  plane waves:   27874
 k-point 12 :  -0.2500 0.1250 0.0000  plane waves:   27895
 k-point 13 :  -0.1250 0.1250 0.0000  plane waves:   27879
 k-point 14 :   0.0000 0.2500 0.0000  plane waves:   27875
 k-point 15 :   0.1250 0.2500 0.0000  plane waves:   27898
 k-point 16 :   0.2500 0.2500 0.0000  plane waves:   27920
 k-point 17 :   0.3750 0.2500 0.0000  plane waves:   27901
 k-point 18 :   0.5000 0.2500 0.0000  plane waves:   27875
 k-point 19 :  -0.3750 0.2500 0.0000  plane waves:   27894
 k-point 20 :  -0.2500 0.2500 0.0000  plane waves:   27870
 k-point 21 :  -0.1250 0.2500 0.0000  plane waves:   27895
 k-point 22 :  -0.0000 0.3750 0.0000  plane waves:   27893
 k-point 23 :   0.1250 0.3750 0.0000  plane waves:   27888
 k-point 24 :   0.2500 0.3750 0.0000  plane waves:   27901
 k-point 25 :   0.3750 0.3750 0.0000  plane waves:   27860
 k-point 26 :   0.5000 0.3750 0.0000  plane waves:   27895
 k-point 27 :  -0.3750 0.3750 0.0000  plane waves:   27858
 k-point 28 :  -0.2500 0.3750 0.0000  plane waves:   27894
 k-point 29 :  -0.1250 0.3750 0.0000  plane waves:   27874
 k-point 30 :   0.0000 0.5000 0.0000  plane waves:   27932
 k-point 31 :   0.1250 0.5000 0.0000  plane waves:   27873
 k-point 32 :   0.2500 0.5000 0.0000  plane waves:   27875
 k-point 33 :   0.3750 0.5000 0.0000  plane waves:   27895
 k-point 34 :   0.5000 0.5000 0.0000  plane waves:   27910

 maximum and minimum number of plane-waves per node :     27959    27858

 maximum number of plane-waves:     27959
 maximum index in each direction: 
   IXMAX=   14   IYMAX=   13   IZMAX=   40
   IXMIN=  -14   IYMIN=  -14   IZMIN=  -40

 WARNING: aliasing errors must be expected set NGX to  58 to avoid them
 WARNING: aliasing errors must be expected set NGY to  56 to avoid them
 WARNING: aliasing errors must be expected set NGZ to 162 to avoid them
 aliasing errors are usually negligible using standard VASP settings
 and one can safely disregard these warnings

 serial   3D FFT for wavefunctions

 total amount of memory used by VASP on root node   650782. kBytes
========================================================================

   base      :      30000. kBytes
   nonl-proj :     559647. kBytes
   fftplans  :       2414. kBytes
   grid      :      12150. kBytes
   one-center:        419. kBytes
   wavefun   :      46152. kBytes
 
     INWAV:  cpu time    0.0000: real time    0.0000
 Broyden mixing: mesh for mixing (old mesh)
   NGX = 27   NGY = 27   NGZ = 81
  (NGX  = 84   NGY  = 84   NGZ  =252)
  gives a total of  59049 points

 initial charge density was supplied:
 charge density of overlapping atoms calculated
 number of electron     159.0000000 magnetization 
 keeping initial charge density in first step


--------------------------------------------------------------------------------------------------------


 Maximum index for augmentation-charges          148 (set IRDMAX)


--------------------------------------------------------------------------------------------------------


 First call to EWALD:  gamma=   0.129
 Maximum number of real-space cells 4x 4x 2
 Maximum number of reciprocal cells 2x 2x 5

 FEWALD executed in parallel
    FEWALD:  cpu time    0.0016: real time    0.0017


----------------------------------------- Iteration    1(   1)  ---------------------------------------


    POTLOK:  cpu time    0.0366: real time    0.0369
    SETDIJ:  cpu time    0.0031: real time    0.0031
     EDDAV:  cpu time   22.2503: real time   22.3083
       DOS:  cpu time    0.0020: real time    0.0021
    --------------------------------------------
      LOOP:  cpu time   22.2936: real time   22.3619

 eigenvalue-minimisations  :  8200
 total energy-change (2. order) : 0.1119819E+04  (-0.3590598E+04)
 number of electron     159.0000000 magnetization 
 augmentation part      159.0000000 magnetization 

 Free energy of the ion-electron system (eV)
  ---------------------------------------------------
  alpha Z        PSCENC =        81.65567618
  Ewald energy   TEWEN  =     41890.25209520
  -Hartree energ DENC   =    -47722.88004248
  -exchange      EXHF   =         0.00000000
  -V(xc)+E(xc)   XCENC  =      -242.92955966
  PAW double counting   =      3467.42045192    -2871.19716117
  entropy T*S    EENTRO =        -0.53205301
  eigenvalues    EBANDS =      -243.41278719
  atomic energy  EATOM  =      6761.44252427
  Solvation  Ediel_sol  =         0.00000000
  ---------------------------------------------------
  free energy    TOTEN  =      1119.81914405 eV

  energy without entropy =     1120.35119706  energy(sigma->0) =     1120.08517056


--------------------------------------------------------------------------------------------------------




----------------------------------------- Iteration    1(   2)  ---------------------------------------


     EDDAV:  cpu time   28.7874: real time   28.8565
       DOS:  cpu time    0.0009: real time    0.0009
    --------------------------------------------
      LOOP:  cpu time   28.7892: real time   28.8598

 eigenvalue-minimisations  : 11240
 total energy-change (2. order) :-0.1125401E+04  (-0.1084828E+04)
 number of electron     159.0000000 magnetization 
 augmentation part      159.0000000 magnetization 

 Free energy of the ion-electron system (eV)
  ---------------------------------------------------
  alpha Z        PSCENC =        81.65567618
  Ewald energy   TEWEN  =     41890.25209520
  -Hartree energ DENC   =    -47722.88004248
  -exchange      EXHF   =         0.00000000
  -V(xc)+E(xc)   XCENC  =      -242.92955966
  PAW double counting   =      3467.42045192    -2871.19716117
  entropy T*S    EENTRO =        -0.20098714
  eigenvalues    EBANDS =     -1369.14474672
  atomic energy  EATOM  =      6761.44252427
  Solvation  Ediel_sol  =         0.00000000
  ---------------------------------------------------
  free energy    TOTEN  =        -5.58174961 eV

  energy without entropy =       -5.38076247  energy(sigma->0) =       -5.48125604


--------------------------------------------------------------------------------------------------------




----------------------------------------- Iteration    1(   3)  ---------------------------------------


     EDDAV:  cpu time   28.0272: real time   28.0946
       DOS:  cpu time    0.0011: real time    0.0011
    --------------------------------------------
      LOOP:  cpu time   28.0293: real time   28.0985

 eigenvalue-minimisations  : 10880
 total energy-change (2. order) :-0.1943512E+03  (-0.1868757E+03)
 number of electron     159.0000000 magnetization 
 augmentation part      159.0000000 magnetization 

 Free energy of the ion-electron system (eV)
  ---------------------------------------------------
  alpha Z        PSCENC =        81.65567618
  Ewald energy   TEWEN  =     41890.25209520
  -Hartree energ DENC   =    -47722.88004248
  -exchange      EXHF   =         0.00000000
  -V(xc)+E(xc)   XCENC  =      -242.92955966
  PAW double counting   =      3467.42045192    -2871.19716117
  entropy T*S    EENTRO =        -0.26263839
  eigenvalues    EBANDS =     -1563.43432541
  atomic energy  EATOM  =      6761.44252427
  Solvation  Ediel_sol  =         0.00000000
  ---------------------------------------------------
  free energy    TOTEN  =      -199.93297955 eV

  energy without entropy =     -199.67034116  energy(sigma->0) =     -199.80166035


--------------------------------------------------------------------------------------------------------




----------------------------------------- Iteration    1(   4)  ---------------------------------------


     EDDAV:  cpu time   30.4526: real time   30.5256
       DOS:  cpu time    0.0011: real time    0.0011
    --------------------------------------------
      LOOP:  cpu time   30.4548: real time   30.5299

 eigenvalue-minimisations  : 12040
 total energy-change (2. order) :-0.9001626E+01  (-0.8726536E+01)
 number of electron     159.0000000 magnetization 
 augmentation part      159.0000000 magnetization 

 Free energy of the ion-electron system (eV)
  ---------------------------------------------------
  alpha Z        PSCENC =        81.65567618
  Ewald energy   TEWEN  =     41890.25209520
  -Hartree energ DENC   =    -47722.88004248
  -exchange      EXHF   =         0.00000000
  -V(xc)+E(xc)   XCENC  =      -242.92955966
  PAW double counting   =      3467.42045192    -2871.19716117
  entropy T*S    EENTRO =        -0.29933260
  eigenvalues    EBANDS =     -1572.39925700
  atomic energy  EATOM  =      6761.44252427
  Solvation  Ediel_sol  =         0.00000000
  ---------------------------------------------------
  free energy    TOTEN  =      -208.93460535 eV

  energy without entropy =     -208.63527275  energy(sigma->0) =     -208.78493905


--------------------------------------------------------------------------------------------------------




----------------------------------------- Iteration    1(   5)  ---------------------------------------


     EDDAV:  cpu time   29.8560: real time   29.9274
       DOS:  cpu time    0.0010: real time    0.0010
    CHARGE:  cpu time    0.4669: real time    0.4681
    MIXING:  cpu time    0.0020: real time    0.0021
    --------------------------------------------
      LOOP:  cpu time   30.3270: real time   30.4015

 eigenvalue-minimisations  : 11760
 total energy-change (2. order) :-0.3411358E+00  (-0.3402431E+00)
 number of electron     159.0000111 magnetization 
 augmentation part       -9.7938704 magnetization 

 Broyden mixing:
  rms(total) = 0.27461E+01    rms(broyden)= 0.27456E+01
  rms(prec ) = 0.29314E+01
  weight for this iteration     100.00

 Free energy of the ion-electron system (eV)
  ---------------------------------------------------
  alpha Z        PSCENC =        81.65567618
  Ewald energy   TEWEN  =     41890.25209520
  -Hartree energ DENC   =    -47722.88004248
  -exchange      EXHF   =         0.00000000
  -V(xc)+E(xc)   XCENC  =      -242.92955966
  PAW double counting   =      3467.42045192    -2871.19716117
  entropy T*S    EENTRO =        -0.29610127
  eigenvalues    EBANDS =     -1572.74362411
  atomic energy  EATOM  =      6761.44252427
  Solvation  Ediel_sol  =         0.00000000
  ---------------------------------------------------
  free energy    TOTEN  =      -209.27574114 eV

  energy without entropy =     -208.97963986  energy(sigma->0) =     -209.12769050


--------------------------------------------------------------------------------------------------------




----------------------------------------- Iteration    1(   6)  ---------------------------------------


    POTLOK:  cpu time    0.0336: real time    0.0337
    SETDIJ:  cpu time    0.0026: real time    0.0026
     EDDAV:  cpu time   32.0726: real time   32.1498
       DOS:  cpu time    0.0011: real time    0.0012
    CHARGE:  cpu time    0.4611: real time    0.4622
    MIXING:  cpu time    0.0018: real time    0.0024
    --------------------------------------------
      LOOP:  cpu time   32.5738: real time   32.6543

 eigenvalue-minimisations  : 12840
 total energy-change (2. order) :-0.2787319E+02  (-0.1075840E+02)
 number of electron     159.0000106 magnetization 
 augmentation part        7.0832162 magnetization 

 Broyden mixing:
  rms(total) = 0.59376E+01    rms(broyden)= 0.59369E+01
  rms(prec ) = 0.65204E+01
  weight for this iteration     100.00

 eigenvalues of (default mixing * dielectric matrix)
  average eigenvalue GAMMA=   0.2933
  0.2933

 Free energy of the ion-electron system (eV)
  ---------------------------------------------------
  alpha Z        PSCENC =        81.65567618
  Ewald energy   TEWEN  =     41890.25209520
  -Hartree energ DENC   =    -47701.29689853
  -exchange      EXHF   =         0.00000000
  -V(xc)+E(xc)   XCENC  =      -233.63283817
  PAW double counting   =      3676.47656885    -3082.56814326
  entropy T*S    EENTRO =        -0.26877245
  eigenvalues    EBANDS =     -1629.20914163
  atomic energy  EATOM  =      6761.44252427
  Solvation  Ediel_sol  =         0.00000000
  ---------------------------------------------------
  free energy    TOTEN  =      -237.14892954 eV

  energy without entropy =     -236.88015709  energy(sigma->0) =     -237.01454332


--------------------------------------------------------------------------------------------------------




----------------------------------------- Iteration    1(   7)  ---------------------------------------


    POTLOK:  cpu time    0.0312: real time    0.0312
    SETDIJ:  cpu time    0.0025: real time    0.0026
     EDDAV:  cpu time   32.6754: real time   32.7535
       DOS:  cpu time    0.0010: real time    0.0010
    CHARGE:  cpu time    0.4702: real time    0.4713
    MIXING:  cpu time    0.0012: real time    0.0012
    --------------------------------------------
      LOOP:  cpu time   33.1827: real time   33.2635

 eigenvalue-minimisations  : 13120
 total energy-change (2. order) : 0.4048719E+02  (-0.1773948E+02)
 number of electron     159.0000087 magnetization 
 augmentation part       -6.2345955 magnetization 

 Broyden mixing:
  rms(total) = 0.20353E+01    rms(broyden)= 0.20333E+01
  rms(prec ) = 0.22597E+01
  weight for this iteration     100.00

 eigenvalues of (default mixing * dielectric matrix)
  average eigenvalue GAMMA=   0.5409
  0.8706  0.2112

 Free energy of the ion-electron system (eV)
  ---------------------------------------------------
  alpha Z        PSCENC =        81.65567618
  Ewald energy   TEWEN  =     41890.25209520
  -Hartree energ DENC   =    -47738.80185382
  -exchange      EXHF   =         0.00000000
  -V(xc)+E(xc)   XCENC  =      -235.01391905
  PAW double counting   =      3764.24901545    -3178.29071458
  entropy T*S    EENTRO =        -0.33542897
  eigenvalues    EBANDS =     -1541.81913464
  atomic energy  EATOM  =      6761.44252427
  Solvation  Ediel_sol  =         0.00000000
  ---------------------------------------------------
  free energy    TOTEN  =      -196.66173996 eV

  energy without entropy =     -196.32631099  energy(sigma->0) =     -196.49402547


--------------------------------------------------------------------------------------------------------




----------------------------------------- Iteration    1(   8)  ---------------------------------------


    POTLOK:  cpu time    0.0307: real time    0.0308
    SETDIJ:  cpu time    0.0024: real time    0.0024
     EDDAV:  cpu time   30.0131: real time   30.0849
       DOS:  cpu time    0.0010: real time    0.0011
    CHARGE:  cpu time    0.4728: real time    0.4739
    MIXING:  cpu time    0.0013: real time    0.0017
    --------------------------------------------
      LOOP:  cpu time   30.5223: real time   30.5978

 eigenvalue-minimisations  : 11880
 total energy-change (2. order) : 0.6579707E+01  (-0.2030862E+01)
 number of electron     159.0000095 magnetization 
 augmentation part       -6.3943948 magnetization 

 Broyden mixing:
  rms(total) = 0.13713E+01    rms(broyden)= 0.13708E+01
  rms(prec ) = 0.14815E+01
  weight for this iteration     100.00

 eigenvalues of (default mixing * dielectric matrix)
  average eigenvalue GAMMA=   0.5276
  1.0498  0.2563  0.2766

 Free energy of the ion-electron system (eV)
  ---------------------------------------------------
  alpha Z        PSCENC =        81.65567618
  Ewald energy   TEWEN  =     41890.25209520
  -Hartree energ DENC   =    -47761.64046098
  -exchange      EXHF   =         0.00000000
  -V(xc)+E(xc)   XCENC  =      -235.04277981
  PAW double counting   =      3903.05293950    -3318.65229298
  entropy T*S    EENTRO =        -0.26881311
  eigenvalues    EBANDS =     -1510.88092141
  atomic energy  EATOM  =      6761.44252427
  Solvation  Ediel_sol  =         0.00000000
  ---------------------------------------------------
  free energy    TOTEN  =      -190.08203313 eV

  energy without entropy =     -189.81322003  energy(sigma->0) =     -189.94762658


--------------------------------------------------------------------------------------------------------




----------------------------------------- Iteration    1(   9)  ---------------------------------------


    POTLOK:  cpu time    0.0305: real time    0.0308
    SETDIJ:  cpu time    0.0023: real time    0.0023
     EDDAV:  cpu time   30.4068: real time   30.4799
       DOS:  cpu time    0.0010: real time    0.0010
    CHARGE:  cpu time    0.4871: real time    0.4882
    MIXING:  cpu time    0.0012: real time    0.0012
    --------------------------------------------
      LOOP:  cpu time   30.9301: real time   31.0063

 eigenvalue-minimisations  : 12040
 total energy-change (2. order) : 0.1763900E+01  (-0.3509315E+00)
 number of electron     159.0000093 magnetization 
 augmentation part       -5.7218980 magnetization 

 Broyden mixing:
  rms(total) = 0.94028E+00    rms(broyden)= 0.93987E+00
  rms(prec ) = 0.10127E+01
  weight for this iteration     100.00

 eigenvalues of (default mixing * dielectric matrix)
  average eigenvalue GAMMA=   0.6964
  1.7099  0.5772  0.2198  0.2788

 Free energy of the ion-electron system (eV)
  ---------------------------------------------------
  alpha Z        PSCENC =        81.65567618
  Ewald energy   TEWEN  =     41890.25209520
  -Hartree energ DENC   =    -47765.72418429
  -exchange      EXHF   =         0.00000000
  -V(xc)+E(xc)   XCENC  =      -234.36120603
  PAW double counting   =      3961.45026169    -3377.76906536
  entropy T*S    EENTRO =        -0.32930471
  eigenvalues    EBANDS =     -1504.93493026
  atomic energy  EATOM  =      6761.44252427
  Solvation  Ediel_sol  =         0.00000000
  ---------------------------------------------------
  free energy    TOTEN  =      -188.31813331 eV

  energy without entropy =     -187.98882859  energy(sigma->0) =     -188.15348095


--------------------------------------------------------------------------------------------------------




----------------------------------------- Iteration    1(  10)  ---------------------------------------


    POTLOK:  cpu time    0.0315: real time    0.0316
    SETDIJ:  cpu time    0.0025: real time    0.0025
     EDDAV:  cpu time   33.0795: real time   33.1586
       DOS:  cpu time    0.0002: real time    0.0010
    CHARGE:  cpu time    0.4952: real time    0.4964
    MIXING:  cpu time    0.0013: real time    0.0013
    --------------------------------------------
      LOOP:  cpu time   33.6120: real time   33.6947

 eigenvalue-minimisations  : 13280
 total energy-change (2. order) : 0.1190960E+01  (-0.1782660E+00)
 number of electron     159.0000092 magnetization 
 augmentation part       -4.3964759 magnetization 

 Broyden mixing:
  rms(total) = 0.33876E+00    rms(broyden)= 0.33844E+00
  rms(prec ) = 0.37050E+00
  weight for this iteration     100.00

 eigenvalues of (default mixing * dielectric matrix)
  average eigenvalue GAMMA=   0.6967
  1.8727  0.6170  0.5120  0.2240  0.2578

 Free energy of the ion-electron system (eV)
  ---------------------------------------------------
  alpha Z        PSCENC =        81.65567618
  Ewald energy   TEWEN  =     41890.25209520
  -Hartree energ DENC   =    -47777.97938533
  -exchange      EXHF   =         0.00000000
  -V(xc)+E(xc)   XCENC  =      -232.74547014
  PAW double counting   =      4089.51944115    -3507.47707439
  entropy T*S    EENTRO =        -0.34230218
  eigenvalues    EBANDS =     -1491.45267773
  atomic energy  EATOM  =      6761.44252427
  Solvation  Ediel_sol  =         0.00000000
  ---------------------------------------------------
  free energy    TOTEN  =      -187.12717297 eV

  energy without entropy =     -186.78487079  energy(sigma->0) =     -186.95602188


--------------------------------------------------------------------------------------------------------




----------------------------------------- Iteration    1(  11)  ---------------------------------------


    POTLOK:  cpu time    0.0307: real time    0.0309
    SETDIJ:  cpu time    0.0024: real time    0.0024
     EDDAV:  cpu time   31.3041: real time   31.3793
       DOS:  cpu time    0.0010: real time    0.0010
    CHARGE:  cpu time    0.5000: real time    0.5012
    MIXING:  cpu time    0.0013: real time    0.0013
    --------------------------------------------
      LOOP:  cpu time   31.8406: real time   31.9193

 eigenvalue-minimisations  : 12480
 total energy-change (2. order) : 0.1146690E+00  (-0.6552670E-01)
 number of electron     159.0000092 magnetization 
 augmentation part       -4.2810059 magnetization 

 Broyden mixing:
  rms(total) = 0.23585E+00    rms(broyden)= 0.23550E+00
  rms(prec ) = 0.25912E+00
  weight for this iteration     100.00

 eigenvalues of (default mixing * dielectric matrix)
  average eigenvalue GAMMA=   0.8682
  1.9167  1.9167  0.6180  0.2865  0.2216  0.2496

 Free energy of the ion-electron system (eV)
  ---------------------------------------------------
  alpha Z        PSCENC =        81.65567618
  Ewald energy   TEWEN  =     41890.25209520
  -Hartree energ DENC   =    -47783.99179939
  -exchange      EXHF   =         0.00000000
  -V(xc)+E(xc)   XCENC  =      -232.39533817
  PAW double counting   =      4126.88586331    -3545.14851039
  entropy T*S    EENTRO =        -0.34869243
  eigenvalues    EBANDS =     -1485.36432256
  atomic energy  EATOM  =      6761.44252427
  Solvation  Ediel_sol  =         0.00000000
  ---------------------------------------------------
  free energy    TOTEN  =      -187.01250398 eV

  energy without entropy =     -186.66381155  energy(sigma->0) =     -186.83815776


--------------------------------------------------------------------------------------------------------




----------------------------------------- Iteration    1(  12)  ---------------------------------------


    POTLOK:  cpu time    0.0303: real time    0.0314
    SETDIJ:  cpu time    0.0025: real time    0.0025
     EDDAV:  cpu time   32.1525: real time   32.2297
       DOS:  cpu time    0.0011: real time    0.0011
    CHARGE:  cpu time    0.4989: real time    0.5002
    MIXING:  cpu time    0.0014: real time    0.0014
    --------------------------------------------
      LOOP:  cpu time   32.6889: real time   32.7691

 eigenvalue-minimisations  : 12880
 total energy-change (2. order) :-0.1772895E-01  (-0.4599986E-01)
 number of electron     159.0000089 magnetization 
 augmentation part       -4.4715084 magnetization 

 Broyden mixing:
  rms(total) = 0.35170E+00    rms(broyden)= 0.35159E+00
  rms(prec ) = 0.38900E+00
  weight for this iteration     100.00

 eigenvalues of (default mixing * dielectric matrix)
  average eigenvalue GAMMA=   0.7958
  1.9964  1.9964  0.6199  0.2753  0.2753  0.2173  0.1904

 Free energy of the ion-electron system (eV)
  ---------------------------------------------------
  alpha Z        PSCENC =        81.65567618
  Ewald energy   TEWEN  =     41890.25209520
  -Hartree energ DENC   =    -47796.79898618
  -exchange      EXHF   =         0.00000000
  -V(xc)+E(xc)   XCENC  =      -232.07256636
  PAW double counting   =      4179.74477262    -3597.97384171
  entropy T*S    EENTRO =        -0.33360192
  eigenvalues    EBANDS =     -1472.94630503
  atomic energy  EATOM  =      6761.44252427
  Solvation  Ediel_sol  =         0.00000000
  ---------------------------------------------------
  free energy    TOTEN  =      -187.03023293 eV

  energy without entropy =     -186.69663101  energy(sigma->0) =     -186.86343197


--------------------------------------------------------------------------------------------------------




----------------------------------------- Iteration    1(  13)  ---------------------------------------


    POTLOK:  cpu time    0.0308: real time    0.0308
    SETDIJ:  cpu time    0.0024: real time    0.0024
     EDDAV:  cpu time   32.7689: real time   32.8473
       DOS:  cpu time    0.0010: real time    0.0010
    CHARGE:  cpu time    0.5013: real time    0.5025
    MIXING:  cpu time    0.0014: real time    0.0014
    --------------------------------------------
      LOOP:  cpu time   33.3070: real time   33.3885

 eigenvalue-minimisations  : 13200
 total energy-change (2. order) : 0.9659663E-01  (-0.2947146E-01)
 number of electron     159.0000089 magnetization 
 augmentation part       -4.4212267 magnetization 

 Broyden mixing:
  rms(total) = 0.19213E+00    rms(broyden)= 0.19196E+00
  rms(prec ) = 0.21288E+00
  weight for this iteration     100.00

 eigenvalues of (default mixing * dielectric matrix)
  average eigenvalue GAMMA=   0.7774
  2.2757  1.7161  0.7315  0.5908  0.2987  0.2242  0.2419  0.1402

 Free energy of the ion-electron system (eV)
  ---------------------------------------------------
  alpha Z        PSCENC =        81.65567618
  Ewald energy   TEWEN  =     41890.25209520
  -Hartree energ DENC   =    -47799.24865459
  -exchange      EXHF   =         0.00000000
  -V(xc)+E(xc)   XCENC  =      -231.99134159
  PAW double counting   =      4187.47013184    -3605.68824777
  entropy T*S    EENTRO =        -0.33609808
  eigenvalues    EBANDS =     -1470.48972175
  atomic energy  EATOM  =      6761.44252427
  Solvation  Ediel_sol  =         0.00000000
  ---------------------------------------------------
  free energy    TOTEN  =      -186.93363630 eV

  energy without entropy =     -186.59753821  energy(sigma->0) =     -186.76558726


--------------------------------------------------------------------------------------------------------




----------------------------------------- Iteration    1(  14)  ---------------------------------------


    POTLOK:  cpu time    0.0304: real time    0.0307
    SETDIJ:  cpu time    0.0024: real time    0.0024
     EDDAV:  cpu time   32.1365: real time   32.2135
       DOS:  cpu time    0.0002: real time    0.0010
    CHARGE:  cpu time    0.4990: real time    0.5002
    MIXING:  cpu time    0.0015: real time    0.0015
    --------------------------------------------
      LOOP:  cpu time   32.6721: real time   32.7522

 eigenvalue-minimisations  : 12880
 total energy-change (2. order) : 0.2985852E-01  (-0.1078171E-01)
 number of electron     159.0000089 magnetization 
 augmentation part       -4.1742452 magnetization 

 Broyden mixing:
  rms(total) = 0.10173E+00    rms(broyden)= 0.10160E+00
  rms(prec ) = 0.11420E+00
  weight for this iteration     100.00

 eigenvalues of (default mixing * dielectric matrix)
  average eigenvalue GAMMA=   0.7360
  2.2899  1.6483  0.9498  0.6019  0.2987  0.2546  0.2229  0.2229  0.1355

 Free energy of the ion-electron system (eV)
  ---------------------------------------------------
  alpha Z        PSCENC =        81.65567618
  Ewald energy   TEWEN  =     41890.25209520
  -Hartree energ DENC   =    -47802.55708277
  -exchange      EXHF   =         0.00000000
  -V(xc)+E(xc)   XCENC  =      -231.87560064
  PAW double counting   =      4192.34080444    -3610.53380821
  entropy T*S    EENTRO =        -0.34104985
  eigenvalues    EBANDS =     -1467.28733642
  atomic energy  EATOM  =      6761.44252427
  Solvation  Ediel_sol  =         0.00000000
  ---------------------------------------------------
  free energy    TOTEN  =      -186.90377778 eV

  energy without entropy =     -186.56272793  energy(sigma->0) =     -186.73325286


--------------------------------------------------------------------------------------------------------




----------------------------------------- Iteration    1(  15)  ---------------------------------------


    POTLOK:  cpu time    0.0299: real time    0.0312
    SETDIJ:  cpu time    0.0025: real time    0.0025
     EDDAV:  cpu time   31.2171: real time   31.2917
       DOS:  cpu time    0.0002: real time    0.0010
    CHARGE:  cpu time    0.4996: real time    0.5008
    MIXING:  cpu time    0.0016: real time    0.0017
    --------------------------------------------
      LOOP:  cpu time   31.7541: real time   31.8319

 eigenvalue-minimisations  : 12440
 total energy-change (2. order) : 0.5543677E-02  (-0.4476251E-02)
 number of electron     159.0000090 magnetization 
 augmentation part       -4.1167600 magnetization 

 Broyden mixing:
  rms(total) = 0.10021E+00    rms(broyden)= 0.10014E+00
  rms(prec ) = 0.11141E+00
  weight for this iteration     100.00

 eigenvalues of (default mixing * dielectric matrix)
  average eigenvalue GAMMA=   0.6991
  2.2871  1.6361  1.0884  0.5998  0.3473  0.3022  0.2264  0.2361  0.1428  0.1250

 Free energy of the ion-electron system (eV)
  ---------------------------------------------------
  alpha Z        PSCENC =        81.65567618
  Ewald energy   TEWEN  =     41890.25209520
  -Hartree energ DENC   =    -47804.65693824
  -exchange      EXHF   =         0.00000000
  -V(xc)+E(xc)   XCENC  =      -231.83961700
  PAW double counting   =      4192.81332757    -3610.98032538
  entropy T*S    EENTRO =        -0.34302204
  eigenvalues    EBANDS =     -1465.24195467
  atomic energy  EATOM  =      6761.44252427
  Solvation  Ediel_sol  =         0.00000000
  ---------------------------------------------------
  free energy    TOTEN  =      -186.89823410 eV

  energy without entropy =     -186.55521206  energy(sigma->0) =     -186.72672308


--------------------------------------------------------------------------------------------------------




----------------------------------------- Iteration    1(  16)  ---------------------------------------


    POTLOK:  cpu time    0.0301: real time    0.0304
    SETDIJ:  cpu time    0.0024: real time    0.0024
     EDDAV:  cpu time   32.1020: real time   32.1789
       DOS:  cpu time    0.0010: real time    0.0010
    CHARGE:  cpu time    0.4997: real time    0.5009
    MIXING:  cpu time    0.0017: real time    0.0017
    --------------------------------------------
      LOOP:  cpu time   32.6382: real time   32.7180

 eigenvalue-minimisations  : 12840
 total energy-change (2. order) : 0.6414814E-02  (-0.1667582E-02)
 number of electron     159.0000090 magnetization 
 augmentation part       -4.1279713 magnetization 

 Broyden mixing:
  rms(total) = 0.48875E-01    rms(broyden)= 0.48834E-01
  rms(prec ) = 0.55063E-01
  weight for this iteration     100.00

 eigenvalues of (default mixing * dielectric matrix)
  average eigenvalue GAMMA=   0.7657
  2.3677  1.9373  1.4957  0.6941  0.6287  0.3082  0.2688  0.2242  0.2412  0.1386
  0.1187

 Free energy of the ion-electron system (eV)
  ---------------------------------------------------
  alpha Z        PSCENC =        81.65567618
  Ewald energy   TEWEN  =     41890.25209520
  -Hartree energ DENC   =    -47806.18453824
  -exchange      EXHF   =         0.00000000
  -V(xc)+E(xc)   XCENC  =      -231.82030664
  PAW double counting   =      4193.07918442    -3611.22915212
  entropy T*S    EENTRO =        -0.34337267
  eigenvalues    EBANDS =     -1463.74392969
  atomic energy  EATOM  =      6761.44252427
  Solvation  Ediel_sol  =         0.00000000
  ---------------------------------------------------
  free energy    TOTEN  =      -186.89181929 eV

  energy without entropy =     -186.54844662  energy(sigma->0) =     -186.72013295


--------------------------------------------------------------------------------------------------------




----------------------------------------- Iteration    1(  17)  ---------------------------------------


    POTLOK:  cpu time    0.0302: real time    0.0314
    SETDIJ:  cpu time    0.0025: real time    0.0025
     EDDAV:  cpu time   32.0406: real time   32.1172
       DOS:  cpu time    0.0012: real time    0.0012
    CHARGE:  cpu time    0.5000: real time    0.5012
    MIXING:  cpu time    0.0019: real time    0.0019
    --------------------------------------------
      LOOP:  cpu time   32.5785: real time   32.6584

 eigenvalue-minimisations  : 12840
 total energy-change (2. order) : 0.2700545E-02  (-0.7445764E-03)
 number of electron     159.0000090 magnetization 
 augmentation part       -4.1959772 magnetization 

 Broyden mixing:
  rms(total) = 0.17796E-01    rms(broyden)= 0.17732E-01
  rms(prec ) = 0.21668E-01
  weight for this iteration     100.00

 eigenvalues of (default mixing * dielectric matrix)
  average eigenvalue GAMMA=   0.7803
  2.3378  2.3378  1.4386  0.8606  0.6042  0.4936  0.3085  0.2237  0.2445  0.2573
  0.1384  0.1185

 Free energy of the ion-electron system (eV)
  ---------------------------------------------------
  alpha Z        PSCENC =        81.65567618
  Ewald energy   TEWEN  =     41890.25209520
  -Hartree energ DENC   =    -47811.85077558
  -exchange      EXHF   =         0.00000000
  -V(xc)+E(xc)   XCENC  =      -231.74700876
  PAW double counting   =      4194.70513520    -3612.79466301
  entropy T*S    EENTRO =        -0.34130536
  eigenvalues    EBANDS =     -1458.21079688
  atomic energy  EATOM  =      6761.44252427
  Solvation  Ediel_sol  =         0.00000000
  ---------------------------------------------------
  free energy    TOTEN  =      -186.88911874 eV

  energy without entropy =     -186.54781338  energy(sigma->0) =     -186.71846606


--------------------------------------------------------------------------------------------------------




----------------------------------------- Iteration    1(  18)  ---------------------------------------


    POTLOK:  cpu time    0.0306: real time    0.0306
    SETDIJ:  cpu time    0.0023: real time    0.0024
     EDDAV:  cpu time   29.5683: real time   29.6391
       DOS:  cpu time    0.0010: real time    0.0010
    CHARGE:  cpu time    0.5011: real time    0.5023
    MIXING:  cpu time    0.0019: real time    0.0019
    --------------------------------------------
      LOOP:  cpu time   30.1063: real time   30.1805

 eigenvalue-minimisations  : 11640
 total energy-change (2. order) : 0.5323941E-03  (-0.1883432E-03)
 number of electron     159.0000090 magnetization 
 augmentation part       -4.2061969 magnetization 

 Broyden mixing:
  rms(total) = 0.16458E-01    rms(broyden)= 0.16448E-01
  rms(prec ) = 0.19287E-01
  weight for this iteration     100.00

 eigenvalues of (default mixing * dielectric matrix)
  average eigenvalue GAMMA=   0.7871
  2.3689  2.3689  1.2623  1.2623  0.6656  0.6271  0.3878  0.3062  0.2239  0.2585
  0.2433  0.1385  0.1185

 Free energy of the ion-electron system (eV)
  ---------------------------------------------------
  alpha Z        PSCENC =        81.65567618
  Ewald energy   TEWEN  =     41890.25209520
  -Hartree energ DENC   =    -47815.32003576
  -exchange      EXHF   =         0.00000000
  -V(xc)+E(xc)   XCENC  =      -231.71254679
  PAW double counting   =      4194.95854848    -3613.01530754
  entropy T*S    EENTRO =        -0.34119910
  eigenvalues    EBANDS =     -1454.80834129
  atomic energy  EATOM  =      6761.44252427
  Solvation  Ediel_sol  =         0.00000000
  ---------------------------------------------------
  free energy    TOTEN  =      -186.88858635 eV

  energy without entropy =     -186.54738725  energy(sigma->0) =     -186.71798680


--------------------------------------------------------------------------------------------------------




----------------------------------------- Iteration    1(  19)  ---------------------------------------


    POTLOK:  cpu time    0.0297: real time    0.0309
    SETDIJ:  cpu time    0.0023: real time    0.0024
     EDDAV:  cpu time   27.9990: real time   28.0659
       DOS:  cpu time    0.0010: real time    0.0010
    CHARGE:  cpu time    0.5009: real time    0.5021
    MIXING:  cpu time    0.0010: real time    0.0019
    --------------------------------------------
      LOOP:  cpu time   28.5370: real time   28.6072

 eigenvalue-minimisations  : 10960
 total energy-change (2. order) : 0.2102456E-03  (-0.7610531E-04)
 number of electron     159.0000090 magnetization 
 augmentation part       -4.1829692 magnetization 

 Broyden mixing:
  rms(total) = 0.46175E-02    rms(broyden)= 0.46031E-02
  rms(prec ) = 0.75686E-02
  weight for this iteration     100.00

 eigenvalues of (default mixing * dielectric matrix)
  average eigenvalue GAMMA=   0.8828
  2.6850  2.6850  1.5783  1.4896  0.9980  0.6280  0.6280  0.3770  0.3069  0.2239
  0.2587  0.2433  0.1385  0.1184

 Free energy of the ion-electron system (eV)
  ---------------------------------------------------
  alpha Z        PSCENC =        81.65567618
  Ewald energy   TEWEN  =     41890.25209520
  -Hartree energ DENC   =    -47817.78410088
  -exchange      EXHF   =         0.00000000
  -V(xc)+E(xc)   XCENC  =      -231.69202011
  PAW double counting   =      4194.41743325    -3612.46003650
  entropy T*S    EENTRO =        -0.34164272
  eigenvalues    EBANDS =     -1452.37830479
  atomic energy  EATOM  =      6761.44252427
  Solvation  Ediel_sol  =         0.00000000
  ---------------------------------------------------
  free energy    TOTEN  =      -186.88837610 eV

  energy without entropy =     -186.54673339  energy(sigma->0) =     -186.71755474


--------------------------------------------------------------------------------------------------------




----------------------------------------- Iteration    1(  20)  ---------------------------------------


    POTLOK:  cpu time    0.0316: real time    0.0317
    SETDIJ:  cpu time    0.0025: real time    0.0025
     EDDAV:  cpu time   24.4088: real time   24.4676
       DOS:  cpu time    0.0011: real time    0.0011
    CHARGE:  cpu time    0.4994: real time    0.5006
    MIXING:  cpu time    0.0021: real time    0.0021
    --------------------------------------------
      LOOP:  cpu time   24.9466: real time   25.0083

 eigenvalue-minimisations  :  9240
 total energy-change (2. order) :-0.8858578E-03  (-0.8286818E-04)
 number of electron     159.0000090 magnetization 
 augmentation part       -4.1876353 magnetization 

 Broyden mixing:
  rms(total) = 0.42797E-02    rms(broyden)= 0.42787E-02
  rms(prec ) = 0.57090E-02
  weight for this iteration     100.00

 eigenvalues of (default mixing * dielectric matrix)
  average eigenvalue GAMMA=   0.9274
  3.1655  2.5463  1.9031  1.5142  0.9260  0.9260  0.6319  0.6319  0.3772  0.3069
  0.2239  0.2587  0.2433  0.1385  0.1185

 Free energy of the ion-electron system (eV)
  ---------------------------------------------------
  alpha Z        PSCENC =        81.65567618
  Ewald energy   TEWEN  =     41890.25209520
  -Hartree energ DENC   =    -47824.34584582
  -exchange      EXHF   =         0.00000000
  -V(xc)+E(xc)   XCENC  =      -231.63641522
  PAW double counting   =      4193.10422768    -3611.12544231
  entropy T*S    EENTRO =        -0.34132522
  eigenvalues    EBANDS =     -1445.89475672
  atomic energy  EATOM  =      6761.44252427
  Solvation  Ediel_sol  =         0.00000000
  ---------------------------------------------------
  free energy    TOTEN  =      -186.88926196 eV

  energy without entropy =     -186.54793674  energy(sigma->0) =     -186.71859935


--------------------------------------------------------------------------------------------------------




----------------------------------------- Iteration    1(  21)  ---------------------------------------


    POTLOK:  cpu time    0.0309: real time    0.0311
    SETDIJ:  cpu time    0.0024: real time    0.0024
     EDDAV:  cpu time   22.4470: real time   22.5011
       DOS:  cpu time    0.0010: real time    0.0010
    CHARGE:  cpu time    0.5004: real time    0.5017
    MIXING:  cpu time    0.0020: real time    0.0020
    --------------------------------------------
      LOOP:  cpu time   22.9849: real time   23.0418

 eigenvalue-minimisations  :  8280
 total energy-change (2. order) :-0.9426931E-03  (-0.2363218E-04)
 number of electron     159.0000090 magnetization 
 augmentation part       -4.1802362 magnetization 

 Broyden mixing:
  rms(total) = 0.37399E-02    rms(broyden)= 0.37358E-02
  rms(prec ) = 0.46990E-02
  weight for this iteration     100.00

 eigenvalues of (default mixing * dielectric matrix)
  average eigenvalue GAMMA=   0.9554
  3.6209  2.4275  2.1710  1.5949  1.0532  1.0532  0.6356  0.6356  0.4271  0.3772
  0.3069  0.2239  0.2587  0.2433  0.1385  0.1185

 Free energy of the ion-electron system (eV)
  ---------------------------------------------------
  alpha Z        PSCENC =        81.65567618
  Ewald energy   TEWEN  =     41890.25209520
  -Hartree energ DENC   =    -47827.32899055
  -exchange      EXHF   =         0.00000000
  -V(xc)+E(xc)   XCENC  =      -231.61632533
  PAW double counting   =      4192.71142745    -3610.73275593
  entropy T*S    EENTRO =        -0.34145515
  eigenvalues    EBANDS =     -1442.93240079
  atomic energy  EATOM  =      6761.44252427
  Solvation  Ediel_sol  =         0.00000000
  ---------------------------------------------------
  free energy    TOTEN  =      -186.89020465 eV

  energy without entropy =     -186.54874951  energy(sigma->0) =     -186.71947708


--------------------------------------------------------------------------------------------------------




----------------------------------------- Iteration    1(  22)  ---------------------------------------


    POTLOK:  cpu time    0.0308: real time    0.0309
    SETDIJ:  cpu time    0.0023: real time    0.0023
     EDDAV:  cpu time   18.6172: real time   18.6617
       DOS:  cpu time    0.0010: real time    0.0010
    CHARGE:  cpu time    0.4995: real time    0.5007
    MIXING:  cpu time    0.0021: real time    0.0021
    --------------------------------------------
      LOOP:  cpu time   19.1542: real time   19.2014

 eigenvalue-minimisations  :  6400
 total energy-change (2. order) :-0.7484574E-03  (-0.9455796E-05)
 number of electron     159.0000090 magnetization 
 augmentation part       -4.1798016 magnetization 

 Broyden mixing:
  rms(total) = 0.32888E-02    rms(broyden)= 0.32874E-02
  rms(prec ) = 0.38994E-02
  weight for this iteration     100.00

 eigenvalues of (default mixing * dielectric matrix)
  average eigenvalue GAMMA=   1.0809
  4.8455  2.5239  2.5239  1.7235  1.4815  0.9891  0.9891  0.6266  0.6266  0.2239
  0.2433  0.2587  0.3069  0.3815  0.3738  0.1385  0.1185

 Free energy of the ion-electron system (eV)
  ---------------------------------------------------
  alpha Z        PSCENC =        81.65567618
  Ewald energy   TEWEN  =     41890.25209520
  -Hartree energ DENC   =    -47829.27699343
[...]
    104      -0.6272      0.00000
    105      -0.4967      0.00000
    106      -0.3938      0.00000
    107      -0.3273      0.00000
    108      -0.0624      0.00000
    109      -0.0212      0.00000
    110       0.2413      0.00000
    111       0.4579      0.00000
    112       0.5777      0.00000
    113       0.8810      0.00000
    114       0.9428      0.00000
    115       1.0492      0.00000
    116       1.1984      0.00000
    117       1.5221      0.00000
    118       2.1474      0.00000
    119       2.3077      0.00000
    120       2.4144      0.00000

 k-point    34 :       0.5000    0.5000    0.0000
  band No.  band energies     occupation 
      1     -17.4743      2.00000
      2     -17.3774      2.00000
      3     -16.7952      2.00000
      4     -16.6806      2.00000
      5     -16.6477      2.00000
      6     -16.4924      2.00000
      7     -16.3214      2.00000
      8     -16.1863      2.00000
      9     -16.1502      2.00000
     10     -16.0547      2.00000
     11     -15.8259      2.00000
     12     -15.8224      2.00000
     13     -15.7782      2.00000
     14     -15.6800      2.00000
     15     -15.5796      2.00000
     16     -15.4626      2.00000
     17     -15.3514      2.00000
     18     -15.3246      2.00000
     19      -9.8177      2.00000
     20      -9.3749      2.00000
     21      -9.3149      2.00000
     22      -8.9668      2.00000
     23      -8.9343      2.00000
     24      -8.8147      2.00000
     25      -8.6690      2.00000
     26      -8.5921      2.00000
     27      -8.4311      2.00000
     28      -8.2979      2.00000
     29      -8.2321      2.00000
     30      -8.1505      2.00000
     31      -8.1017      2.00000
     32      -8.0196      2.00000
     33      -7.9167      2.00000
     34      -7.8678      2.00000
     35      -7.8520      2.00000
     36      -7.7346      2.00000
     37      -7.6143      2.00000
     38      -7.5148      2.00000
     39      -7.3975      2.00000
     40      -7.3455      2.00000
     41      -7.1178      2.00000
     42      -7.0398      2.00000
     43      -6.9861      2.00000
     44      -6.8648      2.00000
     45      -6.8170      2.00000
     46      -6.7054      2.00000
     47      -6.6184      2.00000
     48      -6.6019      2.00000
     49      -6.5395      2.00000
     50      -6.5119      2.00000
     51      -6.4328      2.00000
     52      -6.3885      2.00000
     53      -6.2834      2.00000
     54      -6.2587      2.00000
     55      -6.1790      2.00000
     56      -6.0395      2.00000
     57      -5.9993      2.00000
     58      -5.8417      2.00000
     59      -5.8227      2.00000
     60      -5.8001      2.00000
     61      -5.6329      2.00000
     62      -5.5942      2.00000
     63      -5.4869      2.00000
     64      -5.4134      2.00000
     65      -5.2145      2.00000
     66      -5.1187      2.00000
     67      -4.9963      2.00000
     68      -4.9060      2.00000
     69      -4.8299      2.00000
     70      -4.6038      2.00000
     71      -4.5610      2.00000
     72      -4.5279      2.00000
     73      -4.3187      2.00000
     74      -4.2878      2.00000
     75      -4.2123      2.00000
     76      -4.0754      2.00000
     77      -3.7980      1.99995
     78      -3.7440      1.99978
     79      -3.6296      1.99604
     80      -3.1128      0.43926
     81      -3.0039      0.12280
     82      -2.9017      0.02343
     83      -2.6964      0.00020
     84      -2.6250      0.00002
     85      -2.5313      0.00000
     86      -2.3485      0.00000
     87      -2.1925      0.00000
     88      -2.1094      0.00000
     89      -2.0104      0.00000
     90      -1.9181      0.00000
     91      -1.7152      0.00000
     92      -1.5001      0.00000
     93      -1.3322      0.00000
     94      -1.3008      0.00000
     95      -1.2402      0.00000
     96      -1.1807      0.00000
     97      -1.0827      0.00000
     98      -0.9828      0.00000
     99      -0.8964      0.00000
    100      -0.8363      0.00000
    101      -0.7959      0.00000
    102      -0.7431      0.00000
    103      -0.6286      0.00000
    104      -0.6048      0.00000
    105      -0.5779      0.00000
    106      -0.4243      0.00000
    107      -0.3346      0.00000
    108      -0.0925      0.00000
    109      -0.0605      0.00000
    110       0.2646      0.00000
    111       0.4424      0.00000
    112       0.5893      0.00000
    113       0.9287      0.00000
    114       0.9516      0.00000
    115       1.0328      0.00000
    116       1.2228      0.00000
    117       1.5774      0.00000
    118       2.2304      0.00000
    119       2.2699      0.00000
    120       2.3944      0.00000


--------------------------------------------------------------------------------------------------------


 soft charge-density along one line, spin component           1
         0         1         2         3         4         5         6         7         8         9
 total charge-density along one line
 
 pseudopotential strength for first ion, spin component:           1
 -7.180  -0.027   0.031  -0.018  -0.002   0.661   0.007  -0.009
 -0.027  -7.091  -0.010  -0.024   0.018   0.007   0.635   0.003
  0.031  -0.010  -7.036  -0.014  -0.012  -0.009   0.003   0.620
 -0.018  -0.024  -0.014  -7.076  -0.010   0.005   0.007   0.004
 -0.002   0.018  -0.012  -0.010  -7.182   0.001  -0.005   0.003
  0.661   0.007  -0.009   0.005   0.001   0.337  -0.002   0.003
  0.007   0.635   0.003   0.007  -0.005  -0.002   0.345  -0.001
 -0.009   0.003   0.620   0.004   0.003   0.003  -0.001   0.349
  0.005   0.007   0.004   0.630   0.004  -0.002  -0.002  -0.001
  0.001  -0.005   0.003   0.004   0.662  -0.000   0.002  -0.001
  0.009   0.006  -0.022   0.007  -0.003  -0.002  -0.002   0.005
  0.003   0.002  -0.007   0.002  -0.001  -0.001  -0.000   0.002
 -0.005  -0.002  -0.002   0.002  -0.006   0.000   0.000  -0.001
  0.002   0.010   0.001  -0.006   0.002  -0.000  -0.000  -0.000
  0.007   0.002   0.002   0.002  -0.005   0.000  -0.000  -0.000
 -0.002  -0.001  -0.001   0.002  -0.004   0.000   0.000   0.000
  0.002   0.008   0.001  -0.004   0.002  -0.000  -0.001  -0.000
  0.005   0.002   0.000   0.002  -0.003  -0.001  -0.000  -0.000
 total augmentation occupancy for first ion, spin component:           1
  0.842   0.125   0.073  -0.012  -0.050   0.446   0.213   0.010   0.003  -0.009  -0.030   0.000  -0.003   0.043  -0.004   0.001
  0.125   1.064  -0.045   0.026   0.011   0.211   0.632  -0.028   0.012  -0.002   0.008  -0.003  -0.041   0.060   0.042  -0.002
  0.073  -0.045   0.888  -0.022  -0.028   0.007  -0.027   0.344   0.021   0.000   0.132   0.005   0.061   0.005  -0.021   0.003
 -0.012   0.026  -0.022   1.054  -0.156   0.002   0.012   0.020   0.654  -0.216  -0.004  -0.000   0.061  -0.037   0.023   0.002
 -0.050   0.011  -0.028  -0.156   0.813  -0.010  -0.001  -0.001  -0.218   0.438  -0.013   0.002   0.027   0.037  -0.003   0.003
  0.446   0.211   0.007   0.002  -0.010   0.381   0.219  -0.002   0.003   0.004   0.011   0.001  -0.015   0.058   0.026   0.000
  0.213   0.632  -0.027   0.012  -0.001   0.219   0.570  -0.016   0.005   0.001  -0.012  -0.003  -0.039   0.082   0.055  -0.003
  0.010  -0.028   0.344   0.020  -0.001  -0.002  -0.016   0.276   0.014  -0.004   0.033   0.009   0.020   0.003  -0.011   0.004
  0.003   0.012   0.021   0.654  -0.218   0.003   0.005   0.014   0.586  -0.219   0.015   0.001   0.054  -0.045   0.032   0.004
 -0.009  -0.002   0.000  -0.216   0.438   0.004   0.001  -0.004  -0.219   0.370   0.013   0.001  -0.022   0.036  -0.012   0.001
 -0.030   0.008   0.132  -0.004  -0.013   0.011  -0.012   0.033   0.015   0.013   1.375   0.140   0.024  -0.009  -0.029   0.002
  0.000  -0.003   0.005  -0.000   0.002   0.001  -0.003   0.009   0.001   0.001   0.140   0.026   0.009   0.000  -0.004   0.001
 -0.003  -0.041   0.061   0.061   0.027  -0.015  -0.039   0.020   0.054  -0.022   0.024   0.009   0.355  -0.000  -0.008   0.027
  0.043   0.060   0.005  -0.037   0.037   0.058   0.082   0.003  -0.045   0.036  -0.009   0.000  -0.000   0.415   0.000   0.000
 -0.004   0.042  -0.021   0.023  -0.003   0.026   0.055  -0.011   0.032  -0.012  -0.029  -0.004  -0.008   0.000   0.354   0.000
  0.001  -0.002   0.003   0.002   0.003   0.000  -0.003   0.004   0.004   0.001   0.002   0.001   0.027   0.000   0.000   0.003
  0.002  -0.002  -0.000  -0.000   0.001   0.004   0.005   0.000  -0.003   0.003  -0.000  -0.000   0.000   0.029  -0.000  -0.000
 -0.003   0.002  -0.002   0.001   0.001  -0.001   0.004  -0.002   0.002   0.001  -0.001  -0.000   0.000  -0.000   0.027   0.000


------------------------ aborting loop because EDIFF is reached ----------------------------------------


    CHARGE:  cpu time    0.4598: real time    0.4609
    FORLOC:  cpu time    0.0063: real time    0.0064
    FORNL :  cpu time    5.2136: real time    5.2261
    STRESS:  cpu time   32.4640: real time   32.5418
    FORCOR:  cpu time    0.0339: real time    0.0340
    FORHAR:  cpu time    0.0123: real time    0.0123
    MIXING:  cpu time    0.0010: real time    0.0011
    OFIELD:  cpu time    0.0000: real time    0.0000

  FORCE on cell =-STRESS in cart. coord.  units (eV):
  Direction    XX          YY          ZZ          XY          YZ          ZX
  --------------------------------------------------------------------------------------
  Alpha Z    89.13141    89.13141    89.13141
  Ewald   49190.15357 49143.51076-54100.45363    37.58005   -18.64282     8.58060
  Hartree 49895.52527 49866.22542-49522.56126    23.52979   -11.41583     6.28996
  E(xc)    -609.60494  -610.81889  -617.65304     1.01145     0.84851    -0.39362
  Local  ************************101060.76701   -52.49767    38.69314   -19.95962
  n-local  1214.01063  1215.79930  1248.40005    -1.32424     2.37496    -1.98472
  augment  -212.95192  -213.07587  -214.87212    -0.66101    -0.84274     0.09673
  Kinetic  2005.96259  2016.51263  2055.14456    -7.66362   -10.88845     7.28097
  Fock        0.00000     0.00000     0.00000     0.00000     0.00000     0.00000
  -------------------------------------------------------------------------------------
  Total      -0.06858     0.00301    -2.09701    -0.02524     0.12677    -0.08969
  in kB      -0.04575     0.00201    -1.39880    -0.01684     0.08456    -0.05983
  external pressure =       -0.48 kB  Pullay stress =        0.00 kB


 VOLUME and BASIS-vectors are now :
 -----------------------------------------------------------------------------
  energy-cutoff  :      280.00
  volume of cell :     2401.91
      direct lattice vectors                 reciprocal lattice vectors
     8.308468297  4.803311962  0.000000000     0.060272536  0.103934025  0.000000000
    -8.321334059  4.825637243  0.000000000    -0.059993691  0.103773331  0.000000000
     0.000000000  0.000000000 30.000000000     0.000000000  0.000000000  0.033333333

  length of vectors
     9.597002201  9.619323018 30.000000000     0.120145995  0.119867207  0.033333333


 FORCES acting on ions
    electron-ion (+dipol)            ewald-force                    non-local-force                 convergence-correction
 -----------------------------------------------------------------------------------------------
   -.114E+02 0.238E+02 -.105E+02   0.118E+02 -.254E+02 0.103E+02   -.449E+00 0.152E+01 0.196E+00   0.465E-01 -.148E-01 0.115E-01
   -.109E+02 0.190E+02 -.199E+02   0.118E+02 -.201E+02 0.198E+02   -.948E+00 0.107E+01 0.172E+00   0.498E-01 0.340E-01 0.268E-01
   0.112E+02 -.197E+02 0.204E+02   -.119E+02 0.209E+02 -.202E+02   0.739E+00 -.126E+01 -.223E+00   -.369E-01 0.298E-01 -.342E-01
   -.239E+00 0.874E+01 -.215E+01   0.196E+00 -.841E+01 0.221E+01   0.364E-01 -.227E+00 -.624E-01   0.392E-02 -.876E-01 0.675E-02
   0.144E+02 0.144E+02 -.182E+01   -.144E+02 -.143E+02 0.179E+01   0.112E-02 -.582E-01 0.280E-01   0.424E-01 -.233E-01 0.164E-02
   -.203E+02 -.108E+02 -.102E+01   0.202E+02 0.107E+02 0.108E+01   0.115E+00 0.434E-01 -.492E-01   -.742E-02 0.372E-01 -.108E-01
   0.235E+02 -.287E+02 0.154E+02   -.241E+02 0.293E+02 -.152E+02   0.682E+00 -.547E+00 -.204E+00   -.269E-01 -.163E-01 0.133E-02
   -.201E+02 0.281E+02 -.112E+02   0.208E+02 -.290E+02 0.110E+02   -.647E+00 0.902E+00 0.152E+00   -.816E-01 -.791E-01 0.321E-02
   0.134E+02 -.337E+02 0.123E+02   -.136E+02 0.346E+02 -.121E+02   0.214E+00 -.101E+01 -.263E+00   0.279E-01 0.662E-01 -.532E-02
   0.195E+02 -.147E+02 0.606E+03   -.200E+02 0.151E+02 -.610E+03   0.590E+00 -.377E+00 0.389E+01   -.688E-01 -.133E-01 0.293E-01
   0.129E+02 -.868E+01 -.627E+03   -.138E+02 0.925E+01 0.630E+03   0.960E+00 -.528E+00 -.340E+01   0.176E-01 -.295E-01 0.149E-01
   -.561E+01 0.140E+02 0.494E+03   0.556E+01 -.140E+02 -.499E+03   0.158E+00 0.781E-01 0.479E+01   -.106E+00 -.326E-01 0.110E+00
   0.811E+01 -.458E+01 -.488E+03   -.796E+01 0.407E+01 0.494E+03   -.821E-01 0.539E+00 -.505E+01   -.657E-01 -.408E-01 -.242E-01
   -.658E+01 0.202E+02 0.604E+03   0.670E+01 -.216E+02 -.607E+03   -.190E+00 0.152E+01 0.295E+01   0.752E-01 -.103E+00 0.874E-01
   -.101E+02 0.251E+02 -.603E+03   0.106E+02 -.259E+02 0.606E+03   -.413E+00 0.995E+00 -.334E+01   -.679E-01 -.117E+00 -.947E-01
   0.130E+02 -.217E+02 0.626E+03   -.135E+02 0.223E+02 -.630E+03   0.487E+00 -.608E+00 0.374E+01   0.622E-02 -.785E-02 -.206E-01
   0.228E+01 -.176E+02 -.629E+03   -.230E+01 0.186E+02 0.633E+03   0.171E-01 -.900E+00 -.345E+01   -.283E-02 -.747E-02 0.199E-01
   -.551E+01 0.249E+01 0.491E+03   0.532E+01 -.187E+01 -.496E+03   0.209E+00 -.548E+00 0.497E+01   -.222E-01 -.450E-01 -.324E-01
   0.104E+02 -.178E+02 -.506E+03   -.105E+02 0.180E+02 0.511E+03   0.104E+00 -.251E+00 -.502E+01   0.250E-01 0.213E-02 0.203E-01
   -.131E+02 0.152E+02 0.624E+03   0.141E+02 -.158E+02 -.628E+03   -.981E+00 0.629E+00 0.339E+01   -.218E-01 -.267E-01 -.800E-02
   -.197E+02 0.156E+02 -.603E+03   0.203E+02 -.160E+02 0.606E+03   -.674E+00 0.407E+00 -.376E+01   -.277E-01 -.757E-02 0.357E-01
   0.262E+01 -.248E+02 0.602E+03   -.270E+01 0.256E+02 -.606E+03   0.496E-01 -.887E+00 0.374E+01   0.291E-01 0.699E-01 0.355E-01
   0.350E+01 -.567E+01 -.568E+03   -.442E+01 0.741E+01 0.571E+03   0.931E+00 -.178E+01 -.309E+01   -.231E-01 0.519E-01 -.299E-01
   -.184E+00 0.396E+01 0.484E+03   -.252E+00 -.327E+01 -.489E+03   0.300E+00 -.807E+00 0.474E+01   0.116E+00 0.116E+00 0.518E-01
   0.578E+00 -.115E+02 -.484E+03   -.489E+00 0.115E+02 0.489E+03   -.458E-01 -.128E+00 -.479E+01   -.202E-01 0.129E+00 -.962E-01
   -.559E+01 0.657E+01 0.564E+03   0.674E+01 -.852E+01 -.567E+03   -.114E+01 0.188E+01 0.300E+01   -.118E-02 0.530E-01 -.354E-01
   -.558E+01 0.222E+02 -.589E+03   0.577E+01 -.231E+02 0.592E+03   -.356E+00 0.894E+00 -.339E+01   0.157E+00 0.351E-01 -.600E-01
 -----------------------------------------------------------------------------------------------
   0.316E+00 -.550E+00 0.348E+00   -.231E-13 -.746E-13 0.227E-12   -.334E+00 0.572E+00 -.346E+00   0.172E-01 -.266E-01 0.424E-02
 
 
 POSITION                                       TOTAL-FORCE (eV/Angst)
 -----------------------------------------------------------------------------------
     -5.68090      3.45315      0.04492         0.007519     -0.014549      0.013982
     -0.16834      6.70910      0.07250        -0.007998      0.015218      0.043991
      5.69932      6.13456     -0.07452         0.009173     -0.009995     -0.043348
      2.76423      1.64516      0.00765        -0.002604      0.016528     -0.001235
      0.14156      0.11946      0.00386        -0.006682      0.000957     -0.001434
      5.37291      3.10465      0.00282         0.000420     -0.011894     -0.004179
      0.17943      2.96032     -0.05240         0.004183      0.008273     -0.007492
     -2.94913      5.06522      0.04158        -0.003206     -0.007653      0.002294
      2.88953      4.54217     -0.04405        -0.003878      0.005470     -0.007579
     -0.92052      1.58168     28.33720         0.025522      0.004129     -0.017754
      0.95942      1.59412      1.69167        -0.010676      0.009541     -0.014526
     -3.71034      3.18358     28.69151         0.003734     -0.002036     -0.006602
     -1.86650      3.18353      1.28340        -0.000495     -0.015183     -0.013930
     -6.44289      4.80795     28.38232         0.004603     -0.008605      0.015389
     -4.65926      4.79699      1.64508        -0.006481      0.013351      0.008528
      1.85634      3.18515     28.28204         0.004475      0.000333     -0.004449
      3.68446      3.16665      1.69838        -0.002557      0.015480     -0.014061
     -0.90645      4.84551     28.70780         0.000228      0.019045      0.020177
      0.89855      4.84047      1.34351         0.002079      0.006373      0.002042
     -3.74759      6.43546     28.31579         0.003292     -0.014590      0.012168
     -1.85941      6.45228      1.65183        -0.014259     -0.006074      0.014465
      4.63461      4.79698     28.35024        -0.005096     -0.018291     -0.016646
      6.47695      4.77654      1.51367        -0.013231      0.009902     -0.015364
      1.81531      6.43141     28.72954        -0.019239      0.005372      0.011427
      3.71424      6.42187      1.26857         0.022597     -0.013097     -0.007366
     -0.95358      8.06280     28.49735         0.008789     -0.020317      0.011767
      0.93215      8.03677      1.60774        -0.000213      0.012311      0.019734
 -----------------------------------------------------------------------------------
    total drift:                               -0.001055     -0.004341      0.006427


--------------------------------------------------------------------------------------------------------



  FREE ENERGIE OF THE ION-ELECTRON SYSTEM (eV)
  ---------------------------------------------------
  free  energy   TOTEN  =      -192.46327513 eV

  energy  without entropy=     -192.33616176  energy(sigma->0) =     -192.39971844
 
 d Force = 0.6447161E-03[ 0.558E-03, 0.731E-03]  d Energy = 0.6982316E-03-0.535E-04
 d Force = 0.1819852E+01[ 0.182E+01, 0.182E+01]  d Ewald  = 0.1668091E+02-0.149E+02


--------------------------------------------------------------------------------------------------------


    POTLOK:  cpu time    0.0340: real time    0.0341


--------------------------------------------------------------------------------------------------------


 Quasi-Newton relaxation of ions (Broydens 2nd method)
  g(Force)  = 0.665E-03   g(Stress)= 0.107E-04

 retain information from N=  3 steps
 eigenvalues of (default step * inverse Hessian matrix)
  average eigenvalue of G=   2.8356
 eigenvalue spectrum of G is  5.1202  3.1747  0.2119


--------------------------------------------------------------------------------------------------------


  
 reached required accuracy - stopping structural energy minimisation
     LOOP+:  cpu time  115.0250: real time  115.3111
    4ORBIT:  cpu time    0.0001: real time    0.0185

 total amount of memory used by VASP on root node   650782. kBytes
========================================================================

   base      :      30000. kBytes
   nonl-proj :     559647. kBytes
   fftplans  :       2414. kBytes
   grid      :      12150. kBytes
   one-center:        419. kBytes
   wavefun   :      46152. kBytes
 
  
  
 General timing and accounting informations for this job:
 ========================================================
  
                  Total CPU time used (sec):     5876.686
                            User time (sec):     5851.961
                          System time (sec):       24.725
                         Elapsed time (sec):     5892.263
  
                   Maximum memory used (kb):      735480.
                   Average memory used (kb):           0.
  
                          Minor page faults:       919810
                          Major page faults:            5
                 Voluntary context switches:         5310
