<?xml version="1.0" encoding="ISO-8859-1"?>
<modeling>
 <generator>
  <i name="program" type="string">vasp </i>
  <i name="version" type="string">5.4.1  </i>
  <i name="subversion" type="string">05Feb16 (build Jul 05 2020 17:13:04) complex                          parallel </i>
  <i name="platform" type="string">IFC91_ompi </i>
  <i name="date" type="string">2024 07 14 </i>
  <i name="time" type="string">16:23:46 </i>
 </generator>
 <incar>
  <i type="int" name="ISTART">     0</i>
  <i type="string" name="PREC">normal</i>
  <i type="string" name="ALGO"> Normal</i>
  <i type="int" name="ISPIN">     1</i>
  <i type="int" name="ICHARG">     2</i>
  <i type="int" name="IBRION">     1</i>
  <i type="int" name="NSW">   100</i>
  <i type="int" name="ISIF">     3</i>
  <i type="int" name="ISYM">     0</i>
  <i name="SYMPREC">      0.00000001</i>
  <i name="POTIM">      0.50000000</i>
  <i type="logical" name="LREAL"> F  </i>
  <i type="logical" name="LPLANE"> F  </i>
  <i type="int" name="ISMEAR">     0</i>
  <i type="logical" name="LWAVE"> F  </i>
  <i type="logical" name="LCHARG"> F  </i>
  <v type="int" name="KPOINT_BSE">    -1     0     0     0</v>
 </incar>
 <kpoints>
  <generation param="Gamma">
   <v type="int" name="divisions">       8        8        1 </v>
   <v name="usershift">      0.00000000       0.00000000       0.00000000 </v>
   <v name="genvec1">      0.12500000       0.00000000       0.00000000 </v>
   <v name="genvec2">     -0.00000000       0.12500000       0.00000000 </v>
   <v name="genvec3">      0.00000000       0.00000000       1.00000000 </v>
   <v name="shift">      0.00000000       0.00000000       0.00000000 </v>
  </generation>
  <varray name="kpointlist" >
   <v>       0.00000000       0.00000000       0.00000000 </v>
   <v>       0.12500000       0.00000000       0.00000000 </v>
   <v>       0.25000000       0.00000000       0.00000000 </v>
   <v>       0.37500000       0.00000000       0.00000000 </v>
   <v>       0.50000000       0.00000000       0.00000000 </v>
   <v>       0.00000000       0.12500000       0.00000000 </v>
   <v>       0.12500000       0.12500000       0.00000000 </v>
   <v>       0.25000000       0.12500000       0.00000000 </v>
   <v>       0.37500000       0.12500000       0.00000000 </v>
   <v>       0.50000000       0.12500000       0.00000000 </v>
   <v>      -0.37500000       0.12500000       0.00000000 </v>
   <v>      -0.25000000       0.12500000       0.00000000 </v>
   <v>      -0.12500000       0.12500000       0.00000000 </v>
   <v>       0.00000000       0.25000000       0.00000000 </v>
   <v>       0.12500000       0.25000000       0.00000000 </v>
   <v>       0.25000000       0.25000000       0.00000000 </v>
   <v>       0.37500000       0.25000000       0.00000000 </v>
   <v>       0.50000000       0.25000000       0.00000000 </v>
   <v>      -0.37500000       0.25000000       0.00000000 </v>
   <v>      -0.25000000       0.25000000       0.00000000 </v>
   <v>      -0.12500000       0.25000000       0.00000000 </v>
   <v>      -0.00000000       0.37500000       0.00000000 </v>
   <v>       0.12500000       0.37500000       0.00000000 </v>
   <v>       0.25000000       0.37500000       0.00000000 </v>
   <v>       0.37500000       0.37500000       0.00000000 </v>
   <v>       0.50000000       0.37500000       0.00000000 </v>
   <v>      -0.37500000       0.37500000       0.00000000 </v>
   <v>      -0.25000000       0.37500000       0.00000000 </v>
   <v>      -0.12500000       0.37500000       0.00000000 </v>
   <v>       0.00000000       0.50000000       0.00000000 </v>
   <v>       0.12500000       0.50000000       0.00000000 </v>
   <v>       0.25000000       0.50000000       0.00000000 </v>
   <v>       0.37500000       0.50000000       0.00000000 </v>
   <v>       0.50000000       0.50000000       0.00000000 </v>
  </varray>
  <varray name="weights" >
   <v>       0.01562500 </v>
   <v>       0.03125000 </v>
   <v>       0.03125000 </v>
   <v>       0.03125000 </v>
   <v>       0.01562500 </v>
   <v>       0.03125000 </v>
   <v>       0.03125000 </v>
   <v>       0.03125000 </v>
   <v>       0.03125000 </v>
   <v>       0.03125000 </v>
   <v>       0.03125000 </v>
   <v>       0.03125000 </v>
   <v>       0.03125000 </v>
   <v>       0.03125000 </v>
   <v>       0.03125000 </v>
   <v>       0.03125000 </v>
   <v>       0.03125000 </v>
   <v>       0.03125000 </v>
   <v>       0.03125000 </v>
   <v>       0.03125000 </v>
   <v>       0.03125000 </v>
   <v>       0.03125000 </v>
   <v>       0.03125000 </v>
   <v>       0.03125000 </v>
   <v>       0.03125000 </v>
   <v>       0.03125000 </v>
   <v>       0.03125000 </v>
   <v>       0.03125000 </v>
   <v>       0.03125000 </v>
   <v>       0.01562500 </v>
   <v>       0.03125000 </v>
   <v>       0.03125000 </v>
   <v>       0.03125000 </v>
   <v>       0.01562500 </v>
  </varray>
 </kpoints>
 <parameters>
  <separator name="general" >
   <i type="string" name="SYSTEM">unknown system</i>
   <i type="logical" name="LCOMPAT"> F  </i>
  </separator>
  <separator name="electronic" >
   <i type="string" name="PREC">normal</i>
   <i name="ENMAX">    280.00000000</i>
   <i name="ENAUG">    373.43800000</i>
   <i name="EDIFF">      0.00010000</i>
   <i type="int" name="IALGO">    38</i>
   <i type="int" name="IWAVPR">    11</i>
   <i type="int" name="NBANDS">   120</i>
   <i name="NELECT">    159.00000000</i>
   <i type="int" name="TURBO">     0</i>
   <i type="int" name="IRESTART">     0</i>
   <i type="int" name="NREBOOT">     0</i>
   <i type="int" name="NMIN">     0</i>
   <i name="EREF">      0.00000000</i>
   <separator name="electronic smearing" >
    <i type="int" name="ISMEAR">     0</i>
    <i name="SIGMA">      0.20000000</i>
    <i name="KSPACING">      0.50000000</i>
    <i type="logical" name="KGAMMA"> T  </i>
   </separator>
   <separator name="electronic projectors" >
    <i type="logical" name="LREAL"> F  </i>
    <v name="ROPT">      0.00000000      0.00000000      0.00000000      0.00000000</v>
    <i type="int" name="LMAXPAW">  -100</i>
    <i type="int" name="LMAXMIX">     2</i>
    <i type="logical" name="NLSPLINE"> F  </i>
   </separator>
   <separator name="electronic startup" >
    <i type="int" name="ISTART">     0</i>
    <i type="int" name="ICHARG">     2</i>
    <i type="int" name="INIWAV">     1</i>
   </separator>
   <separator name="electronic spin" >
    <i type="int" name="ISPIN">     1</i>
    <i type="logical" name="LNONCOLLINEAR"> F  </i>
    <v name="MAGMOM">      1.00000000      1.00000000      1.00000000      1.00000000      1.00000000      1.00000000      1.00000000      1.00000000      1.00000000      1.00000000      1.00000000      1.00000000      1.00000000      1.00000000      1.00000000      1.00000000      1.00000000      1.00000000      1.00000000      1.00000000
      1.00000000      1.00000000      1.00000000      1.00000000      1.00000000      1.00000000      1.00000000</v>
    <i name="NUPDOWN">     -1.00000000</i>
    <i type="logical" name="LSORBIT"> F  </i>
    <v name="SAXIS">      0.00000000      0.00000000      1.00000000</v>
    <i type="logical" name="LSPIRAL"> F  </i>
    <v name="QSPIRAL">      0.00000000      0.00000000      0.00000000</v>
    <i type="logical" name="LZEROZ"> F  </i>
   </separator>
   <separator name="electronic exchange-correlation" >
    <i type="logical" name="LASPH"> F  </i>
    <i type="logical" name="LMETAGGA"> F  </i>
   </separator>
   <separator name="electronic convergence" >
    <i type="int" name="NELM">    60</i>
    <i type="int" name="NELMDL">    -5</i>
    <i type="int" name="NELMIN">     2</i>
    <i name="ENINI">    280.00000000</i>
    <separator name="electronic convergence detail" >
     <i type="logical" name="LDIAG"> T  </i>
     <i type="logical" name="LSUBROT"> F  </i>
     <i name="WEIMIN">      0.00100000</i>
     <i name="EBREAK">      0.00000021</i>
     <i name="DEPER">      0.30000000</i>
     <i type="int" name="NRMM">     4</i>
     <i name="TIME">      0.40000000</i>
    </separator>
   </separator>
   <separator name="electronic mixer" >
    <i name="AMIX">      0.40000000</i>
    <i name="BMIX">      1.00000000</i>
    <i name="AMIN">      0.10000000</i>
    <i name="AMIX_MAG">      1.60000000</i>
    <i name="BMIX_MAG">      1.00000000</i>
    <separator name="electronic mixer details" >
     <i type="int" name="IMIX">     4</i>
     <i type="logical" name="MIXFIRST"> F  </i>
     <i type="int" name="MAXMIX">   -45</i>
     <i name="WC">    100.00000000</i>
     <i type="int" name="INIMIX">     1</i>
     <i type="int" name="MIXPRE">     1</i>
     <i type="int" name="MREMOVE">     5</i>
    </separator>
   </separator>
   <separator name="electronic dipolcorrection" >
    <i type="logical" name="LDIPOL"> F  </i>
    <i type="logical" name="LMONO"> F  </i>
    <i type="int" name="IDIPOL">     0</i>
    <i name="EPSILON">      1.00000000</i>
    <v name="DIPOL">   -100.00000000   -100.00000000   -100.00000000</v>
    <i name="EFIELD">      0.00000000</i>
   </separator>
  </separator>
  <separator name="grids" >
   <i type="int" name="NGX">    42</i>
   <i type="int" name="NGY">    42</i>
   <i type="int" name="NGZ">   126</i>
   <i type="int" name="NGXF">    84</i>
   <i type="int" name="NGYF">    84</i>
   <i type="int" name="NGZF">   252</i>
   <i type="logical" name="ADDGRID"> F  </i>
  </separator>
  <separator name="ionic" >
   <i type="int" name="NSW">   100</i>
   <i type="int" name="IBRION">     1</i>
   <i type="int" name="ISIF">     3</i>
   <i name="PSTRESS">      0.00000000</i>
   <i name="EDIFFG">      0.00100000</i>
   <i type="int" name="NFREE">     0</i>
   <i name="POTIM">      0.50000000</i>
   <i name="SMASS">     -3.00000000</i>
   <i name="SCALEE">      1.00000000</i>
  </separator>
  <separator name="ionic md" >
   <i name="TEBEG">      0.00010000</i>
   <i name="TEEND">      0.00010000</i>
   <i type="int" name="NBLOCK">     1</i>
   <i type="int" name="KBLOCK">   100</i>
   <i type="int" name="NPACO">   256</i>
   <i name="APACO">     16.00000000</i>
  </separator>
  <separator name="symmetry" >
   <i type="int" name="ISYM">     0</i>
   <i name="SYMPREC">      0.00000001</i>
  </separator>
  <separator name="dos" >
   <i type="logical" name="LORBIT"> F  </i>
   <v name="RWIGS">     -1.00000000     -1.00000000     -1.00000000     -1.00000000</v>
   <i type="int" name="NEDOS">   301</i>
   <i name="EMIN">     10.00000000</i>
   <i name="EMAX">    -10.00000000</i>
   <i name="EFERMI">      0.00000000</i>
  </separator>
  <separator name="writing" >
   <i type="int" name="NWRITE">     2</i>
   <i type="logical" name="LWAVE"> F  </i>
   <i type="logical" name="LCHARG"> F  </i>
   <i type="logical" name="LPARD"> F  </i>
   <i type="logical" name="LVTOT"> F  </i>
   <i type="logical" name="LVHAR"> F  </i>
   <i type="logical" name="LELF"> F  </i>
   <i type="logical" name="LOPTICS"> F  </i>
   <v name="STM">      0.00000000      0.00000000      0.00000000      0.00000000      0.00000000      0.00000000      0.00000000</v>
  </separator>
  <separator name="performance" >
   <i type="int" name="NPAR">    40</i>
   <i type="int" name="NSIM">     4</i>
   <i type="int" name="NBLK">    -1</i>
   <i type="logical" name="LPLANE"> F  </i>
   <i type="logical" name="LSCALAPACK"> T  </i>
   <i type="logical" name="LSCAAWARE"> F  </i>
   <i type="logical" name="LSCALU"> F  </i>
   <i type="logical" name="LASYNC"> F  </i>
   <i type="logical" name="LORBITALREAL"> F  </i>
  </separator>
  <separator name="miscellaneous" >
   <i type="int" name="IDIOT">     3</i>
   <i type="logical" name="LMUSIC"> F  </i>
   <v name="POMASS">     50.94100000     95.94000000    183.85000000     32.06600000</v>
   <v name="DARWINR">      0.00000000      0.00000000      0.00000000      0.00000000</v>
   <v name="DARWINV">      1.00000000      1.00000000      1.00000000      1.00000000</v>
   <i type="logical" name="LCORR"> T  </i>
  </separator>
  <i type="logical" name="GGA_COMPAT"> T  </i>
  <i type="logical" name="LBERRY"> F  </i>
  <i type="int" name="ICORELEVEL">     0</i>
  <i type="logical" name="LDAU"> F  </i>
  <i type="int" name="I_CONSTRAINED_M">     0</i>
  <separator name="electronic exchange-correlation" >
   <i type="string" name="GGA">--</i>
   <i type="int" name="VOSKOWN">     0</i>
   <i type="logical" name="LHFCALC"> F  </i>
   <i type="string" name="PRECFOCK"></i>
   <i type="logical" name="LSYMGRAD"> F  </i>
   <i type="logical" name="LHFONE"> F  </i>
   <i type="logical" name="LRHFCALC"> F  </i>
   <i type="logical" name="LTHOMAS"> F  </i>
   <i type="logical" name="LMODELHF"> F  </i>
   <i name="ENCUT4O">     -1.00000000</i>
   <i type="int" name="EXXOEP">     0</i>
   <i type="int" name="FOURORBIT">     0</i>
   <i name="AEXX">      0.00000000</i>
   <i name="HFALPHA">      0.00000000</i>
   <i name="MCALPHA">      0.00000000</i>
   <i name="ALDAX">      1.00000000</i>
   <i name="AGGAX">      1.00000000</i>
   <i name="ALDAC">      1.00000000</i>
   <i name="AGGAC">      1.00000000</i>
   <i type="int" name="NKREDX">     1</i>
   <i type="int" name="NKREDY">     1</i>
   <i type="int" name="NKREDZ">     1</i>
   <i type="logical" name="SHIFTRED"> F  </i>
   <i type="logical" name="ODDONLY"> F  </i>
   <i type="logical" name="EVENONLY"> F  </i>
   <i type="int" name="LMAXFOCK">     0</i>
   <i type="int" name="NMAXFOCKAE">     0</i>
   <i type="logical" name="LFOCKAEDFT"> F  </i>
   <i name="HFSCREEN">      0.00000000</i>
   <i name="HFSCREENC">      0.00000000</i>
   <i type="int" name="NBANDSGWLOW">     0</i>
  </separator>
  <separator name="vdW DFT" >
   <i type="logical" name="LUSE_VDW"> F  </i>
   <i name="Zab_VDW">     -0.84910000</i>
   <i name="PARAM1">      0.12340000</i>
   <i name="PARAM2">      1.00000000</i>
   <i name="PARAM3">      0.00000000</i>
  </separator>
  <separator name="model GW" >
   <i type="int" name="MODEL_GW">     0</i>
   <i name="MODEL_EPS0">     58.26239943</i>
   <i name="MODEL_ALPHA">      1.00000000</i>
  </separator>
  <separator name="linear response parameters" >
   <i type="logical" name="LEPSILON"> F  </i>
   <i type="logical" name="LRPA"> F  </i>
   <i type="logical" name="LNABLA"> F  </i>
   <i type="logical" name="LVEL"> F  </i>
   <i type="int" name="KINTER">     0</i>
   <i name="CSHIFT">      0.10000000</i>
   <i name="OMEGAMAX">     -1.00000000</i>
   <i name="DEG_THRESHOLD">      0.00200000</i>
  </separator>
  <separator name="orbital magnetization" >
   <i type="logical" name="NUCIND"> F  </i>
   <v name="MAGPOS">      0.00000000      0.00000000      0.00000000</v>
   <i type="logical" name="LNICSALL"> T  </i>
   <i type="logical" name="ORBITALMAG"> F  </i>
   <i type="logical" name="LMAGBLOCH"> F  </i>
   <i type="logical" name="LCHIMAG"> F  </i>
   <i type="logical" name="LGAUGE"> T  </i>
   <i type="int" name="MAGATOM">     0</i>
   <v name="MAGDIPOL">      0.00000000      0.00000000      0.00000000</v>
   <v name="AVECCONST">      0.00000000      0.00000000      0.00000000</v>
  </separator>
  <separator name="response functions" >
   <i type="logical" name="LADDER"> F  </i>
   <i type="logical" name="LFXC"> F  </i>
   <i type="logical" name="LHARTREE"> T  </i>
   <i type="int" name="IBSE">     0</i>
   <v type="int" name="KPOINT">    -1     0     0     0</v>
   <i type="logical" name="LTCTE"> F  </i>
   <i type="logical" name="LTETE"> F  </i>
   <i type="logical" name="LTRIPLET"> F  </i>
   <i type="logical" name="LFXCEPS"> F  </i>
   <i type="logical" name="LFXHEG"> F  </i>
   <i type="int" name="NATURALO">     0</i>
   <i type="logical" name="L2ORDER"> F  </i>
   <i type="logical" name="LUSEW"> F  </i>
   <i name="ENCUTGW">     -2.00000000</i>
   <i name="ENCUTGWSOFT">     -2.00000000</i>
   <i name="ENCUTLF">     -1.00000000</i>
   <i type="int" name="LMAXMP2">    -1</i>
   <i name="SCISSOR">      0.00000000</i>
   <i type="int" name="NOMEGA">     0</i>
   <i type="int" name="NOMEGAR">     0</i>
   <i type="int" name="NBANDSGW">    -1</i>
   <i type="int" name="NBANDSO">    -1</i>
   <i type="int" name="NBANDSV">    -1</i>
   <i type="int" name="NELM">     1</i>
   <i type="int" name="NELMHF">     1</i>
   <i type="int" name="DIM">     3</i>
   <i type="int" name="ANTIRES">     0</i>
   <i name="OMEGAMAX">    -30.00000000</i>
   <i name="OMEGAMIN">    -30.00000000</i>
   <i name="OMEGATL">   -200.00000000</i>
   <i type="int" name="OMEGAGRID">     0</i>
   <i name="CSHIFT">     -0.10000000</i>
   <i type="logical" name="SELFENERGY"> F  </i>
   <i type="logical" name="LSPECTRAL"> F  </i>
   <i type="logical" name="LSPECTRALGW"> F  </i>
   <i type="logical" name="LSINGLES"> F  </i>
   <i type="logical" name="LFERMIGW"> F  </i>
   <i type="logical" name="ODDONLYGW"> F  </i>
   <i type="logical" name="EVENONLYGW"> F  </i>
   <i type="int" name="NKREDLFX">     1</i>
   <i type="int" name="NKREDLFY">     1</i>
   <i type="int" name="NKREDLFZ">     1</i>
   <i type="int" name="MAXMEM">  1800</i>
   <i type="int" name="TELESCOPE">     0</i>
   <i type="int" name="TAUPAR">     1</i>
   <i type="int" name="OMEGAPAR">    -1</i>
   <i name="LAMBDA">      1.00000000</i>
  </separator>
  <separator name="External order field" >
   <i name="OFIELD_KAPPA">      0.00000000</i>
   <v name="OFIELD_K">      0.00000000      0.00000000      0.00000000</v>
   <i name="OFIELD_Q6_NEAR">      0.00000000</i>
   <i name="OFIELD_Q6_FAR">      0.00000000</i>
   <i name="OFIELD_A">      0.00000000</i>
  </separator>
 </parameters>
 <atominfo>
  <atoms>      27 </atoms>
  <types>       4 </types>
  <array name="atoms" >
   <dimension dim="1">ion</dimension>
   <field type="string">element</field>
   <field type="int">atomtype</field>
   <set>
    <rc><c>V </c><c>   1</c></rc>
    <rc><c>V </c><c>   1</c></rc>
    <rc><c>V </c><c>   1</c></rc>
    <rc><c>Mo</c><c>   2</c></rc>
    <rc><c>Mo</c><c>   2</c></rc>
    <rc><c>Mo</c><c>   2</c></rc>
    <rc><c>W </c><c>   3</c></rc>
    <rc><c>W </c><c>   3</c></rc>
    <rc><c>W </c><c>   3</c></rc>
    <rc><c>S </c><c>   4</c></rc>
    <rc><c>S </c><c>   4</c></rc>
    <rc><c>S </c><c>   4</c></rc>
    <rc><c>S </c><c>   4</c></rc>
    <rc><c>S </c><c>   4</c></rc>
    <rc><c>S </c><c>   4</c></rc>
    <rc><c>S </c><c>   4</c></rc>
    <rc><c>S </c><c>   4</c></rc>
    <rc><c>S </c><c>   4</c></rc>
    <rc><c>S </c><c>   4</c></rc>
    <rc><c>S </c><c>   4</c></rc>
    <rc><c>S </c><c>   4</c></rc>
    <rc><c>S </c><c>   4</c></rc>
    <rc><c>S </c><c>   4</c></rc>
    <rc><c>S </c><c>   4</c></rc>
    <rc><c>S </c><c>   4</c></rc>
    <rc><c>S </c><c>   4</c></rc>
    <rc><c>S </c><c>   4</c></rc>
   </set>
  </array>
  <array name="atomtypes" >
   <dimension dim="1">type</dimension>
   <field type="int">atomspertype</field>
   <field type="string">element</field>
   <field>mass</field>
   <field>valence</field>
   <field type="string">pseudopotential</field>
   <set>
    <rc><c>   3</c><c>V </c><c>     50.94100000</c><c>      5.00000000</c><c> PAW_PBE V 08Apr2002                    </c></rc>
    <rc><c>   3</c><c>Mo</c><c>     95.94000000</c><c>      6.00000000</c><c> PAW_PBE Mo 08Apr2002                   </c></rc>
    <rc><c>   3</c><c>W </c><c>    183.85000000</c><c>      6.00000000</c><c> PAW_PBE W 08Apr2002                    </c></rc>
    <rc><c>  18</c><c>S </c><c>     32.06600000</c><c>      6.00000000</c><c>  PAW_PBE S 17Jan2003                   </c></rc>
   </set>
  </array>
 </atominfo>
 <structure name="initialpos" >
  <crystal>
   <varray name="basis" >
    <v>       8.66999996       5.03999989       0.00000000 </v>
    <v>      -8.66999982       5.04000013       0.00000000 </v>
    <v>       0.00000000       0.00000000      30.00000000 </v>
   </varray>
   <i name="volume">   2621.80797419 </i>
   <varray name="rec_basis" >
    <v>       0.05767013       0.09920635       0.00000000 </v>
    <v>      -0.05767013       0.09920635       0.00000000 </v>
    <v>       0.00000000       0.00000000       0.03333333 </v>
   </varray>
  </crystal>
  <varray name="positions" >
   <v>       0.00000000       0.66666669       0.00000000 </v>
   <v>       0.66666669       0.66666669       0.00000000 </v>
   <v>       1.00000000       0.33333334       0.00000000 </v>
   <v>       0.33333334       0.00000000       0.00000000 </v>
   <v>       0.00000000       0.00000000       0.00000000 </v>
   <v>       0.66666669       0.00000000       0.00000000 </v>
   <v>       0.33333334       0.33333334       0.00000000 </v>
   <v>       0.33333334       0.66666669       0.00000000 </v>
   <v>       0.66666669       0.33333334       0.00000000 </v>
   <v>       0.11068511       0.22244981       0.95539999 </v>
   <v>       0.22244981       0.11068511       0.04460000 </v>
   <v>       0.11068511       0.55578315       0.95539999 </v>
   <v>       0.22244981       0.44401845       0.04460000 </v>
   <v>       0.11068511       0.88911647       0.95539999 </v>
   <v>       0.22244981       0.77735180       0.04460000 </v>
   <v>       0.44401845       0.22244981       0.95539999 </v>
   <v>       0.55578315       0.11068511       0.04460000 </v>
   <v>       0.44401845       0.55578315       0.95539999 </v>
   <v>       0.55578315       0.44401845       0.04460000 </v>
   <v>       0.44401845       0.88911647       0.95539999 </v>
   <v>       0.55578315       0.77735180       0.04460000 </v>
   <v>       0.77735180       0.22244981       0.95539999 </v>
   <v>       0.88911647       0.11068511       0.04460000 </v>
   <v>       0.77735180       0.55578315       0.95539999 </v>
   <v>       0.88911647       0.44401845       0.04460000 </v>
   <v>       0.77735180       0.88911647       0.95539999 </v>
   <v>       0.88911647       0.77735180       0.04460000 </v>
  </varray>
 </structure>
 <calculation>
  <scstep>
   <time name="dav">   22.25   22.31</time>
   <time name="total">   22.29   22.36</time>
   <energy>
    <i name="alphaZ">     81.65567618 </i>
    <i name="ewald">  41890.25209520 </i>
    <i name="hartreedc"> -47722.88004248 </i>
    <i name="XCdc">   -242.92955966 </i>
    <i name="pawpsdc">   3467.42045192 </i>
    <i name="pawaedc">  -2871.19716117 </i>
    <i name="eentropy">     -0.53205301 </i>
    <i name="bandstr">   -243.41278719 </i>
    <i name="atom">   6761.44252427 </i>
    <i name="e_fr_energy">   1119.81914405 </i>
    <i name="e_wo_entrp">   1120.35119706 </i>
    <i name="e_0_energy">   1120.08517056 </i>
   </energy>
  </scstep>
  <scstep>
   <time name="dav">   28.79   28.86</time>
   <time name="total">   28.79   28.86</time>
   <energy>
    <i name="e_fr_energy">     -5.58174961 </i>
    <i name="e_wo_entrp">     -5.38076247 </i>
    <i name="e_0_energy">     -5.48125604 </i>
   </energy>
  </scstep>
  <scstep>
   <time name="dav">   28.03   28.09</time>
   <time name="total">   28.03   28.10</time>
   <energy>
    <i name="e_fr_energy">   -199.93297955 </i>
    <i name="e_wo_entrp">   -199.67034116 </i>
    <i name="e_0_energy">   -199.80166035 </i>
   </energy>
  </scstep>
  <scstep>
   <time name="dav">   30.45   30.53</time>
   <time name="total">   30.45   30.53</time>
   <energy>
    <i name="e_fr_energy">   -208.93460535 </i>
    <i name="e_wo_entrp">   -208.63527275 </i>
    <i name="e_0_energy">   -208.78493905 </i>
   </energy>
  </scstep>
  <scstep>
   <time name="dav">   29.86   29.93</time>
   <time name="total">   30.33   30.40</time>
   <energy>
    <i name="e_fr_energy">   -209.27574114 </i>
    <i name="e_wo_entrp">   -208.97963986 </i>
    <i name="e_0_energy">   -209.12769050 </i>
   </energy>
  </scstep>
  <scstep>
   <time name="dav">   32.07   32.15</time>
   <time name="total">   32.57   32.65</time>
   <energy>
    <i name="e_fr_energy">   -237.14892954 </i>
    <i name="e_wo_entrp">   -236.88015709 </i>
    <i name="e_0_energy">   -237.01454332 </i>
   </energy>
  </scstep>
  <scstep>
   <time name="dav">   32.68   32.75</time>
   <time name="total">   33.18   33.26</time>
   <energy>
    <i name="e_fr_energy">   -196.66173996 </i>
    <i name="e_wo_entrp">   -196.32631099 </i>
    <i name="e_0_energy">   -196.49402547 </i>
   </energy>
  </scstep>
  <scstep>
   <time name="dav">   30.01   30.08</time>
   <time name="total">   30.52   30.60</time>
   <energy>
    <i name="e_fr_energy">   -190.08203313 </i>
    <i name="e_wo_entrp">   -189.81322003 </i>
    <i name="e_0_energy">   -189.94762658 </i>
   </energy>
  </scstep>
  <scstep>
   <time name="dav">   30.41   30.48</time>
   <time name="total">   30.93   31.01</time>
   <energy>
    <i name="e_fr_energy">   -188.31813331 </i>
    <i name="e_wo_entrp">   -187.98882859 </i>
    <i name="e_0_energy">   -188.15348095 </i>
   </energy>
  </scstep>
  <scstep>
   <time name="dav">   33.08   33.16</time>
   <time name="total">   33.61   33.69</time>
   <energy>
    <i name="e_fr_energy">   -187.12717297 </i>
    <i name="e_wo_entrp">   -186.78487079 </i>
    <i name="e_0_energy">   -186.95602188 </i>
   </energy>
  </scstep>
  <scstep>
   <time name="dav">   31.30   31.38</time>
   <time name="total">   31.84   31.92</time>
   <energy>
    <i name="e_fr_energy">   -187.01250398 </i>
    <i name="e_wo_entrp">   -186.66381155 </i>
    <i name="e_0_energy">   -186.83815776 </i>
   </energy>
  </scstep>
  <scstep>
   <time name="dav">   32.15   32.23</time>
   <time name="total">   32.69   32.77</time>
   <energy>
    <i name="e_fr_energy">   -187.03023293 </i>
    <i name="e_wo_entrp">   -186.69663101 </i>
    <i name="e_0_energy">   -186.86343197 </i>
   </energy>
  </scstep>
  <scstep>
   <time name="dav">   32.77   32.85</time>
   <time name="total">   33.31   33.39</time>
   <energy>
    <i name="e_fr_energy">   -186.93363630 </i>
    <i name="e_wo_entrp">   -186.59753821 </i>
    <i name="e_0_energy">   -186.76558726 </i>
   </energy>
  </scstep>
  <scstep>
   <time name="dav">   32.14   32.21</time>
   <time name="total">   32.67   32.75</time>
   <energy>
    <i name="e_fr_energy">   -186.90377778 </i>
    <i name="e_wo_entrp">   -186.56272793 </i>
    <i name="e_0_energy">   -186.73325286 </i>
   </energy>
  </scstep>
  <scstep>
   <time name="dav">   31.22   31.29</time>
   <time name="total">   31.75   31.83</time>
   <energy>
    <i name="e_fr_energy">   -186.89823410 </i>
    <i name="e_wo_entrp">   -186.55521206 </i>
    <i name="e_0_energy">   -186.72672308 </i>
   </energy>
  </scstep>
  <scstep>
   <time name="dav">   32.10   32.18</time>
   <time name="total">   32.64   32.72</time>
   <energy>
    <i name="e_fr_energy">   -186.89181929 </i>
    <i name="e_wo_entrp">   -186.54844662 </i>
    <i name="e_0_energy">   -186.72013295 </i>
   </energy>
  </scstep>
  <scstep>
   <time name="dav">   32.04   32.12</time>
   <time name="total">   32.58   32.66</time>
   <energy>
    <i name="e_fr_energy">   -186.88911874 </i>
    <i name="e_wo_entrp">   -186.54781338 </i>
    <i name="e_0_energy">   -186.71846606 </i>
   </energy>
  </scstep>
  <scstep>
   <time name="dav">   29.57   29.64</time>
   <time name="total">   30.11   30.18</time>
   <energy>
    <i name="e_fr_energy">   -186.88858635 </i>
    <i name="e_wo_entrp">   -186.54738725 </i>
    <i name="e_0_energy">   -186.71798680 </i>
   </energy>
  </scstep>
  <scstep>
   <time name="dav">   28.00   28.07</time>
   <time name="total">   28.54   28.61</time>
   <energy>
    <i name="e_fr_energy">   -186.88837610 </i>
    <i name="e_wo_entrp">   -186.54673339 </i>
    <i name="e_0_energy">   -186.71755474 </i>
   </energy>
  </scstep>
  <scstep>
   <time name="dav">   24.41   24.47</time>
   <time name="total">   24.95   25.01</time>
   <energy>
    <i name="e_fr_energy">   -186.88926196 </i>
    <i name="e_wo_entrp">   -186.54793674 </i>
    <i name="e_0_energy">   -186.71859935 </i>
   </energy>
  </scstep>
  <scstep>
   <time name="dav">   22.45   22.50</time>
   <time name="total">   22.98   23.04</time>
   <energy>
    <i name="e_fr_energy">   -186.89020465 </i>
    <i name="e_wo_entrp">   -186.54874951 </i>
    <i name="e_0_energy">   -186.71947708 </i>
   </energy>
  </scstep>
  <scstep>
   <time name="dav">   18.62   18.66</time>
   <time name="total">   19.15   19.20</time>
   <energy>
    <i name="e_fr_energy">   -186.89095311 </i>
    <i name="e_wo_entrp">   -186.54954259 </i>
    <i name="e_0_energy">   -186.72024785 </i>
   </energy>
  </scstep>
  <scstep>
   <time name="dav">   20.76   20.81</time>
   <time name="total">   21.30   21.35</time>
   <energy>
    <i name="e_fr_energy">   -186.89209204 </i>
    <i name="e_wo_entrp">   -186.55079300 </i>
    <i name="e_0_energy">   -186.72144252 </i>
   </energy>
  </scstep>
  <scstep>
   <time name="dav">   19.51   19.55</time>
   <time name="total">   20.05   20.10</time>
   <energy>
    <i name="e_fr_energy">   -186.89267392 </i>
    <i name="e_wo_entrp">   -186.55131298 </i>
    <i name="e_0_energy">   -186.72199345 </i>
   </energy>
  </scstep>
  <scstep>
   <time name="dav">   16.63   16.67</time>
   <time name="total">   17.17   17.21</time>
   <energy>
    <i name="e_fr_energy">   -186.89304075 </i>
    <i name="e_wo_entrp">   -186.55165439 </i>
    <i name="e_0_energy">   -186.72234757 </i>
   </energy>
  </scstep>
  <scstep>
   <time name="dav">   19.44   19.49</time>
   <time name="total">   19.98   20.03</time>
   <energy>
    <i name="e_fr_energy">   -186.89328755 </i>
    <i name="e_wo_entrp">   -186.55192378 </i>
    <i name="e_0_energy">   -186.72260567 </i>
   </energy>
  </scstep>
  <scstep>
   <time name="dav">   20.37   20.42</time>
   <time name="total">   20.40   20.45</time>
   <energy>
    <i name="alphaZ">     81.65567618 </i>
    <i name="ewald">  41890.25209520 </i>
    <i name="hartreedc"> -47833.18024880 </i>
    <i name="XCdc">   -231.59805634 </i>
    <i name="pawpsdc">   4192.17138059 </i>
    <i name="pawaedc">  -3610.19601949 </i>
    <i name="eentropy">     -0.34136703 </i>
    <i name="bandstr">  -1437.09936467 </i>
    <i name="atom">   6761.44252427 </i>
    <i name="e_fr_energy">   -186.89338010 </i>
    <i name="e_wo_entrp">   -186.55201306 </i>
    <i name="e_0_energy">   -186.72269658 </i>
   </energy>
  </scstep>
  <structure>
   <crystal>
    <varray name="basis" >
     <v>       8.66999996       5.03999989       0.00000000 </v>
     <v>      -8.66999982       5.04000013       0.00000000 </v>
     <v>       0.00000000       0.00000000      30.00000000 </v>
    </varray>
    <i name="volume">   2621.80797419 </i>
    <varray name="rec_basis" >
     <v>       0.05767013       0.09920635       0.00000000 </v>
     <v>      -0.05767013       0.09920635       0.00000000 </v>
     <v>       0.00000000       0.00000000       0.03333333 </v>
    </varray>
   </crystal>
   <varray name="positions" >
    <v>       0.00000000       0.66666669       0.00000000 </v>
    <v>       0.66666669       0.66666669       0.00000000 </v>
    <v>       1.00000000       0.33333334       0.00000000 </v>
    <v>       0.33333334       0.00000000       0.00000000 </v>
    <v>       0.00000000       0.00000000       0.00000000 </v>
    <v>       0.66666669       0.00000000       0.00000000 </v>
    <v>       0.33333334       0.33333334       0.00000000 </v>
    <v>       0.33333334       0.66666669       0.00000000 </v>
    <v>       0.66666669       0.33333334       0.00000000 </v>
    <v>       0.11068511       0.22244981       0.95539999 </v>
    <v>       0.22244981       0.11068511       0.04460000 </v>
    <v>       0.11068511       0.55578315       0.95539999 </v>
    <v>       0.22244981       0.44401845       0.04460000 </v>
    <v>       0.11068511       0.88911647       0.95539999 </v>
    <v>       0.22244981       0.77735180       0.04460000 </v>
    <v>       0.44401845       0.22244981       0.95539999 </v>
    <v>       0.55578315       0.11068511       0.04460000 </v>
    <v>       0.44401845       0.55578315       0.95539999 </v>
    <v>       0.55578315       0.44401845       0.04460000 </v>
    <v>       0.44401845       0.88911647       0.95539999 </v>
    <v>       0.55578315       0.77735180       0.04460000 </v>
    <v>       0.77735180       0.22244981       0.95539999 </v>
    <v>       0.88911647       0.11068511       0.04460000 </v>
    <v>       0.77735180       0.55578315       0.95539999 </v>
    <v>       0.88911647       0.44401845       0.04460000 </v>
    <v>       0.77735180       0.88911647       0.95539999 </v>
    <v>       0.88911647       0.77735180       0.04460000 </v>
   </varray>
  </structure>
  <varray name="forces" >
   <v>      -0.20396557       0.27399672      -0.00840231 </v>
   <v>      -0.14948318       0.39298843       0.08827786 </v>
   <v>       0.14530012      -0.31852756      -0.08000272 </v>
   <v>      -0.01701458       0.01582277      -0.02392669 </v>
   <v>       0.01315129      -0.03712155       0.01479026 </v>
   <v>       0.01633656      -0.00974612       0.11168913 </v>
   <v>       0.26571539      -0.47668027      -0.11556032 </v>
   <v>      -0.32131592       0.38301912      -0.03412460 </v>
   <v>       0.28244718      -0.30127868       0.00405750 </v>
   <v>      -0.69212664       0.17799083      -2.15326885 </v>
   <v>      -0.18869054       0.14223074       2.90385825 </v>
   <v>      -0.22051769      -0.53135329      -1.40935978 </v>
   <v>      -0.47511210      -0.56172399       2.11453122 </v>
   <v>       0.52661015      -0.68546191      -2.14099972 </v>
   <v>      -0.36815262      -0.68950300       2.17489426 </v>
   <v>       0.03251579       0.12293909      -2.94149570 </v>
   <v>      -0.19127183       0.14285763       2.90530806 </v>
   <v>       0.46884826       0.55579229      -2.11916340 </v>
   <v>      -0.48162682       0.60745424       2.15699741 </v>
   <v>       0.19153687      -0.15706543      -2.88302032 </v>
   <v>       0.68763399      -0.13511998       2.16009310 </v>
   <v>       0.36872896       0.73550165      -2.18002259 </v>
   <v>      -0.52574458       0.67710987       2.14577956 </v>
   <v>      -0.24239991       0.52680193      -1.38726837 </v>
   <v>       0.23320192       0.51956760       1.39674173 </v>
   <v>       0.53136788      -0.68313412      -2.14267773 </v>
   <v>       0.31402763      -0.68735703       1.44227476 </v>
  </varray>
  <varray name="stress" >
   <v>       7.27670323      -0.12088288      -1.59975555 </v>
   <v>      -0.12088273       4.48881188      -0.03811949 </v>
   <v>      -1.59975561      -0.03811958      30.27876695 </v>
  </varray>
  <energy>
   <i name="e_fr_energy">   -186.89338010 </i>
   <i name="e_wo_entrp">   -186.72269658 </i>
   <i name="e_0_energy">     -0.34136703 </i>
  </energy>
  <time name="totalsc">  794.85  796.85</time>
 </calculation>
 <calculation>
  <scstep>
   <time name="dav">   22.12   22.18</time>
   <time name="total">   22.67   22.73</time>
   <energy>
    <i name="alphaZ">     78.91877861 </i>
    <i name="ewald">  39379.23777837 </i>
    <i name="hartreedc"> -45336.82411849 </i>
    <i name="XCdc">   -239.05309416 </i>
    <i name="pawpsdc">   4192.14994709 </i>
    <i name="pawaedc">  -3610.17481240 </i>
    <i name="eentropy">     -0.27870763 </i>
    <i name="bandstr">  -1412.95061169 </i>
    <i name="atom">   6761.44252427 </i>
    <i name="e_fr_energy">   -187.53231604 </i>
    <i name="e_wo_entrp">   -187.25360841 </i>
    <i name="e_0_energy">   -187.39296223 </i>
   </energy>
  </scstep>
  <scstep>
   <time name="dav">   30.95   31.03</time>
   <time name="total">   31.49   31.57</time>
   <energy>
    <i name="e_fr_energy">   -189.48966062 </i>
    <i name="e_wo_entrp">   -189.15957456 </i>
    <i name="e_0_energy">   -189.32461759 </i>
   </energy>
  </scstep>
  <scstep>
   <time name="dav">   31.07   31.15</time>
   <time name="total">   31.62   31.70</time>
   <energy>
    <i name="e_fr_energy">   -189.37298227 </i>
    <i name="e_wo_entrp">   -189.10199839 </i>
    <i name="e_0_energy">   -189.23749033 </i>
   </energy>
  </scstep>
  <scstep>
   <time name="dav">   31.32   31.40</time>
   <time name="total">   31.87   31.95</time>
   <energy>
    <i name="e_fr_energy">   -188.78751995 </i>
    <i name="e_wo_entrp">   -188.50858193 </i>
    <i name="e_0_energy">   -188.64805094 </i>
   </energy>
  </scstep>
  <scstep>
   <time name="dav">   30.87   30.95</time>
   <time name="total">   31.42   31.49</time>
   <energy>
    <i name="e_fr_energy">   -188.92810742 </i>
    <i name="e_wo_entrp">   -188.63652298 </i>
    <i name="e_0_energy">   -188.78231520 </i>
   </energy>
  </scstep>
  <scstep>
   <time name="dav">   31.87   31.95</time>
   <time name="total">   32.42   32.50</time>
   <energy>
    <i name="e_fr_energy">   -188.75148800 </i>
    <i name="e_wo_entrp">   -188.47585101 </i>
    <i name="e_0_energy">   -188.61366951 </i>
   </energy>
  </scstep>
  <scstep>
   <time name="dav">   29.83   29.90</time>
   <time name="total">   30.38   30.46</time>
   <energy>
    <i name="e_fr_energy">   -188.71989493 </i>
    <i name="e_wo_entrp">   -188.44007916 </i>
    <i name="e_0_energy">   -188.57998704 </i>
   </energy>
  </scstep>
  <scstep>
   <time name="dav">   32.34   32.42</time>
   <time name="total">   32.89   32.97</time>
   <energy>
    <i name="e_fr_energy">   -188.71156528 </i>
    <i name="e_wo_entrp">   -188.43406949 </i>
    <i name="e_0_energy">   -188.57281738 </i>
   </energy>
  </scstep>
  <scstep>
   <time name="dav">   30.03   30.10</time>
   <time name="total">   30.58   30.66</time>
   <energy>
    <i name="e_fr_energy">   -188.70005264 </i>
    <i name="e_wo_entrp">   -188.42298046 </i>
    <i name="e_0_energy">   -188.56151655 </i>
   </energy>
  </scstep>
  <scstep>
   <time name="dav">   32.11   32.19</time>
   <time name="total">   32.66   32.74</time>
   <energy>
    <i name="e_fr_energy">   -188.69954274 </i>
    <i name="e_wo_entrp">   -188.42272856 </i>
    <i name="e_0_energy">   -188.56113565 </i>
   </energy>
  </scstep>
  <scstep>
   <time name="dav">   29.60   29.67</time>
   <time name="total">   30.15   30.22</time>
   <energy>
    <i name="e_fr_energy">   -188.69913604 </i>
    <i name="e_wo_entrp">   -188.42261710 </i>
    <i name="e_0_energy">   -188.56087657 </i>
   </energy>
  </scstep>
  <scstep>
   <time name="dav">   30.31   30.38</time>
   <time name="total">   30.34   30.42</time>
   <energy>
    <i name="alphaZ">     78.91877861 </i>
    <i name="ewald">  39379.23777837 </i>
    <i name="hartreedc"> -45347.68853553 </i>
    <i name="XCdc">   -237.96445255 </i>
    <i name="pawpsdc">   3952.20680461 </i>
    <i name="pawaedc">  -3366.74446503 </i>
    <i name="eentropy">     -0.27655431 </i>
    <i name="bandstr">  -1407.83110016 </i>
    <i name="atom">   6761.44252427 </i>
    <i name="e_fr_energy">   -188.69922172 </i>
    <i name="e_wo_entrp">   -188.42266742 </i>
    <i name="e_0_energy">   -188.56094457 </i>
   </energy>
  </scstep>
  <structure>
   <crystal>
    <varray name="basis" >
     <v>       8.85268254       5.10308397       0.00000000 </v>
     <v>      -8.85624513       5.10921296       0.00000000 </v>
     <v>       0.00000000       0.00000000      30.00000000 </v>
    </varray>
    <i name="volume">   2712.73208614 </i>
    <varray name="rec_basis" >
     <v>       0.05650259       0.09794087       0.00000000 </v>
     <v>      -0.05643481       0.09790148       0.00000000 </v>
     <v>       0.00000000       0.00000000       0.03333333 </v>
    </varray>
   </crystal>
   <varray name="positions" >
    <v>       0.00074388       0.66854549      -0.00001351 </v>
    <v>       0.66813163       0.66896341       0.00014196 </v>
    <v>       0.99887978       0.33140463      -0.00012865 </v>
    <v>       0.33336173       0.00012306      -0.00003848 </v>
    <v>      -0.00014107      -0.00021425       0.00002378 </v>
    <v>       0.66666549      -0.00009210       0.00017961 </v>
    <v>       0.33179122       0.33031270      -0.00018583 </v>
    <v>       0.33427251       0.66939376      -0.00005488 </v>
    <v>       0.66601059       0.33110562       0.00000652 </v>
    <v>       0.10961136       0.22522728       0.95193734 </v>
    <v>       0.22260556       0.11189079       0.04926966 </v>
    <v>       0.10752855       0.55385362       0.95313361 </v>
    <v>       0.21843957       0.44265189       0.04800035 </v>
    <v>       0.10886962       0.88437075       0.95195707 </v>
    <v>       0.21812560       0.77507611       0.04809742 </v>
    <v>       0.44469730       0.22294773       0.95066980 </v>
    <v>       0.55593472       0.11190097       0.04927199 </v>
    <v>       0.44798287       0.55713875       0.95199219 </v>
    <v>       0.55735045       0.44826568       0.04806864 </v>
    <v>       0.44379963       0.88783187       0.95076384 </v>
    <v>       0.55704958       0.77479201       0.04807362 </v>
    <v>       0.78189775       0.22494404       0.95189432 </v>
    <v>       0.89089439       0.11538845       0.04805060 </v>
    <v>       0.77919866       0.55897881       0.95316914 </v>
    <v>       0.89225191       0.44585629       0.04684608 </v>
    <v>       0.77556068       0.88436865       0.95195437 </v>
    <v>       0.88670047       0.77318845       0.04691930 </v>
   </varray>
  </structure>
  <varray name="forces" >
   <v>      -0.14210219       0.27496629      -0.08520628 </v>
   <v>      -0.19586016       0.34954137      -0.05446755 </v>
   <v>       0.15129772      -0.29423811       0.07236125 </v>
   <v>      -0.03088050       0.21362149      -0.01309169 </v>
   <v>      -0.00164643       0.15159789      -0.00491075 </v>
   <v>      -0.11303799      -0.11856520       0.03994545 </v>
   <v>       0.39683825      -0.48872583       0.06323876 </v>
   <v>      -0.29294347       0.48494771      -0.08043886 </v>
   <v>       0.18792853      -0.52607181       0.09702267 </v>
   <v>       0.01020478       0.09793287      -0.11958604 </v>
   <v>      -0.05099333       0.11159573       0.13772733 </v>
   <v>       0.05126601       0.07969968       0.19306793 </v>
   <v>       0.04868112       0.06918139      -0.29155646 </v>
   <v>       0.02902641      -0.08528045      -0.05346631 </v>
   <v>       0.10044433      -0.05025149       0.04843079 </v>
   <v>      -0.06529036       0.08321382      -0.14912347 </v>
   <v>      -0.05284925       0.11083965       0.17075929 </v>
   <v>      -0.05133599      -0.06857898       0.25824476 </v>
   <v>       0.06007145      -0.06578370      -0.23384410 </v>
   <v>       0.05520771      -0.10239492      -0.13863302 </v>
   <v>      -0.01819797      -0.09240525       0.11482680 </v>
   <v>      -0.09510692       0.05841955      -0.05673595 </v>
   <v>      -0.03206472       0.06713544       0.05887031 </v>
   <v>       0.07252947      -0.07869497       0.24645442 </v>
   <v>      -0.06327653      -0.07510472      -0.22938911 </v>
   <v>       0.02961757      -0.06447622      -0.02697087 </v>
   <v>       0.01247249      -0.04212122       0.03647068 </v>
  </varray>
  <varray name="stress" >
   <v>     -19.96658575       0.02716427      -0.02845922 </v>
   <v>       0.02716437     -19.55992729       0.10806753 </v>
   <v>      -0.02845921       0.10806763      -1.78987742 </v>
  </varray>
  <energy>
   <i name="e_fr_energy">   -188.69922172 </i>
   <i name="e_wo_entrp">   -188.56094457 </i>
   <i name="e_0_energy">     -0.27655431 </i>
  </energy>
  <time name="totalsc">  410.24  411.26</time>
 </calculation>
 <calculation>
  <scstep>
   <time name="dav">   24.12   24.18</time>
   <time name="total">   24.66   24.72</time>
   <energy>
    <i name="alphaZ">     82.33586320 </i>
    <i name="ewald">  41298.32987964 </i>
    <i name="hartreedc"> -47297.25979492 </i>
    <i name="XCdc">   -233.85359422 </i>
    <i name="pawpsdc">   3950.62997381 </i>
    <i name="pawaedc">  -3365.14942549 </i>
    <i name="eentropy">     -0.23220356 </i>
    <i name="bandstr">  -1386.86363734 </i>
    <i name="atom">   6761.44252427 </i>
    <i name="e_fr_energy">   -190.62041460 </i>
    <i name="e_wo_entrp">   -190.38821104 </i>
    <i name="e_0_energy">   -190.50431282 </i>
   </energy>
  </scstep>
  <scstep>
   <time name="dav">   28.40   28.47</time>
   <time name="total">   28.93   29.00</time>
   <energy>
    <i name="e_fr_energy">   -190.57029393 </i>
    <i name="e_wo_entrp">   -190.34171802 </i>
    <i name="e_0_energy">   -190.45600598 </i>
   </energy>
  </scstep>
  <scstep>
   <time name="dav">   30.92   30.99</time>
   <time name="total">   31.45   31.52</time>
   <energy>
    <i name="e_fr_energy">   -190.10805962 </i>
    <i name="e_wo_entrp">   -189.85905417 </i>
    <i name="e_0_energy">   -189.98355689 </i>
   </energy>
  </scstep>
  <scstep>
   <time name="dav">   31.50   31.58</time>
   <time name="total">   32.04   32.12</time>
   <energy>
    <i name="e_fr_energy">   -189.89512304 </i>
    <i name="e_wo_entrp">   -189.66665279 </i>
    <i name="e_0_energy">   -189.78088791 </i>
   </energy>
  </scstep>
  <scstep>
   <time name="dav">   30.85   30.93</time>
   <time name="total">   31.39   31.47</time>
   <energy>
    <i name="e_fr_energy">   -189.84865464 </i>
    <i name="e_wo_entrp">   -189.61381321 </i>
    <i name="e_0_energy">   -189.73123393 </i>
   </energy>
  </scstep>
  <scstep>
   <time name="dav">   31.82   31.89</time>
   <time name="total">   32.35   32.43</time>
   <energy>
    <i name="e_fr_energy">   -189.79806083 </i>
    <i name="e_wo_entrp">   -189.56390411 </i>
    <i name="e_0_energy">   -189.68098247 </i>
   </energy>
  </scstep>
  <scstep>
   <time name="dav">   29.38   29.45</time>
   <time name="total">   29.92   29.99</time>
   <energy>
    <i name="e_fr_energy">   -189.79147920 </i>
    <i name="e_wo_entrp">   -189.55866245 </i>
    <i name="e_0_energy">   -189.67507082 </i>
   </energy>
  </scstep>
  <scstep>
   <time name="dav">   31.02   31.10</time>
   <time name="total">   31.56   31.64</time>
   <energy>
    <i name="e_fr_energy">   -189.79207549 </i>
    <i name="e_wo_entrp">   -189.55910288 </i>
    <i name="e_0_energy">   -189.67558918 </i>
   </energy>
  </scstep>
  <scstep>
   <time name="dav">   27.84   27.90</time>
   <time name="total">   28.37   28.44</time>
   <energy>
    <i name="e_fr_energy">   -189.79153030 </i>
    <i name="e_wo_entrp">   -189.55847612 </i>
    <i name="e_0_energy">   -189.67500321 </i>
   </energy>
  </scstep>
  <scstep>
   <time name="dav">   25.56   25.62</time>
   <time name="total">   26.10   26.16</time>
   <energy>
    <i name="e_fr_energy">   -189.79181658 </i>
    <i name="e_wo_entrp">   -189.55875949 </i>
    <i name="e_0_energy">   -189.67528804 </i>
   </energy>
  </scstep>
  <scstep>
   <time name="dav">   23.65   23.71</time>
   <time name="total">   24.19   24.25</time>
   <energy>
    <i name="e_fr_energy">   -189.79154344 </i>
    <i name="e_wo_entrp">   -189.55837097 </i>
    <i name="e_0_energy">   -189.67495720 </i>
   </energy>
  </scstep>
  <scstep>
   <time name="dav">   19.03   19.07</time>
   <time name="total">   19.06   19.11</time>
   <energy>
    <i name="alphaZ">     82.33586320 </i>
    <i name="ewald">  41298.32987964 </i>
    <i name="hartreedc"> -47270.60161491 </i>
    <i name="XCdc">   -235.24512092 </i>
    <i name="pawpsdc">   4038.66265025 </i>
    <i name="pawaedc">  -3454.37130887 </i>
    <i name="eentropy">     -0.23314686 </i>
    <i name="bandstr">  -1410.11129252 </i>
    <i name="atom">   6761.44252427 </i>
    <i name="e_fr_energy">   -189.79156671 </i>
    <i name="e_wo_entrp">   -189.55841985 </i>
    <i name="e_0_energy">   -189.67499328 </i>
   </energy>
  </scstep>
  <structure>
   <crystal>
    <varray name="basis" >
     <v>       8.66527225       4.99742464       0.00000000 </v>
     <v>      -8.66846499       5.00291598       0.00000000 </v>
     <v>       0.00000000       0.00000000      30.00000000 </v>
    </varray>
    <i name="volume">   2600.14888543 </i>
    <varray name="rec_basis" >
     <v>       0.05772265       0.10001502       0.00000000 </v>
     <v>      -0.05765929       0.09997819       0.00000000 </v>
     <v>       0.00000000       0.00000000       0.03333333 </v>
    </varray>
   </crystal>
   <varray name="positions" >
    <v>       0.00106370       0.66913669      -0.00006157 </v>
    <v>       0.66852365       0.66972948       0.00011124 </v>
    <v>       0.99853681       0.33077272      -0.00008784 </v>
    <v>       0.33368623       0.00050643      -0.00004586 </v>
    <v>       0.00010859       0.00003845       0.00002101 </v>
    <v>       0.66636093      -0.00018057       0.00020214 </v>
    <v>       0.33136069       0.32912414      -0.00015016 </v>
    <v>       0.33479611       0.67047685      -0.00010025 </v>
    <v>       0.66531843       0.33005468       0.00006125 </v>
    <v>       0.10978342       0.22537977       0.95186989 </v>
    <v>       0.22274174       0.11212435       0.04934734 </v>
    <v>       0.10770965       0.55393670       0.95324251 </v>
    <v>       0.21860077       0.44272001       0.04783591 </v>
    <v>       0.10875604       0.88420176       0.95192692 </v>
    <v>       0.21813836       0.77489695       0.04812474 </v>
    <v>       0.44477278       0.22314793       0.95058569 </v>
    <v>       0.55606788       0.11213505       0.04936830 </v>
    <v>       0.44782014       0.55707417       0.95213785 </v>
    <v>       0.55729886       0.44809934       0.04793675 </v>
    <v>       0.44368272       0.88760952       0.95068565 </v>
    <v>       0.55687904       0.77465631       0.04813839 </v>
    <v>       0.78190364       0.22513164       0.95186232 </v>
    <v>       0.89097500       0.11553028       0.04808381 </v>
    <v>       0.77913759       0.55877919       0.95330815 </v>
    <v>       0.89206695       0.44579229       0.04671670 </v>
    <v>       0.77548215       0.88423356       0.95193916 </v>
    <v>       0.88664259       0.77310676       0.04693987 </v>
   </varray>
  </structure>
  <varray name="forces" >
   <v>      -0.12357784       0.28338328      -0.08528257 </v>
   <v>      -0.23883961       0.33064079      -0.07664012 </v>
   <v>       0.18518243      -0.29551006       0.08735290 </v>
   <v>      -0.04293144       0.27226784      -0.00645016 </v>
   <v>      -0.01308962       0.21807171      -0.01205770 </v>
   <v>      -0.13637212      -0.16260544       0.01171953 </v>
   <v>       0.43337278      -0.50186409       0.08360380 </v>
   <v>      -0.26683012       0.50698513      -0.06587067 </v>
   <v>       0.14649942      -0.58878739       0.08551270 </v>
   <v>      -0.09892967       0.01526728      -0.63730508 </v>
   <v>      -0.00653471       0.02138373       0.70172287 </v>
   <v>      -0.01970714      -0.05330442      -0.24747689 </v>
   <v>      -0.02605109      -0.03012756       0.17099262 </v>
   <v>       0.05700557      -0.13917096      -0.53848520 </v>
   <v>      -0.02289652      -0.10414884       0.55555879 </v>
   <v>      -0.01843968       0.02056239      -0.73764337 </v>
   <v>      -0.00640961       0.02778071       0.74255248 </v>
   <v>       0.02551112       0.03957018      -0.20670549 </v>
   <v>      -0.01760611       0.05607324       0.24953460 </v>
   <v>       0.00841793      -0.01557289      -0.70255159 </v>
   <v>       0.09186796      -0.02362304       0.63346597 </v>
   <v>       0.02857450       0.10888370      -0.56057979 </v>
   <v>      -0.06034028       0.12457990       0.54303707 </v>
   <v>       0.00507989       0.03376086      -0.18508587 </v>
   <v>       0.00866910       0.05962303       0.21061296 </v>
   <v>       0.06481636      -0.11178285      -0.50256392 </v>
   <v>       0.04355851      -0.09233624       0.48903213 </v>
  </varray>
  <varray name="stress" >
   <v>     -10.18016445       0.03556956      -0.04758729 </v>
   <v>       0.03556932      -9.86032381       0.12773425 </v>
   <v>      -0.04758746       0.12773443       6.47565134 </v>
  </varray>
  <energy>
   <i name="e_fr_energy">   -189.79156671 </i>
   <i name="e_wo_entrp">   -189.67499328 </i>
   <i name="e_0_energy">     -0.23314686 </i>
  </energy>
  <time name="totalsc">  382.15  383.09</time>
 </calculation>
 <calculation>
  <scstep>
   <time name="dav">   22.19   22.25</time>
   <time name="total">   22.72   22.77</time>
   <energy>
    <i name="alphaZ">     85.80325551 </i>
    <i name="ewald">  42825.18759869 </i>
    <i name="hartreedc"> -48841.80487065 </i>
    <i name="XCdc">   -232.96517071 </i>
    <i name="pawpsdc">   4038.77827911 </i>
    <i name="pawaedc">  -3454.48490716 </i>
    <i name="eentropy">     -0.19156567 </i>
    <i name="bandstr">  -1373.13272210 </i>
    <i name="atom">   6761.44252427 </i>
    <i name="e_fr_energy">   -191.36757870 </i>
    <i name="e_wo_entrp">   -191.17601303 </i>
    <i name="e_0_energy">   -191.27179587 </i>
   </energy>
  </scstep>
  <scstep>
   <time name="dav">   33.22   33.30</time>
   <time name="total">   33.74   33.82</time>
   <energy>
    <i name="e_fr_energy">   -191.18398643 </i>
    <i name="e_wo_entrp">   -190.99411771 </i>
    <i name="e_0_energy">   -191.08905207 </i>
   </energy>
  </scstep>
  <scstep>
   <time name="dav">   30.52   30.59</time>
   <time name="total">   31.03   31.11</time>
   <energy>
    <i name="e_fr_energy">   -191.33875507 </i>
    <i name="e_wo_entrp">   -191.11462319 </i>
    <i name="e_0_energy">   -191.22668913 </i>
   </energy>
  </scstep>
  <scstep>
   <time name="dav">   31.04   31.11</time>
   <time name="total">   31.56   31.64</time>
   <energy>
    <i name="e_fr_energy">   -190.93947088 </i>
    <i name="e_wo_entrp">   -190.74793478 </i>
    <i name="e_0_energy">   -190.84370283 </i>
   </energy>
  </scstep>
  <scstep>
   <time name="dav">   30.85   30.92</time>
   <time name="total">   31.37   31.45</time>
   <energy>
    <i name="e_fr_energy">   -190.90017478 </i>
    <i name="e_wo_entrp">   -190.70554182 </i>
    <i name="e_0_energy">   -190.80285830 </i>
   </energy>
  </scstep>
  <scstep>
   <time name="dav">   30.83   30.91</time>
   <time name="total">   31.35   31.43</time>
   <energy>
    <i name="e_fr_energy">   -190.80865045 </i>
    <i name="e_wo_entrp">   -190.61007230 </i>
    <i name="e_0_energy">   -190.70936138 </i>
   </energy>
  </scstep>
  <scstep>
   <time name="dav">   31.40   31.47</time>
   <time name="total">   31.92   32.00</time>
   <energy>
    <i name="e_fr_energy">   -190.79735684 </i>
    <i name="e_wo_entrp">   -190.60283865 </i>
    <i name="e_0_energy">   -190.70009774 </i>
   </energy>
  </scstep>
  <scstep>
   <time name="dav">   26.78   26.84</time>
   <time name="total">   27.30   27.36</time>
   <energy>
    <i name="e_fr_energy">   -190.79419752 </i>
    <i name="e_wo_entrp">   -190.59839142 </i>
    <i name="e_0_energy">   -190.69629447 </i>
   </energy>
  </scstep>
  <scstep>
   <time name="dav">   29.34   29.41</time>
   <time name="total">   29.86   29.93</time>
   <energy>
    <i name="e_fr_energy">   -190.79429894 </i>
    <i name="e_wo_entrp">   -190.59854584 </i>
    <i name="e_0_energy">   -190.69642239 </i>
   </energy>
  </scstep>
  <scstep>
   <time name="dav">   28.73   28.80</time>
   <time name="total">   29.26   29.33</time>
   <energy>
    <i name="e_fr_energy">   -190.79419968 </i>
    <i name="e_wo_entrp">   -190.59815139 </i>
    <i name="e_0_energy">   -190.69617554 </i>
   </energy>
  </scstep>
  <scstep>
   <time name="dav">   24.81   24.87</time>
   <time name="total">   25.33   25.39</time>
   <energy>
    <i name="e_fr_energy">   -190.79409467 </i>
    <i name="e_wo_entrp">   -190.59817176 </i>
    <i name="e_0_energy">   -190.69613321 </i>
   </energy>
  </scstep>
  <scstep>
   <time name="dav">   19.98   20.03</time>
   <time name="total">   20.01   20.06</time>
   <energy>
    <i name="alphaZ">     85.80325551 </i>
    <i name="ewald">  42825.18759869 </i>
    <i name="hartreedc"> -48813.22664781 </i>
    <i name="XCdc">   -234.29387206 </i>
    <i name="pawpsdc">   4063.81864912 </i>
    <i name="pawaedc">  -3479.69929932 </i>
    <i name="eentropy">     -0.19596958 </i>
    <i name="bandstr">  -1399.63032700 </i>
    <i name="atom">   6761.44252427 </i>
    <i name="e_fr_energy">   -190.79408817 </i>
    <i name="e_wo_entrp">   -190.59811859 </i>
    <i name="e_0_energy">   -190.69610338 </i>
   </energy>
  </scstep>
  <structure>
   <crystal>
    <varray name="basis" >
     <v>       8.48473998       4.89914728       0.00000000 </v>
     <v>      -8.48644722       4.90207014       0.00000000 </v>
     <v>       0.00000000       0.00000000      30.00000000 </v>
    </varray>
    <i name="volume">   2495.07436127 </i>
    <varray name="rec_basis" >
     <v>       0.05894097       0.10203841       0.00000000 </v>
     <v>      -0.05890583       0.10201788       0.00000000 </v>
     <v>       0.00000000       0.00000000       0.03333333 </v>
    </varray>
   </crystal>
   <varray name="positions" >
    <v>       0.00243863       0.67134993      -0.00023802 </v>
    <v>       0.66962079       0.67267469      -0.00006615 </v>
    <v>       0.99740209       0.32820360       0.00010559 </v>
    <v>       0.33536449       0.00252883      -0.00005354 </v>
    <v>       0.00157593       0.00163279      -0.00001001 </v>
    <v>       0.66470670      -0.00078225       0.00020233 </v>
    <v>       0.32980525       0.32433483       0.00004009 </v>
    <v>       0.33709798       0.67462911      -0.00022407 </v>
    <v>       0.66194599       0.32574523       0.00022830 </v>
    <v>       0.10915715       0.22578288       0.95011089 </v>
    <v>       0.22269040       0.11199195       0.05127899 </v>
    <v>       0.10686955       0.55344396       0.95235547 </v>
    <v>       0.21796169       0.44248488       0.04858350 </v>
    <v>       0.10799651       0.88295019       0.95040014 </v>
    <v>       0.21709088       0.77437102       0.04970566 </v>
    <v>       0.44474571       0.22311884       0.94855887 </v>
    <v>       0.55607778       0.11205726       0.05139104 </v>
    <v>       0.44854153       0.55738938       0.95131435 </v>
    <v>       0.55777900       0.44893051       0.04886452 </v>
    <v>       0.44376538       0.88776637       0.94875235 </v>
    <v>       0.55739411       0.77419033       0.04989023 </v>
    <v>       0.78299316       0.22565762       0.95027381 </v>
    <v>       0.89163963       0.11671191       0.04961927 </v>
    <v>       0.77955127       0.55935063       0.95255782 </v>
    <v>       0.89291243       0.44636730       0.04752703 </v>
    <v>       0.77494914       0.88313121       0.95049471 </v>
    <v>       0.88614128       0.77220145       0.04833673 </v>
   </varray>
  </structure>
  <varray name="forces" >
   <v>      -0.09727833       0.26718397      -0.04913858 </v>
   <v>      -0.30241944       0.37385393      -0.07225840 </v>
   <v>       0.19156272      -0.31185499       0.07867424 </v>
   <v>      -0.04376102       0.33682364       0.01286260 </v>
   <v>      -0.02052999       0.25737942      -0.01361007 </v>
   <v>      -0.16179872      -0.20844193      -0.02663505 </v>
   <v>       0.51461689      -0.55378402       0.03821831 </v>
   <v>      -0.31113370       0.56599265      -0.00343485 </v>
   <v>       0.13646972      -0.60966688       0.02034662 </v>
   <v>      -0.00953936      -0.01356564      -0.47969521 </v>
   <v>       0.05388845      -0.07790629       0.56346242 </v>
   <v>       0.00453633       0.00311138      -0.14717236 </v>
   <v>       0.00449357       0.04073483      -0.01622674 </v>
   <v>       0.00907446      -0.00358818      -0.38740472 </v>
   <v>      -0.04636424       0.01531510       0.37921597 </v>
   <v>       0.02340842      -0.03427419      -0.59174276 </v>
   <v>       0.03974878      -0.05267863       0.59500993 </v>
   <v>       0.02011003      -0.03852786      -0.02707771 </v>
   <v>       0.00390293      -0.00384112       0.11073065 </v>
   <v>      -0.04957508       0.05711841      -0.53919481 </v>
   <v>       0.01352650       0.03718803       0.49131043 </v>
   <v>       0.02084617      -0.01053802      -0.37325321 </v>
   <v>      -0.00986545      -0.01018800       0.39141074 </v>
   <v>       0.03928770      -0.04161969      -0.06211980 </v>
   <v>      -0.02187917      -0.02153361       0.08706898 </v>
   <v>       0.00342037       0.02110197      -0.35962154 </v>
   <v>      -0.00474854       0.01620569       0.38027493 </v>
  </varray>
  <varray name="stress" >
   <v>      -5.86776903      -0.10307451      -0.01533901 </v>
   <v>      -0.10307455      -5.74631986      -0.01310089 </v>
   <v>      -0.01533883      -0.01310069       4.52001485 </v>
  </varray>
  <energy>
   <i name="e_fr_energy">   -190.79408817 </i>
   <i name="e_wo_entrp">   -190.69610338 </i>
   <i name="e_0_energy">     -0.19596958 </i>
  </energy>
  <time name="totalsc">  387.41  388.36</time>
 </calculation>
 <calculation>
  <scstep>
   <time name="dav">   22.11   22.16</time>
   <time name="total">   22.62   22.67</time>
   <energy>
    <i name="alphaZ">     90.21759458 </i>
    <i name="ewald">  44683.62728513 </i>
    <i name="hartreedc"> -50727.63319113 </i>
    <i name="XCdc">   -231.80637180 </i>
    <i name="pawpsdc">   4063.76873300 </i>
    <i name="pawaedc">  -3479.64529592 </i>
    <i name="eentropy">     -0.16451861 </i>
    <i name="bandstr">  -1352.06463837 </i>
    <i name="atom">   6761.44252427 </i>
    <i name="e_fr_energy">   -192.25787885 </i>
    <i name="e_wo_entrp">   -192.09336024 </i>
    <i name="e_0_energy">   -192.17561954 </i>
   </energy>
  </scstep>
  <scstep>
   <time name="dav">   28.00   28.07</time>
   <time name="total">   28.50   28.57</time>
   <energy>
    <i name="e_fr_energy">   -191.99314641 </i>
    <i name="e_wo_entrp">   -191.81645240 </i>
    <i name="e_0_energy">   -191.90479940 </i>
   </energy>
  </scstep>
  <scstep>
   <time name="dav">   30.61   30.69</time>
   <time name="total">   31.12   31.20</time>
   <energy>
    <i name="e_fr_energy">   -192.06669307 </i>
    <i name="e_wo_entrp">   -191.88561419 </i>
    <i name="e_0_energy">   -191.97615363 </i>
   </energy>
  </scstep>
  <scstep>
   <time name="dav">   30.18   30.25</time>
   <time name="total">   30.69   30.77</time>
   <energy>
    <i name="e_fr_energy">   -191.86575967 </i>
    <i name="e_wo_entrp">   -191.68721789 </i>
    <i name="e_0_energy">   -191.77648878 </i>
   </energy>
  </scstep>
  <scstep>
   <time name="dav">   31.03   31.11</time>
   <time name="total">   31.54   31.62</time>
   <energy>
    <i name="e_fr_energy">   -191.60236756 </i>
    <i name="e_wo_entrp">   -191.43236067 </i>
    <i name="e_0_energy">   -191.51736411 </i>
   </energy>
  </scstep>
  <scstep>
   <time name="dav">   31.66   31.74</time>
   <time name="total">   32.18   32.46</time>
   <energy>
    <i name="e_fr_energy">   -191.59168421 </i>
    <i name="e_wo_entrp">   -191.40923797 </i>
    <i name="e_0_energy">   -191.50046109 </i>
   </energy>
  </scstep>
  <scstep>
   <time name="dav">   31.04   31.11</time>
   <time name="total">   31.55   31.62</time>
   <energy>
    <i name="e_fr_energy">   -191.57343476 </i>
    <i name="e_wo_entrp">   -191.40674591 </i>
    <i name="e_0_energy">   -191.49009034 </i>
   </energy>
  </scstep>
  <scstep>
   <time name="dav">   29.56   29.63</time>
   <time name="total">   30.07   30.15</time>
   <energy>
    <i name="e_fr_energy">   -191.56600305 </i>
    <i name="e_wo_entrp">   -191.39433108 </i>
    <i name="e_0_energy">   -191.48016706 </i>
   </energy>
  </scstep>
  <scstep>
   <time name="dav">   30.14   30.21</time>
   <time name="total">   30.64   30.72</time>
   <energy>
    <i name="e_fr_energy">   -191.56516053 </i>
    <i name="e_wo_entrp">   -191.39309243 </i>
    <i name="e_0_energy">   -191.47912648 </i>
   </energy>
  </scstep>
  <scstep>
   <time name="dav">   29.15   29.22</time>
   <time name="total">   29.66   29.74</time>
   <energy>
    <i name="e_fr_energy">   -191.56513651 </i>
    <i name="e_wo_entrp">   -191.39293123 </i>
    <i name="e_0_energy">   -191.47903387 </i>
   </energy>
  </scstep>
  <scstep>
   <time name="dav">   27.86   27.92</time>
   <time name="total">   27.89   27.96</time>
   <energy>
    <i name="alphaZ">     90.21759458 </i>
    <i name="ewald">  44683.62728513 </i>
    <i name="hartreedc"> -50692.74797167 </i>
    <i name="XCdc">   -233.34822917 </i>
    <i name="pawpsdc">   4086.55411877 </i>
    <i name="pawaedc">  -3502.51605037 </i>
    <i name="eentropy">     -0.17242480 </i>
    <i name="bandstr">  -1384.62192299 </i>
    <i name="atom">   6761.44252427 </i>
    <i name="e_fr_energy">   -191.56507624 </i>
    <i name="e_wo_entrp">   -191.39265144 </i>
    <i name="e_0_energy">   -191.47886384 </i>
   </energy>
  </scstep>
  <structure>
   <crystal>
    <varray name="basis" >
     <v>       8.26826299       4.77487769       0.00000000 </v>
     <v>      -8.27559868       4.78754907       0.00000000 </v>
     <v>       0.00000000       0.00000000      30.00000000 </v>
    </varray>
    <i name="volume">   2372.99058936 </i>
    <varray name="rec_basis" >
     <v>       0.06052551       0.10462240       0.00000000 </v>
     <v>      -0.06036532       0.10452966       0.00000000 </v>
     <v>       0.00000000       0.00000000       0.03333333 </v>
    </varray>
   </crystal>
   <varray name="positions" >
    <v>       0.00510967       0.67540000      -0.00045596 </v>
    <v>       0.67194824       0.67934889      -0.00038235 </v>
    <v>       0.99498513       0.32294506       0.00044283 </v>
    <v>       0.33926711       0.00709566      -0.00000542 </v>
    <v>       0.00473375       0.00510783      -0.00007125 </v>
    <v>       0.66090050      -0.00224394       0.00008732 </v>
    <v>       0.32665981       0.31386415       0.00023923 </v>
    <v>       0.34193485       0.68374019      -0.00025710 </v>
    <v>       0.65516182       0.31713163       0.00033412 </v>
    <v>       0.10845466       0.22576041       0.94757184 </v>
    <v>       0.22202971       0.11052753       0.05419197 </v>
    <v>       0.10631094       0.55310821       0.95126673 </v>
    <v>       0.21793094       0.44270245       0.04908167 </v>
    <v>       0.10772447       0.88236057       0.94826983 </v>
    <v>       0.21640320       0.77471886       0.05183866 </v>
    <v>       0.44443563       0.22239667       0.94550309 </v>
    <v>       0.55563494       0.11097843       0.05444417 </v>
    <v>       0.44879293       0.55708222       0.95064309 </v>
    <v>       0.55806564       0.44946613       0.04986981 </v>
    <v>       0.44422796       0.88898365       0.94592384 </v>
    <v>       0.55831391       0.77439137       0.05246874 </v>
    <v>       0.78357819       0.22551034       0.94816222 </v>
    <v>       0.89174148       0.11714865       0.05176519 </v>
    <v>       0.77962657       0.55915891       0.95180913 </v>
    <v>       0.89317329       0.44663785       0.04838520 </v>
    <v>       0.77499166       0.88288632       0.94849036 </v>
    <v>       0.88607744       0.77200642       0.05038294 </v>
   </varray>
  </structure>
  <varray name="forces" >
   <v>      -0.11764144       0.32952544      -0.02121170 </v>
   <v>      -0.34746777       0.50371549       0.04932420 </v>
   <v>       0.18615484      -0.40834282      -0.00897465 </v>
   <v>       0.03068172       0.08731995       0.07901408 </v>
   <v>       0.05152828       0.11407446       0.05251456 </v>
   <v>      -0.11352214      -0.12369276       0.01335581 </v>
   <v>       0.34945609      -0.39525955      -0.11750960 </v>
   <v>      -0.31985833       0.49522545       0.07011803 </v>
   <v>       0.14598515      -0.44077427      -0.04603396 </v>
   <v>       0.08190983       0.00293150      -0.14366666 </v>
   <v>       0.14847300      -0.17040389       0.28469843 </v>
   <v>       0.07213206       0.10614440       0.15131181 </v>
   <v>       0.11120845       0.17991367      -0.35739614 </v>
   <v>      -0.04967652       0.14828756      -0.08479672 </v>
   <v>      -0.04181966       0.13716482       0.10956307 </v>
   <v>       0.03649421      -0.06170911      -0.29678715 </v>
   <v>       0.08528388      -0.09189890       0.25980306 </v>
   <v>      -0.00688275      -0.18583207       0.34412632 </v>
   <v>       0.03286876      -0.12000800      -0.20992772 </v>
   <v>      -0.14191733       0.11663593      -0.26953679 </v>
   <v>      -0.06237124       0.07681733       0.16915172 </v>
   <v>      -0.01967717      -0.10768875      -0.09687976 </v>
   <v>       0.04446476      -0.15493817       0.07288899 </v>
   <v>       0.04446941      -0.15091748       0.23270317 </v>
   <v>      -0.05482765      -0.16234387      -0.17176481 </v>
   <v>      -0.09129991       0.18858237      -0.11832990 </v>
   <v>      -0.05414855       0.08747126       0.05424235 </v>
  </varray>
  <varray name="stress" >
   <v>      -0.24958204      -0.18157585       0.33038544 </v>
   <v>      -0.18157583       0.18152289      -0.33553659 </v>
   <v>       0.33038553      -0.33553663      -0.50981134 </v>
  </varray>
  <energy>
   <i name="e_fr_energy">   -191.56507624 </i>
   <i name="e_wo_entrp">   -191.47886384 </i>
   <i name="e_0_energy">     -0.17242480 </i>
  </energy>
  <time name="totalsc">  368.72  369.83</time>
 </calculation>
 <calculation>
  <scstep>
   <time name="dav">   22.09   22.15</time>
   <time name="total">   22.60   22.66</time>
   <energy>
    <i name="alphaZ">     90.25089190 </i>
    <i name="ewald">  44682.05905065 </i>
    <i name="hartreedc"> -50692.15705601 </i>
    <i name="XCdc">   -233.40105015 </i>
    <i name="pawpsdc">   4086.90571888 </i>
    <i name="pawaedc">  -3502.86392432 </i>
    <i name="eentropy">     -0.16566666 </i>
    <i name="bandstr">  -1383.75930061 </i>
    <i name="atom">   6761.44252427 </i>
    <i name="e_fr_energy">   -191.68881206 </i>
    <i name="e_wo_entrp">   -191.52314540 </i>
    <i name="e_0_energy">   -191.60597873 </i>
   </energy>
  </scstep>
  <scstep>
   <time name="dav">   31.56   31.64</time>
   <time name="total">   32.07   32.15</time>
   <energy>
    <i name="e_fr_energy">   -191.75306233 </i>
    <i name="e_wo_entrp">   -191.56784531 </i>
    <i name="e_0_energy">   -191.66045382 </i>
   </energy>
  </scstep>
  <scstep>
   <time name="dav">   31.31   31.38</time>
   <time name="total">   31.81   31.89</time>
   <energy>
    <i name="e_fr_energy">   -191.70956402 </i>
    <i name="e_wo_entrp">   -191.54377776 </i>
    <i name="e_0_energy">   -191.62667089 </i>
   </energy>
  </scstep>
  <scstep>
   <time name="dav">   29.26   29.33</time>
   <time name="total">   29.77   29.84</time>
   <energy>
    <i name="e_fr_energy">   -191.70876104 </i>
    <i name="e_wo_entrp">   -191.53990950 </i>
    <i name="e_0_energy">   -191.62433527 </i>
   </energy>
  </scstep>
  <scstep>
   <time name="dav">   29.55   29.62</time>
   <time name="total">   30.06   30.14</time>
   <energy>
    <i name="e_fr_energy">   -191.70554989 </i>
    <i name="e_wo_entrp">   -191.53676694 </i>
    <i name="e_0_energy">   -191.62115841 </i>
   </energy>
  </scstep>
  <scstep>
   <time name="dav">   28.80   28.87</time>
   <time name="total">   29.31   29.38</time>
   <energy>
    <i name="e_fr_energy">   -191.70526746 </i>
    <i name="e_wo_entrp">   -191.53581865 </i>
    <i name="e_0_energy">   -191.62054305 </i>
   </energy>
  </scstep>
  <scstep>
   <time name="dav">   29.45   29.52</time>
   <time name="total">   29.95   30.03</time>
   <energy>
    <i name="e_fr_energy">   -191.70471169 </i>
    <i name="e_wo_entrp">   -191.53593931 </i>
    <i name="e_0_energy">   -191.62032550 </i>
   </energy>
  </scstep>
  <scstep>
   <time name="dav">   24.37   24.43</time>
   <time name="total">   24.88   24.94</time>
   <energy>
    <i name="e_fr_energy">   -191.70449422 </i>
    <i name="e_wo_entrp">   -191.53540903 </i>
    <i name="e_0_energy">   -191.61995162 </i>
   </energy>
  </scstep>
  <scstep>
   <time name="dav">   18.06   18.10</time>
   <time name="total">   18.10   18.14</time>
   <energy>
    <i name="alphaZ">     90.25089190 </i>
    <i name="ewald">  44682.05905065 </i>
    <i name="hartreedc"> -50692.99242558 </i>
    <i name="XCdc">   -233.38507667 </i>
    <i name="pawpsdc">   4086.18614252 </i>
    <i name="pawaedc">  -3502.11674213 </i>
    <i name="eentropy">     -0.16880771 </i>
    <i name="bandstr">  -1382.98004554 </i>
    <i name="atom">   6761.44252427 </i>
    <i name="e_fr_energy">   -191.70448829 </i>
    <i name="e_wo_entrp">   -191.53568058 </i>
    <i name="e_0_energy">   -191.62008443 </i>
   </energy>
  </scstep>
  <structure>
   <crystal>
    <varray name="basis" >
     <v>       8.25961802       4.77272165       0.00000000 </v>
     <v>      -8.27162225       4.79348470       0.00000000 </v>
     <v>       0.00000000       0.00000000      30.00000000 </v>
    </varray>
    <i name="volume">   2372.11509424 </i>
    <varray name="rec_basis" >
     <v>       0.06062292       0.10461072       0.00000000 </v>
     <v>      -0.06036033       0.10445890       0.00000000 </v>
     <v>       0.00000000       0.00000000       0.03333333 </v>
    </varray>
   </crystal>
   <varray name="positions" >
    <v>       0.00646052       0.67745141      -0.00049189 </v>
    <v>       0.67350639       0.68298033      -0.00030431 </v>
    <v>       0.99343661       0.32028276       0.00043047 </v>
    <v>       0.33982801       0.00747973       0.00012327 </v>
    <v>       0.00548821       0.00556020       0.00001367 </v>
    <v>       0.65991015      -0.00254964       0.00010826 </v>
    <v>       0.32565506       0.31075520       0.00004973 </v>
    <v>       0.34354791       0.68726259      -0.00014344 </v>
    <v>       0.65330040       0.31440069       0.00026009 </v>
    <v>       0.10870489       0.22553448       0.94731972 </v>
    <v>       0.22159412       0.10921242       0.05467580 </v>
    <v>       0.10705898       0.55343328       0.95150363 </v>
    <v>       0.21917417       0.44329233       0.04850641 </v>
    <v>       0.10833128       0.88325667       0.94811613 </v>
    <v>       0.21697275       0.77554241       0.05203278 </v>
    <v>       0.44422638       0.22196966       0.94499859 </v>
    <v>       0.55541472       0.11025167       0.05488848 </v>
    <v>       0.44782883       0.55615484       0.95119569 </v>
    <v>       0.55755363       0.44876381       0.04953739 </v>
    <v>       0.44440751       0.89000407       0.94546513 </v>
    <v>       0.55852905       0.77496698       0.05276249 </v>
    <v>       0.78297696       0.22501908       0.94798884 </v>
    <v>       0.89108432       0.11623307       0.05189964 </v>
    <v>       0.77898980       0.55826028       0.95218044 </v>
    <v>       0.89218800       0.44597521       0.04811365 </v>
    <v>       0.77568338       0.88411244       0.94828302 </v>
    <v>       0.88636244       0.77260848       0.05048622 </v>
   </varray>
  </structure>
  <varray name="forces" >
   <v>      -0.13734227       0.37832406      -0.06399264 </v>
   <v>      -0.32405144       0.50477899       0.00806315 </v>
   <v>       0.17708111      -0.44424065       0.00168607 </v>
   <v>       0.03100883       0.04746355       0.03099974 </v>
   <v>       0.08260583       0.10596006       0.03463122 </v>
   <v>      -0.13755865      -0.08911677      -0.02959091 </v>
   <v>       0.33556576      -0.42988818      -0.02692665 </v>
   <v>      -0.30932296       0.48807077       0.00165952 </v>
   <v>       0.18157959      -0.43673174      -0.01739174 </v>
   <v>       0.05692839      -0.02997251      -0.13370364 </v>
   <v>       0.09165231      -0.10640139       0.18711889 </v>
   <v>       0.06439044       0.08665641       0.22380859 </v>
   <v>       0.06496205       0.13847862      -0.39662825 </v>
   <v>      -0.03796300       0.09631288      -0.06718270 </v>
   <v>      -0.03885223       0.06959871       0.16085101 </v>
   <v>       0.05632286      -0.06870115      -0.24013105 </v>
   <v>       0.06679933      -0.06973784       0.20960456 </v>
   <v>      -0.00063284      -0.11935662       0.37899714 </v>
   <v>       0.00666985      -0.08308995      -0.26397763 </v>
   <v>      -0.09595106       0.09805608      -0.19610799 </v>
   <v>      -0.05038039       0.07216575       0.18395220 </v>
   <v>       0.00706877      -0.06458596      -0.11613985 </v>
   <v>       0.03529955      -0.10998505       0.06951942 </v>
   <v>       0.01458950      -0.10870124       0.29475252 </v>
   <v>      -0.03144965      -0.11817932      -0.23026406 </v>
   <v>      -0.07608693       0.14539430      -0.08076747 </v>
   <v>      -0.03293276       0.04742817       0.07716056 </v>
  </varray>
  <varray name="stress" >
   <v>       0.09053556      -0.08465288       0.15076417 </v>
   <v>      -0.08465287       0.16650639      -0.24022914 </v>
   <v>       0.15076427      -0.24022878      -1.11609005 </v>
  </varray>
  <energy>
   <i name="e_fr_energy">   -191.70448829 </i>
   <i name="e_wo_entrp">   -191.62008443 </i>
   <i name="e_0_energy">     -0.16880771 </i>
  </energy>
  <time name="totalsc">  290.85  291.56</time>
 </calculation>
 <calculation>
  <scstep>
   <time name="dav">   22.12   22.18</time>
   <time name="total">   22.63   22.69</time>
   <energy>
    <i name="alphaZ">     90.12808698 </i>
    <i name="ewald">  44629.11904685 </i>
    <i name="hartreedc"> -50638.43378839 </i>
    <i name="XCdc">   -233.47111090 </i>
    <i name="pawpsdc">   4086.20926584 </i>
    <i name="pawaedc">  -3502.14010671 </i>
    <i name="eentropy">     -0.16268405 </i>
    <i name="bandstr">  -1384.52240864 </i>
    <i name="atom">   6761.44252427 </i>
    <i name="e_fr_energy">   -191.83117474 </i>
    <i name="e_wo_entrp">   -191.66849069 </i>
    <i name="e_0_energy">   -191.74983272 </i>
   </energy>
  </scstep>
  <scstep>
   <time name="dav">   31.76   31.84</time>
   <time name="total">   32.27   32.35</time>
   <energy>
    <i name="e_fr_energy">   -191.87708149 </i>
    <i name="e_wo_entrp">   -191.70223491 </i>
    <i name="e_0_energy">   -191.78965820 </i>
   </energy>
  </scstep>
  <scstep>
   <time name="dav">   31.31   31.38</time>
   <time name="total">   31.81   31.89</time>
   <energy>
    <i name="e_fr_energy">   -191.85211229 </i>
    <i name="e_wo_entrp">   -191.69078705 </i>
    <i name="e_0_energy">   -191.77144967 </i>
   </energy>
  </scstep>
  <scstep>
   <time name="dav">   29.50   29.57</time>
   <time name="total">   30.01   30.08</time>
   <energy>
    <i name="e_fr_energy">   -191.84849320 </i>
    <i name="e_wo_entrp">   -191.68403416 </i>
    <i name="e_0_energy">   -191.76626368 </i>
   </energy>
  </scstep>
  <scstep>
   <time name="dav">   30.49   30.56</time>
   <time name="total">   30.99   31.07</time>
   <energy>
    <i name="e_fr_energy">   -191.84799752 </i>
    <i name="e_wo_entrp">   -191.68381391 </i>
    <i name="e_0_energy">   -191.76590571 </i>
   </energy>
  </scstep>
  <scstep>
   <time name="dav">   30.04   30.11</time>
   <time name="total">   30.55   30.62</time>
   <energy>
    <i name="e_fr_energy">   -191.84701540 </i>
    <i name="e_wo_entrp">   -191.68288363 </i>
    <i name="e_0_energy">   -191.76494951 </i>
   </energy>
  </scstep>
  <scstep>
   <time name="dav">   26.65   26.71</time>
   <time name="total">   27.16   27.23</time>
   <energy>
    <i name="e_fr_energy">   -191.84608225 </i>
    <i name="e_wo_entrp">   -191.68194569 </i>
    <i name="e_0_energy">   -191.76401397 </i>
   </energy>
  </scstep>
  <scstep>
   <time name="dav">   20.73   20.78</time>
   <time name="total">   20.77   20.82</time>
   <energy>
    <i name="alphaZ">     90.12808698 </i>
    <i name="ewald">  44629.11904685 </i>
    <i name="hartreedc"> -50640.02719929 </i>
    <i name="XCdc">   -233.40745936 </i>
    <i name="pawpsdc">   4088.51743575 </i>
    <i name="pawaedc">  -3504.46955734 </i>
    <i name="eentropy">     -0.16397006 </i>
    <i name="bandstr">  -1382.98501299 </i>
    <i name="atom">   6761.44252427 </i>
    <i name="e_fr_energy">   -191.84610518 </i>
    <i name="e_wo_entrp">   -191.68213512 </i>
[...]
      <set comment="kpoint 31">
       <r>  -17.5257    1.0000 </r>
       <r>  -17.3025    1.0000 </r>
       <r>  -16.9089    1.0000 </r>
       <r>  -16.7053    1.0000 </r>
       <r>  -16.4954    1.0000 </r>
       <r>  -16.4359    1.0000 </r>
       <r>  -16.3340    1.0000 </r>
       <r>  -16.2461    1.0000 </r>
       <r>  -16.0655    1.0000 </r>
       <r>  -15.9980    1.0000 </r>
       <r>  -15.9590    1.0000 </r>
       <r>  -15.8640    1.0000 </r>
       <r>  -15.7749    1.0000 </r>
       <r>  -15.6774    1.0000 </r>
       <r>  -15.6045    1.0000 </r>
       <r>  -15.5568    1.0000 </r>
       <r>  -15.3167    1.0000 </r>
       <r>  -15.2390    1.0000 </r>
       <r>   -9.8026    1.0000 </r>
       <r>   -9.5091    1.0000 </r>
       <r>   -9.2793    1.0000 </r>
       <r>   -9.0118    1.0000 </r>
       <r>   -8.9110    1.0000 </r>
       <r>   -8.6822    1.0000 </r>
       <r>   -8.5404    1.0000 </r>
       <r>   -8.4586    1.0000 </r>
       <r>   -8.4044    1.0000 </r>
       <r>   -8.3210    1.0000 </r>
       <r>   -8.2913    1.0000 </r>
       <r>   -8.2155    1.0000 </r>
       <r>   -8.1555    1.0000 </r>
       <r>   -8.1055    1.0000 </r>
       <r>   -8.0354    1.0000 </r>
       <r>   -7.8810    1.0000 </r>
       <r>   -7.7666    1.0000 </r>
       <r>   -7.7089    1.0000 </r>
       <r>   -7.6281    1.0000 </r>
       <r>   -7.3963    1.0000 </r>
       <r>   -7.3598    1.0000 </r>
       <r>   -7.2213    1.0000 </r>
       <r>   -7.1687    1.0000 </r>
       <r>   -7.1155    1.0000 </r>
       <r>   -7.0695    1.0000 </r>
       <r>   -6.8616    1.0000 </r>
       <r>   -6.8457    1.0000 </r>
       <r>   -6.7778    1.0000 </r>
       <r>   -6.6293    1.0000 </r>
       <r>   -6.5997    1.0000 </r>
       <r>   -6.5355    1.0000 </r>
       <r>   -6.4882    1.0000 </r>
       <r>   -6.4112    1.0000 </r>
       <r>   -6.3795    1.0000 </r>
       <r>   -6.2576    1.0000 </r>
       <r>   -6.2081    1.0000 </r>
       <r>   -6.1232    1.0000 </r>
       <r>   -6.0582    1.0000 </r>
       <r>   -6.0128    1.0000 </r>
       <r>   -5.9307    1.0000 </r>
       <r>   -5.8774    1.0000 </r>
       <r>   -5.7680    1.0000 </r>
       <r>   -5.6571    1.0000 </r>
       <r>   -5.5772    1.0000 </r>
       <r>   -5.4962    1.0000 </r>
       <r>   -5.4242    1.0000 </r>
       <r>   -5.3025    1.0000 </r>
       <r>   -5.2059    1.0000 </r>
       <r>   -5.0787    1.0000 </r>
       <r>   -4.8362    1.0000 </r>
       <r>   -4.8157    1.0000 </r>
       <r>   -4.5884    1.0000 </r>
       <r>   -4.5602    1.0000 </r>
       <r>   -4.4642    1.0000 </r>
       <r>   -4.3528    1.0000 </r>
       <r>   -4.2495    1.0000 </r>
       <r>   -4.1532    1.0000 </r>
       <r>   -4.0935    1.0000 </r>
       <r>   -4.0101    1.0000 </r>
       <r>   -3.6850    0.9995 </r>
       <r>   -3.5364    0.9869 </r>
       <r>   -3.1032    0.2001 </r>
       <r>   -2.9663    0.0352 </r>
       <r>   -2.7972    0.0013 </r>
       <r>   -2.6748    0.0001 </r>
       <r>   -2.5536    0.0000 </r>
       <r>   -2.4617    0.0000 </r>
       <r>   -2.3685    0.0000 </r>
       <r>   -2.0719    0.0000 </r>
       <r>   -2.0316    0.0000 </r>
       <r>   -1.9968    0.0000 </r>
       <r>   -1.8723    0.0000 </r>
       <r>   -1.6967    0.0000 </r>
       <r>   -1.5822    0.0000 </r>
       <r>   -1.5050    0.0000 </r>
       <r>   -1.4319    0.0000 </r>
       <r>   -1.3205    0.0000 </r>
       <r>   -1.1953    0.0000 </r>
       <r>   -1.0717    0.0000 </r>
       <r>   -1.0455    0.0000 </r>
       <r>   -0.9705    0.0000 </r>
       <r>   -0.8930    0.0000 </r>
       <r>   -0.8407    0.0000 </r>
       <r>   -0.7039    0.0000 </r>
       <r>   -0.6515    0.0000 </r>
       <r>   -0.6226    0.0000 </r>
       <r>   -0.4427    0.0000 </r>
       <r>   -0.2942    0.0000 </r>
       <r>   -0.1639    0.0000 </r>
       <r>   -0.0164    0.0000 </r>
       <r>    0.0461    0.0000 </r>
       <r>    0.1176    0.0000 </r>
       <r>    0.4487    0.0000 </r>
       <r>    0.7106    0.0000 </r>
       <r>    0.8006    0.0000 </r>
       <r>    0.8992    0.0000 </r>
       <r>    1.0612    0.0000 </r>
       <r>    1.2102    0.0000 </r>
       <r>    1.2820    0.0000 </r>
       <r>    2.1310    0.0000 </r>
       <r>    2.3167    0.0000 </r>
       <r>    2.3803    0.0000 </r>
      </set>
      <set comment="kpoint 32">
       <r>  -17.5362    1.0000 </r>
       <r>  -17.2270    1.0000 </r>
       <r>  -17.0315    1.0000 </r>
       <r>  -16.6986    1.0000 </r>
       <r>  -16.4599    1.0000 </r>
       <r>  -16.3722    1.0000 </r>
       <r>  -16.3288    1.0000 </r>
       <r>  -16.2489    1.0000 </r>
       <r>  -16.1230    1.0000 </r>
       <r>  -16.0442    1.0000 </r>
       <r>  -15.9430    1.0000 </r>
       <r>  -15.8567    1.0000 </r>
       <r>  -15.7760    1.0000 </r>
       <r>  -15.6781    1.0000 </r>
       <r>  -15.5724    1.0000 </r>
       <r>  -15.5175    1.0000 </r>
       <r>  -15.3502    1.0000 </r>
       <r>  -15.2429    1.0000 </r>
       <r>   -9.7471    1.0000 </r>
       <r>   -9.5764    1.0000 </r>
       <r>   -9.3962    1.0000 </r>
       <r>   -8.9727    1.0000 </r>
       <r>   -8.7385    1.0000 </r>
       <r>   -8.6280    1.0000 </r>
       <r>   -8.5317    1.0000 </r>
       <r>   -8.4607    1.0000 </r>
       <r>   -8.4099    1.0000 </r>
       <r>   -8.3781    1.0000 </r>
       <r>   -8.3031    1.0000 </r>
       <r>   -8.2452    1.0000 </r>
       <r>   -8.1327    1.0000 </r>
       <r>   -8.1018    1.0000 </r>
       <r>   -8.0477    1.0000 </r>
       <r>   -7.9169    1.0000 </r>
       <r>   -7.7987    1.0000 </r>
       <r>   -7.7756    1.0000 </r>
       <r>   -7.6261    1.0000 </r>
       <r>   -7.4362    1.0000 </r>
       <r>   -7.3497    1.0000 </r>
       <r>   -7.2437    1.0000 </r>
       <r>   -7.1986    1.0000 </r>
       <r>   -7.1415    1.0000 </r>
       <r>   -7.0237    1.0000 </r>
       <r>   -6.8828    1.0000 </r>
       <r>   -6.8416    1.0000 </r>
       <r>   -6.7182    1.0000 </r>
       <r>   -6.6567    1.0000 </r>
       <r>   -6.5975    1.0000 </r>
       <r>   -6.5156    1.0000 </r>
       <r>   -6.4562    1.0000 </r>
       <r>   -6.4011    1.0000 </r>
       <r>   -6.3596    1.0000 </r>
       <r>   -6.2656    1.0000 </r>
       <r>   -6.2246    1.0000 </r>
       <r>   -6.1295    1.0000 </r>
       <r>   -6.0231    1.0000 </r>
       <r>   -5.9673    1.0000 </r>
       <r>   -5.8845    1.0000 </r>
       <r>   -5.8449    1.0000 </r>
       <r>   -5.7037    1.0000 </r>
       <r>   -5.6189    1.0000 </r>
       <r>   -5.5800    1.0000 </r>
       <r>   -5.4994    1.0000 </r>
       <r>   -5.4146    1.0000 </r>
       <r>   -5.3710    1.0000 </r>
       <r>   -5.1952    1.0000 </r>
       <r>   -5.1447    1.0000 </r>
       <r>   -4.8634    1.0000 </r>
       <r>   -4.7578    1.0000 </r>
       <r>   -4.6593    1.0000 </r>
       <r>   -4.5092    1.0000 </r>
       <r>   -4.4722    1.0000 </r>
       <r>   -4.4030    1.0000 </r>
       <r>   -4.2662    1.0000 </r>
       <r>   -4.1939    1.0000 </r>
       <r>   -4.0938    1.0000 </r>
       <r>   -3.9342    1.0000 </r>
       <r>   -3.6700    0.9992 </r>
       <r>   -3.5305    0.9854 </r>
       <r>   -3.1569    0.3223 </r>
       <r>   -2.9073    0.0130 </r>
       <r>   -2.8299    0.0028 </r>
       <r>   -2.7217    0.0002 </r>
       <r>   -2.5653    0.0000 </r>
       <r>   -2.5052    0.0000 </r>
       <r>   -2.3646    0.0000 </r>
       <r>   -2.1141    0.0000 </r>
       <r>   -2.0620    0.0000 </r>
       <r>   -2.0121    0.0000 </r>
       <r>   -1.9392    0.0000 </r>
       <r>   -1.6967    0.0000 </r>
       <r>   -1.5317    0.0000 </r>
       <r>   -1.4290    0.0000 </r>
       <r>   -1.4018    0.0000 </r>
       <r>   -1.2828    0.0000 </r>
       <r>   -1.1825    0.0000 </r>
       <r>   -1.0775    0.0000 </r>
       <r>   -0.9854    0.0000 </r>
       <r>   -0.9545    0.0000 </r>
       <r>   -0.8641    0.0000 </r>
       <r>   -0.7980    0.0000 </r>
       <r>   -0.7370    0.0000 </r>
       <r>   -0.6527    0.0000 </r>
       <r>   -0.6344    0.0000 </r>
       <r>   -0.4922    0.0000 </r>
       <r>   -0.3409    0.0000 </r>
       <r>   -0.2240    0.0000 </r>
       <r>   -0.0329    0.0000 </r>
       <r>    0.0370    0.0000 </r>
       <r>    0.1809    0.0000 </r>
       <r>    0.4816    0.0000 </r>
       <r>    0.5932    0.0000 </r>
       <r>    0.8222    0.0000 </r>
       <r>    0.9132    0.0000 </r>
       <r>    1.0601    0.0000 </r>
       <r>    1.1835    0.0000 </r>
       <r>    1.3963    0.0000 </r>
       <r>    2.1090    0.0000 </r>
       <r>    2.2797    0.0000 </r>
       <r>    2.5789    0.0000 </r>
      </set>
      <set comment="kpoint 33">
       <r>  -17.5110    1.0000 </r>
       <r>  -17.3053    1.0000 </r>
       <r>  -16.9296    1.0000 </r>
       <r>  -16.6893    1.0000 </r>
       <r>  -16.5011    1.0000 </r>
       <r>  -16.4757    1.0000 </r>
       <r>  -16.3362    1.0000 </r>
       <r>  -16.1884    1.0000 </r>
       <r>  -16.1454    1.0000 </r>
       <r>  -16.0633    1.0000 </r>
       <r>  -15.8757    1.0000 </r>
       <r>  -15.8264    1.0000 </r>
       <r>  -15.7803    1.0000 </r>
       <r>  -15.6788    1.0000 </r>
       <r>  -15.5753    1.0000 </r>
       <r>  -15.4768    1.0000 </r>
       <r>  -15.3638    1.0000 </r>
       <r>  -15.2829    1.0000 </r>
       <r>   -9.7879    1.0000 </r>
       <r>   -9.4677    1.0000 </r>
       <r>   -9.3830    1.0000 </r>
       <r>   -8.9405    1.0000 </r>
       <r>   -8.8194    1.0000 </r>
       <r>   -8.7358    1.0000 </r>
       <r>   -8.6191    1.0000 </r>
       <r>   -8.5665    1.0000 </r>
       <r>   -8.4311    1.0000 </r>
       <r>   -8.3205    1.0000 </r>
       <r>   -8.2579    1.0000 </r>
       <r>   -8.1723    1.0000 </r>
       <r>   -8.1143    1.0000 </r>
       <r>   -8.0569    1.0000 </r>
       <r>   -7.9635    1.0000 </r>
       <r>   -7.8988    1.0000 </r>
       <r>   -7.8356    1.0000 </r>
       <r>   -7.7800    1.0000 </r>
       <r>   -7.6213    1.0000 </r>
       <r>   -7.4649    1.0000 </r>
       <r>   -7.3752    1.0000 </r>
       <r>   -7.3164    1.0000 </r>
       <r>   -7.1425    1.0000 </r>
       <r>   -7.0714    1.0000 </r>
       <r>   -6.9652    1.0000 </r>
       <r>   -6.8812    1.0000 </r>
       <r>   -6.8364    1.0000 </r>
       <r>   -6.7677    1.0000 </r>
       <r>   -6.6962    1.0000 </r>
       <r>   -6.5672    1.0000 </r>
       <r>   -6.5159    1.0000 </r>
       <r>   -6.5027    1.0000 </r>
       <r>   -6.4149    1.0000 </r>
       <r>   -6.3367    1.0000 </r>
       <r>   -6.2657    1.0000 </r>
       <r>   -6.2262    1.0000 </r>
       <r>   -6.0757    1.0000 </r>
       <r>   -6.0162    1.0000 </r>
       <r>   -5.9890    1.0000 </r>
       <r>   -5.9581    1.0000 </r>
       <r>   -5.8691    1.0000 </r>
       <r>   -5.6947    1.0000 </r>
       <r>   -5.6439    1.0000 </r>
       <r>   -5.5626    1.0000 </r>
       <r>   -5.5167    1.0000 </r>
       <r>   -5.4017    1.0000 </r>
       <r>   -5.2800    1.0000 </r>
       <r>   -5.2167    1.0000 </r>
       <r>   -4.9576    1.0000 </r>
       <r>   -4.8771    1.0000 </r>
       <r>   -4.8028    1.0000 </r>
       <r>   -4.7147    1.0000 </r>
       <r>   -4.5487    1.0000 </r>
       <r>   -4.4704    1.0000 </r>
       <r>   -4.3839    1.0000 </r>
       <r>   -4.2784    1.0000 </r>
       <r>   -4.1489    1.0000 </r>
       <r>   -4.1102    1.0000 </r>
       <r>   -3.8428    1.0000 </r>
       <r>   -3.7206    0.9998 </r>
       <r>   -3.5781    0.9941 </r>
       <r>   -3.1496    0.3039 </r>
       <r>   -2.9663    0.0352 </r>
       <r>   -2.8538    0.0046 </r>
       <r>   -2.7205    0.0002 </r>
       <r>   -2.6020    0.0000 </r>
       <r>   -2.5280    0.0000 </r>
       <r>   -2.3531    0.0000 </r>
       <r>   -2.1666    0.0000 </r>
       <r>   -2.0947    0.0000 </r>
       <r>   -2.0208    0.0000 </r>
       <r>   -1.9293    0.0000 </r>
       <r>   -1.7083    0.0000 </r>
       <r>   -1.5081    0.0000 </r>
       <r>   -1.3593    0.0000 </r>
       <r>   -1.3347    0.0000 </r>
       <r>   -1.2540    0.0000 </r>
       <r>   -1.1838    0.0000 </r>
       <r>   -1.0779    0.0000 </r>
       <r>   -0.9738    0.0000 </r>
       <r>   -0.8925    0.0000 </r>
       <r>   -0.8574    0.0000 </r>
       <r>   -0.7820    0.0000 </r>
       <r>   -0.7540    0.0000 </r>
       <r>   -0.6777    0.0000 </r>
       <r>   -0.6272    0.0000 </r>
       <r>   -0.4967    0.0000 </r>
       <r>   -0.3938    0.0000 </r>
       <r>   -0.3273    0.0000 </r>
       <r>   -0.0624    0.0000 </r>
       <r>   -0.0212    0.0000 </r>
       <r>    0.2413    0.0000 </r>
       <r>    0.4579    0.0000 </r>
       <r>    0.5777    0.0000 </r>
       <r>    0.8810    0.0000 </r>
       <r>    0.9428    0.0000 </r>
       <r>    1.0492    0.0000 </r>
       <r>    1.1984    0.0000 </r>
       <r>    1.5221    0.0000 </r>
       <r>    2.1474    0.0000 </r>
       <r>    2.3077    0.0000 </r>
       <r>    2.4144    0.0000 </r>
      </set>
      <set comment="kpoint 34">
       <r>  -17.4743    1.0000 </r>
       <r>  -17.3774    1.0000 </r>
       <r>  -16.7952    1.0000 </r>
       <r>  -16.6806    1.0000 </r>
       <r>  -16.6477    1.0000 </r>
       <r>  -16.4924    1.0000 </r>
       <r>  -16.3214    1.0000 </r>
       <r>  -16.1863    1.0000 </r>
       <r>  -16.1502    1.0000 </r>
       <r>  -16.0547    1.0000 </r>
       <r>  -15.8259    1.0000 </r>
       <r>  -15.8224    1.0000 </r>
       <r>  -15.7782    1.0000 </r>
       <r>  -15.6800    1.0000 </r>
       <r>  -15.5796    1.0000 </r>
       <r>  -15.4626    1.0000 </r>
       <r>  -15.3514    1.0000 </r>
       <r>  -15.3246    1.0000 </r>
       <r>   -9.8177    1.0000 </r>
       <r>   -9.3749    1.0000 </r>
       <r>   -9.3149    1.0000 </r>
       <r>   -8.9668    1.0000 </r>
       <r>   -8.9343    1.0000 </r>
       <r>   -8.8147    1.0000 </r>
       <r>   -8.6690    1.0000 </r>
       <r>   -8.5921    1.0000 </r>
       <r>   -8.4311    1.0000 </r>
       <r>   -8.2979    1.0000 </r>
       <r>   -8.2321    1.0000 </r>
       <r>   -8.1505    1.0000 </r>
       <r>   -8.1017    1.0000 </r>
       <r>   -8.0196    1.0000 </r>
       <r>   -7.9167    1.0000 </r>
       <r>   -7.8678    1.0000 </r>
       <r>   -7.8520    1.0000 </r>
       <r>   -7.7346    1.0000 </r>
       <r>   -7.6143    1.0000 </r>
       <r>   -7.5148    1.0000 </r>
       <r>   -7.3975    1.0000 </r>
       <r>   -7.3455    1.0000 </r>
       <r>   -7.1178    1.0000 </r>
       <r>   -7.0398    1.0000 </r>
       <r>   -6.9861    1.0000 </r>
       <r>   -6.8648    1.0000 </r>
       <r>   -6.8170    1.0000 </r>
       <r>   -6.7054    1.0000 </r>
       <r>   -6.6184    1.0000 </r>
       <r>   -6.6019    1.0000 </r>
       <r>   -6.5395    1.0000 </r>
       <r>   -6.5119    1.0000 </r>
       <r>   -6.4328    1.0000 </r>
       <r>   -6.3885    1.0000 </r>
       <r>   -6.2834    1.0000 </r>
       <r>   -6.2587    1.0000 </r>
       <r>   -6.1790    1.0000 </r>
       <r>   -6.0395    1.0000 </r>
       <r>   -5.9993    1.0000 </r>
       <r>   -5.8417    1.0000 </r>
       <r>   -5.8227    1.0000 </r>
       <r>   -5.8001    1.0000 </r>
       <r>   -5.6329    1.0000 </r>
       <r>   -5.5942    1.0000 </r>
       <r>   -5.4869    1.0000 </r>
       <r>   -5.4134    1.0000 </r>
       <r>   -5.2145    1.0000 </r>
       <r>   -5.1187    1.0000 </r>
       <r>   -4.9963    1.0000 </r>
       <r>   -4.9060    1.0000 </r>
       <r>   -4.8299    1.0000 </r>
       <r>   -4.6038    1.0000 </r>
       <r>   -4.5610    1.0000 </r>
       <r>   -4.5279    1.0000 </r>
       <r>   -4.3187    1.0000 </r>
       <r>   -4.2878    1.0000 </r>
       <r>   -4.2123    1.0000 </r>
       <r>   -4.0754    1.0000 </r>
       <r>   -3.7980    1.0000 </r>
       <r>   -3.7440    0.9999 </r>
       <r>   -3.6296    0.9980 </r>
       <r>   -3.1128    0.2196 </r>
       <r>   -3.0039    0.0614 </r>
       <r>   -2.9017    0.0117 </r>
       <r>   -2.6964    0.0001 </r>
       <r>   -2.6250    0.0000 </r>
       <r>   -2.5313    0.0000 </r>
       <r>   -2.3485    0.0000 </r>
       <r>   -2.1925    0.0000 </r>
       <r>   -2.1094    0.0000 </r>
       <r>   -2.0104    0.0000 </r>
       <r>   -1.9181    0.0000 </r>
       <r>   -1.7152    0.0000 </r>
       <r>   -1.5001    0.0000 </r>
       <r>   -1.3322    0.0000 </r>
       <r>   -1.3008    0.0000 </r>
       <r>   -1.2402    0.0000 </r>
       <r>   -1.1807    0.0000 </r>
       <r>   -1.0827    0.0000 </r>
       <r>   -0.9828    0.0000 </r>
       <r>   -0.8964    0.0000 </r>
       <r>   -0.8363    0.0000 </r>
       <r>   -0.7959    0.0000 </r>
       <r>   -0.7431    0.0000 </r>
       <r>   -0.6286    0.0000 </r>
       <r>   -0.6048    0.0000 </r>
       <r>   -0.5779    0.0000 </r>
       <r>   -0.4243    0.0000 </r>
       <r>   -0.3346    0.0000 </r>
       <r>   -0.0925    0.0000 </r>
       <r>   -0.0605    0.0000 </r>
       <r>    0.2646    0.0000 </r>
       <r>    0.4424    0.0000 </r>
       <r>    0.5893    0.0000 </r>
       <r>    0.9287    0.0000 </r>
       <r>    0.9516    0.0000 </r>
       <r>    1.0328    0.0000 </r>
       <r>    1.2228    0.0000 </r>
       <r>    1.5774    0.0000 </r>
       <r>    2.2304    0.0000 </r>
       <r>    2.2699    0.0000 </r>
       <r>    2.3944    0.0000 </r>
      </set>
     </set>
    </set>
   </array>
  </eigenvalues>
  <separator name="orbital magnetization" >
   <v name="MAGDIPOLOUT">      0.00000000      0.00000000      0.00000000</v>
  </separator>
 </calculation>
 <structure name="finalpos" >
  <crystal>
   <varray name="basis" >
    <v>       8.30846830       4.80331196       0.00000000 </v>
    <v>      -8.32133406       4.82563724       0.00000000 </v>
    <v>       0.00000000       0.00000000      30.00000000 </v>
   </varray>
   <i name="volume">   2401.90852424 </i>
   <varray name="rec_basis" >
    <v>       0.06027254       0.10393403       0.00000000 </v>
    <v>      -0.05999369       0.10377333       0.00000000 </v>
    <v>       0.00000000       0.00000000       0.03333333 </v>
   </varray>
  </crystal>
  <varray name="positions" >
   <v>       0.01649799       0.69916294       0.00149744 </v>
   <v>       0.68715709       0.70632457       0.00241651 </v>
   <v>       0.98110132       0.29468035      -0.00248405 </v>
   <v>       0.33759501       0.00488719       0.00025503 </v>
   <v>       0.02094789       0.00390374       0.00012859 </v>
   <v>       0.64651751      -0.00016066       0.00009392 </v>
   <v>       0.31849319       0.29643794      -0.00174676 </v>
   <v>       0.34869703       0.70256368       0.00138613 </v>
   <v>       0.64624559       0.29800300      -0.00146818 </v>
   <v>       0.10890898       0.21936192       0.94457339 </v>
   <v>       0.22350983       0.10786815       0.05638891 </v>
   <v>       0.10725048       0.55296754       0.95638375 </v>
   <v>       0.21837884       0.44234388       0.04278009 </v>
   <v>       0.11137975       0.88546946       0.94607738 </v>
   <v>       0.21774543       0.77732599       0.05483596 </v>
   <v>       0.44293169       0.21916487       0.94273465 </v>
   <v>       0.55119379       0.10756907       0.05661265 </v>
   <v>       0.44897920       0.55721543       0.95692667 </v>
   <v>       0.55724709       0.44840388       0.04478353 </v>
   <v>       0.44298696       0.89266128       0.94385969 </v>
   <v>       0.55853981       0.78112690       0.05506110 </v>
   <v>       0.77790899       0.21975138       0.94500788 </v>
   <v>       0.88682669       0.10710086       0.05045563 </v>
   <v>       0.77785521       0.55850162       0.95765130 </v>
   <v>       0.89131723       0.44358817       0.04228578 </v>
   <v>       0.78052463       0.89391195       0.94991172 </v>
   <v>       0.89147721       0.77807939       0.05359121 </v>
  </varray>
 </structure>
</modeling>
