   27   27  100    1
  0.9710400E+02  0.1002848E-08  0.1002848E-08  0.3000000E-08  0.5000000E-15
  1.000000000000000E-004
  CAR 
 unknown system                          
    159     34    120
 
  0.0000000E+00  0.0000000E+00  0.0000000E+00  0.1562500E-01
    1      -17.796939   1.000000
    2      -16.749720   1.000000
    3      -16.654798   1.000000
    4      -16.570871   1.000000
    5      -16.512219   1.000000
    6      -16.462840   1.000000
    7      -16.392420   1.000000
    8      -16.311772   1.000000
    9      -16.217167   1.000000
   10      -16.161229   1.000000
   11      -16.064065   1.000000
   12      -16.014713   1.000000
   13      -15.869383   1.000000
   14      -15.604083   1.000000
   15      -15.566303   1.000000
   16      -15.457990   1.000000
   17      -15.371406   1.000000
   18      -15.241175   1.000000
   19       -9.304772   1.000000
   20       -9.082013   1.000000
   21       -8.962344   1.000000
   22       -8.901043   1.000000
   23       -8.814009   1.000000
   24       -8.739675   1.000000
   25       -8.625604   1.000000
   26       -8.601920   1.000000
   27       -8.506854   1.000000
   28       -8.403309   1.000000
   29       -8.337922   1.000000
   30       -8.291227   1.000000
   31       -8.234452   1.000000
   32       -8.112935   1.000000
   33       -8.021752   1.000000
   34       -7.944281   1.000000
   35       -7.904534   1.000000
   36       -7.803236   1.000000
   37       -7.678699   1.000000
   38       -7.515933   1.000000
   39       -7.483548   1.000000
   40       -7.448512   1.000000
   41       -7.279803   1.000000
   42       -7.166320   1.000000
   43       -7.130928   1.000000
   44       -6.999362   1.000000
   45       -6.840997   1.000000
   46       -6.809930   1.000000
   47       -6.644174   1.000000
   48       -6.610126   1.000000
   49       -6.570371   1.000000
   50       -6.537075   1.000000
   51       -6.493853   1.000000
   52       -6.414139   1.000000
   53       -6.317353   1.000000
   54       -6.254966   1.000000
   55       -6.201125   1.000000
   56       -6.193542   1.000000
   57       -6.077309   1.000000
   58       -5.920986   1.000000
   59       -5.722653   1.000000
   60       -5.560148   1.000000
   61       -5.522014   1.000000
   62       -5.435853   1.000000
   63       -5.216860   1.000000
   64       -5.120654   1.000000
   65       -5.039551   1.000000
   66       -4.979797   1.000000
   67       -4.886281   1.000000
   68       -4.863154   1.000000
   69       -4.813525   1.000000
   70       -4.736403   1.000000
   71       -4.644220   1.000000
   72       -4.607527   1.000000
   73       -4.504437   1.000000
   74       -4.337231   1.000000
   75       -4.283971   1.000000
   76       -4.117247   1.000000
   77       -3.806414   0.999390
   78       -3.589066   0.955195
   79       -3.514057   0.878408
   80       -3.398545   0.636936
   81       -3.295140   0.351635
   82       -2.861495   0.000283
   83       -2.732120   0.000006
   84       -2.618908   0.000000
   85       -2.516626   0.000000
   86       -2.479366   0.000000
   87       -2.361450   0.000000
   88       -2.261231   0.000000
   89       -2.217330   0.000000
   90       -2.071624   0.000000
   91       -2.044472   0.000000
   92       -1.395523   0.000000
   93       -1.334779   0.000000
   94       -1.267164   0.000000
   95       -1.106597   0.000000
   96       -1.068328   0.000000
   97       -0.991106   0.000000
   98       -0.859588   0.000000
   99       -0.713663   0.000000
  100       -0.700125   0.000000
  101       -0.626004   0.000000
  102       -0.520475   0.000000
  103       -0.490068   0.000000
  104       -0.337364   0.000000
  105       -0.212960   0.000000
  106       -0.122785   0.000000
  107       -0.074071   0.000000
  108       -0.003429   0.000000
  109        0.075177   0.000000
  110        0.277358   0.000000
  111        0.328197   0.000000
  112        0.599610   0.000000
  113        0.756189   0.000000
  114        0.781046   0.000000
  115        0.840352   0.000000
  116        1.038614   0.000000
  117        1.115697   0.000000
  118        1.639622   0.000000
  119        1.837150   0.000000
  120        2.146969   0.000000
 
  0.1250000E+00  0.2775558E-16  0.0000000E+00  0.3125000E-01
    1      -17.771760   1.000000
    2      -16.784537   1.000000
    3      -16.731205   1.000000
    4      -16.638231   1.000000
    5      -16.489963   1.000000
    6      -16.411163   1.000000
    7      -16.371075   1.000000
    8      -16.329149   1.000000
    9      -16.240816   1.000000
   10      -16.089209   1.000000
   11      -16.041346   1.000000
   12      -15.989678   1.000000
   13      -15.850293   1.000000
   14      -15.611437   1.000000
   15      -15.577743   1.000000
   16      -15.450888   1.000000
   17      -15.380738   1.000000
   18      -15.248876   1.000000
   19       -9.286701   1.000000
   20       -9.189899   1.000000
   21       -9.070412   1.000000
   22       -9.017988   1.000000
   23       -8.797053   1.000000
   24       -8.710660   1.000000
   25       -8.669841   1.000000
   26       -8.564778   1.000000
   27       -8.498175   1.000000
   28       -8.414084   1.000000
   29       -8.381163   1.000000
   30       -8.192864   1.000000
   31       -8.137358   1.000000
   32       -8.070256   1.000000
   33       -8.025625   1.000000
   34       -7.878576   1.000000
   35       -7.817254   1.000000
   36       -7.705156   1.000000
   37       -7.658115   1.000000
   38       -7.570644   1.000000
   39       -7.486322   1.000000
   40       -7.361458   1.000000
   41       -7.313618   1.000000
   42       -7.238019   1.000000
   43       -7.138163   1.000000
   44       -7.011640   1.000000
   45       -6.859604   1.000000
   46       -6.822788   1.000000
   47       -6.727723   1.000000
   48       -6.662639   1.000000
   49       -6.565742   1.000000
   50       -6.475421   1.000000
   51       -6.457500   1.000000
   52       -6.387051   1.000000
   53       -6.307508   1.000000
   54       -6.255599   1.000000
   55       -6.193878   1.000000
   56       -6.159461   1.000000
   57       -6.023313   1.000000
   58       -5.925943   1.000000
   59       -5.714040   1.000000
   60       -5.559901   1.000000
   61       -5.521930   1.000000
   62       -5.451607   1.000000
   63       -5.341907   1.000000
   64       -5.168591   1.000000
   65       -5.142145   1.000000
   66       -5.031549   1.000000
   67       -4.912985   1.000000
   68       -4.879817   1.000000
   69       -4.786920   1.000000
   70       -4.689581   1.000000
   71       -4.618253   1.000000
   72       -4.526798   1.000000
   73       -4.446107   1.000000
   74       -4.323491   1.000000
   75       -4.229948   1.000000
   76       -4.071471   1.000000
   77       -3.881786   0.999917
   78       -3.693104   0.992515
   79       -3.562717   0.934625
   80       -3.455996   0.775330
   81       -3.135310   0.065385
   82       -2.848476   0.000201
   83       -2.737998   0.000008
   84       -2.619721   0.000000
   85       -2.514714   0.000000
   86       -2.452866   0.000000
   87       -2.356848   0.000000
   88       -2.240606   0.000000
   89       -2.186305   0.000000
   90       -2.062727   0.000000
   91       -2.058624   0.000000
   92       -1.401717   0.000000
   93       -1.321540   0.000000
   94       -1.255728   0.000000
   95       -1.102474   0.000000
   96       -1.060486   0.000000
   97       -0.983172   0.000000
   98       -0.867349   0.000000
   99       -0.792392   0.000000
  100       -0.725853   0.000000
  101       -0.671421   0.000000
  102       -0.543865   0.000000
  103       -0.517362   0.000000
  104       -0.346509   0.000000
  105       -0.264980   0.000000
  106       -0.201551   0.000000
  107       -0.119087   0.000000
  108       -0.065024   0.000000
  109        0.119362   0.000000
  110        0.270216   0.000000
  111        0.300756   0.000000
  112        0.571100   0.000000
  113        0.736603   0.000000
  114        0.828949   0.000000
  115        0.916884   0.000000
  116        1.084988   0.000000
  117        1.147183   0.000000
  118        1.683855   0.000000
  119        1.875790   0.000000
  120        2.182140   0.000000
 
  0.2500000E+00  0.5551115E-16  0.0000000E+00  0.3125000E-01
    1      -17.697373   1.000000
    2      -16.986516   1.000000
    3      -16.731723   1.000000
    4      -16.695346   1.000000
    5      -16.553461   1.000000
    6      -16.390183   1.000000
    7      -16.318807   1.000000
    8      -16.277407   1.000000
    9      -16.233596   1.000000
   10      -16.062200   1.000000
   11      -15.983823   1.000000
   12      -15.929455   1.000000
   13      -15.781288   1.000000
   14      -15.630423   1.000000
   15      -15.598696   1.000000
   16      -15.454387   1.000000
   17      -15.387379   1.000000
   18      -15.269266   1.000000
   19       -9.477708   1.000000
   20       -9.284997   1.000000
   21       -9.154862   1.000000
   22       -9.057728   1.000000
   23       -8.902234   1.000000
   24       -8.729734   1.000000
   25       -8.658900   1.000000
   26       -8.538204   1.000000
   27       -8.463108   1.000000
   28       -8.399908   1.000000
   29       -8.299406   1.000000
   30       -8.232591   1.000000
   31       -8.099458   1.000000
   32       -7.980536   1.000000
   33       -7.900002   1.000000
   34       -7.832963   1.000000
   35       -7.735066   1.000000
   36       -7.663885   1.000000
   37       -7.590494   1.000000
   38       -7.464670   1.000000
   39       -7.426184   1.000000
   40       -7.365143   1.000000
   41       -7.313035   1.000000
   42       -7.227120   1.000000
   43       -7.118661   1.000000
   44       -6.989777   1.000000
   45       -6.947017   1.000000
   46       -6.880117   1.000000
   47       -6.708125   1.000000
   48       -6.678660   1.000000
   49       -6.545859   1.000000
   50       -6.504574   1.000000
   51       -6.425599   1.000000
   52       -6.390154   1.000000
   53       -6.287373   1.000000
   54       -6.183023   1.000000
   55       -6.132856   1.000000
   56       -6.090403   1.000000
   57       -5.965049   1.000000
   58       -5.902440   1.000000
   59       -5.781785   1.000000
   60       -5.667887   1.000000
   61       -5.595536   1.000000
   62       -5.564033   1.000000
   63       -5.486178   1.000000
   64       -5.284067   1.000000
   65       -5.197583   1.000000
   66       -5.110036   1.000000
   67       -4.946092   1.000000
   68       -4.846664   1.000000
   69       -4.803814   1.000000
   70       -4.611438   1.000000
   71       -4.532948   1.000000
   72       -4.401397   1.000000
   73       -4.340268   1.000000
   74       -4.304914   1.000000
   75       -4.169725   1.000000
   76       -4.098784   1.000000
   77       -4.005856   0.999998
   78       -3.879324   0.999912
   79       -3.590414   0.956089
   80       -3.392580   0.620995
   81       -3.007133   0.007815
   82       -2.827337   0.000113
   83       -2.735528   0.000007
   84       -2.627913   0.000000
   85       -2.490127   0.000000
   86       -2.418061   0.000000
   87       -2.339558   0.000000
   88       -2.230684   0.000000
   89       -2.111603   0.000000
   90       -2.051901   0.000000
   91       -2.025082   0.000000
   92       -1.420926   0.000000
   93       -1.295191   0.000000
   94       -1.213032   0.000000
   95       -1.103771   0.000000
   96       -1.083147   0.000000
   97       -0.979747   0.000000
   98       -0.933595   0.000000
   99       -0.861365   0.000000
  100       -0.806195   0.000000
  101       -0.735320   0.000000
  102       -0.641256   0.000000
  103       -0.584385   0.000000
  104       -0.463044   0.000000
  105       -0.377624   0.000000
  106       -0.293378   0.000000
  107       -0.214774   0.000000
  108       -0.093981   0.000000
  109        0.123656   0.000000
  110        0.140807   0.000000
  111        0.346976   0.000000
  112        0.486311   0.000000
  113        0.790815   0.000000
  114        0.881190   0.000000
  115        0.967579   0.000000
  116        1.183605   0.000000
  117        1.307384   0.000000
  118        1.806628   0.000000
  119        1.986395   0.000000
  120        2.286379   0.000000
 
  0.3750000E+00  0.0000000E+00  0.0000000E+00  0.3125000E-01
    1      -17.578394   1.000000
    2      -17.200323   1.000000
    3      -16.754777   1.000000
    4      -16.692303   1.000000
    5      -16.613181   1.000000
    6      -16.416936   1.000000
    7      -16.263533   1.000000
    8      -16.251904   1.000000
    9      -16.177182   1.000000
   10      -16.070244   1.000000
   11      -15.927454   1.000000
   12      -15.871267   1.000000
   13      -15.744060   1.000000
   14      -15.649384   1.000000
   15      -15.595298   1.000000
   16      -15.484565   1.000000
   17      -15.369695   1.000000
   18      -15.293362   1.000000
   19       -9.686550   1.000000
   20       -9.383721   1.000000
   21       -9.151736   1.000000
   22       -9.046313   1.000000
   23       -8.937452   1.000000
   24       -8.768006   1.000000
   25       -8.633295   1.000000
   26       -8.517627   1.000000
   27       -8.462349   1.000000
   28       -8.344383   1.000000
   29       -8.315373   1.000000
   30       -8.170830   1.000000
   31       -8.090328   1.000000
   32       -7.961264   1.000000
   33       -7.911349   1.000000
   34       -7.842435   1.000000
   35       -7.751176   1.000000
   36       -7.656665   1.000000
   37       -7.603810   1.000000
   38       -7.472147   1.000000
   39       -7.363562   1.000000
   40       -7.271811   1.000000
   41       -7.192223   1.000000
   42       -7.113467   1.000000
   43       -7.077217   1.000000
   44       -6.972760   1.000000
   45       -6.912832   1.000000
   46       -6.799631   1.000000
   47       -6.704021   1.000000
   48       -6.611582   1.000000
   49       -6.517315   1.000000
   50       -6.481710   1.000000
   51       -6.426654   1.000000
   52       -6.365090   1.000000
   53       -6.241401   1.000000
   54       -6.184179   1.000000
   55       -6.128825   1.000000
   56       -6.068268   1.000000
   57       -5.992940   1.000000
   58       -5.934133   1.000000
   59       -5.854336   1.000000
   60       -5.772668   1.000000
   61       -5.749250   1.000000
   62       -5.701489   1.000000
   63       -5.565104   1.000000
   64       -5.310849   1.000000
   65       -5.191388   1.000000
   66       -5.125169   1.000000
   67       -4.985780   1.000000
   68       -4.830195   1.000000
   69       -4.752095   1.000000
   70       -4.713156   1.000000
   71       -4.481740   1.000000
   72       -4.395134   1.000000
   73       -4.332911   1.000000
   74       -4.251932   1.000000
   75       -4.189206   1.000000
   76       -4.123970   1.000000
   77       -3.975657   0.999995
   78       -3.866202   0.999872
   79       -3.636393   0.978929
   80       -3.324521   0.431265
   81       -2.940486   0.001934
   82       -2.824014   0.000103
   83       -2.712936   0.000003
   84       -2.632277   0.000000
   85       -2.460154   0.000000
   86       -2.420420   0.000000
   87       -2.304101   0.000000
   88       -2.237809   0.000000
   89       -2.067964   0.000000
   90       -2.019509   0.000000
   91       -1.927654   0.000000
   92       -1.449957   0.000000
   93       -1.271382   0.000000
   94       -1.202053   0.000000
   95       -1.163298   0.000000
   96       -1.101008   0.000000
   97       -1.035741   0.000000
   98       -0.937583   0.000000
   99       -0.869885   0.000000
  100       -0.856866   0.000000
  101       -0.804529   0.000000
  102       -0.758104   0.000000
  103       -0.659956   0.000000
  104       -0.594721   0.000000
  105       -0.475648   0.000000
  106       -0.377982   0.000000
  107       -0.233363   0.000000
  108       -0.142280   0.000000
  109        0.022643   0.000000
  110        0.150390   0.000000
  111        0.317640   0.000000
  112        0.453575   0.000000
  113        0.797275   0.000000
  114        0.933784   0.000000
  115        1.011339   0.000000
  116        1.302967   0.000000
  117        1.446935   0.000000
  118        1.990503   0.000000
  119        2.158167   0.000000
  120        2.456364   0.000000
 
  0.5000000E+00  0.1110223E-15  0.0000000E+00  0.1562500E-01
    1      -17.459420   1.000000
    2      -17.352854   1.000000
    3      -16.767935   1.000000
    4      -16.672316   1.000000
    5      -16.646671   1.000000
    6      -16.427713   1.000000
    7      -16.262936   1.000000
    8      -16.230508   1.000000
    9      -16.126002   1.000000
   10      -16.100506   1.000000
   11      -15.898104   1.000000
   12      -15.831105   1.000000
   13      -15.762875   1.000000
   14      -15.659585   1.000000
   15      -15.583241   1.000000
   16      -15.496318   1.000000
   17      -15.359357   1.000000
   18      -15.304864   1.000000
   19       -9.762046   1.000000
   20       -9.426053   1.000000
   21       -9.152086   1.000000
   22       -9.066001   1.000000
   23       -8.858552   1.000000
   24       -8.814556   1.000000
   25       -8.602891   1.000000
   26       -8.565004   1.000000
   27       -8.486129   1.000000
   28       -8.362327   1.000000
   29       -8.188563   1.000000
   30       -8.140563   1.000000
   31       -8.068590   1.000000
   32       -8.030676   1.000000
   33       -7.940538   1.000000
   34       -7.866669   1.000000
   35       -7.790344   1.000000
   36       -7.644927   1.000000
   37       -7.599699   1.000000
   38       -7.477572   1.000000
   39       -7.394155   1.000000
   40       -7.292198   1.000000
   41       -7.076748   1.000000
   42       -7.062776   1.000000
   43       -7.032850   1.000000
   44       -6.863370   1.000000
   45       -6.848583   1.000000
   46       -6.698532   1.000000
   47       -6.659532   1.000000
   48       -6.608984   1.000000
   49       -6.569528   1.000000
   50       -6.512495   1.000000
   51       -6.461190   1.000000
   52       -6.331761   1.000000
   53       -6.310860   1.000000
   54       -6.236584   1.000000
   55       -6.136774   1.000000
   56       -6.059070   1.000000
   57       -5.969027   1.000000
   58       -5.941641   1.000000
   59       -5.881310   1.000000
   60       -5.807777   1.000000
   61       -5.746112   1.000000
   62       -5.682328   1.000000
   63       -5.581711   1.000000
   64       -5.349755   1.000000
   65       -5.280579   1.000000
   66       -5.091878   1.000000
   67       -5.066266   1.000000
   68       -4.920639   1.000000
   69       -4.742225   1.000000
   70       -4.604326   1.000000
   71       -4.508020   1.000000
   72       -4.401716   1.000000
   73       -4.355292   1.000000
   74       -4.244737   1.000000
   75       -4.186366   1.000000
   76       -4.100651   1.000000
   77       -3.939514   0.999985
   78       -3.824101   0.999609
   79       -3.676239   0.989663
   80       -3.296517   0.355257
   81       -2.918900   0.001178
   82       -2.829863   0.000121
   83       -2.690030   0.000002
   84       -2.644298   0.000000
   85       -2.445241   0.000000
   86       -2.421890   0.000000
   87       -2.297571   0.000000
   88       -2.231717   0.000000
   89       -2.049561   0.000000
   90       -2.007733   0.000000
   91       -1.873873   0.000000
   92       -1.460145   0.000000
   93       -1.293537   0.000000
   94       -1.229694   0.000000
   95       -1.172961   0.000000
   96       -1.083712   0.000000
   97       -1.052320   0.000000
   98       -0.952344   0.000000
   99       -0.884025   0.000000
  100       -0.843311   0.000000
  101       -0.823634   0.000000
  102       -0.818910   0.000000
  103       -0.700578   0.000000
  104       -0.645565   0.000000
  105       -0.513082   0.000000
  106       -0.408207   0.000000
  107       -0.233797   0.000000
  108       -0.173709   0.000000
  109       -0.008086   0.000000
  110        0.150728   0.000000
  111        0.300518   0.000000
  112        0.446827   0.000000
  113        0.787233   0.000000
  114        0.973677   0.000000
  115        1.022710   0.000000
  116        1.343978   0.000000
  117        1.501555   0.000000
  118        2.207395   0.000000
  119        2.244034   0.000000
  120        2.369110   0.000000
 
  0.0000000E+00  0.1250000E+00  0.0000000E+00  0.3125000E-01
    1      -17.771590   1.000000
    2      -16.789222   1.000000
    3      -16.742214   1.000000
    4      -16.587480   1.000000
    5      -16.527846   1.000000
    6      -16.426379   1.000000
    7      -16.359812   1.000000
    8      -16.325556   1.000000
    9      -16.235244   1.000000
   10      -16.114408   1.000000
   11      -16.024342   1.000000
   12      -15.972940   1.000000
   13      -15.860944   1.000000
   14      -15.616304   1.000000
   15      -15.577994   1.000000
   16      -15.449446   1.000000
   17      -15.372849   1.000000
   18      -15.253164   1.000000
   19       -9.296028   1.000000
   20       -9.215805   1.000000
   21       -9.059684   1.000000
   22       -9.030428   1.000000
   23       -8.775541   1.000000
   24       -8.696627   1.000000
   25       -8.662248   1.000000
   26       -8.563526   1.000000
   27       -8.452628   1.000000
   28       -8.426429   1.000000
   29       -8.393388   1.000000
   30       -8.219127   1.000000
   31       -8.151203   1.000000
   32       -8.067997   1.000000
   33       -8.004744   1.000000
   34       -7.888903   1.000000
   35       -7.822332   1.000000
   36       -7.708005   1.000000
   37       -7.655536   1.000000
   38       -7.568381   1.000000
   39       -7.475415   1.000000
   40       -7.370526   1.000000
   41       -7.330729   1.000000
   42       -7.192757   1.000000
   43       -7.134780   1.000000
   44       -7.020960   1.000000
   45       -6.874821   1.000000
   46       -6.823862   1.000000
   47       -6.743079   1.000000
   48       -6.635405   1.000000
   49       -6.571036   1.000000
   50       -6.470037   1.000000
   51       -6.430745   1.000000
   52       -6.381500   1.000000
   53       -6.347302   1.000000
   54       -6.281844   1.000000
   55       -6.194943   1.000000
   56       -6.153862   1.000000
   57       -6.012767   1.000000
   58       -5.940246   1.000000
   59       -5.703315   1.000000
   60       -5.562393   1.000000
   61       -5.514633   1.000000
   62       -5.467968   1.000000
   63       -5.328809   1.000000
   64       -5.171716   1.000000
   65       -5.120123   1.000000
   66       -5.012111   1.000000
   67       -4.945638   1.000000
   68       -4.882405   1.000000
   69       -4.795416   1.000000
   70       -4.699014   1.000000
   71       -4.617000   1.000000
   72       -4.565653   1.000000
   73       -4.420072   1.000000
   74       -4.313253   1.000000
   75       -4.215709   1.000000
   76       -4.056692   1.000000
   77       -3.872030   0.999891
   78       -3.722935   0.995904
   79       -3.546774   0.919005
   80       -3.441679   0.743856
   81       -3.159613   0.090249
   82       -2.846714   0.000191
   83       -2.720867   0.000004
   84       -2.638308   0.000000
   85       -2.506419   0.000000
   86       -2.460185   0.000000
   87       -2.350269   0.000000
   88       -2.241434   0.000000
   89       -2.196826   0.000000
   90       -2.099157   0.000000
   91       -2.007136   0.000000
   92       -1.408865   0.000000
   93       -1.346947   0.000000
   94       -1.223610   0.000000
   95       -1.111191   0.000000
   96       -1.067094   0.000000
   97       -0.981840   0.000000
   98       -0.893819   0.000000
   99       -0.801799   0.000000
  100       -0.719222   0.000000
  101       -0.683451   0.000000
  102       -0.558608   0.000000
  103       -0.499069   0.000000
  104       -0.350550   0.000000
  105       -0.294228   0.000000
  106       -0.142388   0.000000
  107       -0.113314   0.000000
  108       -0.054138   0.000000
  109        0.108793   0.000000
  110        0.275796   0.000000
  111        0.360195   0.000000
  112        0.611338   0.000000
  113        0.738026   0.000000
  114        0.782798   0.000000
  115        0.914313   0.000000
  116        1.055121   0.000000
  117        1.127707   0.000000
  118        1.684892   0.000000
  119        1.875254   0.000000
  120        2.182440   0.000000
 
  0.1250000E+00  0.1250000E+00  0.0000000E+00  0.3125000E-01
    1      -17.720264   1.000000
    2      -16.928266   1.000000
    3      -16.744551   1.000000
    4      -16.691120   1.000000
    5      -16.491664   1.000000
    6      -16.403804   1.000000
    7      -16.364680   1.000000
    8      -16.271236   1.000000
    9      -16.236134   1.000000
   10      -16.087819   1.000000
   11      -15.993278   1.000000
   12      -15.942160   1.000000
   13      -15.799927   1.000000
   14      -15.625193   1.000000
   15      -15.589561   1.000000
   16      -15.446147   1.000000
   17      -15.378062   1.000000
   18      -15.273895   1.000000
   19       -9.419507   1.000000
   20       -9.317397   1.000000
   21       -9.157053   1.000000
   22       -9.001181   1.000000
   23       -8.895452   1.000000
   24       -8.684509   1.000000
   25       -8.668342   1.000000
   26       -8.502675   1.000000
   27       -8.448730   1.000000
   28       -8.382484   1.000000
   29       -8.321658   1.000000
   30       -8.222637   1.000000
   31       -8.147472   1.000000
   32       -8.111771   1.000000
   33       -7.909868   1.000000
   34       -7.805998   1.000000
   35       -7.740040   1.000000
   36       -7.693442   1.000000
   37       -7.596956   1.000000
   38       -7.474842   1.000000
   39       -7.420394   1.000000
   40       -7.356210   1.000000
   41       -7.288586   1.000000
   42       -7.242810   1.000000
   43       -7.148175   1.000000
   44       -7.045894   1.000000
   45       -6.894495   1.000000
   46       -6.851454   1.000000
   47       -6.771673   1.000000
   48       -6.654197   1.000000
   49       -6.613938   1.000000
   50       -6.486251   1.000000
   51       -6.423798   1.000000
   52       -6.325686   1.000000
   53       -6.270164   1.000000
   54       -6.223467   1.000000
   55       -6.184093   1.000000
   56       -6.119811   1.000000
   57       -5.970167   1.000000
   58       -5.929403   1.000000
   59       -5.745539   1.000000
   60       -5.666580   1.000000
   61       -5.521234   1.000000
   62       -5.457628   1.000000
   63       -5.427573   1.000000
   64       -5.344643   1.000000
   65       -5.156906   1.000000
   66       -5.110997   1.000000
   67       -4.953674   1.000000
   68       -4.899824   1.000000
   69       -4.778504   1.000000
   70       -4.650728   1.000000
   71       -4.585912   1.000000
   72       -4.440032   1.000000
   73       -4.308973   1.000000
   74       -4.282962   1.000000
   75       -4.182684   1.000000
   76       -4.046687   1.000000
   77       -3.965463   0.999993
   78       -3.879597   0.999912
   79       -3.594280   0.958570
   80       -3.402024   0.646124
   81       -3.020445   0.010082
   82       -2.856696   0.000250
   83       -2.718476   0.000004
   84       -2.652613   0.000000
   85       -2.505569   0.000000
   86       -2.429531   0.000000
   87       -2.364370   0.000000
   88       -2.237051   0.000000
   89       -2.123895   0.000000
   90       -2.103414   0.000000
   91       -1.989117   0.000000
   92       -1.405976   0.000000
   93       -1.326765   0.000000
   94       -1.183948   0.000000
   95       -1.108758   0.000000
   96       -1.069904   0.000000
   97       -0.964350   0.000000
   98       -0.920659   0.000000
   99       -0.862222   0.000000
  100       -0.792196   0.000000
  101       -0.725402   0.000000
  102       -0.606910   0.000000
  103       -0.557600   0.000000
  104       -0.487777   0.000000
  105       -0.336068   0.000000
  106       -0.200352   0.000000
  107       -0.152179   0.000000
  108       -0.097252   0.000000
  109        0.095164   0.000000
  110        0.268233   0.000000
  111        0.319453   0.000000
  112        0.530424   0.000000
  113        0.754322   0.000000
  114        0.829636   0.000000
  115        0.944722   0.000000
  116        1.132102   0.000000
  117        1.264384   0.000000
  118        1.770964   0.000000
  119        1.948090   0.000000
  120        2.252852   0.000000
 
  0.2500000E+00  0.1250000E+00  0.0000000E+00  0.3125000E-01
    1      -17.621678   1.000000
    2      -17.108329   1.000000
    3      -16.846717   1.000000
    4      -16.681940   1.000000
    5      -16.507631   1.000000
    6      -16.394287   1.000000
    7      -16.306921   1.000000
    8      -16.254205   1.000000
    9      -16.191772   1.000000
   10      -16.078708   1.000000
   11      -15.964671   1.000000
   12      -15.913165   1.000000
   13      -15.722578   1.000000
   14      -15.634065   1.000000
   15      -15.597231   1.000000
   16      -15.471919   1.000000
   17      -15.370441   1.000000
   18      -15.294074   1.000000
   19       -9.612368   1.000000
   20       -9.453167   1.000000
   21       -9.162642   1.000000
   22       -9.035423   1.000000
   23       -8.871251   1.000000
   24       -8.717104   1.000000
   25       -8.637204   1.000000
   26       -8.481744   1.000000
   27       -8.425257   1.000000
   28       -8.361799   1.000000
   29       -8.293794   1.000000
   30       -8.210503   1.000000
   31       -8.130639   1.000000
   32       -8.058668   1.000000
   33       -7.911415   1.000000
   34       -7.853283   1.000000
   35       -7.796055   1.000000
   36       -7.623357   1.000000
   37       -7.586330   1.000000
   38       -7.416143   1.000000
   39       -7.358879   1.000000
   40       -7.305197   1.000000
   41       -7.240110   1.000000
   42       -7.170432   1.000000
   43       -7.040345   1.000000
   44       -6.984915   1.000000
   45       -6.894363   1.000000
   46       -6.801500   1.000000
   47       -6.702490   1.000000