unknown system                          
           1
     8.860047    5.103089    0.000000
    -8.859767    5.102607    0.000000
     0.000000    0.000000   30.000000
   V    Mo   W    S 
   3   3   3  18
Direct configuration=     1
   0.33333334  0.66666669  0.00000000
   0.66666669  0.00000000  0.00000000
   1.00000000  0.33333334  0.00000000
   0.00000000  0.66666669  0.00000000
   0.66666669  0.66666669  0.00000000
   0.33333334  0.33333334  0.00000000
   0.00000000  0.00000000  0.00000000
   0.33333334  0.00000000  0.00000000
   0.66666669  0.33333334  0.00000000
   0.11068511  0.22244981  0.95539999
   0.22244981  0.11068511  0.04460000
   0.11068511  0.55578315  0.95539999
   0.22244981  0.44401845  0.04460000
   0.11068511  0.88911647  0.95539999
   0.22244981  0.77735180  0.04460000
   0.44401845  0.22244981  0.95539999
   0.55578315  0.11068511  0.04460000
   0.44401845  0.55578315  0.95539999
   0.55578315  0.44401845  0.04460000
   0.44401845  0.88911647  0.95539999
   0.55578315  0.77735180  0.04460000
   0.77735180  0.22244981  0.95539999
   0.88911647  0.11068511  0.04460000
   0.77735180  0.55578315  0.95539999
   0.88911647  0.44401845  0.04460000
   0.77735180  0.88911647  0.95539999
   0.88911647  0.77735180  0.04460000
unknown system                          
           1
     8.670001    4.996535    0.000000
    -8.669754    4.996110    0.000000
     0.000000    0.000000   30.000000
   V    Mo   W    S 
   3   3   3  18
Direct configuration=     2
   0.33335186  0.66541846  0.00002435
   0.66664253 -0.00121606  0.00001558
   1.00123114  0.33463747 -0.00004462
  -0.00122442  0.66668507 -0.00021425
   0.66645806  0.66535246  0.00024564
   0.33460384  0.33471240  0.00016984
  -0.00034722 -0.00119076  0.00021779
   0.33199699 -0.00043051 -0.00021311
   0.66701826  0.33612758 -0.00026725
   0.10816686  0.22361021  0.95206926
   0.22158013  0.11034354  0.04930466
   0.11314692  0.55324195  0.95306506
   0.21995680  0.44652392  0.04697371
   0.11162112  0.88950363  0.95065546
   0.22503909  0.77622260  0.04795636
   0.44492369  0.22156598  0.95074953
   0.55745902  0.10900497  0.04793890
   0.44193787  0.55791059  0.95199853
   0.55580511  0.44399517  0.04934951
   0.44608488  0.88707392  0.95305653
   0.55329714  0.77983611  0.04693290
   0.77939465  0.22036317  0.95309924
   0.88706359  0.11271412  0.04695089
   0.77730944  0.55433713  0.95069090
   0.89029288  0.44141896  0.04798700
   0.77622466  0.89167392  0.95203147
   0.88917956  0.77877847  0.04925600
unknown system                          
           1
     8.489032    4.897355    0.000000
    -8.489306    4.897833    0.000000
     0.000000    0.000000   30.000000
   V    Mo   W    S 
   3   3   3  18
Direct configuration=     3
   0.33338692  0.66507588  0.00002723
   0.66667583 -0.00152743  0.00002344
   1.00153704  0.33494264 -0.00009554
  -0.00179960  0.66696113 -0.00018883
   0.66655909  0.66456944  0.00026026
   0.33533899  0.33497582  0.00014156
  -0.00016040 -0.00173054  0.00022877
   0.33128843 -0.00045172 -0.00016729
   0.66697737  0.33720667 -0.00027442
   0.10801352  0.22341017  0.95215689
   0.22148023  0.11010823  0.04931882
   0.11318781  0.55319751  0.95310982
   0.21992947  0.44658539  0.04697691
   0.11169565  0.88974364  0.95057690
   0.22518669  0.77641751  0.04787878
   0.44504787  0.22148057  0.95072463
   0.55737474  0.10912374  0.04778345
   0.44189319  0.55799070  0.95197091
   0.55595966  0.44386919  0.04949631
   0.44597870  0.88714403  0.95314117
   0.55325084  0.77984984  0.04689554
   0.77929973  0.22047437  0.95323428
   0.88716619  0.11261958  0.04686731
   0.77715925  0.55412394  0.95053240
   0.89008259  0.44125346  0.04795267
   0.77640946  0.89179922  0.95206845
   0.88929520  0.77900147  0.04935947
unknown system                          
           1
     8.286802    4.768185    0.000000
    -8.288142    4.770511    0.000000
     0.000000    0.000000   30.000000
   V    Mo   W    S 
   3   3   3  18
Direct configuration=     4
   0.33357708  0.66402317  0.00002798
   0.66686663 -0.00252899  0.00004077
   1.00239371  0.33577967 -0.00026876
  -0.00415223  0.66862084 -0.00004292
   0.66732148  0.66118286  0.00021221
   0.33846473  0.33542935 -0.00001107
   0.00116128 -0.00402005  0.00015516
   0.32813890 -0.00025069  0.00006534
   0.66636037  0.34126313 -0.00018911
   0.10750662  0.22371323  0.95110197
   0.22148298  0.11008993  0.05102095
   0.11370069  0.55283969  0.95199858
   0.21950036  0.44714806  0.04830006
   0.11151285  0.88983908  0.94859260
   0.22562039  0.77591109  0.04900933
   0.44517647  0.22145598  0.94900369
   0.55781578  0.10902354  0.04858574
   0.44148569  0.55874947  0.95045463
   0.55615222  0.44378828  0.05173208
   0.44626173  0.88662002  0.95213511
   0.55271793  0.78015971  0.04805801
   0.77963902  0.22017808  0.95243756
   0.88684835  0.11309893  0.04788847
   0.77706595  0.55431211  0.94825861
   0.89042942  0.44070542  0.04924276
   0.77593895  0.89209455  0.95080082
   0.88922712  0.77898797  0.05138933
unknown system                          
           1
     8.311297    4.768236    0.000000
    -8.313133    4.771417    0.000000
     0.000000    0.000000   30.000000
   V    Mo   W    S 
   3   3   3  18
Direct configuration=     5
   0.33454089  0.66241558  0.00002877
   0.66782850 -0.00433270  0.00007139
   1.00319189  0.33655099 -0.00048817
  -0.00866397  0.67258252  0.00011496
   0.66877632  0.65451424  0.00006328
   0.34500744  0.33626291 -0.00018657
   0.00379107 -0.00873122 -0.00002145
   0.32133084 -0.00016343  0.00034112
   0.66525177  0.34905810 -0.00001066
   0.10771983  0.22391536  0.94994132
   0.22126425  0.11100838  0.05344337
   0.11394483  0.55323054  0.95052287
   0.21963450  0.44749357  0.05010692
   0.11103502  0.88925723  0.94566537
   0.22520776  0.77497210  0.05036025
   0.44569836  0.22150309  0.94669198
   0.55812897  0.10968209  0.04923445
   0.44168775  0.55938817  0.94843655
   0.55612505  0.44419694  0.05506401
   0.44599065  0.88597820  0.95087785
   0.55239265  0.77958418  0.04970237
   0.77967511  0.22046399  0.95142644
   0.88696241  0.11346851  0.04925535
   0.77730604  0.55492657  0.94496066
   0.89065450  0.44086202  0.05078384
   0.77544849  0.89142280  0.94929313
   0.88828352  0.77870374  0.05432051
unknown system                          
           1
     8.302634    4.761335    0.000000
    -8.303696    4.763165    0.000000
     0.000000    0.000000   30.000000
   V    Mo   W    S 
   3   3   3  18
Direct configuration=     6
   0.33527405  0.66200696  0.00002917
   0.66875379 -0.00488905  0.00013199
   1.00282988  0.33638275 -0.00055598
  -0.00863262  0.67365261 -0.00002802
   0.66839757  0.65419948  0.00018074
   0.34602583  0.33642829 -0.00004115
   0.00401145 -0.00958398  0.00013526
   0.31950060 -0.00040075  0.00025093
   0.66534524  0.34990281 -0.00008117
   0.10852463  0.22358676  0.95018624
   0.22104589  0.11160493  0.05358321
   0.11361994  0.55386041  0.95071959
   0.22011737  0.44719459  0.04999638
   0.11085424  0.88885655  0.94530659
   0.22431004  0.77493418  0.05018272
   0.44609843  0.22137893  0.94665005
   0.55769423  0.11036593  0.04881562
   0.44235707  0.55900863  0.94843726
   0.55600744  0.44442599  0.05535639
   0.44545573  0.88617143  0.95109665
   0.55271023  0.77888172  0.04966278
   0.77914815  0.22104391  0.95161289
   0.88749753  0.11315460  0.04916723
   0.77769975  0.55513743  0.94471249
   0.89036896  0.44166204  0.05066757
   0.77570221  0.89058964  0.94933334
   0.88749681  0.77865767  0.05449110
unknown system                          
           1
     8.313029    4.764339    0.000000
    -8.313774    4.765615    0.000000
     0.000000    0.000000   30.000000
   V    Mo   W    S 
   3   3   3  18
Direct configuration=     7
   0.33636169  0.66121820 -0.00001544
   0.67026114 -0.00593116  0.00017537
   1.00229981  0.33641371 -0.00070285
  -0.00933950  0.67550426 -0.00006185
   0.66821858  0.65284607  0.00015067
   0.34831596  0.33685969  0.00000018
   0.00452758 -0.01147231  0.00014761
   0.31616316 -0.00076200  0.00024019
   0.66545864  0.35237796 -0.00003211
   0.10915573  0.22333634  0.95041111
   0.22088671  0.11211115  0.05397373
   0.11343087  0.55443407  0.95080822
   0.22047996  0.44696128  0.05006036
   0.11048348  0.88869100  0.94464663
   0.22359102  0.77484747  0.05009758
   0.44634108  0.22125146  0.94641397
   0.55725477  0.11080360  0.04833256
   0.44281892  0.55870031  0.94823634
   0.55611294  0.44455090  0.05595009
   0.44502302  0.88634931  0.95128408
   0.55288088  0.77831506  0.04986060
   0.77866841  0.22143490  0.95172167
   0.88797140  0.11295959  0.04924994
   0.77788188  0.55553755  0.94420728
   0.89028587  0.44244242  0.05067987
   0.77586995  0.88994346  0.94921023
   0.88681049  0.77849016  0.05495386
unknown system                          
           1
     8.321864    4.765399    0.000000
    -8.321779    4.765228    0.000000
     0.000000    0.000000   30.000000
   V    Mo   W    S 
   3   3   3  18
Direct configuration=     8
   0.33686365  0.66083739 -0.00002027
   0.67105000 -0.00642443  0.00022401
   1.00192889  0.33652167 -0.00078457
  -0.00935324  0.67599142 -0.00010075
   0.66794421  0.65279906  0.00018965
   0.34891508  0.33709615  0.00004517
   0.00442595 -0.01198963  0.00020145
   0.31513424 -0.00095308  0.00020890
   0.66570459  0.35296976 -0.00004068
   0.10934920  0.22323545  0.95059693
   0.22077441  0.11226049  0.05399863
   0.11339440  0.55461842  0.95093322
   0.22056855  0.44686748  0.04997779
   0.11035592  0.88865328  0.94450073
   0.22339208  0.77487426  0.04997971
   0.44642266  0.22116863  0.94645702
   0.55704262  0.11083894  0.04803410
   0.44292913  0.55853037  0.94822349
   0.55616897  0.44462047  0.05602394
   0.44493171  0.88648007  0.95146585
   0.55290730  0.77819267  0.04986948
   0.77846704  0.22148020  0.95183725
   0.88812034  0.11288114  0.04921057
   0.77795356  0.55567257  0.94416278
   0.89028406  0.44274335  0.05062737
   0.77597570  0.88979497  0.94918218
   0.88656344  0.77845339  0.05499594
unknown system                          
           1
     8.323491    4.765921    0.000000
    -8.323149    4.765301    0.000000
     0.000000    0.000000   30.000000
   V    Mo   W    S 
   3   3   3  18
Direct configuration=     9
   0.33789836  0.65997829 -0.00003496
   0.67268780 -0.00751113  0.00031260
   1.00117060  0.33686128 -0.00096000
  -0.00963661  0.67705441 -0.00014983
   0.66746010  0.65238182  0.00021932
   0.35043960  0.33765941  0.00010350
   0.00430826 -0.01327876  0.00025837
   0.31281839 -0.00131837  0.00016395
   0.66615978  0.35452943 -0.00002680
   0.10972496  0.22308633  0.95092826
   0.22057230  0.11258967  0.05413423
   0.11335157  0.55501632  0.95110412
   0.22074084  0.44668529  0.04989428
   0.11005087  0.88858163  0.94412976
   0.22300089  0.77486378  0.04979979
   0.44658491  0.22105456  0.94645955
   0.55667916  0.11092732  0.04747336
   0.44311913  0.55821550  0.94812109
   0.55629163  0.44473806  0.05628873
   0.44474892  0.88669569  0.95177281
   0.55292194  0.77791729  0.04998265
   0.77807479  0.22156627  0.95200970
   0.88843292  0.11277459  0.04920671
   0.77806251  0.55598467  0.94395931
   0.89030639  0.44332346  0.05059548
   0.77615652  0.88950294  0.94905831
   0.88608792  0.77833470  0.05519561
unknown system                          
           1
     8.310030    4.759139    0.000000
    -8.311109    4.760999    0.000000
     0.000000    0.000000   30.000000
   V    Mo   W    S 
   3   3   3  18
Direct configuration=    10
   0.33816750  0.65975705 -0.00003626
   0.67310781 -0.00780070  0.00033715
   1.00093571  0.33699534 -0.00100803
  -0.00970207  0.67725579 -0.00015870
   0.66733737  0.65236464  0.00022323
   0.35078016  0.33781689  0.00011602
   0.00421763 -0.01358822  0.00026738
   0.31232012 -0.00140446  0.00015046
   0.66631415  0.35486944 -0.00002061
   0.10978699  0.22306002  0.95102259
   0.22051955  0.11265056  0.05414903
   0.11335972  0.55511032  0.95114568
   0.22076558  0.44664044  0.04986720
   0.10997397  0.88857884  0.94406166
   0.22293611  0.77486337  0.04974847
   0.44661380  0.22103105  0.94647598
   0.55660373  0.11091320  0.04732575
   0.44314472  0.55814326  0.94809832
   0.55633401  0.44476416  0.05633197
   0.44472433  0.88675200  0.95185905
   0.55291382  0.77786550  0.05001289
   0.77797770  0.22155560  0.95205257
   0.88850352  0.11275885  0.04920283
   0.77807038  0.55605928  0.94393017
   0.89032085  0.44344332  0.05059139
   0.77619884  0.88945952  0.94902450
   0.88598845  0.77829938  0.05522921
unknown system                          
           1
     8.333332    4.769453    0.000000
    -8.331695    4.766572    0.000000
     0.000000    0.000000   30.000000
   V    Mo   W    S 
   3   3   3  18
Direct configuration=    11
   0.33761343  0.66027547 -0.00005763
   0.67213382 -0.00717840  0.00025760
   1.00170391  0.33642766 -0.00088003
  -0.00948649  0.67728522 -0.00014634
   0.66765757  0.65224243  0.00020937
   0.35009101  0.33741702  0.00009524
   0.00471817 -0.01300855  0.00024892
   0.31295996 -0.00132805  0.00018553
   0.66585514  0.35430541 -0.00003659
   0.10970659  0.22306825  0.95074083
   0.22069225  0.11253530  0.05415994
   0.11329552  0.55486692  0.95107228
   0.22072991  0.44679005  0.04994958
   0.11018082  0.88859261  0.94417237
   0.22302721  0.77486624  0.04988785
   0.44652310  0.22102755  0.94640883
   0.55670253  0.11103247  0.04769671
   0.44310371  0.55833431  0.94817402
   0.55620450  0.44465942  0.05627919
   0.44470196  0.88660484  0.95163403
   0.55290723  0.77795103  0.04991387
   0.77822737  0.22169783  0.95196475
   0.88835194  0.11281736  0.04922341
   0.77810029  0.55587366  0.94397514
   0.89023995  0.44317635  0.05054888
   0.77609795  0.88950359  0.94915358
   0.88617510  0.77837846  0.05516856
unknown system                          
           1
     8.338604    4.771571    0.000000
    -8.336054    4.767093    0.000000
     0.000000    0.000000   30.000000
   V    Mo   W    S 
   3   3   3  18
Direct configuration=    12
   0.33939905  0.65875178 -0.00003370
   0.67501135 -0.00912287  0.00045715
   0.99980311  0.33767021 -0.00123269
  -0.01003295  0.67808072 -0.00020029
   0.66679701  0.65235475  0.00024850
   0.35231473  0.33853303  0.00017630
   0.00373332 -0.01498834  0.00031360
   0.31016671 -0.00176197  0.00008607
   0.66705188  0.35637462  0.00000565
   0.11004763  0.22294685  0.95145497
   0.22025692  0.11292453  0.05422743
   0.11341329  0.55555129  0.95131347
   0.22087109  0.44642845  0.04975700
   0.10961907  0.88855427  0.94373329
   0.22265427  0.77485445  0.04952427
   0.44675552  0.22092688  0.94653406
   0.55628038  0.11082306  0.04665282
   0.44326922  0.55782361  0.94796558
   0.55653695  0.44490822  0.05654842
   0.44463071  0.88701140  0.95224729
   0.55288678  0.77763043  0.05017070
   0.77752192  0.22147346  0.95223399
   0.88882360  0.11268146  0.04919254
   0.77810026  0.55640394  0.94377183
   0.89039623  0.44398175  0.05060483
   0.77638489  0.88926258  0.94884285
   0.88552154  0.77813587  0.05540394
unknown system                          
           1
     8.332720    4.768341    0.000000
    -8.330684    4.764763    0.000000
     0.000000    0.000000   30.000000
   V    Mo   W    S 
   3   3   3  18
Direct configuration=    13
   0.34019803  0.65811570 -0.00002178
   0.67604427 -0.00992942  0.00053856
   0.99905911  0.33820613 -0.00137459
  -0.01026786  0.67849246 -0.00022503
   0.66650775  0.65248410  0.00026260
   0.35318744  0.33901950  0.00021199
   0.00332682 -0.01586142  0.00033986
   0.30904589 -0.00195198  0.00003911
   0.66756839  0.35721056  0.00002428
   0.11016139  0.22291138  0.95172483
   0.22008709  0.11306023  0.05425952
   0.11350131  0.55583503  0.95139421
   0.22089693  0.44630137  0.04969353
   0.10939395  0.88853473  0.94355019
   0.22253545  0.77481820  0.04939204
   0.44682817  0.22088111  0.94657690
   0.55611848  0.11071201  0.04625902
   0.44331337  0.55764806  0.94787700
   0.55668075  0.44501155  0.05665859
   0.44459679  0.88713993  0.95248050
   0.55284355  0.77748590  0.05027989
   0.77724064  0.22135410  0.95231813
   0.88903232  0.11268241  0.04919126
   0.77809958  0.55660749  0.94369258
   0.89045674  0.44426750  0.05063508
   0.77650700  0.88915839  0.94871388
   0.88525109  0.77801943  0.05550773
unknown system                          
           1
     8.332719    4.768329    0.000000
    -8.330657    4.764704    0.000000
     0.000000    0.000000   30.000000
   V    Mo   W    S 
   3   3   3  18
Direct configuration=    14
   0.33977617  0.65842114 -0.00004238
   0.67573583 -0.00959636  0.00049635
   0.99945312  0.33784624 -0.00130092
  -0.01011769  0.67838647 -0.00021464
   0.66656241  0.65231639  0.00026011
   0.35282035  0.33876887  0.00019657
   0.00363024 -0.01542445  0.00033354
   0.30941173 -0.00189536  0.00006302
   0.66727593  0.35689234  0.00001336
   0.11013470  0.22290643  0.95156466
   0.22018874  0.11301496  0.05425425
   0.11340118  0.55565137  0.95137039
   0.22089870  0.44637651  0.04972311
   0.10952046  0.88855390  0.94364174
   0.22256765  0.77486957  0.04946752
   0.44678603  0.22087762  0.94655546
   0.55617616  0.11080912  0.04644483
   0.44328876  0.55773821  0.94793581
   0.55658292  0.44493515  0.05660887
   0.44460080  0.88711188  0.95236367
   0.55286252  0.77757733  0.05020895
   0.77739546  0.22147749  0.95229891
   0.88891631  0.11266471  0.04919915
   0.77811080  0.55650817  0.94373230
   0.89040473  0.44412355  0.05060133
   0.77643779  0.88920768  0.94878644
   0.88539266  0.77809554  0.05543751
unknown system                          
           1
     8.335382    4.771206    0.000000
    -8.333512    4.767924    0.000000
     0.000000    0.000000   30.000000
   V    Mo   W    S 
   3   3   3  18
Direct configuration=    15
   0.33980218  0.65840118 -0.00004091
   0.67575791 -0.00961845  0.00049917
   0.99942536  0.33787295 -0.00130564
  -0.01012818  0.67839156 -0.00021525
   0.66655799  0.65232456  0.00026023
   0.35284777  0.33878626  0.00019747
   0.00361140 -0.01545576  0.00033382
   0.30938436 -0.00189891  0.00006150
   0.66729451  0.35691491  0.00001384
   0.11013562  0.22290670  0.95157562
   0.22018295  0.11301616  0.05425266
   0.11340726  0.55566223  0.95137243
   0.22089871  0.44637184  0.04972022
   0.10951428  0.88855400  0.94363887
   0.22256599  0.77486743  0.04946183
   0.44678885  0.22087869  0.94655803
   0.55617331  0.11080454  0.04643333
   0.44329018  0.55773274  0.94793356
   0.55658895  0.44493867  0.05660994
   0.44460061  0.88711287  0.95237116
   0.55286145  0.77757222  0.05021233
   0.77738693  0.22147100  0.95230067
   0.88892205  0.11266548  0.04919753
   0.77810922  0.55651273  0.94373151
   0.89040679  0.44413113  0.05060313
   0.77644162  0.88920611  0.94878296
   0.88538637  0.77809164  0.05543988
unknown system                          
           1
     8.340419    4.772435    0.000000
    -8.336179    4.765014    0.000000
     0.000000    0.000000   30.000000
   V    Mo   W    S 
   3   3   3  18
Direct configuration=    16
   0.33858739  0.65961964 -0.00023315
   0.67672434 -0.00893496  0.00032592
   1.00018733  0.33541739 -0.00099106
  -0.00971474  0.67853929 -0.00020420
   0.66681598  0.65231471  0.00030771
   0.35211388  0.33747115  0.00025804
   0.00376737 -0.01428661  0.00033534
   0.30986556 -0.00148969  0.00008062
   0.66632371  0.35651403  0.00003555
   0.11030269  0.22279944  0.95100660
   0.22040019  0.11316109  0.05430316
   0.11286145  0.55506062  0.95137651
   0.22056369  0.44616790  0.04988283
   0.10951769  0.88852837  0.94377007
   0.22242433  0.77497452  0.04977123
   0.44671545  0.22084002  0.94648984
   0.55609405  0.11081698  0.04673808
   0.44356569  0.55791912  0.94804227
   0.55627598  0.44488569  0.05653754
   0.44465923  0.88737774  0.95211694
   0.55328909  0.77800873  0.04996935
   0.77766934  0.22180824  0.95233264
   0.88887909  0.11254873  0.04929494
   0.77817640  0.55665425  0.94381676
   0.89045080  0.44407513  0.05038679
   0.77635205  0.88912981  0.94903950
   0.88534643  0.77829313  0.05521007
unknown system                          
           1
     8.345788    4.775220    0.000000
    -8.341431    4.767594    0.000000
     0.000000    0.000000   30.000000
   V    Mo   W    S 
   3   3   3  18
Direct configuration=    17
   0.33970175  0.65843691 -0.00018827
   0.67791182 -0.01014138  0.00051371
   0.99943976  0.33624177 -0.00133284
  -0.00998531  0.67928915 -0.00023895
   0.66619089  0.65222088  0.00029288
   0.35319611  0.33856698  0.00022061
   0.00354466 -0.01517659  0.00033999
   0.30829887 -0.00204341  0.00005956
   0.66723457  0.35760804  0.00004196
   0.11058742  0.22290619  0.95155290
   0.21994505  0.11319569  0.05434000
   0.11294331  0.55540872  0.95160559
   0.22084456  0.44621376  0.04965031
   0.10911651  0.88857253  0.94348273
   0.22227221  0.77511342  0.04943251
   0.44686743  0.22079540  0.94657271
   0.55594896  0.11056970  0.04594321
   0.44337340  0.55744580  0.94798384
   0.55656772  0.44518403  0.05677040
   0.44470814  0.88767951  0.95262607
   0.55300666  0.77774569  0.05016754
   0.77714175  0.22148773  0.95253169
   0.88917191  0.11251034  0.04941181
   0.77810468  0.55690501  0.94371471
   0.89045439  0.44452675  0.05040437
   0.77660402  0.88885241  0.94862671
   0.88502319  0.77809942  0.05547415
unknown system                          
           1
     8.353272    4.779044    0.000000
    -8.347618    4.769152    0.000000
     0.000000    0.000000   30.000000
   V    Mo   W    S 
   3   3   3  18
Direct configuration=    18
   0.34040105  0.65787071 -0.00014665
   0.67856556 -0.01081320  0.00058214
   0.99879415  0.33680431 -0.00145363
  -0.01030782  0.67951119 -0.00024847
   0.66601505  0.65238955  0.00030735
   0.35391111  0.33909756  0.00027704
   0.00308386 -0.01594572  0.00036566
   0.30750286 -0.00220353 -0.00000268
   0.66776449  0.35829491  0.00007002
   0.11067066  0.22294864  0.95179633
   0.21978817  0.11326740  0.05433371
   0.11306261  0.55569648  0.95165785
   0.22088789  0.44614620  0.04958132
   0.10897054  0.88861212  0.94336390
   0.22220491  0.77503198  0.04931038
   0.44693192  0.22080575  0.94661807
   0.55591386  0.11041955  0.04560894
   0.44334423  0.55731457  0.94788182
   0.55669406  0.44524447  0.05681627
   0.44474302  0.88776288  0.95284126
   0.55289954  0.77757457  0.05028852
   0.77688630  0.22126928  0.95258488
   0.88933522  0.11253839  0.04942131
   0.77806180  0.55703402  0.94366195
   0.89052111  0.44472844  0.05044803
   0.77670696  0.88880278  0.94849274
   0.88486135  0.77801114  0.05554182
unknown system                          
           1
     8.355286    4.780205    0.000000
    -8.349416    4.769936    0.000000
     0.000000    0.000000   30.000000
   V    Mo   W    S 
   3   3   3  18
Direct configuration=    19
   0.34192282  0.65663524 -0.00005376
   0.67986158 -0.01219063  0.00074300
   0.99729054  0.33819611 -0.00173692
  -0.01097516  0.67984387 -0.00028990
   0.66562109  0.65278547  0.00030831
   0.35544762  0.34022379  0.00033437
   0.00202377 -0.01761346  0.00039199
   0.30593888 -0.00245901 -0.00010391
   0.66893349  0.35964904  0.00010352
   0.11081703  0.22302946  0.95238597
   0.21944896  0.11337459  0.05427502
   0.11335605  0.55633472  0.95177918
   0.22095073  0.44595638  0.04942973
   0.10859948  0.88865091  0.94314884
   0.22208460  0.77489235  0.04900659
   0.44709391  0.22088862  0.94675818
   0.55582983  0.11011482  0.04489027
   0.44331738  0.55701628  0.94770109
   0.55702515  0.44542427  0.05692144
   0.44479576  0.88788673  0.95330471
   0.55272143  0.77720367  0.05053425
   0.77635064  0.22079763  0.95269682
   0.88969696  0.11259404  0.04940389
   0.77795390  0.55730788  0.94357815
   0.89066581  0.44517504  0.05056267
   0.77695187  0.88868744  0.94823184
   0.88449036  0.77780923  0.05569455
unknown system                          
           1
     8.349980    4.775829    0.000000
    -8.344993    4.767106    0.000000
     0.000000    0.000000   30.000000
   V    Mo   W    S 
   3   3   3  18
Direct configuration=    20
   0.34215655  0.65648887 -0.00003284
   0.68003331 -0.01238210  0.00077115
   0.99699586  0.33846659 -0.00177715
  -0.01108869  0.67982469 -0.00029398
   0.66561441  0.65290513  0.00030855
   0.35568050  0.34037609  0.00034386
   0.00178731 -0.01788627  0.00039153
   0.30576481 -0.00247613 -0.00011882
   0.66912052  0.35981856  0.00011069
   0.11081673  0.22304799  0.95248858
   0.21939790  0.11339220  0.05426148
   0.11342111  0.55644488  0.95178658
   0.22093568  0.44589808  0.04940896
   0.10853933  0.88864514  0.94311925
   0.22207710  0.77485861  0.04895948
   0.44712806  0.22091017  0.94677394
   0.55582831  0.11006071  0.04479138
   0.44333542  0.55697419  0.94766732
   0.55708912  0.44545932  0.05693601
   0.44481159  0.88788928  0.95336933
   0.55272219  0.77715632  0.05057191
   0.77626614  0.22070946  0.95270326
   0.88974392  0.11260549  0.04938941
   0.77793705  0.55735284  0.94356083
   0.89069564  0.44523777  0.05059211
   0.77697974  0.88867258  0.94819707
   0.88442484  0.77776401  0.05572001
unknown system                          
           1
     8.349624    4.776024    0.000000
    -8.344748    4.767494    0.000000
     0.000000    0.000000   30.000000
   V    Mo   W    S 
   3   3   3  18
Direct configuration=    21
   0.34157109  0.65677283 -0.00010336
   0.68020246 -0.01206502  0.00070604
   0.99760294  0.33736812 -0.00171296
  -0.01081185  0.68004224 -0.00026824
   0.66559452  0.65277195  0.00032760
   0.35501449  0.33990134  0.00036294
   0.00232150 -0.01714322  0.00041972
   0.30594912 -0.00254135 -0.00008770
   0.66899100  0.35966882  0.00012143
   0.11086088  0.22305517  0.95218611
   0.21957589  0.11346037  0.05436140
   0.11308892  0.55601156  0.95182191
   0.22086884  0.44598194  0.04950015
   0.10870502  0.88872773  0.94307241
   0.22198777  0.77498007  0.04909354
   0.44696608  0.22080068  0.94672735
   0.55580277  0.11011019  0.04491432
   0.44328122  0.55701070  0.94762279
   0.55687852  0.44530950  0.05696252
   0.44483029  0.88807728  0.95326187
   0.55272064  0.77735224  0.05053430
   0.77654213  0.22092516  0.95276470
   0.88964820  0.11264475  0.04946623
   0.77796623  0.55729190  0.94353664
   0.89068012  0.44510800  0.05047208
   0.77692296  0.88873170  0.94822877
   0.88445272  0.77785980  0.05570731
unknown system                          
           1
     8.350108    4.777397    0.000000
    -8.342856    4.764711    0.000000
     0.000000    0.000000   30.000000
   V    Mo   W    S 
   3   3   3  18
Direct configuration=    22
   0.34136659  0.65685240 -0.00013618
   0.68020845 -0.01195651  0.00068234
   0.99789260  0.33692989 -0.00168271
  -0.01073257  0.68012818 -0.00027190
   0.66555016  0.65269533  0.00032726
   0.35476301  0.33977790  0.00035870
   0.00252854 -0.01684601  0.00042343
   0.30602675 -0.00255893 -0.00008208
   0.66891697  0.35960997  0.00012210
   0.11088340  0.22305194  0.95206922
   0.21962805  0.11347000  0.05439745
   0.11297712  0.55586599  0.95183825
   0.22085806  0.44603410  0.04953035
   0.10874195  0.88875542  0.94307302
   0.22195747  0.77500489  0.04914833
   0.44691910  0.22078438  0.94671682
   0.55580932  0.11012641  0.04496243
   0.44324508  0.55702655  0.94763036
   0.55680900  0.44526651  0.05696203
   0.44484551  0.88813419  0.95322432
   0.55270858  0.77741336  0.05051397
   0.77661932  0.22098129  0.95277768
   0.88963396  0.11265732  0.04950668
   0.77797503  0.55728141  0.94353970
   0.89069668  0.44508016  0.05043220
   0.77691417  0.88874184  0.94823824
   0.88447215  0.77790647  0.05569790
unknown system                          
           1
     8.357624    4.782608    0.000000
    -8.350472    4.770095    0.000000
     0.000000    0.000000   30.000000
   V    Mo   W    S 
   3   3   3  18
Direct configuration=    23
   0.34254678  0.65627095 -0.00011328
   0.68103736 -0.01309949  0.00079380
   0.99718727  0.33703845 -0.00180399
  -0.01125576  0.68071640 -0.00033858
   0.66532658  0.65286773  0.00031490
   0.35572822  0.34041050  0.00038034
   0.00184871 -0.01776818  0.00043042
   0.30482189 -0.00269135 -0.00013502
   0.66945474  0.36065669  0.00015535
   0.11111578  0.22300041  0.95238887
   0.21936115  0.11348736  0.05431719
   0.11316311  0.55649773  0.95192556
   0.22098347  0.44593727  0.04946627
   0.10837286  0.88879909  0.94300391
   0.22181282  0.77491485  0.04892661
   0.44714042  0.22102007  0.94686802
   0.55582557  0.10987898  0.04440154
   0.44322762  0.55678660  0.94755370
   0.55708310  0.44543257  0.05696922
   0.44498093  0.88827690  0.95358370
   0.55266379  0.77722679  0.05066324
   0.77598166  0.22042333  0.95282428
   0.88982606  0.11253734  0.04955431
   0.77783594  0.55753325  0.94353120
   0.89086101  0.44557266  0.05050275
   0.77711409  0.88866838  0.94807815
   0.88416930  0.77781919  0.05575745
unknown system                          
           1
     8.365378    4.786467    0.000000
    -8.357349    4.772424    0.000000
     0.000000    0.000000   30.000000
   V    Mo   W    S 
   3   3   3  18
Direct configuration=    24
   0.34273856  0.65599522 -0.00005364
   0.68096206 -0.01309999  0.00083243
   0.99661588  0.33815912 -0.00187397
  -0.01137701  0.68026317 -0.00033912
   0.66534323  0.65308598  0.00030376
   0.35607522  0.34072606  0.00036415
   0.00145187 -0.01826310  0.00040652
   0.30492828 -0.00264884 -0.00016213
   0.66971810  0.36060871  0.00014309
   0.11096567  0.22307331  0.95260438
   0.21930433  0.11348390  0.05429090
   0.11335371  0.55658009  0.95189396
   0.22090548  0.44583168  0.04940402
   0.10833827  0.88872463  0.94299475
   0.22190855  0.77482416  0.04887973
   0.44715689  0.22099447  0.94685922
   0.55581988  0.10986036  0.04440109
   0.44327276  0.55679147  0.94754943
   0.55718260  0.44548964  0.05699018
   0.44493371  0.88812935  0.95360169