<?xml version="1.0" encoding="ISO-8859-1"?>
<modeling>
 <generator>
  <i name="program" type="string">vasp </i>
  <i name="version" type="string">5.4.1  </i>
  <i name="subversion" type="string">05Feb16 (build Jul 05 2020 17:13:04) complex                          parallel </i>
  <i name="platform" type="string">IFC91_ompi </i>
  <i name="date" type="string">2024 07 10 </i>
  <i name="time" type="string">18:14:01 </i>
 </generator>
 <incar>
  <i type="int" name="ISTART">     0</i>
  <i type="string" name="PREC">normal</i>
  <i type="string" name="ALGO"> Normal</i>
  <i type="int" name="ISPIN">     1</i>
  <i type="int" name="ICHARG">     2</i>
  <i type="int" name="IBRION">     1</i>
  <i type="int" name="NSW">   100</i>
  <i type="int" name="ISIF">     3</i>
  <i type="int" name="ISYM">     0</i>
  <i name="SYMPREC">      0.00000001</i>
  <i name="POTIM">      0.50000000</i>
  <i type="logical" name="LREAL"> F  </i>
  <i type="logical" name="LPLANE"> F  </i>
  <i type="int" name="ISMEAR">     0</i>
  <i type="logical" name="LWAVE"> F  </i>
  <i type="logical" name="LCHARG"> F  </i>
  <v type="int" name="KPOINT_BSE">    -1     0     0     0</v>
 </incar>
 <kpoints>
  <generation param="Gamma">
   <v type="int" name="divisions">       8        8        1 </v>
   <v name="usershift">      0.00000000       0.00000000       0.00000000 </v>
   <v name="genvec1">      0.12500000       0.00000000       0.00000000 </v>
   <v name="genvec2">     -0.00000000       0.12500000       0.00000000 </v>
   <v name="genvec3">      0.00000000       0.00000000       1.00000000 </v>
   <v name="shift">      0.00000000       0.00000000       0.00000000 </v>
  </generation>
  <varray name="kpointlist" >
   <v>       0.00000000       0.00000000       0.00000000 </v>
   <v>       0.12500000       0.00000000       0.00000000 </v>
   <v>       0.25000000       0.00000000       0.00000000 </v>
   <v>       0.37500000       0.00000000       0.00000000 </v>
   <v>       0.50000000       0.00000000       0.00000000 </v>
   <v>       0.00000000       0.12500000       0.00000000 </v>
   <v>       0.12500000       0.12500000       0.00000000 </v>
   <v>       0.25000000       0.12500000       0.00000000 </v>
   <v>       0.37500000       0.12500000       0.00000000 </v>
   <v>       0.50000000       0.12500000       0.00000000 </v>
   <v>      -0.37500000       0.12500000       0.00000000 </v>
   <v>      -0.25000000       0.12500000       0.00000000 </v>
   <v>      -0.12500000       0.12500000       0.00000000 </v>
   <v>       0.00000000       0.25000000       0.00000000 </v>
   <v>       0.12500000       0.25000000       0.00000000 </v>
   <v>       0.25000000       0.25000000       0.00000000 </v>
   <v>       0.37500000       0.25000000       0.00000000 </v>
   <v>       0.50000000       0.25000000       0.00000000 </v>
   <v>      -0.37500000       0.25000000       0.00000000 </v>
   <v>      -0.25000000       0.25000000       0.00000000 </v>
   <v>      -0.12500000       0.25000000       0.00000000 </v>
   <v>      -0.00000000       0.37500000       0.00000000 </v>
   <v>       0.12500000       0.37500000       0.00000000 </v>
   <v>       0.25000000       0.37500000       0.00000000 </v>
   <v>       0.37500000       0.37500000       0.00000000 </v>
   <v>       0.50000000       0.37500000       0.00000000 </v>
   <v>      -0.37500000       0.37500000       0.00000000 </v>
   <v>      -0.25000000       0.37500000       0.00000000 </v>
   <v>      -0.12500000       0.37500000       0.00000000 </v>
   <v>       0.00000000       0.50000000       0.00000000 </v>
   <v>       0.12500000       0.50000000       0.00000000 </v>
   <v>       0.25000000       0.50000000       0.00000000 </v>
   <v>       0.37500000       0.50000000       0.00000000 </v>
   <v>       0.50000000       0.50000000       0.00000000 </v>
  </varray>
  <varray name="weights" >
   <v>       0.01562500 </v>
   <v>       0.03125000 </v>
   <v>       0.03125000 </v>
   <v>       0.03125000 </v>
   <v>       0.01562500 </v>
   <v>       0.03125000 </v>
   <v>       0.03125000 </v>
   <v>       0.03125000 </v>
   <v>       0.03125000 </v>
   <v>       0.03125000 </v>
   <v>       0.03125000 </v>
   <v>       0.03125000 </v>
   <v>       0.03125000 </v>
   <v>       0.03125000 </v>
   <v>       0.03125000 </v>
   <v>       0.03125000 </v>
   <v>       0.03125000 </v>
   <v>       0.03125000 </v>
   <v>       0.03125000 </v>
   <v>       0.03125000 </v>
   <v>       0.03125000 </v>
   <v>       0.03125000 </v>
   <v>       0.03125000 </v>
   <v>       0.03125000 </v>
   <v>       0.03125000 </v>
   <v>       0.03125000 </v>
   <v>       0.03125000 </v>
   <v>       0.03125000 </v>
   <v>       0.03125000 </v>
   <v>       0.01562500 </v>
   <v>       0.03125000 </v>
   <v>       0.03125000 </v>
   <v>       0.03125000 </v>
   <v>       0.01562500 </v>
  </varray>
 </kpoints>
 <parameters>
  <separator name="general" >
   <i type="string" name="SYSTEM">unknown system</i>
   <i type="logical" name="LCOMPAT"> F  </i>
  </separator>
  <separator name="electronic" >
   <i type="string" name="PREC">normal</i>
   <i name="ENMAX">    280.00000000</i>
   <i name="ENAUG">    373.43800000</i>
   <i name="EDIFF">      0.00010000</i>
   <i type="int" name="IALGO">    38</i>
   <i type="int" name="IWAVPR">    11</i>
   <i type="int" name="NBANDS">   120</i>
   <i name="NELECT">    159.00000000</i>
   <i type="int" name="TURBO">     0</i>
   <i type="int" name="IRESTART">     0</i>
   <i type="int" name="NREBOOT">     0</i>
   <i type="int" name="NMIN">     0</i>
   <i name="EREF">      0.00000000</i>
   <separator name="electronic smearing" >
    <i type="int" name="ISMEAR">     0</i>
    <i name="SIGMA">      0.20000000</i>
    <i name="KSPACING">      0.50000000</i>
    <i type="logical" name="KGAMMA"> T  </i>
   </separator>
   <separator name="electronic projectors" >
    <i type="logical" name="LREAL"> F  </i>
    <v name="ROPT">      0.00000000      0.00000000      0.00000000      0.00000000</v>
    <i type="int" name="LMAXPAW">  -100</i>
    <i type="int" name="LMAXMIX">     2</i>
    <i type="logical" name="NLSPLINE"> F  </i>
   </separator>
   <separator name="electronic startup" >
    <i type="int" name="ISTART">     0</i>
    <i type="int" name="ICHARG">     2</i>
    <i type="int" name="INIWAV">     1</i>
   </separator>
   <separator name="electronic spin" >
    <i type="int" name="ISPIN">     1</i>
    <i type="logical" name="LNONCOLLINEAR"> F  </i>
    <v name="MAGMOM">      1.00000000      1.00000000      1.00000000      1.00000000      1.00000000      1.00000000      1.00000000      1.00000000      1.00000000      1.00000000      1.00000000      1.00000000      1.00000000      1.00000000      1.00000000      1.00000000      1.00000000      1.00000000      1.00000000      1.00000000
      1.00000000      1.00000000      1.00000000      1.00000000      1.00000000      1.00000000      1.00000000</v>
    <i name="NUPDOWN">     -1.00000000</i>
    <i type="logical" name="LSORBIT"> F  </i>
    <v name="SAXIS">      0.00000000      0.00000000      1.00000000</v>
    <i type="logical" name="LSPIRAL"> F  </i>
    <v name="QSPIRAL">      0.00000000      0.00000000      0.00000000</v>
    <i type="logical" name="LZEROZ"> F  </i>
   </separator>
   <separator name="electronic exchange-correlation" >
    <i type="logical" name="LASPH"> F  </i>
    <i type="logical" name="LMETAGGA"> F  </i>
   </separator>
   <separator name="electronic convergence" >
    <i type="int" name="NELM">    60</i>
    <i type="int" name="NELMDL">    -5</i>
    <i type="int" name="NELMIN">     2</i>
    <i name="ENINI">    280.00000000</i>
    <separator name="electronic convergence detail" >
     <i type="logical" name="LDIAG"> T  </i>
     <i type="logical" name="LSUBROT"> F  </i>
     <i name="WEIMIN">      0.00100000</i>
     <i name="EBREAK">      0.00000021</i>
     <i name="DEPER">      0.30000000</i>
     <i type="int" name="NRMM">     4</i>
     <i name="TIME">      0.40000000</i>
    </separator>
   </separator>
   <separator name="electronic mixer" >
    <i name="AMIX">      0.40000000</i>
    <i name="BMIX">      1.00000000</i>
    <i name="AMIN">      0.10000000</i>
    <i name="AMIX_MAG">      1.60000000</i>
    <i name="BMIX_MAG">      1.00000000</i>
    <separator name="electronic mixer details" >
     <i type="int" name="IMIX">     4</i>
     <i type="logical" name="MIXFIRST"> F  </i>
     <i type="int" name="MAXMIX">   -45</i>
     <i name="WC">    100.00000000</i>
     <i type="int" name="INIMIX">     1</i>
     <i type="int" name="MIXPRE">     1</i>
     <i type="int" name="MREMOVE">     5</i>
    </separator>
   </separator>
   <separator name="electronic dipolcorrection" >
    <i type="logical" name="LDIPOL"> F  </i>
    <i type="logical" name="LMONO"> F  </i>
    <i type="int" name="IDIPOL">     0</i>
    <i name="EPSILON">      1.00000000</i>
    <v name="DIPOL">   -100.00000000   -100.00000000   -100.00000000</v>
    <i name="EFIELD">      0.00000000</i>
   </separator>
  </separator>
  <separator name="grids" >
   <i type="int" name="NGX">    42</i>
   <i type="int" name="NGY">    42</i>
   <i type="int" name="NGZ">   126</i>
   <i type="int" name="NGXF">    84</i>
   <i type="int" name="NGYF">    84</i>
   <i type="int" name="NGZF">   252</i>
   <i type="logical" name="ADDGRID"> F  </i>
  </separator>
  <separator name="ionic" >
   <i type="int" name="NSW">   100</i>
   <i type="int" name="IBRION">     1</i>
   <i type="int" name="ISIF">     3</i>
   <i name="PSTRESS">      0.00000000</i>
   <i name="EDIFFG">      0.00100000</i>
   <i type="int" name="NFREE">     0</i>
   <i name="POTIM">      0.50000000</i>
   <i name="SMASS">     -3.00000000</i>
   <i name="SCALEE">      1.00000000</i>
  </separator>
  <separator name="ionic md" >
   <i name="TEBEG">      0.00010000</i>
   <i name="TEEND">      0.00010000</i>
   <i type="int" name="NBLOCK">     1</i>
   <i type="int" name="KBLOCK">   100</i>
   <i type="int" name="NPACO">   256</i>
   <i name="APACO">     16.00000000</i>
  </separator>
  <separator name="symmetry" >
   <i type="int" name="ISYM">     0</i>
   <i name="SYMPREC">      0.00000001</i>
  </separator>
  <separator name="dos" >
   <i type="logical" name="LORBIT"> F  </i>
   <v name="RWIGS">     -1.00000000     -1.00000000     -1.00000000     -1.00000000</v>
   <i type="int" name="NEDOS">   301</i>
   <i name="EMIN">     10.00000000</i>
   <i name="EMAX">    -10.00000000</i>
   <i name="EFERMI">      0.00000000</i>
  </separator>
  <separator name="writing" >
   <i type="int" name="NWRITE">     2</i>
   <i type="logical" name="LWAVE"> F  </i>
   <i type="logical" name="LCHARG"> F  </i>
   <i type="logical" name="LPARD"> F  </i>
   <i type="logical" name="LVTOT"> F  </i>
   <i type="logical" name="LVHAR"> F  </i>
   <i type="logical" name="LELF"> F  </i>
   <i type="logical" name="LOPTICS"> F  </i>
   <v name="STM">      0.00000000      0.00000000      0.00000000      0.00000000      0.00000000      0.00000000      0.00000000</v>
  </separator>
  <separator name="performance" >
   <i type="int" name="NPAR">    40</i>
   <i type="int" name="NSIM">     4</i>
   <i type="int" name="NBLK">    -1</i>
   <i type="logical" name="LPLANE"> F  </i>
   <i type="logical" name="LSCALAPACK"> T  </i>
   <i type="logical" name="LSCAAWARE"> F  </i>
   <i type="logical" name="LSCALU"> F  </i>
   <i type="logical" name="LASYNC"> F  </i>
   <i type="logical" name="LORBITALREAL"> F  </i>
  </separator>
  <separator name="miscellaneous" >
   <i type="int" name="IDIOT">     3</i>
   <i type="logical" name="LMUSIC"> F  </i>
   <v name="POMASS">     50.94100000     95.94000000    183.85000000     32.06600000</v>
   <v name="DARWINR">      0.00000000      0.00000000      0.00000000      0.00000000</v>
   <v name="DARWINV">      1.00000000      1.00000000      1.00000000      1.00000000</v>
   <i type="logical" name="LCORR"> T  </i>
  </separator>
  <i type="logical" name="GGA_COMPAT"> T  </i>
  <i type="logical" name="LBERRY"> F  </i>
  <i type="int" name="ICORELEVEL">     0</i>
  <i type="logical" name="LDAU"> F  </i>
  <i type="int" name="I_CONSTRAINED_M">     0</i>
  <separator name="electronic exchange-correlation" >
   <i type="string" name="GGA">--</i>
   <i type="int" name="VOSKOWN">     0</i>
   <i type="logical" name="LHFCALC"> F  </i>
   <i type="string" name="PRECFOCK"></i>
   <i type="logical" name="LSYMGRAD"> F  </i>
   <i type="logical" name="LHFONE"> F  </i>
   <i type="logical" name="LRHFCALC"> F  </i>
   <i type="logical" name="LTHOMAS"> F  </i>
   <i type="logical" name="LMODELHF"> F  </i>
   <i name="ENCUT4O">     -1.00000000</i>
   <i type="int" name="EXXOEP">     0</i>
   <i type="int" name="FOURORBIT">     0</i>
   <i name="AEXX">      0.00000000</i>
   <i name="HFALPHA">      0.00000000</i>
   <i name="MCALPHA">      0.00000000</i>
   <i name="ALDAX">      1.00000000</i>
   <i name="AGGAX">      1.00000000</i>
   <i name="ALDAC">      1.00000000</i>
   <i name="AGGAC">      1.00000000</i>
   <i type="int" name="NKREDX">     1</i>
   <i type="int" name="NKREDY">     1</i>
   <i type="int" name="NKREDZ">     1</i>
   <i type="logical" name="SHIFTRED"> F  </i>
   <i type="logical" name="ODDONLY"> F  </i>
   <i type="logical" name="EVENONLY"> F  </i>
   <i type="int" name="LMAXFOCK">     0</i>
   <i type="int" name="NMAXFOCKAE">     0</i>
   <i type="logical" name="LFOCKAEDFT"> F  </i>
   <i name="HFSCREEN">      0.00000000</i>
   <i name="HFSCREENC">      0.00000000</i>
   <i type="int" name="NBANDSGWLOW">     0</i>
  </separator>
  <separator name="vdW DFT" >
   <i type="logical" name="LUSE_VDW"> F  </i>
   <i name="Zab_VDW">     -0.84910000</i>
   <i name="PARAM1">      0.12340000</i>
   <i name="PARAM2">      1.00000000</i>
   <i name="PARAM3">      0.00000000</i>
  </separator>
  <separator name="model GW" >
   <i type="int" name="MODEL_GW">     0</i>
   <i name="MODEL_EPS0">     58.26239943</i>
   <i name="MODEL_ALPHA">      1.00000000</i>
  </separator>
  <separator name="linear response parameters" >
   <i type="logical" name="LEPSILON"> F  </i>
   <i type="logical" name="LRPA"> F  </i>
   <i type="logical" name="LNABLA"> F  </i>
   <i type="logical" name="LVEL"> F  </i>
   <i type="int" name="KINTER">     0</i>
   <i name="CSHIFT">      0.10000000</i>
   <i name="OMEGAMAX">     -1.00000000</i>
   <i name="DEG_THRESHOLD">      0.00200000</i>
  </separator>
  <separator name="orbital magnetization" >
   <i type="logical" name="NUCIND"> F  </i>
   <v name="MAGPOS">      0.00000000      0.00000000      0.00000000</v>
   <i type="logical" name="LNICSALL"> T  </i>
   <i type="logical" name="ORBITALMAG"> F  </i>
   <i type="logical" name="LMAGBLOCH"> F  </i>
   <i type="logical" name="LCHIMAG"> F  </i>
   <i type="logical" name="LGAUGE"> T  </i>
   <i type="int" name="MAGATOM">     0</i>
   <v name="MAGDIPOL">      0.00000000      0.00000000      0.00000000</v>
   <v name="AVECCONST">      0.00000000      0.00000000      0.00000000</v>
  </separator>
  <separator name="response functions" >
   <i type="logical" name="LADDER"> F  </i>
   <i type="logical" name="LFXC"> F  </i>
   <i type="logical" name="LHARTREE"> T  </i>
   <i type="int" name="IBSE">     0</i>
   <v type="int" name="KPOINT">    -1     0     0     0</v>
   <i type="logical" name="LTCTE"> F  </i>
   <i type="logical" name="LTETE"> F  </i>
   <i type="logical" name="LTRIPLET"> F  </i>
   <i type="logical" name="LFXCEPS"> F  </i>
   <i type="logical" name="LFXHEG"> F  </i>
   <i type="int" name="NATURALO">     0</i>
   <i type="logical" name="L2ORDER"> F  </i>
   <i type="logical" name="LUSEW"> F  </i>
   <i name="ENCUTGW">     -2.00000000</i>
   <i name="ENCUTGWSOFT">     -2.00000000</i>
   <i name="ENCUTLF">     -1.00000000</i>
   <i type="int" name="LMAXMP2">    -1</i>
   <i name="SCISSOR">      0.00000000</i>
   <i type="int" name="NOMEGA">     0</i>
   <i type="int" name="NOMEGAR">     0</i>
   <i type="int" name="NBANDSGW">    -1</i>
   <i type="int" name="NBANDSO">    -1</i>
   <i type="int" name="NBANDSV">    -1</i>
   <i type="int" name="NELM">     1</i>
   <i type="int" name="NELMHF">     1</i>
   <i type="int" name="DIM">     3</i>
   <i type="int" name="ANTIRES">     0</i>
   <i name="OMEGAMAX">    -30.00000000</i>
   <i name="OMEGAMIN">    -30.00000000</i>
   <i name="OMEGATL">   -200.00000000</i>
   <i type="int" name="OMEGAGRID">     0</i>
   <i name="CSHIFT">     -0.10000000</i>
   <i type="logical" name="SELFENERGY"> F  </i>
   <i type="logical" name="LSPECTRAL"> F  </i>
   <i type="logical" name="LSPECTRALGW"> F  </i>
   <i type="logical" name="LSINGLES"> F  </i>
   <i type="logical" name="LFERMIGW"> F  </i>
   <i type="logical" name="ODDONLYGW"> F  </i>
   <i type="logical" name="EVENONLYGW"> F  </i>
   <i type="int" name="NKREDLFX">     1</i>
   <i type="int" name="NKREDLFY">     1</i>
   <i type="int" name="NKREDLFZ">     1</i>
   <i type="int" name="MAXMEM">  1800</i>
   <i type="int" name="TELESCOPE">     0</i>
   <i type="int" name="TAUPAR">     1</i>
   <i type="int" name="OMEGAPAR">    -1</i>
   <i name="LAMBDA">      1.00000000</i>
  </separator>
  <separator name="External order field" >
   <i name="OFIELD_KAPPA">      0.00000000</i>
   <v name="OFIELD_K">      0.00000000      0.00000000      0.00000000</v>
   <i name="OFIELD_Q6_NEAR">      0.00000000</i>
   <i name="OFIELD_Q6_FAR">      0.00000000</i>
   <i name="OFIELD_A">      0.00000000</i>
  </separator>
 </parameters>
 <atominfo>
  <atoms>      27 </atoms>
  <types>       4 </types>
  <array name="atoms" >
   <dimension dim="1">ion</dimension>
   <field type="string">element</field>
   <field type="int">atomtype</field>
   <set>
    <rc><c>V </c><c>   1</c></rc>
    <rc><c>V </c><c>   1</c></rc>
    <rc><c>V </c><c>   1</c></rc>
    <rc><c>Mo</c><c>   2</c></rc>
    <rc><c>Mo</c><c>   2</c></rc>
    <rc><c>Mo</c><c>   2</c></rc>
    <rc><c>W </c><c>   3</c></rc>
    <rc><c>W </c><c>   3</c></rc>
    <rc><c>W </c><c>   3</c></rc>
    <rc><c>S </c><c>   4</c></rc>
    <rc><c>S </c><c>   4</c></rc>
    <rc><c>S </c><c>   4</c></rc>
    <rc><c>S </c><c>   4</c></rc>
    <rc><c>S </c><c>   4</c></rc>
    <rc><c>S </c><c>   4</c></rc>
    <rc><c>S </c><c>   4</c></rc>
    <rc><c>S </c><c>   4</c></rc>
    <rc><c>S </c><c>   4</c></rc>
    <rc><c>S </c><c>   4</c></rc>
    <rc><c>S </c><c>   4</c></rc>
    <rc><c>S </c><c>   4</c></rc>
    <rc><c>S </c><c>   4</c></rc>
    <rc><c>S </c><c>   4</c></rc>
    <rc><c>S </c><c>   4</c></rc>
    <rc><c>S </c><c>   4</c></rc>
    <rc><c>S </c><c>   4</c></rc>
    <rc><c>S </c><c>   4</c></rc>
   </set>
  </array>
  <array name="atomtypes" >
   <dimension dim="1">type</dimension>
   <field type="int">atomspertype</field>
   <field type="string">element</field>
   <field>mass</field>
   <field>valence</field>
   <field type="string">pseudopotential</field>
   <set>
    <rc><c>   3</c><c>V </c><c>     50.94100000</c><c>      5.00000000</c><c> PAW_PBE V 08Apr2002                    </c></rc>
    <rc><c>   3</c><c>Mo</c><c>     95.94000000</c><c>      6.00000000</c><c> PAW_PBE Mo 08Apr2002                   </c></rc>
    <rc><c>   3</c><c>W </c><c>    183.85000000</c><c>      6.00000000</c><c> PAW_PBE W 08Apr2002                    </c></rc>
    <rc><c>  18</c><c>S </c><c>     32.06600000</c><c>      6.00000000</c><c>  PAW_PBE S 17Jan2003                   </c></rc>
   </set>
  </array>
 </atominfo>
 <structure name="initialpos" >
  <crystal>
   <varray name="basis" >
    <v>       8.66999996       5.03999989       0.00000000 </v>
    <v>      -8.66999982       5.04000013       0.00000000 </v>
    <v>       0.00000000       0.00000000      30.00000000 </v>
   </varray>
   <i name="volume">   2621.80797419 </i>
   <varray name="rec_basis" >
    <v>       0.05767013       0.09920635       0.00000000 </v>
    <v>      -0.05767013       0.09920635       0.00000000 </v>
    <v>       0.00000000       0.00000000       0.03333333 </v>
   </varray>
  </crystal>
  <varray name="positions" >
   <v>       0.33333334       0.00000000       0.00000000 </v>
   <v>       0.66666669       0.33333334       0.00000000 </v>
   <v>       1.00000000       0.33333334       0.00000000 </v>
   <v>       0.66666669       0.00000000       0.00000000 </v>
   <v>       0.33333334       0.33333334       0.00000000 </v>
   <v>       0.00000000       0.00000000       0.00000000 </v>
   <v>       0.00000000       0.66666669       0.00000000 </v>
   <v>       0.33333334       0.66666669       0.00000000 </v>
   <v>       0.66666669       0.66666669       0.00000000 </v>
   <v>       0.11068511       0.22244981       0.95539999 </v>
   <v>       0.22244981       0.11068511       0.04460000 </v>
   <v>       0.11068511       0.55578315       0.95539999 </v>
   <v>       0.22244981       0.44401845       0.04460000 </v>
   <v>       0.11068511       0.88911647       0.95539999 </v>
   <v>       0.22244981       0.77735180       0.04460000 </v>
   <v>       0.44401845       0.22244981       0.95539999 </v>
   <v>       0.55578315       0.11068511       0.04460000 </v>
   <v>       0.44401845       0.55578315       0.95539999 </v>
   <v>       0.55578315       0.44401845       0.04460000 </v>
   <v>       0.44401845       0.88911647       0.95539999 </v>
   <v>       0.55578315       0.77735180       0.04460000 </v>
   <v>       0.77735180       0.22244981       0.95539999 </v>
   <v>       0.88911647       0.11068511       0.04460000 </v>
   <v>       0.77735180       0.55578315       0.95539999 </v>
   <v>       0.88911647       0.44401845       0.04460000 </v>
   <v>       0.77735180       0.88911647       0.95539999 </v>
   <v>       0.88911647       0.77735180       0.04460000 </v>
  </varray>
 </structure>
 <calculation>
  <scstep>
   <time name="dav">   22.61   22.67</time>
   <time name="total">   22.66   22.72</time>
   <energy>
    <i name="alphaZ">     81.65567618 </i>
    <i name="ewald">  41890.23011115 </i>
    <i name="hartreedc"> -47722.87367283 </i>
    <i name="XCdc">   -242.92712323 </i>
    <i name="pawpsdc">   3467.42045192 </i>
    <i name="pawaedc">  -2871.19716117 </i>
    <i name="eentropy">     -0.53876687 </i>
    <i name="bandstr">   -238.85126068 </i>
    <i name="atom">   6761.44252427 </i>
    <i name="e_fr_energy">   1124.36077874 </i>
    <i name="e_wo_entrp">   1124.89954560 </i>
    <i name="e_0_energy">   1124.63016217 </i>
   </energy>
  </scstep>
  <scstep>
   <time name="dav">   29.05   29.12</time>
   <time name="total">   29.05   29.13</time>
   <energy>
    <i name="e_fr_energy">      0.83195023 </i>
    <i name="e_wo_entrp">      1.03523289 </i>
    <i name="e_0_energy">      0.93359156 </i>
   </energy>
  </scstep>
  <scstep>
   <time name="dav">   28.67   28.74</time>
   <time name="total">   28.67   28.75</time>
   <energy>
    <i name="e_fr_energy">   -199.56178046 </i>
    <i name="e_wo_entrp">   -199.28853707 </i>
    <i name="e_0_energy">   -199.42515876 </i>
   </energy>
  </scstep>
  <scstep>
   <time name="dav">   31.32   31.40</time>
   <time name="total">   31.32   31.40</time>
   <energy>
    <i name="e_fr_energy">   -208.99867467 </i>
    <i name="e_wo_entrp">   -208.69446869 </i>
    <i name="e_0_energy">   -208.84657168 </i>
   </energy>
  </scstep>
  <scstep>
   <time name="dav">   29.90   29.97</time>
   <time name="total">   30.36   30.44</time>
   <energy>
    <i name="e_fr_energy">   -209.32567803 </i>
    <i name="e_wo_entrp">   -209.02419091 </i>
    <i name="e_0_energy">   -209.17493447 </i>
   </energy>
  </scstep>
  <scstep>
   <time name="dav">   32.15   32.23</time>
   <time name="total">   32.65   32.74</time>
   <energy>
    <i name="e_fr_energy">   -237.12076572 </i>
    <i name="e_wo_entrp">   -236.84055877 </i>
    <i name="e_0_energy">   -236.98066224 </i>
   </energy>
  </scstep>
  <scstep>
   <time name="dav">   33.56   33.64</time>
   <time name="total">   34.15   34.24</time>
   <energy>
    <i name="e_fr_energy">   -196.42695682 </i>
    <i name="e_wo_entrp">   -196.10708603 </i>
    <i name="e_0_energy">   -196.26702142 </i>
   </energy>
  </scstep>
  <scstep>
   <time name="dav">   31.30   31.38</time>
   <time name="total">   31.90   31.98</time>
   <energy>
    <i name="e_fr_energy">   -189.40024484 </i>
    <i name="e_wo_entrp">   -189.10893754 </i>
    <i name="e_0_energy">   -189.25459119 </i>
   </energy>
  </scstep>
  <scstep>
   <time name="dav">   33.13   33.21</time>
   <time name="total">   33.73   33.82</time>
   <energy>
    <i name="e_fr_energy">   -188.16658071 </i>
    <i name="e_wo_entrp">   -187.82876688 </i>
    <i name="e_0_energy">   -187.99767379 </i>
   </energy>
  </scstep>
  <scstep>
   <time name="dav">   34.07   34.15</time>
   <time name="total">   34.68   34.77</time>
   <energy>
    <i name="e_fr_energy">   -186.99882861 </i>
    <i name="e_wo_entrp">   -186.65147182 </i>
    <i name="e_0_energy">   -186.82515021 </i>
   </energy>
  </scstep>
  <scstep>
   <time name="dav">   33.86   33.94</time>
   <time name="total">   34.47   34.56</time>
   <energy>
    <i name="e_fr_energy">   -186.96888361 </i>
    <i name="e_wo_entrp">   -186.61907377 </i>
    <i name="e_0_energy">   -186.79397869 </i>
   </energy>
  </scstep>
  <scstep>
   <time name="dav">   31.39   31.46</time>
   <time name="total">   32.00   32.08</time>
   <energy>
    <i name="e_fr_energy">   -187.09617545 </i>
    <i name="e_wo_entrp">   -186.75646613 </i>
    <i name="e_0_energy">   -186.92632079 </i>
   </energy>
  </scstep>
  <scstep>
   <time name="dav">   33.08   33.16</time>
   <time name="total">   33.69   33.78</time>
   <energy>
    <i name="e_fr_energy">   -186.87987052 </i>
    <i name="e_wo_entrp">   -186.54326503 </i>
    <i name="e_0_energy">   -186.71156778 </i>
   </energy>
  </scstep>
  <scstep>
   <time name="dav">   34.00   34.09</time>
   <time name="total">   34.62   34.71</time>
   <energy>
    <i name="e_fr_energy">   -186.85614226 </i>
    <i name="e_wo_entrp">   -186.51168180 </i>
    <i name="e_0_energy">   -186.68391203 </i>
   </energy>
  </scstep>
  <scstep>
   <time name="dav">   31.09   31.16</time>
   <time name="total">   31.69   31.78</time>
   <energy>
    <i name="e_fr_energy">   -186.83530217 </i>
    <i name="e_wo_entrp">   -186.48845162 </i>
    <i name="e_0_energy">   -186.66187690 </i>
   </energy>
  </scstep>
  <scstep>
   <time name="dav">   30.40   30.47</time>
   <time name="total">   31.01   31.09</time>
   <energy>
    <i name="e_fr_energy">   -186.82783077 </i>
    <i name="e_wo_entrp">   -186.48102963 </i>
    <i name="e_0_energy">   -186.65443020 </i>
   </energy>
  </scstep>
  <scstep>
   <time name="dav">   32.09   32.17</time>
   <time name="total">   32.70   32.79</time>
   <energy>
    <i name="e_fr_energy">   -186.82594132 </i>
    <i name="e_wo_entrp">   -186.48115884 </i>
    <i name="e_0_energy">   -186.65355008 </i>
   </energy>
  </scstep>
  <scstep>
   <time name="dav">   30.66   30.74</time>
   <time name="total">   31.27   31.36</time>
   <energy>
    <i name="e_fr_energy">   -186.82548935 </i>
    <i name="e_wo_entrp">   -186.48044264 </i>
    <i name="e_0_energy">   -186.65296599 </i>
   </energy>
  </scstep>
  <scstep>
   <time name="dav">   28.50   28.57</time>
   <time name="total">   29.11   29.19</time>
   <energy>
    <i name="e_fr_energy">   -186.82514142 </i>
    <i name="e_wo_entrp">   -186.47981417 </i>
    <i name="e_0_energy">   -186.65247780 </i>
   </energy>
  </scstep>
  <scstep>
   <time name="dav">   25.19   25.25</time>
   <time name="total">   25.81   25.88</time>
   <energy>
    <i name="e_fr_energy">   -186.82587473 </i>
    <i name="e_wo_entrp">   -186.48072371 </i>
    <i name="e_0_energy">   -186.65329922 </i>
   </energy>
  </scstep>
  <scstep>
   <time name="dav">   22.05   22.11</time>
   <time name="total">   22.66   22.72</time>
   <energy>
    <i name="e_fr_energy">   -186.82646764 </i>
    <i name="e_wo_entrp">   -186.48149173 </i>
    <i name="e_0_energy">   -186.65397969 </i>
   </energy>
  </scstep>
  <scstep>
   <time name="dav">   21.51   21.57</time>
   <time name="total">   22.12   22.19</time>
   <energy>
    <i name="e_fr_energy">   -186.82764100 </i>
    <i name="e_wo_entrp">   -186.48249191 </i>
    <i name="e_0_energy">   -186.65506646 </i>
   </energy>
  </scstep>
  <scstep>
   <time name="dav">   21.22   21.27</time>
   <time name="total">   21.83   21.89</time>
   <energy>
    <i name="e_fr_energy">   -186.82886007 </i>
    <i name="e_wo_entrp">   -186.48382577 </i>
    <i name="e_0_energy">   -186.65634292 </i>
   </energy>
  </scstep>
  <scstep>
   <time name="dav">   19.67   19.72</time>
   <time name="total">   20.29   20.34</time>
   <energy>
    <i name="e_fr_energy">   -186.82945090 </i>
    <i name="e_wo_entrp">   -186.48439788 </i>
    <i name="e_0_energy">   -186.65692439 </i>
   </energy>
  </scstep>
  <scstep>
   <time name="dav">   17.53   17.57</time>
   <time name="total">   18.14   18.19</time>
   <energy>
    <i name="e_fr_energy">   -186.82981454 </i>
    <i name="e_wo_entrp">   -186.48472186 </i>
    <i name="e_0_energy">   -186.65726820 </i>
   </energy>
  </scstep>
  <scstep>
   <time name="dav">   19.93   19.98</time>
   <time name="total">   20.55   20.60</time>
   <energy>
    <i name="e_fr_energy">   -186.83004929 </i>
    <i name="e_wo_entrp">   -186.48497371 </i>
    <i name="e_0_energy">   -186.65751150 </i>
   </energy>
  </scstep>
  <scstep>
   <time name="dav">   20.63   20.68</time>
   <time name="total">   21.24   21.29</time>
   <energy>
    <i name="e_fr_energy">   -186.83015184 </i>
    <i name="e_wo_entrp">   -186.48507360 </i>
    <i name="e_0_energy">   -186.65761272 </i>
   </energy>
  </scstep>
  <scstep>
   <time name="dav">   21.23   21.28</time>
   <time name="total">   21.27   21.33</time>
   <energy>
    <i name="alphaZ">     81.65567618 </i>
    <i name="ewald">  41890.23011115 </i>
    <i name="hartreedc"> -47832.85887135 </i>
    <i name="XCdc">   -231.61139767 </i>
    <i name="pawpsdc">   4192.00336407 </i>
    <i name="pawaedc">  -3610.00560138 </i>
    <i name="eentropy">     -0.34507550 </i>
    <i name="bandstr">  -1437.34092247 </i>
    <i name="atom">   6761.44252427 </i>
    <i name="e_fr_energy">   -186.83019270 </i>
    <i name="e_wo_entrp">   -186.48511720 </i>
    <i name="e_0_energy">   -186.65765495 </i>
   </energy>
  </scstep>
  <structure>
   <crystal>
    <varray name="basis" >
     <v>       8.66999996       5.03999989       0.00000000 </v>
     <v>      -8.66999982       5.04000013       0.00000000 </v>
     <v>       0.00000000       0.00000000      30.00000000 </v>
    </varray>
    <i name="volume">   2621.80797419 </i>
    <varray name="rec_basis" >
     <v>       0.05767013       0.09920635       0.00000000 </v>
     <v>      -0.05767013       0.09920635       0.00000000 </v>
     <v>       0.00000000       0.00000000       0.03333333 </v>
    </varray>
   </crystal>
   <varray name="positions" >
    <v>       0.33333334       0.00000000       0.00000000 </v>
    <v>       0.66666669       0.33333334       0.00000000 </v>
    <v>       1.00000000       0.33333334       0.00000000 </v>
    <v>       0.66666669       0.00000000       0.00000000 </v>
    <v>       0.33333334       0.33333334       0.00000000 </v>
    <v>       0.00000000       0.00000000       0.00000000 </v>
    <v>       0.00000000       0.66666669       0.00000000 </v>
    <v>       0.33333334       0.66666669       0.00000000 </v>
    <v>       0.66666669       0.66666669       0.00000000 </v>
    <v>       0.11068511       0.22244981       0.95539999 </v>
    <v>       0.22244981       0.11068511       0.04460000 </v>
    <v>       0.11068511       0.55578315       0.95539999 </v>
    <v>       0.22244981       0.44401845       0.04460000 </v>
    <v>       0.11068511       0.88911647       0.95539999 </v>
    <v>       0.22244981       0.77735180       0.04460000 </v>
    <v>       0.44401845       0.22244981       0.95539999 </v>
    <v>       0.55578315       0.11068511       0.04460000 </v>
    <v>       0.44401845       0.55578315       0.95539999 </v>
    <v>       0.55578315       0.44401845       0.04460000 </v>
    <v>       0.44401845       0.88911647       0.95539999 </v>
    <v>       0.55578315       0.77735180       0.04460000 </v>
    <v>       0.77735180       0.22244981       0.95539999 </v>
    <v>       0.88911647       0.11068511       0.04460000 </v>
    <v>       0.77735180       0.55578315       0.95539999 </v>
    <v>       0.88911647       0.44401845       0.04460000 </v>
    <v>       0.77735180       0.88911647       0.95539999 </v>
    <v>       0.88911647       0.77735180       0.04460000 </v>
   </varray>
  </structure>
  <varray name="forces" >
   <v>      -0.22349307       0.19781086      -0.10129095 </v>
   <v>       0.09006279      -0.26753547       0.00950658 </v>
   <v>       0.35815192      -0.28165077       0.09282261 </v>
   <v>       0.19205875       0.16239256      -0.00902111 </v>
   <v>       0.01920030      -0.28346328       0.00166622 </v>
   <v>      -0.25099109       0.14409511      -0.09690111 </v>
   <v>      -0.21614859       0.10352888       0.02357594 </v>
   <v>       0.24269984       0.13998228       0.10107294 </v>
   <v>      -0.25204870       0.12872133       0.02092201 </v>
   <v>      -0.72722129      -0.00994406      -2.13799969 </v>
   <v>       0.74368452       0.00940042       2.10661921 </v>
   <v>       0.46211840      -0.57665961      -2.12109498 </v>
   <v>      -0.63914196      -0.56427835       2.17069839 </v>
   <v>       0.62233646       0.56493626      -2.18137730 </v>
   <v>      -0.45062386       0.56226421       2.15189114 </v>
   <v>       0.91251024      -0.02908091      -1.49065559 </v>
   <v>      -0.89284530       0.00252203       1.45621257 </v>
   <v>       0.08679779       0.13979551      -2.91071039 </v>
   <v>       0.65484355       0.15816787       2.07453383 </v>
   <v>      -0.69309258      -0.14559060      -2.10019444 </v>
   <v>      -0.05152616      -0.15522830       2.95350450 </v>
   <v>      -0.32416053       0.66111564      -1.41947681 </v>
   <v>      -0.55336824       0.71827831       2.18665205 </v>
   <v>       0.46257336      -0.56947332      -2.16550731 </v>
   <v>       0.25360107      -0.51608528       1.40973674 </v>
   <v>       0.22662819      -0.14054700      -2.91154215 </v>
   <v>      -0.05260579      -0.15347433       2.88635711 </v>
  </varray>
  <varray name="stress" >
   <v>       7.44833545       0.05588970      -1.64573285 </v>
   <v>       0.05588973       4.27486349       0.13651275 </v>
   <v>      -1.64573278       0.13651263      30.33683017 </v>
  </varray>
  <energy>
   <i name="e_fr_energy">   -186.83019270 </i>
   <i name="e_wo_entrp">   -186.65765495 </i>
   <i name="e_0_energy">     -0.34507550 </i>
  </energy>
  <time name="totalsc">  837.46  839.69</time>
 </calculation>
 <calculation>
  <scstep>
   <time name="dav">   22.58   22.63</time>
   <time name="total">   23.20   23.25</time>
   <energy>
    <i name="alphaZ">     78.92874616 </i>
    <i name="ewald">  39382.88688293 </i>
    <i name="hartreedc"> -45340.38524596 </i>
    <i name="XCdc">   -239.06587048 </i>
    <i name="pawpsdc">   4192.00386483 </i>
    <i name="pawaedc">  -3610.00609315 </i>
    <i name="eentropy">     -0.28492807 </i>
    <i name="bandstr">  -1412.97990210 </i>
    <i name="atom">   6761.44252427 </i>
    <i name="e_fr_energy">   -187.46002156 </i>
    <i name="e_wo_entrp">   -187.17509349 </i>
    <i name="e_0_energy">   -187.31755752 </i>
   </energy>
  </scstep>
  <scstep>
   <time name="dav">   31.68   31.75</time>
   <time name="total">   32.29   32.38</time>
   <energy>
    <i name="e_fr_energy">   -189.37185881 </i>
    <i name="e_wo_entrp">   -189.04933429 </i>
    <i name="e_0_energy">   -189.21059655 </i>
   </energy>
  </scstep>
  <scstep>
   <time name="dav">   31.83   31.91</time>
   <time name="total">   32.45   32.54</time>
   <energy>
    <i name="e_fr_energy">   -189.33281853 </i>
    <i name="e_wo_entrp">   -189.05352255 </i>
    <i name="e_0_energy">   -189.19317054 </i>
   </energy>
  </scstep>
  <scstep>
   <time name="dav">   32.01   32.08</time>
   <time name="total">   32.63   32.71</time>
   <energy>
    <i name="e_fr_energy">   -188.72638388 </i>
    <i name="e_wo_entrp">   -188.44126489 </i>
    <i name="e_0_energy">   -188.58382438 </i>
   </energy>
  </scstep>
  <scstep>
   <time name="dav">   30.15   30.22</time>
   <time name="total">   30.77   30.85</time>
   <energy>
    <i name="e_fr_energy">   -188.74121455 </i>
    <i name="e_wo_entrp">   -188.45211508 </i>
    <i name="e_0_energy">   -188.59666481 </i>
   </energy>
  </scstep>
  <scstep>
   <time name="dav">   32.39   32.46</time>
   <time name="total">   33.01   33.09</time>
   <energy>
    <i name="e_fr_energy">   -188.73509977 </i>
    <i name="e_wo_entrp">   -188.44424905 </i>
    <i name="e_0_energy">   -188.58967441 </i>
   </energy>
  </scstep>
  <scstep>
   <time name="dav">   31.92   32.00</time>
   <time name="total">   32.54   32.62</time>
   <energy>
    <i name="e_fr_energy">   -188.66045325 </i>
    <i name="e_wo_entrp">   -188.37548431 </i>
    <i name="e_0_energy">   -188.51796878 </i>
   </energy>
  </scstep>
  <scstep>
   <time name="dav">   31.94   32.02</time>
   <time name="total">   32.56   32.65</time>
   <energy>
    <i name="e_fr_energy">   -188.64004511 </i>
    <i name="e_wo_entrp">   -188.35446474 </i>
    <i name="e_0_energy">   -188.49725493 </i>
   </energy>
  </scstep>
  <scstep>
   <time name="dav">   31.02   31.10</time>
   <time name="total">   31.64   31.72</time>
   <energy>
    <i name="e_fr_energy">   -188.63741260 </i>
    <i name="e_wo_entrp">   -188.35286439 </i>
    <i name="e_0_energy">   -188.49513849 </i>
   </energy>
  </scstep>
  <scstep>
   <time name="dav">   32.92   33.00</time>
   <time name="total">   33.54   33.63</time>
   <energy>
    <i name="e_fr_energy">   -188.63472750 </i>
    <i name="e_wo_entrp">   -188.34961252 </i>
    <i name="e_0_energy">   -188.49217001 </i>
   </energy>
  </scstep>
  <scstep>
   <time name="dav">   32.75   32.83</time>
   <time name="total">   33.36   33.45</time>
   <energy>
    <i name="e_fr_energy">   -188.63430260 </i>
    <i name="e_wo_entrp">   -188.34991882 </i>
    <i name="e_0_energy">   -188.49211071 </i>
   </energy>
  </scstep>
  <scstep>
   <time name="dav">   30.76   30.83</time>
   <time name="total">   30.80   30.88</time>
   <energy>
    <i name="alphaZ">     78.92874616 </i>
    <i name="ewald">  39382.88688293 </i>
    <i name="hartreedc"> -45351.29524531 </i>
    <i name="XCdc">   -237.97598792 </i>
    <i name="pawpsdc">   3952.38265948 </i>
    <i name="pawaedc">  -3366.90717597 </i>
    <i name="eentropy">     -0.28420431 </i>
    <i name="bandstr">  -1407.81257882 </i>
    <i name="atom">   6761.44252427 </i>
    <i name="e_fr_energy">   -188.63437949 </i>
    <i name="e_wo_entrp">   -188.35017518 </i>
    <i name="e_0_energy">   -188.49227733 </i>
   </energy>
  </scstep>
  <structure>
   <crystal>
    <varray name="basis" >
     <v>       8.85963838       5.10441234       0.00000000 </v>
     <v>      -8.85799102       5.10157898       0.00000000 </v>
     <v>       0.00000000       0.00000000      30.00000000 </v>
    </varray>
    <i name="volume">   2712.38950773 </i>
    <varray name="rec_basis" >
     <v>       0.05642529       0.09797256       0.00000000 </v>
     <v>      -0.05645663       0.09799078       0.00000000 </v>
     <v>       0.00000000       0.00000000       0.03333333 </v>
    </varray>
   </crystal>
   <varray name="positions" >
    <v>       0.33365827       0.00156851      -0.00016288 </v>
    <v>       0.66563684       0.33180236       0.00001529 </v>
    <v>       0.99964846       0.33098893       0.00014927 </v>
    <v>       0.66797823       0.00024287      -0.00001451 </v>
    <v>       0.33203011       0.33192328       0.00000268 </v>
    <v>      -0.00000866       0.00138793      -0.00015583 </v>
    <v>      -0.00010587       0.66776353       0.00003791 </v>
    <v>       0.33467853       0.66666141       0.00016253 </v>
    <v>       0.66658150       0.66798398       0.00003364 </v>
    <v>       0.10861427       0.22442546       0.95196190 </v>
    <v>       0.22456385       0.10866105       0.04798763 </v>
    <v>       0.10921092       0.55173759       0.95198908 </v>
    <v>       0.21797099       0.44309602       0.04809067 </v>
    <v>       0.11512032       0.89008880       0.95189214 </v>
    <v>       0.22388709       0.78129649       0.04806043 </v>
    <v>       0.44641802       0.21977188       0.95300288 </v>
    <v>       0.55331118       0.11318122       0.04694172 </v>
    <v>       0.44492900       0.55621073       0.95071931 </v>
    <v>       0.55836202       0.44295356       0.04793603 </v>
    <v>       0.44139337       0.89034797       0.95202269 </v>
    <v>       0.55489688       0.77675223       0.04934950 </v>
    <v>       0.77961401       0.22651576       0.95311735 </v>
    <v>       0.89101457       0.11566233       0.04811633 </v>
    <v>       0.77591326       0.55177071       0.95191766 </v>
    <v>       0.88735205       0.44084292       0.04686698 </v>
    <v>       0.77730966       0.88781330       0.95071797 </v>
    <v>       0.88823558       0.77676363       0.04924152 </v>
   </varray>
  </structure>
  <varray name="forces" >
   <v>      -0.22284601       0.11432978      -0.02417798 </v>
   <v>       0.04436217      -0.19298386       0.07278081 </v>
   <v>       0.34377439      -0.22516248       0.01722052 </v>
   <v>       0.46032960      -0.05852012      -0.06903101 </v>
   <v>      -0.11768246      -0.20080156       0.07164556 </v>
   <v>      -0.18287393      -0.01429435      -0.02195348 </v>
   <v>      -0.28908015       0.11482876      -0.01197189 </v>
   <v>       0.37705151       0.21755367      -0.06947068 </v>
   <v>      -0.38318450       0.18042616       0.00713356 </v>
   <v>      -0.07056033      -0.00575796      -0.17197227 </v>
   <v>       0.05624198      -0.00178711       0.05327084 </v>
   <v>      -0.05425555       0.05104189       0.27134059 </v>
   <v>      -0.09062377       0.03126078       0.01729666 </v>
   <v>       0.07205213      -0.04036219      -0.02118939 </v>
   <v>       0.04961603      -0.04730884      -0.13910242 </v>
   <v>       0.04347182      -0.01631589      -0.01942824 </v>
   <v>      -0.02956055       0.01082284      -0.10232786 </v>
   <v>      -0.06945456       0.09951918       0.00312022 </v>
   <v>      -0.01310612       0.09830571      -0.11766197 </v>
   <v>       0.02516188      -0.10613462       0.08944108 </v>
   <v>       0.07659370      -0.10018029       0.15275734 </v>
   <v>      -0.00208533       0.04502370       0.07001205 </v>
   <v>      -0.03898634       0.09120351       0.16416527 </v>
   <v>      -0.05105699       0.05955002       0.14322625 </v>
   <v>      -0.05572076       0.07535142      -0.18841855 </v>
   <v>       0.06318167      -0.09161602      -0.18451779 </v>
   <v>       0.05924047      -0.08799215       0.00781278 </v>
  </varray>
  <varray name="stress" >
   <v>     -19.98060748       0.01512537       0.06130274 </v>
   <v>       0.01512524     -19.53322296       0.06111597 </v>
   <v>       0.06130279       0.06111597      -1.72686500 </v>
  </varray>
  <energy>
   <i name="e_fr_energy">   -188.63437949 </i>
   <i name="e_wo_entrp">   -188.49227733 </i>
   <i name="e_0_energy">     -0.28420431 </i>
  </energy>
  <time name="totalsc">  422.58  423.69</time>
 </calculation>
 <calculation>
  <scstep>
   <time name="dav">   24.90   24.96</time>
   <time name="total">   25.51   25.57</time>
   <energy>
    <i name="alphaZ">     82.37034100 </i>
    <i name="ewald">  41315.66140072 </i>
    <i name="hartreedc"> -47314.77978190 </i>
    <i name="XCdc">   -233.83794522 </i>
    <i name="pawpsdc">   3950.17400253 </i>
    <i name="pawaedc">  -3364.67456996 </i>
    <i name="eentropy">     -0.23652643 </i>
    <i name="bandstr">  -1386.68220350 </i>
    <i name="atom">   6761.44252427 </i>
    <i name="e_fr_energy">   -190.56275849 </i>
    <i name="e_wo_entrp">   -190.32623206 </i>
    <i name="e_0_energy">   -190.44449527 </i>
   </energy>
  </scstep>
  <scstep>
   <time name="dav">   29.63   29.70</time>
   <time name="total">   30.23   30.31</time>
   <energy>
    <i name="e_fr_energy">   -190.55146876 </i>
    <i name="e_wo_entrp">   -190.31205038 </i>
    <i name="e_0_energy">   -190.43175957 </i>
   </energy>
  </scstep>
  <scstep>
   <time name="dav">   31.57   31.65</time>
   <time name="total">   32.17   32.26</time>
   <energy>
    <i name="e_fr_energy">   -190.03209352 </i>
    <i name="e_wo_entrp">   -189.78349666 </i>
    <i name="e_0_energy">   -189.90779509 </i>
   </energy>
  </scstep>
  <scstep>
   <time name="dav">   32.82   32.90</time>
   <time name="total">   33.43   33.52</time>
   <energy>
    <i name="e_fr_energy">   -189.82450282 </i>
    <i name="e_wo_entrp">   -189.58739936 </i>
    <i name="e_0_energy">   -189.70595109 </i>
   </energy>
  </scstep>
  <scstep>
   <time name="dav">   29.54   29.61</time>
   <time name="total">   30.15   30.23</time>
   <energy>
    <i name="e_fr_energy">   -189.74028543 </i>
    <i name="e_wo_entrp">   -189.49826432 </i>
    <i name="e_0_energy">   -189.61927487 </i>
   </energy>
  </scstep>
  <scstep>
   <time name="dav">   30.84   30.91</time>
   <time name="total">   31.46   31.53</time>
   <energy>
    <i name="e_fr_energy">   -189.72644673 </i>
    <i name="e_wo_entrp">   -189.48776278 </i>
    <i name="e_0_energy">   -189.60710476 </i>
   </energy>
  </scstep>
  <scstep>
   <time name="dav">   31.40   31.47</time>
   <time name="total">   32.00   32.09</time>
   <energy>
    <i name="e_fr_energy">   -189.72066281 </i>
    <i name="e_wo_entrp">   -189.48106585 </i>
    <i name="e_0_energy">   -189.60086433 </i>
   </energy>
  </scstep>
  <scstep>
   <time name="dav">   28.91   28.97</time>
   <time name="total">   29.52   29.60</time>
   <energy>
    <i name="e_fr_energy">   -189.72051723 </i>
    <i name="e_wo_entrp">   -189.48119484 </i>
    <i name="e_0_energy">   -189.60085604 </i>
   </energy>
  </scstep>
  <scstep>
   <time name="dav">   27.36   27.43</time>
   <time name="total">   27.97   28.04</time>
   <energy>
    <i name="e_fr_energy">   -189.72077756 </i>
    <i name="e_wo_entrp">   -189.48126241 </i>
    <i name="e_0_energy">   -189.60101998 </i>
   </energy>
  </scstep>
  <scstep>
   <time name="dav">   27.80   27.86</time>
   <time name="total">   28.41   28.49</time>
   <energy>
    <i name="e_fr_energy">   -189.72114490 </i>
    <i name="e_wo_entrp">   -189.48166503 </i>
    <i name="e_0_energy">   -189.60140497 </i>
   </energy>
  </scstep>
  <scstep>
   <time name="dav">   25.26   25.32</time>
   <time name="total">   25.86   25.93</time>
   <energy>
    <i name="e_fr_energy">   -189.72057339 </i>
    <i name="e_wo_entrp">   -189.48104798 </i>
    <i name="e_0_energy">   -189.60081068 </i>
   </energy>
  </scstep>
  <scstep>
   <time name="dav">   17.63   17.67</time>
   <time name="total">   17.67   17.72</time>
   <energy>
    <i name="alphaZ">     82.37034100 </i>
    <i name="ewald">  41315.66140072 </i>
    <i name="hartreedc"> -47287.99697062 </i>
    <i name="XCdc">   -235.23878910 </i>
    <i name="pawpsdc">   4038.99602357 </i>
    <i name="pawaedc">  -3454.69868048 </i>
    <i name="eentropy">     -0.23946191 </i>
    <i name="bandstr">  -1410.01698133 </i>
    <i name="atom">   6761.44252427 </i>
    <i name="e_fr_energy">   -189.72059389 </i>
    <i name="e_wo_entrp">   -189.48113197 </i>
    <i name="e_0_energy">   -189.60086293 </i>
   </energy>
  </scstep>
  <structure>
   <crystal>
    <varray name="basis" >
     <v>       8.67054185       4.99800198       0.00000000 </v>
     <v>      -8.66876470       4.99494138       0.00000000 </v>
     <v>       0.00000000       0.00000000      30.00000000 </v>
    </varray>
    <i name="volume">   2599.06053964 </i>
    <varray name="rec_basis" >
     <v>       0.05765477       0.10006036       0.00000000 </v>
     <v>      -0.05769010       0.10008088       0.00000000 </v>
     <v>       0.00000000       0.00000000       0.03333333 </v>
    </varray>
   </crystal>
   <varray name="positions" >
    <v>       0.33363487       0.00197389      -0.00017662 </v>
    <v>       0.66535725       0.33143736       0.00005664 </v>
    <v>       0.99960309       0.33028208       0.00015905 </v>
    <v>       0.66832322      -0.00029782      -0.00005373 </v>
    <v>       0.33158163       0.33170115       0.00004338 </v>
    <v>      -0.00020840       0.00154003      -0.00016830 </v>
    <v>      -0.00019214       0.66823348       0.00003111 </v>
    <v>       0.33540442       0.66666194       0.00012307 </v>
    <v>       0.66651427       0.66865404       0.00003770 </v>
    <v>       0.10853680       0.22448374       0.95186419 </v>
    <v>       0.22461495       0.10860395       0.04801789 </v>
    <v>       0.10924397       0.55187504       0.95214324 </v>
    <v>       0.21793604       0.44323544       0.04810050 </v>
    <v>       0.11512222       0.88995206       0.95188010 </v>
    <v>       0.22385580       0.78116973       0.04798140 </v>
    <v>       0.44643258       0.21970280       0.95299185 </v>
    <v>       0.55330083       0.11322774       0.04688358 </v>
    <v>       0.44502838       0.55644377       0.95072108 </v>
    <v>       0.55851357       0.44313036       0.04786919 </v>
    <v>       0.44124034       0.89014649       0.95207351 </v>
    <v>       0.55480326       0.77651121       0.04943628 </v>
    <v>       0.77968719       0.22659296       0.95315712 </v>
    <v>       0.89112937       0.11585217       0.04820960 </v>
    <v>       0.77596360       0.55191930       0.95199903 </v>
    <v>       0.88742429       0.44102239       0.04675993 </v>
    <v>       0.77721744       0.88759949       0.95061314 </v>
    <v>       0.88814562       0.77655967       0.04924596 </v>
   </varray>
  </structure>
  <varray name="forces" >
   <v>      -0.22482675       0.05261005       0.00145177 </v>
   <v>       0.01040095      -0.15204301       0.07325410 </v>
   <v>       0.34774749      -0.18595198      -0.00384840 </v>
   <v>       0.53671458      -0.14666827      -0.05801128 </v>
   <v>      -0.15861744      -0.16033488       0.06916771 </v>
   <v>      -0.14552368      -0.07636291      -0.00036329 </v>
   <v>      -0.31715719       0.12125535      -0.01734294 </v>
   <v>       0.42056016       0.25088568      -0.08596172 </v>
   <v>      -0.42720291       0.19662033       0.00523249 </v>
   <v>      -0.14579719      -0.00351875      -0.67397672 </v>
   <v>       0.12964601      -0.01053219       0.53919607 </v>
   <v>       0.01778941      -0.07073806      -0.20966977 </v>
   <v>      -0.09363143      -0.09696698       0.52609066 </v>
   <v>       0.05644681       0.10472025      -0.53380293 </v>
   <v>      -0.01740118       0.08915408       0.35332555 </v>
   <v>       0.11101470      -0.00961245      -0.47569936 </v>
   <v>      -0.08703211       0.00524113       0.33133788 </v>
   <v>      -0.01405208       0.02885754      -0.55931725 </v>
   <v>       0.09271082       0.03664677       0.35915117 </v>
   <v>      -0.08758506      -0.03082096      -0.40179833 </v>
   <v>       0.03295989      -0.02507219       0.74831583 </v>
   <v>      -0.03941123       0.10536348      -0.37375995 </v>
   <v>      -0.07086122       0.14516779       0.66908819 </v>
   <v>       0.01281508      -0.07530837      -0.35558971 </v>
   <v>       0.02178152      -0.05595273       0.26187666 </v>
   <v>       0.03186565      -0.01824818      -0.76004299 </v>
   <v>       0.00664638      -0.01839054       0.57169656 </v>
  </varray>
  <varray name="stress" >
   <v>     -10.17592843      -0.02984211       0.07076004 </v>
   <v>      -0.02984216      -9.77139322       0.03636975 </v>
   <v>       0.07076011       0.03636970       6.53660859 </v>
  </varray>
  <energy>
   <i name="e_fr_energy">   -189.72059389 </i>
   <i name="e_wo_entrp">   -189.60086293 </i>
   <i name="e_0_energy">     -0.23946191 </i>
  </energy>
  <time name="totalsc">  388.17  389.18</time>
 </calculation>
 <calculation>
  <scstep>
   <time name="dav">   22.62   22.68</time>
   <time name="total">   23.23   23.28</time>
   <energy>
    <i name="alphaZ">     85.82669594 </i>
    <i name="ewald">  42833.77870923 </i>
    <i name="hartreedc"> -48850.44859117 </i>
    <i name="XCdc">   -232.98052039 </i>
    <i name="pawpsdc">   4039.01259730 </i>
    <i name="pawaedc">  -3454.71247271 </i>
    <i name="eentropy">     -0.19652599 </i>
    <i name="bandstr">  -1372.97611635 </i>
    <i name="atom">   6761.44252427 </i>
    <i name="e_fr_energy">   -191.25369985 </i>
    <i name="e_wo_entrp">   -191.05717387 </i>
    <i name="e_0_energy">   -191.15543686 </i>
   </energy>
  </scstep>
  <scstep>
   <time name="dav">   33.88   33.97</time>
   <time name="total">   34.48   34.57</time>
   <energy>
    <i name="e_fr_energy">   -191.13854314 </i>
    <i name="e_wo_entrp">   -190.93587928 </i>
    <i name="e_0_energy">   -191.03721121 </i>
   </energy>
  </scstep>
  <scstep>
   <time name="dav">   31.38   31.46</time>
   <time name="total">   31.98   32.06</time>
   <energy>
    <i name="e_fr_energy">   -191.17974581 </i>
    <i name="e_wo_entrp">   -190.96319642 </i>
    <i name="e_0_energy">   -191.07147112 </i>
   </energy>
  </scstep>
  <scstep>
   <time name="dav">   32.24   32.31</time>
   <time name="total">   32.84   32.92</time>
   <energy>
    <i name="e_fr_energy">   -190.82621656 </i>
    <i name="e_wo_entrp">   -190.62207669 </i>
    <i name="e_0_energy">   -190.72414663 </i>
   </energy>
  </scstep>
  <scstep>
   <time name="dav">   30.83   30.91</time>
   <time name="total">   31.43   31.51</time>
   <energy>
    <i name="e_fr_energy">   -190.82362796 </i>
    <i name="e_wo_entrp">   -190.62549638 </i>
    <i name="e_0_energy">   -190.72456217 </i>
   </energy>
  </scstep>
  <scstep>
   <time name="dav">   31.27   31.34</time>
   <time name="total">   31.87   31.95</time>
   <energy>
    <i name="e_fr_energy">   -190.68321424 </i>
    <i name="e_wo_entrp">   -190.47905211 </i>
    <i name="e_0_energy">   -190.58113318 </i>
   </energy>
  </scstep>
  <scstep>
   <time name="dav">   31.65   31.73</time>
   <time name="total">   32.25   32.33</time>
   <energy>
    <i name="e_fr_energy">   -190.67817054 </i>
    <i name="e_wo_entrp">   -190.47600790 </i>
    <i name="e_0_energy">   -190.57708922 </i>
   </energy>
  </scstep>
  <scstep>
   <time name="dav">   30.31   30.38</time>
   <time name="total">   30.91   30.99</time>
   <energy>
    <i name="e_fr_energy">   -190.67676048 </i>
    <i name="e_wo_entrp">   -190.47445804 </i>
    <i name="e_0_energy">   -190.57560926 </i>
   </energy>
  </scstep>
  <scstep>
   <time name="dav">   29.61   29.68</time>
   <time name="total">   30.20   30.28</time>
   <energy>
    <i name="e_fr_energy">   -190.67435004 </i>
    <i name="e_wo_entrp">   -190.47190065 </i>
    <i name="e_0_energy">   -190.57312535 </i>
   </energy>
  </scstep>
  <scstep>
   <time name="dav">   27.70   27.76</time>
   <time name="total">   28.30   28.37</time>
   <energy>
    <i name="e_fr_energy">   -190.67463042 </i>
    <i name="e_wo_entrp">   -190.47189840 </i>
    <i name="e_0_energy">   -190.57326441 </i>
   </energy>
  </scstep>
  <scstep>
   <time name="dav">   27.64   27.71</time>
   <time name="total">   28.24   28.31</time>
   <energy>
    <i name="e_fr_energy">   -190.67447724 </i>
    <i name="e_wo_entrp">   -190.47197114 </i>
    <i name="e_0_energy">   -190.57322419 </i>
   </energy>
  </scstep>
  <scstep>
   <time name="dav">   20.82   20.87</time>
   <time name="total">   20.85   20.91</time>
   <energy>
    <i name="alphaZ">     85.82669594 </i>
    <i name="ewald">  42833.77870923 </i>
    <i name="hartreedc"> -48821.97567689 </i>
    <i name="XCdc">   -234.30708650 </i>
    <i name="pawpsdc">   4062.80046524 </i>
    <i name="pawaedc">  -3478.66429682 </i>
    <i name="eentropy">     -0.20252419 </i>
    <i name="bandstr">  -1399.37328052 </i>
    <i name="atom">   6761.44252427 </i>
    <i name="e_fr_energy">   -190.67447026 </i>
    <i name="e_wo_entrp">   -190.47194607 </i>
    <i name="e_0_energy">   -190.57320816 </i>
   </energy>
  </scstep>
  <structure>
   <crystal>
    <varray name="basis" >
     <v>       8.48726167       4.89821155       0.00000000 </v>
     <v>      -8.48733653       4.89835975       0.00000000 </v>
     <v>       0.00000000       0.00000000      30.00000000 </v>
    </varray>
    <i name="volume">   2494.39292288 </i>
    <varray name="rec_basis" >
     <v>       0.05891245       0.10207698       0.00000000 </v>
     <v>      -0.05891067       0.10207608       0.00000000 </v>
     <v>       0.00000000       0.00000000       0.03333333 </v>
    </varray>
   </crystal>
   <varray name="positions" >
    <v>       0.33299731       0.00296517      -0.00015202 </v>
    <v>       0.66449569       0.33059743       0.00020855 </v>
    <v>       0.99979638       0.32795324       0.00013334 </v>
    <v>       0.66923229      -0.00348175      -0.00016443 </v>
    <v>       0.33004711       0.33142837       0.00018436 </v>
    <v>      -0.00131213       0.00138021      -0.00015086 </v>
    <v>      -0.00060151       0.67019410      -0.00000929 </v>
    <v>       0.33863760       0.66673509      -0.00006863 </v>
    <v>       0.66618115       0.67153098       0.00004692 </v>
    <v>       0.10788688       0.22510107       0.95004721 </v>
    <v>       0.22509988       0.10794344       0.04954256 </v>
    <v>       0.10866641       0.55096334       0.95130430 </v>
    <v>       0.21666916       0.44265293       0.04961732 </v>
    <v>       0.11631865       0.89078570       0.95034411 </v>
    <v>       0.22459361       0.78222456       0.04912709 </v>
    <v>       0.44688593       0.21916195       0.95162350 </v>
    <v>       0.55292379       0.11364302       0.04793429 </v>
    <v>       0.44506240       0.55642117       0.94909034 </v>
    <v>       0.55907582       0.44272139       0.04901377 </v>
    <v>       0.44075699       0.89061715       0.95082855 </v>
    <v>       0.55488897       0.77648347       0.05148585 </v>
    <v>       0.78030091       0.22759787       0.95201016 </v>
    <v>       0.89187082       0.11719637       0.05001893 </v>
    <v>       0.77529543       0.55097621       0.95084328 </v>
    <v>       0.88693792       0.44015750       0.04768098 </v>
    <v>       0.77735519       0.88759654       0.94855620 </v>
    <v>       0.88815180       0.77666793       0.05090352 </v>
   </varray>
  </structure>
  <varray name="forces" >
   <v>      -0.26693685      -0.02275835       0.04798975 </v>
   <v>       0.01864452      -0.10107294       0.04723318 </v>
   <v>       0.33065808      -0.16784767      -0.05087506 </v>
   <v>       0.57710380      -0.21706330      -0.00646986 </v>
   <v>      -0.17479236      -0.15953711       0.03045033 </v>
   <v>      -0.09291718      -0.12848146       0.02214520 </v>
   <v>      -0.38335201       0.09801905      -0.03002240 </v>
   <v>       0.49576154       0.32371634      -0.04606773 </v>
   <v>      -0.47616186       0.23785357      -0.00948432 </v>
   <v>      -0.03674455      -0.02414710      -0.45814891 </v>
   <v>      -0.00038090      -0.01029462       0.36578711 </v>
   <v>       0.01367228      -0.00966470      -0.01876653 </v>
   <v>      -0.05117308      -0.03472213       0.37593556 </v>
   <v>      -0.04193766       0.08720445      -0.40625583 </v>
   <v>       0.01115279       0.05735209       0.15085000 </v>
   <v>       0.00143704      -0.00566557      -0.36906029 </v>
   <v>       0.05044052      -0.00775565       0.20902761 </v>
   <v>       0.07381480      -0.01166517      -0.40179391 </v>
   <v>      -0.01825826       0.01809299       0.19558997 </v>
   <v>       0.00133167       0.04035436      -0.25470347 </v>
   <v>      -0.00682022       0.02528439       0.61298575 </v>
   <v>       0.04689472      -0.01683035      -0.24466590 </v>
   <v>      -0.01345332       0.01882860       0.47225584 </v>
   <v>      -0.03987943      -0.03708869      -0.20499486 </v>
   <v>       0.01245050      -0.00737607       0.17268565 </v>
   <v>       0.03472709       0.03758356      -0.60828692 </v>
   <v>      -0.06528167       0.01768149       0.40666004 </v>
  </varray>
  <varray name="stress" >
   <v>      -5.74969912       0.01117694      -0.13509664 </v>
   <v>       0.01117697      -5.97113477       0.01333113 </v>
   <v>      -0.13509686       0.01333125       4.48282341 </v>
  </varray>
  <energy>
   <i name="e_fr_energy">   -190.67447026 </i>
   <i name="e_wo_entrp">   -190.57320816 </i>
   <i name="e_0_energy">     -0.20252419 </i>
  </energy>
  <time name="totalsc">  400.72  401.77</time>
 </calculation>
 <calculation>
  <scstep>
   <time name="dav">   22.59   22.64</time>
   <time name="total">   23.19   23.24</time>
   <energy>
    <i name="alphaZ">     90.30953777 </i>
    <i name="ewald">  44733.78849451 </i>
    <i name="hartreedc"> -50778.43725189 </i>
    <i name="XCdc">   -231.72160649 </i>
    <i name="pawpsdc">   4062.74935155 </i>
    <i name="pawaedc">  -3478.60813421 </i>
    <i name="eentropy">     -0.17960009 </i>
    <i name="bandstr">  -1351.46473021 </i>
    <i name="atom">   6761.44252427 </i>
    <i name="e_fr_energy">   -192.12141478 </i>
    <i name="e_wo_entrp">   -191.94181469 </i>
    <i name="e_0_energy">   -192.03161473 </i>
   </energy>
  </scstep>
  <scstep>
   <time name="dav">   31.10   31.17</time>
   <time name="total">   31.69   31.77</time>
   <energy>
    <i name="e_fr_energy">   -191.86645719 </i>
    <i name="e_wo_entrp">   -191.67517070 </i>
    <i name="e_0_energy">   -191.77081394 </i>
   </energy>
  </scstep>
  <scstep>
   <time name="dav">   31.23   31.30</time>
   <time name="total">   31.82   31.91</time>
   <energy>
    <i name="e_fr_energy">   -192.25027445 </i>
    <i name="e_wo_entrp">   -192.04822387 </i>
    <i name="e_0_energy">   -192.14924916 </i>
   </energy>
  </scstep>
  <scstep>
   <time name="dav">   31.29   31.36</time>
   <time name="total">   31.88   31.96</time>
   <energy>
    <i name="e_fr_energy">   -191.57737044 </i>
    <i name="e_wo_entrp">   -191.38950538 </i>
    <i name="e_0_energy">   -191.48343791 </i>
   </energy>
  </scstep>
  <scstep>
   <time name="dav">   31.55   31.63</time>
   <time name="total">   32.15   32.23</time>
   <energy>
    <i name="e_fr_energy">   -191.41689005 </i>
    <i name="e_wo_entrp">   -191.23298848 </i>
    <i name="e_0_energy">   -191.32493926 </i>
   </energy>
  </scstep>
  <scstep>
   <time name="dav">   31.82   31.90</time>
   <time name="total">   32.41   32.50</time>
   <energy>
    <i name="e_fr_energy">   -191.36389371 </i>
    <i name="e_wo_entrp">   -191.17120015 </i>
    <i name="e_0_energy">   -191.26754693 </i>
   </energy>
  </scstep>
  <scstep>
   <time name="dav">   31.50   31.58</time>
   <time name="total">   32.10   32.18</time>
   <energy>
    <i name="e_fr_energy">   -191.34661305 </i>
    <i name="e_wo_entrp">   -191.16001256 </i>
    <i name="e_0_energy">   -191.25331281 </i>
   </energy>
  </scstep>
  <scstep>
   <time name="dav">   28.03   28.09</time>
   <time name="total">   28.62   28.70</time>
   <energy>
    <i name="e_fr_energy">   -191.33992271 </i>
    <i name="e_wo_entrp">   -191.15197399 </i>
    <i name="e_0_energy">   -191.24594835 </i>
   </energy>
  </scstep>
  <scstep>
   <time name="dav">   31.81   31.89</time>
   <time name="total">   32.40   32.49</time>
   <energy>
    <i name="e_fr_energy">   -191.34142485 </i>
    <i name="e_wo_entrp">   -191.15320032 </i>
    <i name="e_0_energy">   -191.24731259 </i>
   </energy>
  </scstep>
  <scstep>
   <time name="dav">   30.15   30.22</time>
   <time name="total">   30.74   30.82</time>
   <energy>
    <i name="e_fr_energy">   -191.34025364 </i>
    <i name="e_wo_entrp">   -191.15204844 </i>
    <i name="e_0_energy">   -191.24615104 </i>
   </energy>
  </scstep>
  <scstep>
   <time name="dav">   26.98   27.05</time>
   <time name="total">   27.58   27.65</time>
   <energy>
    <i name="e_fr_energy">   -191.34008169 </i>
    <i name="e_wo_entrp">   -191.15182382 </i>
    <i name="e_0_energy">   -191.24595276 </i>
   </energy>
  </scstep>
  <scstep>
   <time name="dav">   21.65   21.70</time>
   <time name="total">   21.69   21.75</time>
   <energy>
    <i name="alphaZ">     90.30953777 </i>
    <i name="ewald">  44733.78849451 </i>
    <i name="hartreedc"> -50743.44537642 </i>
    <i name="XCdc">   -233.30524487 </i>
    <i name="pawpsdc">   4086.56243735 </i>
    <i name="pawaedc">  -3502.52816418 </i>
    <i name="eentropy">     -0.18821841 </i>
    <i name="bandstr">  -1383.97603735 </i>
    <i name="atom">   6761.44252427 </i>
    <i name="e_fr_energy">   -191.34004733 </i>
    <i name="e_wo_entrp">   -191.15182891 </i>
    <i name="e_0_energy">   -191.24593812 </i>
   </energy>
  </scstep>
  <structure>
   <crystal>
    <varray name="basis" >
     <v>       8.27838506       4.77202646       0.00000000 </v>
     <v>      -8.27888970       4.77292065       0.00000000 </v>
     <v>       0.00000000       0.00000000      30.00000000 </v>
    </varray>
    <i name="volume">   2370.57467259 </i>
    <varray name="rec_basis" >
     <v>       0.06040207       0.10477067       0.00000000 </v>
     <v>      -0.06039075       0.10476428       0.00000000 </v>
     <v>       0.00000000       0.00000000       0.03333333 </v>
    </varray>
   </crystal>
   <varray name="positions" >
    <v>       0.33079797       0.00449769       0.00004135 </v>
    <v>       0.66334828       0.32931328       0.00041314 </v>
    <v>       1.00018641       0.32358152      -0.00006689 </v>
    <v>       0.67061632      -0.01050428      -0.00020735 </v>
    <v>       0.32689283       0.33087193       0.00032532 </v>
    <v>      -0.00364296       0.00035160      -0.00005257 </v>
    <v>      -0.00204902       0.67417910      -0.00012860 </v>
    <v>       0.34614634       0.66717438      -0.00029176 </v>
    <v>       0.66567660       0.67786898       0.00001479 </v>
    <v>       0.10713678       0.22533675       0.94759269 </v>
    <v>       0.22519230       0.10754505       0.05158665 </v>
    <v>       0.10831374       0.55016742       0.95065247 </v>
    <v>       0.21535380       0.44215937       0.05171228 </v>
    <v>       0.11761541       0.89254238       0.94813551 </v>
    <v>       0.22569067       0.78344136       0.05032805 </v>
    <v>       0.44705746       0.21887585       0.94963135 </v>
    <v>       0.55296457       0.11342198       0.04926845 </v>
    <v>       0.44531542       0.55560672       0.94683452 </v>
    <v>       0.55930549       0.44264397       0.05035851 </v>
    <v>       0.44108986       0.89147896       0.94924052 </v>
    <v>       0.55525141       0.77701176       0.05461244 </v>
    <v>       0.78066113       0.22758080       0.95051895 </v>
    <v>       0.89226687       0.11800166       0.05252289 </v>
    <v>       0.77425589       0.55019040       0.94944599 </v>
    <v>       0.88661233       0.43937781       0.04886741 </v>
    <v>       0.77813093       0.88798703       0.94545941 </v>
    <v>       0.88802763       0.77751100       0.05318439 </v>
   </varray>
  </structure>
  <varray name="forces" >
   <v>      -0.38876178      -0.06435496       0.01463406 </v>
   <v>       0.10013166      -0.05031320       0.05433444 </v>
   <v>       0.28269615      -0.19470280      -0.01064671 </v>
   <v>       0.27449022      -0.11796810       0.01617062 </v>
   <v>      -0.10241193      -0.14940283      -0.02250283 </v>
   <v>       0.07131061      -0.05492491      -0.03370102 </v>
   <v>      -0.51400826       0.01191885      -0.04210572 </v>
   <v>       0.42527068       0.28126358       0.04795680 </v>
   <v>      -0.20204707       0.19820177      -0.06015987 </v>
   <v>       0.05467968      -0.05843536      -0.13502553 </v>
   <v>      -0.13273998      -0.01845257       0.12037558 </v>
   <v>      -0.00505276       0.13964797       0.30468136 </v>
   <v>      -0.02316902       0.05625190       0.06684847 </v>
   <v>      -0.11764810       0.05147920      -0.15024088 </v>
   <v>       0.08258458      -0.01014989      -0.17511548 </v>
   <v>      -0.08934940      -0.02160560      -0.04274787 </v>
   <v>       0.18340839      -0.05379221      -0.07771543 </v>
   <v>       0.17043413       0.01398092      -0.16810429 </v>
   <v>      -0.17178917       0.04979498      -0.11662858 </v>
   <v>       0.12702689       0.08415754       0.06924662 </v>
   <v>       0.01165980       0.02858438       0.37122921 </v>
   <v>       0.13871444      -0.15333873       0.00373327 </v>
   <v>       0.05234904      -0.11002559       0.13448160 </v>
   <v>      -0.16941820       0.01356708       0.01063941 </v>
   <v>       0.01004148       0.07074181      -0.09107613 </v>
   <v>       0.05711568       0.07505793      -0.29527429 </v>
   <v>      -0.12551777      -0.01718119       0.20671322 </v>
  </varray>
  <varray name="stress" >
   <v>       0.39182627      -0.07671960      -0.31374393 </v>
   <v>      -0.07671958      -0.07699170      -0.16475682 </v>
   <v>      -0.31374383      -0.16475674      -0.23830420 </v>
  </varray>
  <energy>
   <i name="e_fr_energy">   -191.34004733 </i>
   <i name="e_wo_entrp">   -191.24593812 </i>
   <i name="e_0_energy">     -0.18821841 </i>
  </energy>
  <time name="totalsc">  400.41  401.45</time>
 </calculation>
 <calculation>
  <scstep>
   <time name="dav">   22.56   22.62</time>
   <time name="total">   23.16   23.22</time>
   <energy>
    <i name="alphaZ">     90.17101978 </i>
    <i name="ewald">  44651.72526380 </i>
    <i name="hartreedc"> -50660.55130178 </i>
    <i name="XCdc">   -233.48063138 </i>
    <i name="pawpsdc">   4086.45104734 </i>
    <i name="pawaedc">  -3502.41155567 </i>
    <i name="eentropy">     -0.19001721 </i>
    <i name="bandstr">  -1384.57113780 </i>
    <i name="atom">   6761.44252427 </i>
    <i name="e_fr_energy">   -191.41478865 </i>
    <i name="e_wo_entrp">   -191.22477144 </i>
    <i name="e_0_energy">   -191.31978004 </i>
   </energy>
  </scstep>
  <scstep>
   <time name="dav">   34.33   34.41</time>
   <time name="total">   34.92   35.01</time>
   <energy>
    <i name="e_fr_energy">   -191.47659153 </i>
    <i name="e_wo_entrp">   -191.27647530 </i>
    <i name="e_0_energy">   -191.37653341 </i>
   </energy>
  </scstep>
  <scstep>
   <time name="dav">   31.71   31.79</time>
   <time name="total">   32.30   32.39</time>
   <energy>
    <i name="e_fr_energy">   -191.42605855 </i>
    <i name="e_wo_entrp">   -191.23536512 </i>
    <i name="e_0_energy">   -191.33071183 </i>
   </energy>
  </scstep>
  <scstep>
   <time name="dav">   30.05   30.13</time>
   <time name="total">   30.65   30.73</time>
   <energy>
    <i name="e_fr_energy">   -191.42713710 </i>
    <i name="e_wo_entrp">   -191.23531086 </i>
    <i name="e_0_energy">   -191.33122398 </i>
   </energy>
  </scstep>
  <scstep>
   <time name="dav">   31.05   31.12</time>
   <time name="total">   31.64   31.72</time>
   <energy>
    <i name="e_fr_energy">   -191.42284939 </i>
    <i name="e_wo_entrp">   -191.23103338 </i>
    <i name="e_0_energy">   -191.32694139 </i>
   </energy>
  </scstep>
  <scstep>
   <time name="dav">   28.57   28.64</time>
   <time name="total">   29.16   29.24</time>
   <energy>
    <i name="e_fr_energy">   -191.42253011 </i>
    <i name="e_wo_entrp">   -191.23069440 </i>
    <i name="e_0_energy">   -191.32661225 </i>
   </energy>
  </scstep>
  <scstep>
   <time name="dav">   27.35   27.41</time>
   <time name="total">   27.94   28.01</time>
   <energy>
    <i name="e_fr_energy">   -191.42227890 </i>
    <i name="e_wo_entrp">   -191.23044665 </i>
    <i name="e_0_energy">   -191.32636278 </i>
   </energy>
  </scstep>
  <scstep>
   <time name="dav">   19.98   20.02</time>
   <time name="total">   20.01   20.07</time>
   <energy>
    <i name="alphaZ">     90.17101978 </i>
    <i name="ewald">  44651.72526380 </i>
    <i name="hartreedc"> -50662.60086894 </i>
    <i name="XCdc">   -233.40854520 </i>
    <i name="pawpsdc">   4083.34568311 </i>
    <i name="pawaedc">  -3499.26038271 </i>
    <i name="eentropy">     -0.19168574 </i>
    <i name="bandstr">  -1382.64522676 </i>
    <i name="atom">   6761.44252427 </i>
    <i name="e_fr_energy">   -191.42221838 </i>
    <i name="e_wo_entrp">   -191.23053264 </i>
    <i name="e_0_energy">   -191.32637551 </i>
   </energy>
  </scstep>
  <structure>
   <crystal>
    <varray name="basis" >
     <v>       8.28866531       4.77131900       0.00000000 </v>
     <v>      -8.29099765       4.77538259       0.00000000 </v>
     <v>       0.00000000       0.00000000      30.00000000 </v>
    </varray>
    <i name="volume">   2374.21627760 </i>
    <varray name="rec_basis" >
     <v>       0.06034053       0.10476296       0.00000000 </v>
     <v>      -0.06028919       0.10473349       0.00000000 </v>
     <v>       0.00000000       0.00000000       0.03333333 </v>
    </varray>
   </crystal>
   <varray name="positions" >
    <v>       0.32945327       0.00523614       0.00005919 </v>
    <v>       0.66341283       0.32881934       0.00049172 </v>
    <v>       1.00002132       0.32195346      -0.00007850 </v>
    <v>       0.67077855      -0.01166784      -0.00018108 </v>
    <v>       0.32595832       0.33044468       0.00028686 </v>
    <v>      -0.00365157      -0.00008714      -0.00010711 </v>
    <v>      -0.00339385       0.67557526      -0.00019066 </v>
    <v>       0.34851552       0.66733916      -0.00021171 </v>
    <v>       0.66608596       0.67923943      -0.00007733 </v>
    <v>       0.10702773       0.22489043       0.94745431 </v>
    <v>       0.22472590       0.10784077       0.05171309 </v>
    <v>       0.10899073       0.55088749       0.95114779 </v>
    <v>       0.21560244       0.44251591       0.05175474 </v>
    <v>       0.11749600       0.89307162       0.94796704 </v>
    <v>       0.22584045       0.78312202       0.05001891 </v>
    <v>       0.44669499       0.21903116       0.94962233 </v>
    <v>       0.55321906       0.11265018       0.04910794 </v>
    <v>       0.44585554       0.55522044       0.94664071 </v>
    <v>       0.55905889       0.44337440       0.05013667 </v>
    <v>       0.44184769       0.89150483       0.94939530 </v>
    <v>       0.55541213       0.77710211       0.05509798 </v>
    <v>       0.78029279       0.22644157       0.95056938 </v>
    <v>       0.89186582       0.11729446       0.05265934 </v>
    <v>       0.77387835       0.55075883       0.94950585 </v>
    <v>       0.88699662       0.43972154       0.04868993 </v>
    <v>       0.77863450       0.88817894       0.94509014 </v>
    <v>       0.88759450       0.77775528       0.05343706 </v>
   </varray>
  </structure>
  <varray name="forces" >
   <v>      -0.42101691      -0.04765271       0.02206843 </v>
   <v>       0.15276670      -0.06150751       0.10003714 </v>
   <v>       0.29754035      -0.25247267      -0.00124755 </v>
   <v>       0.32119446      -0.09639412       0.00298749 </v>
   <v>      -0.12103576      -0.17962157      -0.00321753 </v>
   <v>       0.08601618      -0.03370405      -0.01118692 </v>
   <v>      -0.61090705      -0.01648156      -0.02712384 </v>
   <v>       0.50514057       0.30137353       0.00037800 </v>
   <v>      -0.22542683       0.23273156      -0.01301917 </v>
   <v>       0.02280760      -0.04684855      -0.13226396 </v>
   <v>      -0.09289793      -0.00793870       0.11308921 </v>
   <v>      -0.03261390       0.11481595       0.37188338 </v>
   <v>      -0.01974569       0.02926065       0.03554724 </v>
   <v>      -0.07799058       0.04264702      -0.16470648 </v>
   <v>       0.05378370      -0.02326834      -0.22278855 </v>
   <v>      -0.05483309      -0.01898612      -0.02221265 </v>
   <v>       0.11018784      -0.05386637      -0.10643600 </v>
   <v>       0.12002108       0.01776671      -0.10350238 </v>
   <v>      -0.10991752       0.03903601      -0.16503815 </v>
   <v>       0.07596143       0.04149148       0.11215373 </v>
   <v>       0.04446609       0.03232668       0.27503284 </v>
   <v>       0.09259255      -0.09158929       0.01121177 </v>
   <v>       0.05167778      -0.05678102       0.11452831 </v>
   <v>      -0.11392349       0.00044419      -0.01691286 </v>
   <v>       0.00839014       0.07115054      -0.13938854 </v>
   <v>       0.03459187       0.06865888      -0.22128474 </v>
   <v>      -0.09682956      -0.00459063       0.19141176 </v>
  </varray>
  <varray name="stress" >
   <v>      -0.12724567       0.01029639      -0.12940796 </v>
   <v>       0.01029636      -0.25740020      -0.11035325 </v>
   <v>      -0.12940806      -0.11035309      -0.92142990 </v>
  </varray>
  <energy>
   <i name="e_fr_energy">   -191.42221838 </i>
   <i name="e_wo_entrp">   -191.32637551 </i>
   <i name="e_0_energy">     -0.19168574 </i>
  </energy>
  <time name="totalsc">  273.58  274.30</time>
 </calculation>
 <calculation>
  <scstep>
   <time name="dav">   22.75   22.81</time>
   <time name="total">   23.35   23.41</time>
   <energy>
    <i name="alphaZ">     90.18025975 </i>
    <i name="ewald">  44655.57393415 </i>
    <i name="hartreedc"> -50666.58444512 </i>
    <i name="XCdc">   -233.40421006 </i>
    <i name="pawpsdc">   4083.27561442 </i>
    <i name="pawaedc">  -3499.18930093 </i>
    <i name="eentropy">     -0.19160904 </i>
    <i name="bandstr">  -1382.53277860 </i>
    <i name="atom">   6761.44252427 </i>
    <i name="e_fr_energy">   -191.43001117 </i>
    <i name="e_wo_entrp">   -191.23840212 </i>
    <i name="e_0_energy">   -191.33420664 </i>
   </energy>
  </scstep>
  <scstep>
   <time name="dav">   32.15   32.22</time>
   <time name="total">   32.74   32.83</time>
   <energy>
    <i name="e_fr_energy">   -191.43078940 </i>
    <i name="e_wo_entrp">   -191.23832845 </i>
    <i name="e_0_energy">   -191.33455892 </i>
   </energy>
  </scstep>
  <scstep>
   <time name="dav">   26.00   26.07</time>
   <time name="total">   26.59   26.67</time>
   <energy>
    <i name="e_fr_energy">   -191.43006303 </i>
    <i name="e_wo_entrp">   -191.23830695 </i>
    <i name="e_0_energy">   -191.33418499 </i>
   </energy>
  </scstep>
  <scstep>
   <time name="dav">   18.24   18.28</time>
   <time name="total">   18.28   18.33</time>
   <energy>
    <i name="alphaZ">     90.18025975 </i>
    <i name="ewald">  44655.57393415 </i>
    <i name="hartreedc"> -50666.67926588 </i>
    <i name="XCdc">   -233.40519410 </i>
    <i name="pawpsdc">   4083.12470615 </i>
    <i name="pawaedc">  -3499.03932084 </i>
    <i name="eentropy">     -0.19163705 </i>
    <i name="bandstr">  -1382.43611030 </i>
    <i name="atom">   6761.44252427 </i>
    <i name="e_fr_energy">   -191.43010384 </i>
    <i name="e_wo_entrp">   -191.23846679 </i>
    <i name="e_0_energy">   -191.33428531 </i>
   </energy>
  </scstep>
  <structure>
   <crystal>
    <varray name="basis" >
     <v>       8.28836878       4.77101959       0.00000000 </v>
     <v>      -8.29068478       4.77505469       0.00000000 </v>
     <v>       0.00000000       0.00000000      30.00000000 </v>
    </varray>
    <i name="volume">   2373.97301278 </i>
    <varray name="rec_basis" >
     <v>       0.06034257       0.10476974       0.00000000 </v>
     <v>      -0.06029158       0.10474048       0.00000000 </v>
     <v>       0.00000000       0.00000000       0.03333333 </v>
    </varray>
   </crystal>
   <varray name="positions" >
    <v>       0.32933661       0.00531416       0.00006212 </v>
    <v>       0.66342219       0.32875948       0.00050439 </v>
[...]
      <set comment="kpoint 31">
       <r>  -17.5820    1.0000 </r>
       <r>  -17.2152    1.0000 </r>
       <r>  -16.9228    1.0000 </r>
       <r>  -16.6451    1.0000 </r>
       <r>  -16.5152    1.0000 </r>
       <r>  -16.4782    1.0000 </r>
       <r>  -16.2963    1.0000 </r>
       <r>  -16.2230    1.0000 </r>
       <r>  -16.1278    1.0000 </r>
       <r>  -16.0318    1.0000 </r>
       <r>  -15.9378    1.0000 </r>
       <r>  -15.8838    1.0000 </r>
       <r>  -15.7748    1.0000 </r>
       <r>  -15.6467    1.0000 </r>
       <r>  -15.5716    1.0000 </r>
       <r>  -15.4898    1.0000 </r>
       <r>  -15.3902    1.0000 </r>
       <r>  -15.2534    1.0000 </r>
       <r>   -9.7814    1.0000 </r>
       <r>   -9.5166    1.0000 </r>
       <r>   -9.2920    1.0000 </r>
       <r>   -9.0321    1.0000 </r>
       <r>   -8.8700    1.0000 </r>
       <r>   -8.7198    1.0000 </r>
       <r>   -8.5566    1.0000 </r>
       <r>   -8.5079    1.0000 </r>
       <r>   -8.4020    1.0000 </r>
       <r>   -8.3778    1.0000 </r>
       <r>   -8.2777    1.0000 </r>
       <r>   -8.1970    1.0000 </r>
       <r>   -8.1482    1.0000 </r>
       <r>   -8.0491    1.0000 </r>
       <r>   -7.9464    1.0000 </r>
       <r>   -7.9199    1.0000 </r>
       <r>   -7.7900    1.0000 </r>
       <r>   -7.6791    1.0000 </r>
       <r>   -7.5616    1.0000 </r>
       <r>   -7.4788    1.0000 </r>
       <r>   -7.3575    1.0000 </r>
       <r>   -7.2595    1.0000 </r>
       <r>   -7.1578    1.0000 </r>
       <r>   -7.0524    1.0000 </r>
       <r>   -7.0124    1.0000 </r>
       <r>   -6.9512    1.0000 </r>
       <r>   -6.8856    1.0000 </r>
       <r>   -6.8125    1.0000 </r>
       <r>   -6.6873    1.0000 </r>
       <r>   -6.5832    1.0000 </r>
       <r>   -6.5564    1.0000 </r>
       <r>   -6.4559    1.0000 </r>
       <r>   -6.3845    1.0000 </r>
       <r>   -6.3530    1.0000 </r>
       <r>   -6.2340    1.0000 </r>
       <r>   -6.1984    1.0000 </r>
       <r>   -6.0864    1.0000 </r>
       <r>   -6.0344    1.0000 </r>
       <r>   -5.9676    1.0000 </r>
       <r>   -5.9277    1.0000 </r>
       <r>   -5.8453    1.0000 </r>
       <r>   -5.8096    1.0000 </r>
       <r>   -5.6908    1.0000 </r>
       <r>   -5.6109    1.0000 </r>
       <r>   -5.5210    1.0000 </r>
       <r>   -5.3856    1.0000 </r>
       <r>   -5.3432    1.0000 </r>
       <r>   -5.1740    1.0000 </r>
       <r>   -5.0564    1.0000 </r>
       <r>   -4.8670    1.0000 </r>
       <r>   -4.7823    1.0000 </r>
       <r>   -4.6623    1.0000 </r>
       <r>   -4.5771    1.0000 </r>
       <r>   -4.4308    1.0000 </r>
       <r>   -4.2947    1.0000 </r>
       <r>   -4.1875    1.0000 </r>
       <r>   -4.0641    1.0000 </r>
       <r>   -3.9171    1.0000 </r>
       <r>   -3.7285    0.9984 </r>
       <r>   -3.6662    0.9939 </r>
       <r>   -3.6158    0.9842 </r>
       <r>   -3.4631    0.8576 </r>
       <r>   -2.9238    0.0030 </r>
       <r>   -2.8065    0.0002 </r>
       <r>   -2.7005    0.0000 </r>
       <r>   -2.6600    0.0000 </r>
       <r>   -2.5624    0.0000 </r>
       <r>   -2.4646    0.0000 </r>
       <r>   -2.3115    0.0000 </r>
       <r>   -2.1287    0.0000 </r>
       <r>   -1.9883    0.0000 </r>
       <r>   -1.8271    0.0000 </r>
       <r>   -1.5908    0.0000 </r>
       <r>   -1.5168    0.0000 </r>
       <r>   -1.4090    0.0000 </r>
       <r>   -1.3640    0.0000 </r>
       <r>   -1.3045    0.0000 </r>
       <r>   -1.2172    0.0000 </r>
       <r>   -1.1423    0.0000 </r>
       <r>   -1.0714    0.0000 </r>
       <r>   -1.0005    0.0000 </r>
       <r>   -0.8784    0.0000 </r>
       <r>   -0.7989    0.0000 </r>
       <r>   -0.7801    0.0000 </r>
       <r>   -0.6689    0.0000 </r>
       <r>   -0.5365    0.0000 </r>
       <r>   -0.5165    0.0000 </r>
       <r>   -0.2529    0.0000 </r>
       <r>   -0.1527    0.0000 </r>
       <r>   -0.1120    0.0000 </r>
       <r>    0.0255    0.0000 </r>
       <r>    0.1163    0.0000 </r>
       <r>    0.4163    0.0000 </r>
       <r>    0.5747    0.0000 </r>
       <r>    0.8301    0.0000 </r>
       <r>    0.8977    0.0000 </r>
       <r>    1.0956    0.0000 </r>
       <r>    1.2340    0.0000 </r>
       <r>    1.3424    0.0000 </r>
       <r>    2.1316    0.0000 </r>
       <r>    2.2932    0.0000 </r>
       <r>    2.3973    0.0000 </r>
      </set>
      <set comment="kpoint 32">
       <r>  -17.5825    1.0000 </r>
       <r>  -17.1487    1.0000 </r>
       <r>  -17.0477    1.0000 </r>
       <r>  -16.6523    1.0000 </r>
       <r>  -16.4782    1.0000 </r>
       <r>  -16.3819    1.0000 </r>
       <r>  -16.2749    1.0000 </r>
       <r>  -16.2413    1.0000 </r>
       <r>  -16.1573    1.0000 </r>
       <r>  -16.0491    1.0000 </r>
       <r>  -15.9506    1.0000 </r>
       <r>  -15.8878    1.0000 </r>
       <r>  -15.7773    1.0000 </r>
       <r>  -15.6555    1.0000 </r>
       <r>  -15.5880    1.0000 </r>
       <r>  -15.4974    1.0000 </r>
       <r>  -15.3908    1.0000 </r>
       <r>  -15.2251    1.0000 </r>
       <r>   -9.6683    1.0000 </r>
       <r>   -9.6444    1.0000 </r>
       <r>   -9.3913    1.0000 </r>
       <r>   -9.0284    1.0000 </r>
       <r>   -8.7631    1.0000 </r>
       <r>   -8.5656    1.0000 </r>
       <r>   -8.5047    1.0000 </r>
       <r>   -8.4723    1.0000 </r>
       <r>   -8.4089    1.0000 </r>
       <r>   -8.3428    1.0000 </r>
       <r>   -8.3077    1.0000 </r>
       <r>   -8.2476    1.0000 </r>
       <r>   -8.2145    1.0000 </r>
       <r>   -8.1521    1.0000 </r>
       <r>   -8.0386    1.0000 </r>
       <r>   -7.9224    1.0000 </r>
       <r>   -7.8223    1.0000 </r>
       <r>   -7.6354    1.0000 </r>
       <r>   -7.4712    1.0000 </r>
       <r>   -7.4513    1.0000 </r>
       <r>   -7.3960    1.0000 </r>
       <r>   -7.2678    1.0000 </r>
       <r>   -7.1212    1.0000 </r>
       <r>   -7.0762    1.0000 </r>
       <r>   -7.0115    1.0000 </r>
       <r>   -6.9725    1.0000 </r>
       <r>   -6.9376    1.0000 </r>
       <r>   -6.8354    1.0000 </r>
       <r>   -6.7088    1.0000 </r>
       <r>   -6.5808    1.0000 </r>
       <r>   -6.5338    1.0000 </r>
       <r>   -6.4116    1.0000 </r>
       <r>   -6.3558    1.0000 </r>
       <r>   -6.3395    1.0000 </r>
       <r>   -6.2965    1.0000 </r>
       <r>   -6.2083    1.0000 </r>
       <r>   -6.1001    1.0000 </r>
       <r>   -5.9778    1.0000 </r>
       <r>   -5.9637    1.0000 </r>
       <r>   -5.9098    1.0000 </r>
       <r>   -5.8273    1.0000 </r>
       <r>   -5.7260    1.0000 </r>
       <r>   -5.6685    1.0000 </r>
       <r>   -5.6183    1.0000 </r>
       <r>   -5.5155    1.0000 </r>
       <r>   -5.4378    1.0000 </r>
       <r>   -5.3327    1.0000 </r>
       <r>   -5.2536    1.0000 </r>
       <r>   -5.0773    1.0000 </r>
       <r>   -4.9725    1.0000 </r>
       <r>   -4.7668    1.0000 </r>
       <r>   -4.5663    1.0000 </r>
       <r>   -4.5132    1.0000 </r>
       <r>   -4.4459    1.0000 </r>
       <r>   -4.3002    1.0000 </r>
       <r>   -4.2366    1.0000 </r>
       <r>   -4.0833    1.0000 </r>
       <r>   -4.0016    1.0000 </r>
       <r>   -3.8044    0.9998 </r>
       <r>   -3.6633    0.9935 </r>
       <r>   -3.5472    0.9520 </r>
       <r>   -3.3238    0.5336 </r>
       <r>   -2.9673    0.0074 </r>
       <r>   -2.7569    0.0000 </r>
       <r>   -2.6989    0.0000 </r>
       <r>   -2.6265    0.0000 </r>
       <r>   -2.5088    0.0000 </r>
       <r>   -2.4912    0.0000 </r>
       <r>   -2.2640    0.0000 </r>
       <r>   -2.1280    0.0000 </r>
       <r>   -1.9705    0.0000 </r>
       <r>   -1.8970    0.0000 </r>
       <r>   -1.5991    0.0000 </r>
       <r>   -1.5657    0.0000 </r>
       <r>   -1.5010    0.0000 </r>
       <r>   -1.3642    0.0000 </r>
       <r>   -1.3293    0.0000 </r>
       <r>   -1.2085    0.0000 </r>
       <r>   -1.1066    0.0000 </r>
       <r>   -1.0442    0.0000 </r>
       <r>   -0.9997    0.0000 </r>
       <r>   -0.9404    0.0000 </r>
       <r>   -0.8244    0.0000 </r>
       <r>   -0.7724    0.0000 </r>
       <r>   -0.6170    0.0000 </r>
       <r>   -0.5035    0.0000 </r>
       <r>   -0.4521    0.0000 </r>
       <r>   -0.2451    0.0000 </r>
       <r>   -0.1526    0.0000 </r>
       <r>   -0.0829    0.0000 </r>
       <r>    0.0317    0.0000 </r>
       <r>    0.1737    0.0000 </r>
       <r>    0.4443    0.0000 </r>
       <r>    0.5027    0.0000 </r>
       <r>    0.7700    0.0000 </r>
       <r>    0.8882    0.0000 </r>
       <r>    1.0753    0.0000 </r>
       <r>    1.1984    0.0000 </r>
       <r>    1.3166    0.0000 </r>
       <r>    2.0955    0.0000 </r>
       <r>    2.2655    0.0000 </r>
       <r>    2.5686    0.0000 </r>
      </set>
      <set comment="kpoint 33">
       <r>  -17.5628    1.0000 </r>
       <r>  -17.2633    1.0000 </r>
       <r>  -16.9015    1.0000 </r>
       <r>  -16.6603    1.0000 </r>
       <r>  -16.4885    1.0000 </r>
       <r>  -16.4316    1.0000 </r>
       <r>  -16.3512    1.0000 </r>
       <r>  -16.2362    1.0000 </r>
       <r>  -16.0969    1.0000 </r>
       <r>  -16.0040    1.0000 </r>
       <r>  -15.9389    1.0000 </r>
       <r>  -15.8654    1.0000 </r>
       <r>  -15.7785    1.0000 </r>
       <r>  -15.6854    1.0000 </r>
       <r>  -15.6132    1.0000 </r>
       <r>  -15.5079    1.0000 </r>
       <r>  -15.3825    1.0000 </r>
       <r>  -15.2198    1.0000 </r>
       <r>   -9.7672    1.0000 </r>
       <r>   -9.4548    1.0000 </r>
       <r>   -9.3649    1.0000 </r>
       <r>   -9.0564    1.0000 </r>
       <r>   -8.8839    1.0000 </r>
       <r>   -8.7152    1.0000 </r>
       <r>   -8.4955    1.0000 </r>
       <r>   -8.4636    1.0000 </r>
       <r>   -8.4020    1.0000 </r>
       <r>   -8.3409    1.0000 </r>
       <r>   -8.2818    1.0000 </r>
       <r>   -8.2446    1.0000 </r>
       <r>   -8.2084    1.0000 </r>
       <r>   -8.0837    1.0000 </r>
       <r>   -7.9861    1.0000 </r>
       <r>   -7.8871    1.0000 </r>
       <r>   -7.8076    1.0000 </r>
       <r>   -7.6321    1.0000 </r>
       <r>   -7.5596    1.0000 </r>
       <r>   -7.3995    1.0000 </r>
       <r>   -7.3303    1.0000 </r>
       <r>   -7.2552    1.0000 </r>
       <r>   -7.1731    1.0000 </r>
       <r>   -7.0669    1.0000 </r>
       <r>   -7.0104    1.0000 </r>
       <r>   -6.9846    1.0000 </r>
       <r>   -6.8798    1.0000 </r>
       <r>   -6.8089    1.0000 </r>
       <r>   -6.6860    1.0000 </r>
       <r>   -6.6144    1.0000 </r>
       <r>   -6.5508    1.0000 </r>
       <r>   -6.4397    1.0000 </r>
       <r>   -6.3860    1.0000 </r>
       <r>   -6.3458    1.0000 </r>
       <r>   -6.2921    1.0000 </r>
       <r>   -6.1549    1.0000 </r>
       <r>   -6.1156    1.0000 </r>
       <r>   -6.0132    1.0000 </r>
       <r>   -5.9764    1.0000 </r>
       <r>   -5.9346    1.0000 </r>
       <r>   -5.9025    1.0000 </r>
       <r>   -5.7870    1.0000 </r>
       <r>   -5.7290    1.0000 </r>
       <r>   -5.6168    1.0000 </r>
       <r>   -5.5662    1.0000 </r>
       <r>   -5.4278    1.0000 </r>
       <r>   -5.2912    1.0000 </r>
       <r>   -5.1817    1.0000 </r>
       <r>   -5.0066    1.0000 </r>
       <r>   -4.8739    1.0000 </r>
       <r>   -4.7675    1.0000 </r>
       <r>   -4.6517    1.0000 </r>
       <r>   -4.4655    1.0000 </r>
       <r>   -4.3745    1.0000 </r>
       <r>   -4.3057    1.0000 </r>
       <r>   -4.2310    1.0000 </r>
       <r>   -4.1157    1.0000 </r>
       <r>   -4.0548    1.0000 </r>
       <r>   -3.8934    1.0000 </r>
       <r>   -3.6750    0.9949 </r>
       <r>   -3.5381    0.9452 </r>
       <r>   -3.2056    0.2261 </r>
       <r>   -3.0322    0.0240 </r>
       <r>   -2.7442    0.0000 </r>
       <r>   -2.6966    0.0000 </r>
       <r>   -2.5567    0.0000 </r>
       <r>   -2.4868    0.0000 </r>
       <r>   -2.4254    0.0000 </r>
       <r>   -2.2582    0.0000 </r>
       <r>   -2.1249    0.0000 </r>
       <r>   -2.0023    0.0000 </r>
       <r>   -1.8598    0.0000 </r>
       <r>   -1.6723    0.0000 </r>
       <r>   -1.6138    0.0000 </r>
       <r>   -1.5532    0.0000 </r>
       <r>   -1.3676    0.0000 </r>
       <r>   -1.3469    0.0000 </r>
       <r>   -1.2037    0.0000 </r>
       <r>   -1.1196    0.0000 </r>
       <r>   -1.0556    0.0000 </r>
       <r>   -0.9672    0.0000 </r>
       <r>   -0.9493    0.0000 </r>
       <r>   -0.8370    0.0000 </r>
       <r>   -0.7371    0.0000 </r>
       <r>   -0.6192    0.0000 </r>
       <r>   -0.4630    0.0000 </r>
       <r>   -0.3943    0.0000 </r>
       <r>   -0.2961    0.0000 </r>
       <r>   -0.2326    0.0000 </r>
       <r>   -0.0630    0.0000 </r>
       <r>    0.0713    0.0000 </r>
       <r>    0.2573    0.0000 </r>
       <r>    0.4571    0.0000 </r>
       <r>    0.5179    0.0000 </r>
       <r>    0.7347    0.0000 </r>
       <r>    0.8305    0.0000 </r>
       <r>    1.0178    0.0000 </r>
       <r>    1.2175    0.0000 </r>
       <r>    1.3625    0.0000 </r>
       <r>    2.1200    0.0000 </r>
       <r>    2.2964    0.0000 </r>
       <r>    2.3901    0.0000 </r>
      </set>
      <set comment="kpoint 34">
       <r>  -17.5444    1.0000 </r>
       <r>  -17.3216    1.0000 </r>
       <r>  -16.7413    1.0000 </r>
       <r>  -16.6953    1.0000 </r>
       <r>  -16.6010    1.0000 </r>
       <r>  -16.4492    1.0000 </r>
       <r>  -16.3480    1.0000 </r>
       <r>  -16.2460    1.0000 </r>
       <r>  -16.0698    1.0000 </r>
       <r>  -16.0060    1.0000 </r>
       <r>  -15.8936    1.0000 </r>
       <r>  -15.8395    1.0000 </r>
       <r>  -15.7753    1.0000 </r>
       <r>  -15.6991    1.0000 </r>
       <r>  -15.6491    1.0000 </r>
       <r>  -15.5091    1.0000 </r>
       <r>  -15.3776    1.0000 </r>
       <r>  -15.2231    1.0000 </r>
       <r>   -9.8042    1.0000 </r>
       <r>   -9.3332    1.0000 </r>
       <r>   -9.2523    1.0000 </r>
       <r>   -9.1451    1.0000 </r>
       <r>   -8.9697    1.0000 </r>
       <r>   -8.8602    1.0000 </r>
       <r>   -8.5060    1.0000 </r>
       <r>   -8.4594    1.0000 </r>
       <r>   -8.4070    1.0000 </r>
       <r>   -8.3601    1.0000 </r>
       <r>   -8.2910    1.0000 </r>
       <r>   -8.2188    1.0000 </r>
       <r>   -8.1425    1.0000 </r>
       <r>   -8.0471    1.0000 </r>
       <r>   -7.9756    1.0000 </r>
       <r>   -7.8165    1.0000 </r>
       <r>   -7.7991    1.0000 </r>
       <r>   -7.7056    1.0000 </r>
       <r>   -7.4571    1.0000 </r>
       <r>   -7.4099    1.0000 </r>
       <r>   -7.3241    1.0000 </r>
       <r>   -7.2855    1.0000 </r>
       <r>   -7.1326    1.0000 </r>
       <r>   -7.1091    1.0000 </r>
       <r>   -7.0109    1.0000 </r>
       <r>   -6.9612    1.0000 </r>
       <r>   -6.8880    1.0000 </r>
       <r>   -6.8263    1.0000 </r>
       <r>   -6.6480    1.0000 </r>
       <r>   -6.5926    1.0000 </r>
       <r>   -6.5206    1.0000 </r>
       <r>   -6.4619    1.0000 </r>
       <r>   -6.3804    1.0000 </r>
       <r>   -6.3620    1.0000 </r>
       <r>   -6.2840    1.0000 </r>
       <r>   -6.2531    1.0000 </r>
       <r>   -6.1053    1.0000 </r>
       <r>   -6.0830    1.0000 </r>
       <r>   -6.0045    1.0000 </r>
       <r>   -5.9299    1.0000 </r>
       <r>   -5.8832    1.0000 </r>
       <r>   -5.8087    1.0000 </r>
       <r>   -5.7846    1.0000 </r>
       <r>   -5.6106    1.0000 </r>
       <r>   -5.5239    1.0000 </r>
       <r>   -5.5089    1.0000 </r>
       <r>   -5.2658    1.0000 </r>
       <r>   -5.1575    1.0000 </r>
       <r>   -4.8938    1.0000 </r>
       <r>   -4.8109    1.0000 </r>
       <r>   -4.7381    1.0000 </r>
       <r>   -4.6600    1.0000 </r>
       <r>   -4.5702    1.0000 </r>
       <r>   -4.3679    1.0000 </r>
       <r>   -4.2638    1.0000 </r>
       <r>   -4.1823    1.0000 </r>
       <r>   -4.1505    1.0000 </r>
       <r>   -4.0620    1.0000 </r>
       <r>   -3.9361    1.0000 </r>
       <r>   -3.6813    0.9955 </r>
       <r>   -3.5551    0.9573 </r>
       <r>   -3.1822    0.1796 </r>
       <r>   -3.0422    0.0283 </r>
       <r>   -2.7479    0.0000 </r>
       <r>   -2.6932    0.0000 </r>
       <r>   -2.5445    0.0000 </r>
       <r>   -2.4689    0.0000 </r>
       <r>   -2.3474    0.0000 </r>
       <r>   -2.2702    0.0000 </r>
       <r>   -2.1564    0.0000 </r>
       <r>   -1.9989    0.0000 </r>
       <r>   -1.8285    0.0000 </r>
       <r>   -1.7167    0.0000 </r>
       <r>   -1.6380    0.0000 </r>
       <r>   -1.5702    0.0000 </r>
       <r>   -1.3646    0.0000 </r>
       <r>   -1.3474    0.0000 </r>
       <r>   -1.2258    0.0000 </r>
       <r>   -1.1142    0.0000 </r>
       <r>   -1.0705    0.0000 </r>
       <r>   -0.9675    0.0000 </r>
       <r>   -0.8954    0.0000 </r>
       <r>   -0.8611    0.0000 </r>
       <r>   -0.7292    0.0000 </r>
       <r>   -0.6358    0.0000 </r>
       <r>   -0.4446    0.0000 </r>
       <r>   -0.3527    0.0000 </r>
       <r>   -0.3155    0.0000 </r>
       <r>   -0.2942    0.0000 </r>
       <r>   -0.0702    0.0000 </r>
       <r>    0.1003    0.0000 </r>
       <r>    0.2670    0.0000 </r>
       <r>    0.4961    0.0000 </r>
       <r>    0.5245    0.0000 </r>
       <r>    0.7364    0.0000 </r>
       <r>    0.8046    0.0000 </r>
       <r>    0.9776    0.0000 </r>
       <r>    1.2382    0.0000 </r>
       <r>    1.3968    0.0000 </r>
       <r>    2.1773    0.0000 </r>
       <r>    2.2601    0.0000 </r>
       <r>    2.3809    0.0000 </r>
      </set>
     </set>
    </set>
   </array>
  </eigenvalues>
  <separator name="orbital magnetization" >
   <v name="MAGDIPOLOUT">      0.00000000      0.00000000      0.00000000</v>
  </separator>
 </calculation>
 <structure name="finalpos" >
  <crystal>
   <varray name="basis" >
    <v>       8.34921362       4.78522311       0.00000000 </v>
    <v>      -8.36568954       4.81383723       0.00000000 </v>
    <v>       0.00000000       0.00000000      30.00000000 </v>
   </varray>
   <i name="volume">   2406.70338822 </i>
   <varray name="rec_basis" >
    <v>       0.06000537       0.10427986       0.00000000 </v>
    <v>      -0.05964869       0.10407448       0.00000000 </v>
    <v>       0.00000000       0.00000000       0.03333333 </v>
   </varray>
  </crystal>
  <varray name="positions" >
   <v>       0.31860504       0.02173881      -0.00070554 </v>
   <v>       0.63846160       0.33051041       0.00034180 </v>
   <v>       0.99533497       0.29898665       0.00022214 </v>
   <v>       0.68133393      -0.02116467       0.00108685 </v>
   <v>       0.32192910       0.32273497       0.00021504 </v>
   <v>      -0.00217939      -0.00109894      -0.00055135 </v>
   <v>       0.01405686       0.69861917       0.00039043 </v>
   <v>       0.36091857       0.66519835       0.00039085 </v>
   <v>       0.66463389       0.68441610      -0.00144110 </v>
   <v>       0.10653937       0.22090000       0.94578432 </v>
   <v>       0.21963190       0.11092427       0.05383993 </v>
   <v>       0.11096586       0.54827843       0.95596955 </v>
   <v>       0.21367806       0.44338970       0.05133411 </v>
   <v>       0.11969349       0.89782897       0.94495264 </v>
   <v>       0.23540192       0.79341472       0.04887955 </v>
   <v>       0.44096775       0.22087128       0.94657694 </v>
   <v>       0.55239893       0.10926038       0.04517799 </v>
   <v>       0.44615088       0.55174346       0.94595042 </v>
   <v>       0.55435723       0.44647104       0.05036607 </v>
   <v>       0.44394483       0.89480516       0.95434400 </v>
   <v>       0.55881799       0.77502715       0.05752046 </v>
   <v>       0.77709439       0.21920588       0.95373280 </v>
   <v>       0.89158776       0.11053137       0.05524675 </v>
   <v>       0.77832112       0.55249770       0.95162911 </v>
   <v>       0.88772666       0.44180497       0.04239452 </v>
   <v>       0.78245875       0.88639906       0.94327239 </v>
   <v>       0.88538299       0.77492007       0.05307924 </v>
  </varray>
 </structure>
</modeling>
