unknown system                          
           1
     8.859638    5.104412    0.000000
    -8.857991    5.101579    0.000000
     0.000000    0.000000   30.000000
   V    Mo   W    S 
   3   3   3  18
Direct configuration=     1
   0.33333334  0.00000000  0.00000000
   0.66666669  0.33333334  0.00000000
   1.00000000  0.33333334  0.00000000
   0.66666669  0.00000000  0.00000000
   0.33333334  0.33333334  0.00000000
   0.00000000  0.00000000  0.00000000
   0.00000000  0.66666669  0.00000000
   0.33333334  0.66666669  0.00000000
   0.66666669  0.66666669  0.00000000
   0.11068511  0.22244981  0.95539999
   0.22244981  0.11068511  0.04460000
   0.11068511  0.55578315  0.95539999
   0.22244981  0.44401845  0.04460000
   0.11068511  0.88911647  0.95539999
   0.22244981  0.77735180  0.04460000
   0.44401845  0.22244981  0.95539999
   0.55578315  0.11068511  0.04460000
   0.44401845  0.55578315  0.95539999
   0.55578315  0.44401845  0.04460000
   0.44401845  0.88911647  0.95539999
   0.55578315  0.77735180  0.04460000
   0.77735180  0.22244981  0.95539999
   0.88911647  0.11068511  0.04460000
   0.77735180  0.55578315  0.95539999
   0.88911647  0.44401845  0.04460000
   0.77735180  0.88911647  0.95539999
   0.88911647  0.77735180  0.04460000
unknown system                          
           1
     8.670542    4.998002    0.000000
    -8.668765    4.994941    0.000000
     0.000000    0.000000   30.000000
   V    Mo   W    S 
   3   3   3  18
Direct configuration=     2
   0.33365827  0.00156851 -0.00016288
   0.66563684  0.33180236  0.00001529
   0.99964846  0.33098893  0.00014927
   0.66797823  0.00024287 -0.00001451
   0.33203011  0.33192328  0.00000268
  -0.00000866  0.00138793 -0.00015583
  -0.00010587  0.66776353  0.00003791
   0.33467853  0.66666141  0.00016253
   0.66658150  0.66798398  0.00003364
   0.10861427  0.22442546  0.95196190
   0.22456385  0.10866105  0.04798763
   0.10921092  0.55173759  0.95198908
   0.21797099  0.44309602  0.04809067
   0.11512032  0.89008880  0.95189214
   0.22388709  0.78129649  0.04806043
   0.44641802  0.21977188  0.95300288
   0.55331118  0.11318122  0.04694172
   0.44492900  0.55621073  0.95071931
   0.55836202  0.44295356  0.04793603
   0.44139337  0.89034797  0.95202269
   0.55489688  0.77675223  0.04934950
   0.77961401  0.22651576  0.95311735
   0.89101457  0.11566233  0.04811633
   0.77591326  0.55177071  0.95191766
   0.88735205  0.44084292  0.04686698
   0.77730966  0.88781330  0.95071797
   0.88823558  0.77676363  0.04924152
unknown system                          
           1
     8.487262    4.898212    0.000000
    -8.487337    4.898360    0.000000
     0.000000    0.000000   30.000000
   V    Mo   W    S 
   3   3   3  18
Direct configuration=     3
   0.33363487  0.00197389 -0.00017662
   0.66535725  0.33143736  0.00005664
   0.99960309  0.33028208  0.00015905
   0.66832322 -0.00029782 -0.00005373
   0.33158163  0.33170115  0.00004338
  -0.00020840  0.00154003 -0.00016830
  -0.00019214  0.66823348  0.00003111
   0.33540442  0.66666194  0.00012307
   0.66651427  0.66865404  0.00003770
   0.10853680  0.22448374  0.95186419
   0.22461495  0.10860395  0.04801789
   0.10924397  0.55187504  0.95214324
   0.21793604  0.44323544  0.04810050
   0.11512222  0.88995206  0.95188010
   0.22385580  0.78116973  0.04798140
   0.44643258  0.21970280  0.95299185
   0.55330083  0.11322774  0.04688358
   0.44502838  0.55644377  0.95072108
   0.55851357  0.44313036  0.04786919
   0.44124034  0.89014649  0.95207351
   0.55480326  0.77651121  0.04943628
   0.77968719  0.22659296  0.95315712
   0.89112937  0.11585217  0.04820960
   0.77596360  0.55191930  0.95199903
   0.88742429  0.44102239  0.04675993
   0.77721744  0.88759949  0.95061314
   0.88814562  0.77655967  0.04924596
unknown system                          
           1
     8.278385    4.772026    0.000000
    -8.278890    4.772921    0.000000
     0.000000    0.000000   30.000000
   V    Mo   W    S 
   3   3   3  18
Direct configuration=     4
   0.33299731  0.00296517 -0.00015202
   0.66449569  0.33059743  0.00020855
   0.99979638  0.32795324  0.00013334
   0.66923229 -0.00348175 -0.00016443
   0.33004711  0.33142837  0.00018436
  -0.00131213  0.00138021 -0.00015086
  -0.00060151  0.67019410 -0.00000929
   0.33863760  0.66673509 -0.00006863
   0.66618115  0.67153098  0.00004692
   0.10788688  0.22510107  0.95004721
   0.22509988  0.10794344  0.04954256
   0.10866641  0.55096334  0.95130430
   0.21666916  0.44265293  0.04961732
   0.11631865  0.89078570  0.95034411
   0.22459361  0.78222456  0.04912709
   0.44688593  0.21916195  0.95162350
   0.55292379  0.11364302  0.04793429
   0.44506240  0.55642117  0.94909034
   0.55907582  0.44272139  0.04901377
   0.44075699  0.89061715  0.95082855
   0.55488897  0.77648347  0.05148585
   0.78030091  0.22759787  0.95201016
   0.89187082  0.11719637  0.05001893
   0.77529543  0.55097621  0.95084328
   0.88693792  0.44015750  0.04768098
   0.77735519  0.88759654  0.94855620
   0.88815180  0.77666793  0.05090352
unknown system                          
           1
     8.288665    4.771319    0.000000
    -8.290998    4.775383    0.000000
     0.000000    0.000000   30.000000
   V    Mo   W    S 
   3   3   3  18
Direct configuration=     5
   0.33079797  0.00449769  0.00004135
   0.66334828  0.32931328  0.00041314
   1.00018641  0.32358152 -0.00006689
   0.67061632 -0.01050428 -0.00020735
   0.32689283  0.33087193  0.00032532
  -0.00364296  0.00035160 -0.00005257
  -0.00204902  0.67417910 -0.00012860
   0.34614634  0.66717438 -0.00029176
   0.66567660  0.67786898  0.00001479
   0.10713678  0.22533675  0.94759269
   0.22519230  0.10754505  0.05158665
   0.10831374  0.55016742  0.95065247
   0.21535380  0.44215937  0.05171228
   0.11761541  0.89254238  0.94813551
   0.22569067  0.78344136  0.05032805
   0.44705746  0.21887585  0.94963135
   0.55296457  0.11342198  0.04926845
   0.44531542  0.55560672  0.94683452
   0.55930549  0.44264397  0.05035851
   0.44108986  0.89147896  0.94924052
   0.55525141  0.77701176  0.05461244
   0.78066113  0.22758080  0.95051895
   0.89226687  0.11800166  0.05252289
   0.77425589  0.55019040  0.94944599
   0.88661233  0.43937781  0.04886741
   0.77813093  0.88798703  0.94545941
   0.88802763  0.77751100  0.05318439
unknown system                          
           1
     8.288369    4.771020    0.000000
    -8.290685    4.775055    0.000000
     0.000000    0.000000   30.000000
   V    Mo   W    S 
   3   3   3  18
Direct configuration=     6
   0.32945327  0.00523614  0.00005919
   0.66341283  0.32881934  0.00049172
   1.00002132  0.32195346 -0.00007850
   0.67077855 -0.01166784 -0.00018108
   0.32595832  0.33044468  0.00028686
  -0.00365157 -0.00008714 -0.00010711
  -0.00339385  0.67557526 -0.00019066
   0.34851552  0.66733916 -0.00021171
   0.66608596  0.67923943 -0.00007733
   0.10702773  0.22489043  0.94745431
   0.22472590  0.10784077  0.05171309
   0.10899073  0.55088749  0.95114779
   0.21560244  0.44251591  0.05175474
   0.11749600  0.89307162  0.94796704
   0.22584045  0.78312202  0.05001891
   0.44669499  0.21903116  0.94962233
   0.55321906  0.11265018  0.04910794
   0.44585554  0.55522044  0.94664071
   0.55905889  0.44337440  0.05013667
   0.44184769  0.89150483  0.94939530
   0.55541213  0.77710211  0.05509798
   0.78029279  0.22644157  0.95056938
   0.89186582  0.11729446  0.05265934
   0.77387835  0.55075883  0.94950585
   0.88699662  0.43972154  0.04868993
   0.77863450  0.88817894  0.94509014
   0.88759450  0.77775528  0.05343706
unknown system                          
           1
     8.298060    4.790170    0.000000
    -8.297612    4.789416    0.000000
     0.000000    0.000000   30.000000
   V    Mo   W    S 
   3   3   3  18
Direct configuration=     7
   0.32933661  0.00531416  0.00006212
   0.66342219  0.32875948  0.00050439
   0.99998996  0.32178264 -0.00007884
   0.67081441 -0.01178512 -0.00018072
   0.32585732  0.33040094  0.00028654
  -0.00364752 -0.00012108 -0.00010848
  -0.00354020  0.67571105 -0.00019421
   0.34875575  0.66734388 -0.00021177
   0.66612608  0.67938783 -0.00007910
   0.10701370  0.22486684  0.94743524
   0.22470155  0.10785838  0.05172938
   0.10902854  0.55093941  0.95119359
   0.21560830  0.44253153  0.05176137
   0.11749638  0.89310816  0.94794416
   0.22584480  0.78310189  0.04999230
   0.44667509  0.21903590  0.94961753
   0.55322307  0.11260342  0.04909600
   0.44589024  0.55519914  0.94662528
   0.55904937  0.44341490  0.05011744
   0.44188212  0.89150497  0.94940768
   0.55543526  0.77710542  0.05513582
   0.78027783  0.22638390  0.95056924
   0.89185523  0.11726079  0.05267625
   0.77385138  0.55078427  0.94950229
   0.88702624  0.43974678  0.04867376
   0.77867038  0.88819860  0.94505915
   0.88757037  0.77777634  0.05346347
unknown system                          
           1
     8.293953    4.789364    0.000000
    -8.293389    4.788409    0.000000
     0.000000    0.000000   30.000000
   V    Mo   W    S 
   3   3   3  18
Direct configuration=     8
   0.33207015  0.00259030  0.00001761
   0.66309964  0.33047714  0.00014161
   1.00145314  0.32603508 -0.00007019
   0.67021767 -0.00909210 -0.00018183
   0.32785656  0.33161195  0.00034599
  -0.00396164  0.00147286 -0.00001229
   0.00101973  0.67237179  0.00002194
   0.34279684  0.66725172 -0.00028394
   0.66462127  0.67612808  0.00000220
   0.10686291  0.22518673  0.94786552
   0.22491344  0.10699525  0.05127297
   0.10823209  0.54948052  0.94994154
   0.21532628  0.44230767  0.05166147
   0.11760101  0.89238845  0.94863992
   0.22613725  0.78409902  0.05065997
   0.44680114  0.21851720  0.94969314
   0.55318435  0.11332825  0.04934877
   0.44476660  0.55595995  0.94686677
   0.55917857  0.44261107  0.05070316
   0.44106664  0.89140618  0.94916045
   0.55466337  0.77703543  0.05439994
   0.78075441  0.22744538  0.95066279
   0.89204219  0.11797159  0.05221608
   0.77483773  0.55057109  0.94960891
   0.88644406  0.43908304  0.04902327
   0.77785592  0.88776462  0.94561011
   0.88837312  0.77721620  0.05268403
unknown system                          
           1
     8.279299    4.771589    0.000000
    -8.282492    4.777140    0.000000
     0.000000    0.000000   30.000000
   V    Mo   W    S 
   3   3   3  18
Direct configuration=     9
   0.33288045  0.00184633  0.00000463
   0.66288553  0.33100720  0.00004043
   1.00195682  0.32729171 -0.00006009
   0.67002612 -0.00862153 -0.00018016
   0.32850571  0.33202756  0.00035597
  -0.00424615  0.00187649  0.00000162
   0.00252141  0.67137577  0.00007095
   0.34114130  0.66726985 -0.00028601
   0.66404710  0.67528792  0.00001905
   0.10687685  0.22525119  0.94798388
   0.22493465  0.10682398  0.05112269
   0.10808092  0.54912160  0.94958898
   0.21529638  0.44228184  0.05163201
   0.11759387  0.89220466  0.94884967
   0.22625858  0.78433384  0.05087102
   0.44678620  0.21841681  0.94973271
   0.55325117  0.11353749  0.04939521
   0.44447510  0.55612989  0.94695086
   0.55915867  0.44244957  0.05083846
   0.44093933  0.89137097  0.94908048
   0.55442806  0.77699637  0.05418605
   0.78082267  0.22762732  0.95071482
   0.89203587  0.11813235  0.05209593
   0.77511946  0.55061188  0.94968572
   0.88628534  0.43891472  0.04910504
   0.77763288  0.88761226  0.94577191
   0.88852015  0.77703644  0.05242807
unknown system                          
           1
     8.277987    4.765839    0.000000
    -8.281663    4.772222    0.000000
     0.000000    0.000000   30.000000
   V    Mo   W    S 
   3   3   3  18
Direct configuration=    10
   0.33418152  0.00103537  0.00003072
   0.66142220  0.33191630 -0.00009091
   1.00325478  0.32917396 -0.00002386
   0.66986703 -0.01022439 -0.00017846
   0.33015147  0.33313519  0.00035713
  -0.00629027  0.00231257 -0.00001863
   0.00666698  0.66967176  0.00004788
   0.33883906  0.66765010 -0.00015765
   0.66204866  0.67492271  0.00002186
   0.10721614  0.22523609  0.94792746
   0.22471263  0.10697432  0.05087980
   0.10832766  0.54887506  0.94889940
   0.21554290  0.44247202  0.05179519
   0.11755512  0.89220256  0.94908771
   0.22691884  0.78457845  0.05151190
   0.44646378  0.21854701  0.94971105
   0.55382643  0.11382329  0.04942444
   0.44419837  0.55600757  0.94687872
   0.55885926  0.44267849  0.05101990
   0.44141667  0.89138879  0.94870366
   0.55399973  0.77683071  0.05420639
   0.78039849  0.22712916  0.95087182
   0.89157018  0.11817834  0.05220053
   0.77541727  0.55129692  0.94998036
   0.88609113  0.43867558  0.04926253
   0.77740424  0.88721364  0.94570529
   0.88815416  0.77651288  0.05194566
unknown system                          
           1
     8.279259    4.757645    0.000000
    -8.285564    4.768584    0.000000
     0.000000    0.000000   30.000000
   V    Mo   W    S 
   3   3   3  18
Direct configuration=    11
   0.33279867  0.00242534  0.00011015
   0.66028275  0.33120585  0.00005422
   1.00320751  0.32691832 -0.00006632
   0.67069816 -0.01334240 -0.00019827
   0.32950635  0.33293675  0.00034576
  -0.00782091  0.00205969 -0.00001145
   0.00715704  0.67084350 -0.00003012
   0.34181192  0.66799585 -0.00019056
   0.66126009  0.67742980 -0.00007022
   0.10722182  0.22500369  0.94757368
   0.22409989  0.10740268  0.05105354
   0.10917111  0.54958477  0.94932253
   0.21589162  0.44269175  0.05201467
   0.11747602  0.89287690  0.94876271
   0.22728961  0.78430869  0.05145923
   0.44607684  0.21885694  0.94950815
   0.55428828  0.11329152  0.04921130
   0.44452824  0.55561983  0.94652127
   0.55874363  0.44362681  0.05086226
   0.44231060  0.89138051  0.94875593
   0.55413491  0.77668971  0.05512993
   0.77975506  0.22592174  0.95107459
   0.89117800  0.11770325  0.05264540
   0.77509441  0.55214352  0.95015352
   0.88651628  0.43903671  0.04902135
   0.77790625  0.88717843  0.94490759
   0.88763030  0.77642430  0.05207906
unknown system                          
           1
     8.284715    4.759251    0.000000
    -8.291178    4.770460    0.000000
     0.000000    0.000000   30.000000
   V    Mo   W    S 
   3   3   3  18
Direct configuration=    12
   0.33093321  0.00415900  0.00013872
   0.65857401  0.33054811  0.00012365
   1.00312239  0.32450391 -0.00002760
   0.67164057 -0.01644553 -0.00007156
   0.32892736  0.33250592  0.00032327
  -0.00931297  0.00174451 -0.00011961
   0.00877099  0.67228858 -0.00007944
   0.34518148  0.66846004 -0.00005892
   0.66009827  0.68001983 -0.00020548
   0.10708778  0.22475574  0.94730658
   0.22321949  0.10753487  0.05119731
   0.11002128  0.54987238  0.94961800
   0.21609239  0.44282725  0.05210190
   0.11751013  0.89365909  0.94862406
   0.22794823  0.78454892  0.05135300
   0.44564509  0.21899763  0.94932903
   0.55464907  0.11254209  0.04887632
   0.44479169  0.55536319  0.94619824
   0.55866718  0.44474009  0.05071642
   0.44320689  0.89161588  0.94897336
   0.55419079  0.77660611  0.05589115
   0.77917467  0.22464384  0.95139860
   0.89074323  0.11720163  0.05301400
   0.77490782  0.55305887  0.95049077
   0.88693975  0.43924443  0.04870673
   0.77842806  0.88696771  0.94418523
   0.88705564  0.77625037  0.05199617
unknown system                          
           1
     8.293735    4.761026    0.000000
    -8.300405    4.772588    0.000000
     0.000000    0.000000   30.000000
   V    Mo   W    S 
   3   3   3  18
Direct configuration=    13
   0.33030508  0.00483872  0.00014268
   0.65819440  0.33031445  0.00016069
   1.00288518  0.32375262 -0.00001727
   0.67192438 -0.01668382 -0.00006084
   0.32874921  0.33222848  0.00031564
  -0.00924702  0.00167365 -0.00014839
   0.00893941  0.67272302 -0.00009224
   0.34597573  0.66841902 -0.00007603
   0.65997998  0.68037312 -0.00025845
   0.10701459  0.22469783  0.94725911
   0.22301457  0.10753477  0.05126368
   0.11019867  0.54992309  0.94976346
   0.21609809  0.44283427  0.05209508
   0.11752406  0.89380706  0.94855798
   0.22812661  0.78470409  0.05127796
   0.44555719  0.21900889  0.94928126
   0.55463545  0.11234978  0.04876922
   0.44484393  0.55530981  0.94616173
   0.55868335  0.44495596  0.05064937
   0.44335775  0.89169602  0.94911869
   0.55427327  0.77663235  0.05605123
   0.77908834  0.22441618  0.95148028
   0.89072208  0.11705889  0.05308038
   0.77488207  0.55319415  0.95057294
   0.88702342  0.43929334  0.04859240
   0.77853333  0.88694541  0.94407840
   0.88693133  0.77621330  0.05198097
unknown system                          
           1
     8.286983    4.760266    0.000000
    -8.293663    4.771854    0.000000
     0.000000    0.000000   30.000000
   V    Mo   W    S 
   3   3   3  18
Direct configuration=    14
   0.32874629  0.00658783  0.00014561
   0.65704918  0.32977726  0.00024977
   1.00230145  0.32198341  0.00002540
   0.67278307 -0.01724736 -0.00000646
   0.32853029  0.33157576  0.00029528
  -0.00907438  0.00161696 -0.00022040
   0.00985592  0.67372869 -0.00008541
   0.34757111  0.66827194 -0.00005384
   0.65943106  0.68109616 -0.00034688
   0.10686391  0.22457676  0.94716793
   0.22252946  0.10757454  0.05143260
   0.11060750  0.54996409  0.95006112
   0.21614968  0.44286800  0.05204768
   0.11756612  0.89410665  0.94840634
   0.22863388  0.78516704  0.05110726
   0.44530014  0.21905941  0.94915045
   0.55456627  0.11192548  0.04849064
   0.44489288  0.55511287  0.94607699
   0.55868395  0.44543289  0.05049653
   0.44366863  0.89190596  0.94950012
   0.55448339  0.77668745  0.05631914
   0.77888538  0.22393128  0.95169285
   0.89070490  0.11670128  0.05322027
   0.77491441  0.55353599  0.95080498
   0.88718715  0.43938863  0.04829210
   0.77875135  0.88687305  0.94387479
   0.88663147  0.77601245  0.05185501
unknown system                          
           1
     8.280266    4.758290    0.000000
    -8.287190    4.770305    0.000000
     0.000000    0.000000   30.000000
   V    Mo   W    S 
   3   3   3  18
Direct configuration=    15
   0.33037890  0.00483974  0.00016102
   0.65813454  0.33035116  0.00015908
   1.00297277  0.32383656 -0.00001896
   0.67183068 -0.01677340 -0.00007196
   0.32876342  0.33224096  0.00032458
  -0.00937374  0.00169663 -0.00014334
   0.00909004  0.67256873 -0.00009772
   0.34602173  0.66848468 -0.00009657
   0.65990187  0.68041273 -0.00026215
   0.10698078  0.22468382  0.94724795
   0.22292075  0.10745673  0.05122376
   0.11028074  0.54993680  0.94975429
   0.21610417  0.44284247  0.05210603
   0.11753400  0.89387189  0.94858249
   0.22816665  0.78472485  0.05129543
   0.44553127  0.21897216  0.94928884
   0.55471295  0.11232822  0.04874579
   0.44484283  0.55536701  0.94615334
   0.55871282  0.44505566  0.05063463
   0.44345117  0.89167961  0.94911142
   0.55423506  0.77660055  0.05612330
   0.77903590  0.22429725  0.95152909
   0.89065238  0.11704162  0.05308579
   0.77486739  0.55327033  0.95060668
   0.88704743  0.43930084  0.04858084
   0.77852473  0.88691664  0.94402444
   0.88689323  0.77621024  0.05195181
unknown system                          
           1
     8.290381    4.761046    0.000000
    -8.297713    4.773764    0.000000
     0.000000    0.000000   30.000000
   V    Mo   W    S 
   3   3   3  18
Direct configuration=    16
   0.33223340  0.00311422  0.00019287
   0.65902073  0.33099173  0.00004841
   1.00389371  0.32583403 -0.00004246
   0.67070683 -0.01682922 -0.00010756
   0.32895144  0.33288341  0.00034727
  -0.01007497  0.00190361 -0.00010188
   0.00870583  0.67107839 -0.00011086
   0.34471472  0.66891708 -0.00006941
   0.66014623  0.68007492 -0.00016109
   0.10705057  0.22476612  0.94733958
   0.22311841  0.10720949  0.05093464
   0.11014539  0.54995040  0.94941196
   0.21612354  0.44286351  0.05214409
   0.11752105  0.89371956  0.94886506
   0.22775360  0.78426759  0.05147765
   0.44573641  0.21884142  0.94947543
   0.55502777  0.11272728  0.04894489
   0.44480982  0.55566892  0.94622342
   0.55879224  0.44487659  0.05072521
   0.44336316  0.89141890  0.94869751
   0.55391643  0.77643577  0.05594861
   0.77905357  0.22445183  0.95148223
   0.89042686  0.11734604  0.05291817
   0.77480575  0.55318879  0.95050673
   0.88695430  0.43925541  0.04883693
   0.77825209  0.88689215  0.94413622
   0.88706555  0.77636651  0.05193629
unknown system                          
           1
     8.292230    4.760269    0.000000
    -8.299729    4.773273    0.000000
     0.000000    0.000000   30.000000
   V    Mo   W    S 
   3   3   3  18
Direct configuration=    17
   0.33130539  0.00434624  0.00018379
   0.65801559  0.33064761  0.00009433
   1.00356532  0.32459557 -0.00000989
   0.67128119 -0.01736475 -0.00006995
   0.32878251  0.33241978  0.00033131
  -0.01011377  0.00201791 -0.00016077
   0.00970048  0.67162598 -0.00012022
   0.34577103  0.66881321 -0.00006885
   0.65966085  0.68063973 -0.00026116
   0.10695110  0.22471507  0.94725926
   0.22271898  0.10723494  0.05104925
   0.11047572  0.54994385  0.94959517
   0.21617440  0.44289050  0.05212198
   0.11756254  0.89392011  0.94878985
   0.22817558  0.78466878  0.05139187
   0.44552886  0.21889314  0.94936185
   0.55497444  0.11242933  0.04875378
   0.44481274  0.55549432  0.94615740
   0.55877171  0.44521368  0.05063180
   0.44354037  0.89157539  0.94896458
   0.55405804  0.77648990  0.05619871
   0.77890947  0.22411855  0.95166730
   0.89039482  0.11711584  0.05303228
   0.77487139  0.55348659  0.95070367
   0.88707135  0.43929619  0.04863164
   0.77838912  0.88681790  0.94397905
   0.88686524  0.77616911  0.05179191
unknown system                          
           1
     8.290270    4.759299    0.000000
    -8.297809    4.772373    0.000000
     0.000000    0.000000   30.000000
   V    Mo   W    S 
   3   3   3  18
Direct configuration=    18
   0.33066986  0.00518262  0.00017953
   0.65732390  0.33043202  0.00012066
   1.00336384  0.32383488  0.00001974
   0.67170443 -0.01771086 -0.00003169
   0.32869672  0.33206801  0.00032462
  -0.01013277  0.00215717 -0.00019588
   0.01047656  0.67189572 -0.00011294
   0.34639188  0.66876891 -0.00003781
   0.65924894  0.68098943 -0.00029535
   0.10689662  0.22467880  0.94722411
   0.22248439  0.10726431  0.05111137
   0.11067220  0.54991392  0.94968862
   0.21622276  0.44290597  0.05208965
   0.11757012  0.89400255  0.94876098
   0.22844550  0.78491041  0.05133154
   0.44539676  0.21894499  0.94929091
   0.55494481  0.11228393  0.04863043
   0.44478862  0.55537902  0.94612470
   0.55873587  0.44540098  0.05057239
   0.44364932  0.89166637  0.94913873
   0.55414688  0.77650868  0.05629245
   0.77881428  0.22394032  0.95178784
   0.89038823  0.11697413  0.05308841
   0.77495192  0.55368257  0.95083764
   0.88713670  0.43932502  0.04849703
   0.77846573  0.88677886  0.94390161
   0.88676038  0.77603572  0.05166061
unknown system                          
           1
     8.298195    4.760416    0.000000
    -8.305876    4.773728    0.000000
     0.000000    0.000000   30.000000
   V    Mo   W    S 
   3   3   3  18
Direct configuration=    19
   0.33066798  0.00521896  0.00018258
   0.65729493  0.33039614  0.00012546
   1.00333034  0.32379087  0.00002235
   0.67169801 -0.01777582 -0.00002714
   0.32871055  0.33205094  0.00032768
  -0.01015428  0.00210151 -0.00019526
   0.01043856  0.67196938 -0.00011217
   0.34648537  0.66879897 -0.00002704
   0.65926158  0.68105862 -0.00028732
   0.10689761  0.22467422  0.94722961
   0.22248313  0.10726543  0.05110090
   0.11068249  0.54993501  0.94970795
   0.21623178  0.44291758  0.05207880
   0.11757574  0.89401247  0.94876469
   0.22843185  0.78489769  0.05131137
   0.44540480  0.21894629  0.94930085
   0.55494485  0.11228338  0.04861857
   0.44479588  0.55537995  0.94612729
   0.55874095  0.44540267  0.05055731
   0.44364834  0.89166213  0.94914528
   0.55414971  0.77649956  0.05628142
   0.77880444  0.22393090  0.95179419
   0.89038377  0.11695953  0.05308032
   0.77493973  0.55367104  0.95084159
   0.88714043  0.43933383  0.04848524
   0.77846980  0.88678590  0.94390275
   0.88675612  0.77604729  0.05166264
unknown system                          
           1
     8.292816    4.761999    0.000000
    -8.300266    4.774922    0.000000
     0.000000    0.000000   30.000000
   V    Mo   W    S 
   3   3   3  18
Direct configuration=    20
   0.32954889  0.00635247  0.00016247
   0.65642743  0.33021227  0.00015576
   1.00312405  0.32271735  0.00005745
   0.67244620 -0.01802319  0.00001850
   0.32848633  0.33161623  0.00030719
  -0.01002410  0.00250089 -0.00024472
   0.01170957  0.67220678 -0.00009466
   0.34710700  0.66855796 -0.00001626
   0.65858375  0.68132415 -0.00035962
   0.10681614  0.22462570  0.94715946
   0.22214649  0.10734605  0.05125013
   0.11092170  0.54982378  0.94980075
   0.21627830  0.44289822  0.05206217
   0.11754718  0.89408063  0.94868705
   0.22887729  0.78530128  0.05127450
   0.44514711  0.21903291  0.94915260
   0.55486984  0.11203364  0.04846960
   0.44473392  0.55518244  0.94607229
   0.55863528  0.44567339  0.05051634
   0.44381544  0.89181303  0.94941227
   0.55429784  0.77656679  0.05643307
   0.77871940  0.22369846  0.95194109
   0.89042010  0.11677532  0.05319296
   0.77513208  0.55402238  0.95102394
   0.88724822  0.43937253  0.04831278
   0.77858403  0.88670600  0.94379637
   0.88661497  0.77579700  0.05145643
unknown system                          
           1
     8.290532    4.759299    0.000000
    -8.298452    4.773038    0.000000
     0.000000    0.000000   30.000000
   V    Mo   W    S 
   3   3   3  18
Direct configuration=    21
   0.33119363  0.00485325  0.00019906
   0.65763720  0.33037223  0.00012293
   1.00339949  0.32407950 -0.00000524
   0.67135212 -0.01772411 -0.00006656
   0.32869908  0.33212961  0.00032112
  -0.01027058  0.00183747 -0.00019822
   0.00967264  0.67205630 -0.00015040
   0.34641928  0.66892955 -0.00005908
   0.65968547  0.68106358 -0.00030143
   0.10689824  0.22471398  0.94725715
   0.22255467  0.10716562  0.05106073
   0.11064838  0.55001598  0.94973147
   0.21617518  0.44290519  0.05209355
   0.11765858  0.89409949  0.94875717
   0.22826571  0.78474826  0.05133132
   0.44553064  0.21887165  0.94931796
   0.55502441  0.11232546  0.04871229
   0.44488338  0.55548265  0.94613991
   0.55886657  0.44539108  0.05058387
   0.44361826  0.89160252  0.94900165
   0.55408796  0.77647755  0.05634513
   0.77881336  0.22394755  0.95174536
   0.89032525  0.11704057  0.05305530
   0.77476939  0.55350730  0.95074966
   0.88711042  0.43930816  0.04854766
   0.77843041  0.88682413  0.94387148
   0.88676528  0.77618993  0.05183606
unknown system                          
           1
     8.295420    4.760522    0.000000
    -8.303195    4.774002    0.000000
     0.000000    0.000000   30.000000
   V    Mo   W    S 
   3   3   3  18
Direct configuration=    22
   0.33085735  0.00545814  0.00020538
   0.65716361  0.33012358  0.00016946
   1.00318966  0.32342868  0.00002798
   0.67152566 -0.01809259 -0.00002554
   0.32864705  0.33183088  0.00033093
  -0.01035327  0.00167197 -0.00021165
   0.00985959  0.67255635 -0.00013644
   0.34712542  0.66900883 -0.00001097
   0.65962409  0.68150491 -0.00028247
   0.10686971  0.22466551  0.94723612
   0.22237152  0.10717741  0.05108627
   0.11080208  0.55009225  0.94987251
   0.21624702  0.44293409  0.05203609
   0.11769365  0.89421642  0.94872481
   0.22836805  0.78485497  0.05122690
   0.44546338  0.21889872  0.94927572
   0.55502031  0.11219440  0.04862190
   0.44491229  0.55539733  0.94614360
   0.55885507  0.44555085  0.05049231
   0.44370405  0.89162169  0.94912904
   0.55418806  0.77646461  0.05635360
   0.77871553  0.22377822  0.95183088
   0.89028274  0.11686819  0.05306439
   0.77477131  0.55362283  0.95083780
   0.88716978  0.43940373  0.04841173
   0.77848330  0.88682650  0.94381504
   0.88665744  0.77615597  0.05177447
unknown system                          
           1
     8.284245    4.757990    0.000000
    -8.293201    4.773540    0.000000
     0.000000    0.000000   30.000000
   V    Mo   W    S 
   3   3   3  18
Direct configuration=    23
   0.33020279  0.00608560  0.00018646
   0.65665391  0.33005012  0.00017491
   1.00304746  0.32291892  0.00004806
   0.67198296 -0.01811977  0.00000017
   0.32860681  0.33160802  0.00031865
  -0.01020326  0.00197187 -0.00023672
   0.01070799  0.67256028 -0.00012108
   0.34731517  0.66884142 -0.00000735
   0.65917192  0.68151719 -0.00032514
   0.10683532  0.22463905  0.94719201
   0.22223471  0.10724505  0.05117498
   0.11089209  0.54997851  0.94987497
   0.21626172  0.44292107  0.05203994
   0.11765216  0.89420198  0.94869167
   0.22864098  0.78510340  0.05122829
   0.44533267  0.21896172  0.94920776
   0.55494609  0.11210245  0.04853016
   0.44484423  0.55528237  0.94610537
   0.55878234  0.44563754  0.05048635
   0.44376910  0.89173474  0.94928361
   0.55426040  0.77651821  0.05641559
   0.77868364  0.22371372  0.95189727
   0.89033746  0.11679432  0.05313503
   0.77490492  0.55379181  0.95093927
   0.88719469  0.43938522  0.04833723
   0.77854893  0.88677627  0.94378413
   0.88660728  0.77599337  0.05163832
unknown system                          
           1
     8.291164    4.762632    0.000000
    -8.299759    4.777556    0.000000
     0.000000    0.000000   30.000000
   V    Mo   W    S 
   3   3   3  18
Direct configuration=    24
   0.33251092  0.00420028  0.00025002
   0.65835791  0.33007312  0.00018620
   1.00352924  0.32414736 -0.00004420
   0.67029986 -0.01816479 -0.00012504
   0.32845402  0.33222249  0.00031576
  -0.01075759  0.00058274 -0.00021470
   0.00706527  0.67318338 -0.00024549
   0.34728638  0.66938725 -0.00006656
   0.66120265  0.68178484 -0.00027218
   0.10691191  0.22469767  0.94731909
   0.22254049  0.10696598  0.05091032
   0.11072358  0.55050994  0.95008462
   0.21619336  0.44293574  0.05204648
   0.11793598  0.89454848  0.94870890
   0.22772324  0.78429923  0.05117057
   0.44573739  0.21869996  0.94941297
   0.55525164  0.11226864  0.04887094
   0.44520335  0.55562160  0.94624459
   0.55904379  0.44549276  0.05046936
   0.44362746  0.89131071  0.94874553