       N       E                     dE             d eps       ncg     rms          rms(c)
DAV:   1     0.112663051658E+04    0.11266E+04   -0.35974E+04  8160   0.577E+02
DAV:   2    -0.662702967001E+00   -0.11273E+04   -0.10832E+04 11240   0.173E+02
DAV:   3    -0.199687872862E+03   -0.19903E+03   -0.19125E+03 10920   0.824E+01
DAV:   4    -0.208922620346E+03   -0.92347E+01   -0.89630E+01 12120   0.263E+01
DAV:   5    -0.209245282221E+03   -0.32266E+00   -0.32171E+00 11320   0.358E+00    0.274E+01
DAV:   6    -0.236607535667E+03   -0.27362E+02   -0.10832E+02 12880   0.603E+01    0.592E+01
DAV:   7    -0.196789542057E+03    0.39818E+02   -0.17642E+02 13240   0.152E+02    0.205E+01
DAV:   8    -0.190231984496E+03    0.65576E+01   -0.21400E+01 11720   0.135E+01    0.139E+01
DAV:   9    -0.188314026077E+03    0.19180E+01   -0.36010E+00 11920   0.636E+00    0.941E+00
DAV:  10    -0.187164024250E+03    0.11500E+01   -0.18176E+00 13400   0.749E+00    0.373E+00
DAV:  11    -0.187002931327E+03    0.16109E+00   -0.73114E-01 12680   0.269E+00    0.226E+00
DAV:  12    -0.187100952039E+03   -0.98021E-01   -0.54604E-01 13200   0.385E+00    0.471E+00
DAV:  13    -0.186940601813E+03    0.16035E+00   -0.53779E-01 13160   0.388E+00    0.199E+00
DAV:  14    -0.186901031416E+03    0.39570E-01   -0.97629E-02 13200   0.161E+00    0.850E-01
DAV:  15    -0.186898429619E+03    0.26018E-02   -0.43025E-02 12880   0.112E+00    0.101E+00
DAV:  16    -0.186891816675E+03    0.66129E-02   -0.18858E-02 12640   0.766E-01    0.515E-01
DAV:  17    -0.186889377663E+03    0.24390E-02   -0.67299E-03 13000   0.314E-01    0.234E-01
DAV:  18    -0.186888407250E+03    0.97041E-03   -0.38005E-03 12760   0.279E-01    0.207E-01
DAV:  19    -0.186888055109E+03    0.35214E-03   -0.10728E-03 11800   0.163E-01    0.481E-02
DAV:  20    -0.186888806680E+03   -0.75157E-03   -0.72412E-04  9120   0.594E-02    0.530E-02
DAV:  21    -0.186889363774E+03   -0.55709E-03   -0.23667E-04  8400   0.456E-02    0.288E-02
DAV:  22    -0.186890525255E+03   -0.11615E-02   -0.17793E-04  7480   0.394E-02    0.338E-02
DAV:  23    -0.186891749855E+03   -0.12246E-02   -0.13026E-04  7440   0.410E-02    0.126E-02
DAV:  24    -0.186892343150E+03   -0.59329E-03   -0.26249E-05  6840   0.132E-02    0.647E-03
DAV:  25    -0.186892729381E+03   -0.38623E-03   -0.15152E-05  5440   0.979E-03    0.421E-03
DAV:  26    -0.186892969807E+03   -0.24043E-03   -0.91166E-06  6840   0.695E-03    0.157E-03
DAV:  27    -0.186893069540E+03   -0.99733E-04   -0.35293E-06  7240   0.415E-03
   1 F= -.18689307E+03 E0= -.18672237E+03  d E =-.186893E+03
       N       E                     dE             d eps       ncg     rms          rms(c)
DAV:   1    -0.187533471625E+03   -0.64050E+00   -0.27207E+02  8160   0.351E+01    0.463E+00
DAV:   2    -0.189427959988E+03   -0.18945E+01   -0.20152E+01 12280   0.153E+01    0.879E+00
DAV:   3    -0.189395176052E+03    0.32784E-01   -0.40305E+00 12400   0.120E+01    0.665E+00
DAV:   4    -0.188788019087E+03    0.60716E+00   -0.61024E-01 12520   0.466E+00    0.174E+00
DAV:   5    -0.188895589440E+03   -0.10757E+00   -0.46329E-01 12040   0.334E+00    0.529E+00
DAV:   6    -0.188752739361E+03    0.14285E+00   -0.73650E-01 12800   0.427E+00    0.199E+00
DAV:   7    -0.188722642660E+03    0.30097E-01   -0.11716E-01 11840   0.145E+00    0.119E+00
DAV:   8    -0.188711805053E+03    0.10838E-01   -0.57847E-02 13240   0.131E+00    0.116E+00
DAV:   9    -0.188701944162E+03    0.98609E-02   -0.19251E-02 11800   0.778E-01    0.326E-01
DAV:  10    -0.188701309570E+03    0.63459E-03   -0.35420E-03 11760   0.207E-01    0.213E-01
DAV:  11    -0.188700732373E+03    0.57720E-03   -0.24347E-03 12400   0.180E-01    0.107E-01
DAV:  12    -0.188700851241E+03   -0.11887E-03   -0.90553E-04 11360   0.953E-02    0.853E-02
DAV:  13    -0.188700783463E+03    0.67778E-04   -0.23745E-04  7960   0.558E-02
   2 F= -.18870078E+03 E0= -.18856175E+03  d E =-.180771E+01
       N       E                     dE             d eps       ncg     rms          rms(c)
DAV:   1    -0.190619748950E+03   -0.19189E+01   -0.31250E+01  8960   0.142E+01    0.442E+00
DAV:   2    -0.190566068944E+03    0.53680E-01   -0.27483E+00 11200   0.942E+00    0.719E+00
DAV:   3    -0.190105931878E+03    0.46014E+00   -0.13295E+00 12360   0.857E+00    0.420E+00
DAV:   4    -0.189897281166E+03    0.20865E+00   -0.72167E-01 12800   0.424E+00    0.251E+00
DAV:   5    -0.189876436256E+03    0.20845E-01   -0.38039E-01 12280   0.315E+00    0.283E+00
DAV:   6    -0.189799595596E+03    0.76841E-01   -0.15020E-01 12640   0.248E+00    0.711E-01
DAV:   7    -0.189793162591E+03    0.64330E-02   -0.13820E-02 11560   0.518E-01    0.207E-01
DAV:   8    -0.189793591426E+03   -0.42884E-03   -0.35013E-03 12040   0.275E-01    0.283E-01
DAV:   9    -0.189793206984E+03    0.38444E-03   -0.18036E-03 10720   0.280E-01    0.159E-01
DAV:  10    -0.189793399740E+03   -0.19276E-03   -0.77995E-04  9640   0.133E-01    0.107E-01
DAV:  11    -0.189793199158E+03    0.20058E-03   -0.35364E-04  8760   0.686E-02    0.217E-02
DAV:  12    -0.189793216324E+03   -0.17166E-04   -0.59171E-05  7080   0.249E-02
   3 F= -.18979322E+03 E0= -.18967478E+03  d E =-.109243E+01
       N       E                     dE             d eps       ncg     rms          rms(c)
DAV:   1    -0.191372488892E+03   -0.15793E+01   -0.78062E+01  8160   0.201E+01    0.460E+00
DAV:   2    -0.191206268757E+03    0.16622E+00   -0.54114E+00 13200   0.783E+00    0.472E+00
DAV:   3    -0.191316009273E+03   -0.10974E+00   -0.16077E+00 12200   0.911E+00    0.653E+00
DAV:   4    -0.190941965630E+03    0.37404E+00   -0.13737E+00 12440   0.753E+00    0.301E+00
DAV:   5    -0.190897831151E+03    0.44134E-01   -0.45590E-01 12560   0.405E+00    0.295E+00
DAV:   6    -0.190806363849E+03    0.91467E-01   -0.21432E-01 12280   0.321E+00    0.123E+00
DAV:   7    -0.190792324556E+03    0.14039E-01   -0.47019E-02 12720   0.112E+00    0.438E-01
DAV:   8    -0.190791604670E+03    0.71989E-03   -0.10604E-02 11440   0.594E-01    0.506E-01
DAV:   9    -0.190789424788E+03    0.21799E-02   -0.43106E-03 11320   0.449E-01    0.149E-01
DAV:  10    -0.190789691471E+03   -0.26668E-03   -0.12514E-03 11400   0.134E-01    0.921E-02
DAV:  11    -0.190789570325E+03    0.12115E-03   -0.48205E-04  9760   0.803E-02    0.450E-02
DAV:  12    -0.190789567388E+03    0.29364E-05   -0.10349E-04  6960   0.395E-02
   4 F= -.19078957E+03 E0= -.19068462E+03  d E =-.996351E+00
       N       E                     dE             d eps       ncg     rms          rms(c)
DAV:   1    -0.192094989998E+03   -0.13054E+01   -0.16083E+02  8160   0.283E+01    0.557E+00
DAV:   2    -0.191862250949E+03    0.23274E+00   -0.92174E+00 11480   0.806E+00    0.388E+00
DAV:   3    -0.192062128237E+03   -0.19988E+00   -0.20597E+00 11200   0.869E+00    0.805E+00
DAV:   4    -0.191747425853E+03    0.31470E+00   -0.28792E+00 11480   0.107E+01    0.445E+00
DAV:   5    -0.191572572516E+03    0.17485E+00   -0.74169E-01 12360   0.548E+00    0.321E+00
DAV:   6    -0.191447383251E+03    0.12519E+00   -0.27403E-01 12280   0.376E+00    0.126E+00
DAV:   7    -0.191433136458E+03    0.14247E-01   -0.61889E-02 12280   0.131E+00    0.511E-01
DAV:   8    -0.191428981293E+03    0.41552E-02   -0.10441E-02 10720   0.482E-01    0.239E-01
DAV:   9    -0.191430387772E+03   -0.14065E-02   -0.51575E-03 12720   0.490E-01    0.424E-01
DAV:  10    -0.191428892139E+03    0.14956E-02   -0.37385E-03 11200   0.380E-01    0.641E-02
DAV:  11    -0.191428961249E+03   -0.69110E-04   -0.37844E-04  9600   0.723E-02
   5 F= -.19142896E+03 E0= -.19132354E+03  d E =-.639394E+00
       N       E                     dE             d eps       ncg     rms          rms(c)
DAV:   1    -0.191477970252E+03   -0.49078E-01   -0.40540E+00  8160   0.426E+00    0.591E-01
DAV:   2    -0.191530821188E+03   -0.52851E-01   -0.24774E-01 13280   0.268E+00    0.199E+00
DAV:   3    -0.191489042936E+03    0.41778E-01   -0.88717E-02 12440   0.209E+00    0.383E-01
DAV:   4    -0.191490624710E+03   -0.15818E-02   -0.12331E-02 11400   0.698E-01    0.588E-01
DAV:   5    -0.191487176295E+03    0.34484E-02   -0.74184E-03 10280   0.570E-01    0.176E-01
DAV:   6    -0.191487159300E+03    0.16995E-04   -0.17295E-03 10440   0.171E-01    0.126E-01
DAV:   7    -0.191486864707E+03    0.29459E-03   -0.92148E-04 10200   0.126E-01    0.717E-02
DAV:   8    -0.191486862959E+03    0.17476E-05   -0.29208E-04  7840   0.111E-01
   6 F= -.19148686E+03 E0= -.19137910E+03  d E =-.579017E-01
       N       E                     dE             d eps       ncg     rms          rms(c)
DAV:   1    -0.191539969165E+03   -0.53104E-01   -0.47651E+00  8160   0.462E+00    0.579E-01
DAV:   2    -0.191575029234E+03   -0.35060E-01   -0.17873E-01 13600   0.204E+00    0.161E+00
DAV:   3    -0.191546890862E+03    0.28138E-01   -0.68935E-02 12440   0.187E+00    0.436E-01
DAV:   4    -0.191546556103E+03    0.33476E-03   -0.90461E-03 11080   0.549E-01    0.451E-01
DAV:   5    -0.191545107625E+03    0.14485E-02   -0.71850E-03 10680   0.554E-01    0.286E-01
DAV:   6    -0.191544473585E+03    0.63404E-03   -0.24949E-03 10000   0.269E-01    0.115E-01
DAV:   7    -0.191544305543E+03    0.16804E-03   -0.78271E-04 10440   0.116E-01    0.631E-02
DAV:   8    -0.191544318220E+03   -0.12677E-04   -0.29990E-04  8320   0.114E-01
   7 F= -.19154432E+03 E0= -.19143467E+03  d E =-.574553E-01
       N       E                     dE             d eps       ncg     rms          rms(c)
DAV:   1    -0.191550130125E+03   -0.58246E-02   -0.66030E-02  8160   0.566E-01    0.979E-02
DAV:   2    -0.191550517670E+03   -0.38754E-03   -0.35433E-03 11520   0.264E-01    0.195E-01
DAV:   3    -0.191550152723E+03    0.36495E-03   -0.11693E-03 10240   0.246E-01    0.801E-02
DAV:   4    -0.191550123884E+03    0.28839E-04   -0.27886E-04  6200   0.106E-01
   8 F= -.19155012E+03 E0= -.19144051E+03  d E =-.580566E-02
       N       E                     dE             d eps       ncg     rms          rms(c)
DAV:   1    -0.191529781528E+03    0.20371E-01   -0.66459E+00  8160   0.575E+00    0.119E+00
DAV:   2    -0.191560834148E+03   -0.31053E-01   -0.43809E-01 12720   0.306E+00    0.209E+00
DAV:   3    -0.191518535775E+03    0.42298E-01   -0.15389E-01 12280   0.284E+00    0.107E+00
DAV:   4    -0.191515462439E+03    0.30733E-02   -0.72148E-02 11560   0.159E+00    0.122E+00
DAV:   5    -0.191506711492E+03    0.87509E-02   -0.62793E-02 10760   0.154E+00    0.767E-01
DAV:   6    -0.191499124323E+03    0.75872E-02   -0.17172E-02 10280   0.722E-01    0.144E-01
DAV:   7    -0.191499215750E+03   -0.91427E-04   -0.31967E-03 11920   0.249E-01    0.168E-01
DAV:   8    -0.191499123500E+03    0.92250E-04   -0.15476E-03 10520   0.262E-01    0.158E-01
DAV:   9    -0.191498864287E+03    0.25921E-03   -0.44652E-04  8520   0.140E-01    0.302E-02
DAV:  10    -0.191498900922E+03   -0.36635E-04   -0.80540E-05  6200   0.328E-02
   9 F= -.19149890E+03 E0= -.19139035E+03  d E =0.512230E-01
       N       E                     dE             d eps       ncg     rms          rms(c)
DAV:   1    -0.191474230824E+03    0.24633E-01   -0.95310E-01  8160   0.209E+00    0.315E-01
DAV:   2    -0.191479647867E+03   -0.54170E-02   -0.43803E-02 13560   0.975E-01    0.666E-01
DAV:   3    -0.191474936113E+03    0.47118E-02   -0.13479E-02 12360   0.834E-01    0.245E-01
DAV:   4    -0.191474777759E+03    0.15835E-03   -0.33994E-03 11200   0.346E-01    0.270E-01
DAV:   5    -0.191474309759E+03    0.46800E-03   -0.31206E-03  9920   0.363E-01    0.188E-01
DAV:   6    -0.191473966233E+03    0.34353E-03   -0.12227E-03  9680   0.193E-01    0.632E-02
DAV:   7    -0.191474003717E+03   -0.37484E-04   -0.38847E-04  7600   0.116E-01
  10 F= -.19147400E+03 E0= -.19136612E+03  d E =0.248972E-01
       N       E                     dE             d eps       ncg     rms          rms(c)
DAV:   1    -0.191713007793E+03   -0.23904E+00   -0.39659E+01  8160   0.138E+01    0.224E+00
DAV:   2    -0.192042454705E+03   -0.32945E+00   -0.18057E+00 13600   0.728E+00    0.603E+00
DAV:   3    -0.191703126109E+03    0.33933E+00   -0.93932E-01 12240   0.687E+00    0.151E+00
DAV:   4    -0.191715719229E+03   -0.12593E-01   -0.18251E-01 12320   0.270E+00    0.239E+00
DAV:   5    -0.191669233942E+03    0.46485E-01   -0.17786E-01 11320   0.279E+00    0.127E+00
DAV:   6    -0.191652252430E+03    0.16982E-01   -0.59480E-02 11680   0.128E+00    0.507E-01
DAV:   7    -0.191654676396E+03   -0.24240E-02   -0.24726E-02 11960   0.984E-01    0.768E-01
DAV:   8    -0.191649157555E+03    0.55188E-02   -0.13436E-02 11600   0.763E-01    0.185E-01
DAV:   9    -0.191648611289E+03    0.54627E-03   -0.12243E-03 10200   0.160E-01    0.678E-02
DAV:  10    -0.191648604970E+03    0.63186E-05   -0.42952E-04  9680   0.651E-02
  11 F= -.19164860E+03 E0= -.19154039E+03  d E =-.174601E+00
       N       E                     dE             d eps       ncg     rms          rms(c)
DAV:   1    -0.191612136118E+03    0.36475E-01   -0.58346E+00  8160   0.527E+00    0.932E-01
DAV:   2    -0.191648116806E+03   -0.35981E-01   -0.28226E-01 12720   0.276E+00    0.197E+00
DAV:   3    -0.191604113364E+03    0.44003E-01   -0.10224E-01 12240   0.237E+00    0.665E-01
DAV:   4    -0.191603600054E+03    0.51331E-03   -0.33818E-02 11400   0.104E+00    0.805E-01
DAV:   5    -0.191600652576E+03    0.29475E-02   -0.28874E-02 12240   0.115E+00    0.683E-01
DAV:   6    -0.191595514432E+03    0.51381E-02   -0.12887E-02 11080   0.674E-01    0.167E-01
DAV:   7    -0.191595778339E+03   -0.26391E-03   -0.32083E-03 12680   0.311E-01    0.240E-01
DAV:   8    -0.191595294236E+03    0.48410E-03   -0.16798E-03 10200   0.268E-01    0.904E-02
DAV:   9    -0.191595214754E+03    0.79483E-04   -0.19282E-04  5920   0.800E-02
  12 F= -.19159521E+03 E0= -.19148477E+03  d E =0.533902E-01
       N       E                     dE             d eps       ncg     rms          rms(c)
DAV:   1    -0.191682605571E+03   -0.87311E-01   -0.89950E+00  8160   0.640E+00    0.828E-01
DAV:   2    -0.191736355282E+03   -0.53750E-01   -0.32023E-01 13600   0.283E+00    0.210E+00
DAV:   3    -0.191691447607E+03    0.44908E-01   -0.11398E-01 12240   0.245E+00    0.590E-01
DAV:   4    -0.191691874567E+03   -0.42696E-03   -0.24491E-02 12280   0.914E-01    0.769E-01
DAV:   5    -0.191687232258E+03    0.46423E-02   -0.20231E-02 11880   0.965E-01    0.438E-01
DAV:   6    -0.191685537001E+03    0.16953E-02   -0.67929E-03 11560   0.467E-01    0.211E-01
DAV:   7    -0.191686212523E+03   -0.67552E-03   -0.46289E-03 11560   0.441E-01    0.361E-01
DAV:   8    -0.191684925024E+03    0.12875E-02   -0.24113E-03  9760   0.330E-01    0.542E-02
DAV:   9    -0.191684907175E+03    0.17849E-04   -0.12854E-04  5680   0.509E-02
  13 F= -.19168491E+03 E0= -.19157829E+03  d E =-.896924E-01
       N       E                     dE             d eps       ncg     rms          rms(c)
DAV:   1    -0.191708615047E+03   -0.23690E-01   -0.58544E-01  8160   0.166E+00    0.240E-01
DAV:   2    -0.191714004817E+03   -0.53898E-02   -0.28261E-02 13080   0.882E-01    0.698E-01
DAV:   3    -0.191709373762E+03    0.46311E-02   -0.11233E-02 11160   0.735E-01    0.202E-01
DAV:   4    -0.191709680288E+03   -0.30653E-03   -0.28897E-03 10080   0.359E-01    0.278E-01
DAV:   5    -0.191708864979E+03    0.81531E-03   -0.16124E-03  9600   0.291E-01    0.797E-02
DAV:   6    -0.191708822362E+03    0.42616E-04   -0.42269E-04  8120   0.860E-02
  14 F= -.19170882E+03 E0= -.19160341E+03  d E =-.239152E-01
       N       E                     dE             d eps       ncg     rms          rms(c)
DAV:   1    -0.191701209134E+03    0.76558E-02   -0.35294E-01  8160   0.128E+00    0.177E-01
DAV:   2    -0.191702928760E+03   -0.17196E-02   -0.12332E-02 12720   0.543E-01    0.410E-01
DAV:   3    -0.191701290624E+03    0.16381E-02   -0.51275E-03 11440   0.496E-01    0.174E-01
DAV:   4    -0.191701260521E+03    0.30103E-04   -0.15404E-03  9520   0.249E-01    0.179E-01
DAV:   5    -0.191701062446E+03    0.19808E-03   -0.11252E-03  9560   0.230E-01    0.115E-01
DAV:   6    -0.191700895552E+03    0.16689E-03   -0.40404E-04  7760   0.119E-01    0.252E-02
DAV:   7    -0.191700902081E+03   -0.65292E-05   -0.81318E-05  6920   0.368E-02
  15 F= -.19170090E+03 E0= -.19159477E+03  d E =0.792028E-02
       N       E                     dE             d eps       ncg     rms          rms(c)
DAV:   1    -0.191776179832E+03   -0.75284E-01   -0.64521E+00  8160   0.540E+00    0.626E-01
DAV:   2    -0.191806995980E+03   -0.30816E-01   -0.20188E-01 13440   0.207E+00    0.155E+00
DAV:   3    -0.191785503500E+03    0.21492E-01   -0.68791E-02 12040   0.182E+00    0.598E-01
DAV:   4    -0.191786019478E+03   -0.51598E-03   -0.20007E-02 12240   0.928E-01    0.690E-01
DAV:   5    -0.191781256312E+03    0.47632E-02   -0.10869E-02 12120   0.777E-01    0.252E-01
DAV:   6    -0.191780675213E+03    0.58110E-03   -0.33330E-03 10760   0.291E-01    0.147E-01
DAV:   7    -0.191781071438E+03   -0.39623E-03   -0.24143E-03 12360   0.333E-01    0.261E-01
DAV:   8    -0.191780356294E+03    0.71514E-03   -0.11625E-03  9520   0.254E-01    0.410E-02
DAV:   9    -0.191780349973E+03    0.63205E-05   -0.77933E-05  5880   0.404E-02
  16 F= -.19178035E+03 E0= -.19167981E+03  d E =-.794479E-01
       N       E                     dE             d eps       ncg     rms          rms(c)
DAV:   1    -0.191833357996E+03   -0.53002E-01   -0.31119E+00  8160   0.376E+00    0.436E-01
DAV:   2    -0.191849766010E+03   -0.16408E-01   -0.10686E-01 12320   0.146E+00    0.113E+00
DAV:   3    -0.191838909041E+03    0.10857E-01   -0.35744E-02 11880   0.129E+00    0.431E-01
DAV:   4    -0.191838675007E+03    0.23403E-03   -0.86132E-03 11320   0.626E-01    0.426E-01
DAV:   5    -0.191836751629E+03    0.19234E-02   -0.40450E-03 11080   0.508E-01    0.164E-01
DAV:   6    -0.191836530867E+03    0.22076E-03   -0.14338E-03 11560   0.189E-01    0.847E-02
DAV:   7    -0.191836427930E+03    0.10294E-03   -0.50384E-04  9920   0.890E-02    0.458E-02
DAV:   8    -0.191836418101E+03    0.98282E-05   -0.11183E-04  7560   0.784E-02
  17 F= -.19183642E+03 E0= -.19173961E+03  d E =-.560681E-01
       N       E                     dE             d eps       ncg     rms          rms(c)
DAV:   1    -0.191952690825E+03   -0.11626E+00   -0.83122E+01  8160   0.196E+01    0.209E+00
DAV:   2    -0.192294755099E+03   -0.34206E+00   -0.27439E+00 11520   0.658E+00    0.502E+00
DAV:   3    -0.192139347194E+03    0.15541E+00   -0.89601E-01 12040   0.636E+00    0.215E+00
DAV:   4    -0.192104755652E+03    0.34592E-01   -0.14102E-01 12520   0.281E+00    0.164E+00
DAV:   5    -0.192073808796E+03    0.30947E-01   -0.65427E-02 11520   0.227E+00    0.870E-01
DAV:   6    -0.192067569966E+03    0.62388E-02   -0.37751E-02 12720   0.109E+00    0.486E-01
DAV:   7    -0.192065278885E+03    0.22911E-02   -0.15325E-02 12720   0.767E-01    0.479E-01
DAV:   8    -0.192063028772E+03    0.22501E-02   -0.54371E-03 12680   0.611E-01    0.177E-01
DAV:   9    -0.192062646292E+03    0.38248E-03   -0.11059E-03 11400   0.196E-01    0.776E-02
DAV:  10    -0.192062503884E+03    0.14241E-03   -0.49964E-04  9880   0.790E-02    0.438E-02
DAV:  11    -0.192062512422E+03   -0.85377E-05   -0.15651E-04  7080   0.459E-02
  18 F= -.19206251E+03 E0= -.19197749E+03  d E =-.226094E+00
       N       E                     dE             d eps       ncg     rms          rms(c)
DAV:   1    -0.192031273296E+03    0.31231E-01   -0.69803E+00  8160   0.556E+00    0.539E-01
DAV:   2    -0.192045644833E+03   -0.14372E-01   -0.13553E-01 12760   0.138E+00    0.100E+00
DAV:   3    -0.192038137713E+03    0.75071E-02   -0.33956E-02 12360   0.139E+00    0.636E-01
DAV:   4    -0.192034041684E+03    0.40960E-02   -0.10806E-02 12280   0.640E-01    0.241E-01
DAV:   5    -0.192033818701E+03    0.22298E-03   -0.43621E-03 12640   0.438E-01    0.269E-01
DAV:   6    -0.192033444708E+03    0.37399E-03   -0.30212E-03 11400   0.476E-01    0.207E-01
DAV:   7    -0.192032978568E+03    0.46614E-03   -0.10246E-03 10680   0.243E-01    0.933E-02
DAV:   8    -0.192032918078E+03    0.60491E-04   -0.30230E-04  8960   0.142E-01
  19 F= -.19203292E+03 E0= -.19194505E+03  d E =0.295943E-01
       N       E                     dE             d eps       ncg     rms          rms(c)
DAV:   1    -0.192058888687E+03   -0.25910E-01   -0.52604E+01  8160   0.155E+01    0.159E+00
DAV:   2    -0.192232611858E+03   -0.17372E+00   -0.16670E+00 11120   0.467E+00    0.305E+00
DAV:   3    -0.192182278215E+03    0.50334E-01   -0.39675E-01 12000   0.448E+00    0.180E+00
DAV:   4    -0.192145737932E+03    0.36540E-01   -0.71932E-02 12600   0.190E+00    0.843E-01
DAV:   5    -0.192141806197E+03    0.39317E-02   -0.32011E-02 12080   0.156E+00    0.813E-01
DAV:   6    -0.192136349157E+03    0.54570E-02   -0.23992E-02 12640   0.113E+00    0.399E-01
DAV:   7    -0.192134060741E+03    0.22884E-02   -0.79436E-03 12640   0.537E-01    0.284E-01
DAV:   8    -0.192133394796E+03    0.66595E-03   -0.26390E-03 12600   0.413E-01    0.150E-01
DAV:   9    -0.192133113530E+03    0.28127E-03   -0.66274E-04 10240   0.171E-01    0.588E-02
DAV:  10    -0.192133032214E+03    0.81316E-04   -0.31615E-04  9320   0.607E-02
  20 F= -.19213303E+03 E0= -.19204986E+03  d E =-.100114E+00
       N       E                     dE             d eps       ncg     rms          rms(c)
DAV:   1    -0.192127308963E+03    0.58046E-02   -0.40147E+00  8160   0.425E+00    0.431E-01
DAV:   2    -0.192136039202E+03   -0.87302E-02   -0.96386E-02 11080   0.111E+00    0.694E-01
DAV:   3    -0.192133627948E+03    0.24113E-02   -0.21394E-02 12640   0.111E+00    0.550E-01
DAV:   4    -0.192130429323E+03    0.31986E-02   -0.70102E-03 12400   0.560E-01    0.169E-01
DAV:   5    -0.192130320298E+03    0.10903E-03   -0.21126E-03 11840   0.263E-01    0.189E-01
DAV:   6    -0.192130350197E+03   -0.29899E-04   -0.17770E-03 11680   0.363E-01    0.196E-01
DAV:   7    -0.192129938894E+03    0.41130E-03   -0.74563E-04  9360   0.226E-01    0.639E-02
DAV:   8    -0.192129900912E+03    0.37982E-04   -0.12410E-04  6600   0.974E-02
  21 F= -.19212990E+03 E0= -.19204502E+03  d E =0.313130E-02
       N       E                     dE             d eps       ncg     rms          rms(c)
DAV:   1    -0.192141492286E+03   -0.11553E-01   -0.10116E+00  8160   0.214E+00    0.236E-01
DAV:   2    -0.192144154275E+03   -0.26620E-02   -0.35471E-02 11720   0.568E-01    0.271E-01
DAV:   3    -0.192144612385E+03   -0.45811E-03   -0.48828E-03 12400   0.568E-01    0.358E-01
DAV:   4    -0.192143225816E+03    0.13866E-02   -0.20987E-03 10160   0.365E-01    0.102E-01
DAV:   5    -0.192143304182E+03   -0.78366E-04   -0.83633E-04  9920   0.220E-01
  22 F= -.19214330E+03 E0= -.19205867E+03  d E =-.134033E-01
       N       E                     dE             d eps       ncg     rms          rms(c)
DAV:   1    -0.192146714967E+03   -0.34892E-02   -0.86128E-02  8160   0.655E-01    0.117E-01
DAV:   2    -0.192147947864E+03   -0.12329E-02   -0.50175E-03 12760   0.403E-01    0.323E-01
DAV:   3    -0.192146777352E+03    0.11705E-02   -0.22026E-03 11000   0.388E-01    0.895E-02
DAV:   4    -0.192146736756E+03    0.40596E-04   -0.35654E-04  8520   0.113E-01
  23 F= -.19214674E+03 E0= -.19206245E+03  d E =-.343257E-02
       N       E                     dE             d eps       ncg     rms          rms(c)
DAV:   1    -0.192156073282E+03   -0.92959E-02   -0.69084E-01  8160   0.178E+00    0.218E-01
DAV:   2    -0.192158967026E+03   -0.28937E-02   -0.26712E-02 11400   0.644E-01    0.367E-01
DAV:   3    -0.192157821174E+03    0.11459E-02   -0.45775E-03 12000   0.556E-01    0.215E-01
DAV:   4    -0.192157622071E+03    0.19910E-03   -0.15270E-03 10080   0.297E-01    0.183E-01
DAV:   5    -0.192157302974E+03    0.31910E-03   -0.79494E-04  9400   0.246E-01    0.823E-02
DAV:   6    -0.192157324429E+03   -0.21455E-04   -0.36566E-04  8880   0.118E-01
  24 F= -.19215732E+03 E0= -.19207312E+03  d E =-.105877E-01
       N       E                     dE             d eps       ncg     rms          rms(c)
DAV:   1    -0.192161803226E+03   -0.45003E-02   -0.14864E-01  8160   0.848E-01    0.121E-01
DAV:   2    -0.192162076452E+03   -0.27323E-03   -0.63528E-03 10280   0.238E-01    0.105E-01
DAV:   3    -0.192162235821E+03   -0.15937E-03   -0.10431E-03 11360   0.252E-01    0.177E-01
DAV:   4    -0.192161918079E+03    0.31774E-03   -0.52956E-04  8520   0.206E-01    0.595E-02
DAV:   5    -0.192161904775E+03    0.13304E-04   -0.15635E-04  5680   0.954E-02
  25 F= -.19216190E+03 E0= -.19207773E+03  d E =-.458035E-02
       N       E                     dE             d eps       ncg     rms          rms(c)
DAV:   1    -0.192169573997E+03   -0.76559E-02   -0.53795E-01  8160   0.157E+00    0.180E-01
DAV:   2    -0.192171008664E+03   -0.14347E-02   -0.19444E-02 10480   0.403E-01    0.174E-01
DAV:   3    -0.192171183167E+03   -0.17450E-03   -0.19769E-03 12840   0.395E-01    0.215E-01
DAV:   4    -0.192170581606E+03    0.60156E-03   -0.70683E-04 10120   0.246E-01    0.563E-02
DAV:   5    -0.192170735590E+03   -0.15398E-03   -0.39441E-04  9040   0.154E-01    0.124E-01
DAV:   6    -0.192170593867E+03    0.14172E-03   -0.34909E-04  8240   0.163E-01    0.448E-02
DAV:   7    -0.192170567646E+03    0.26221E-04   -0.61838E-05  5640   0.491E-02
  26 F= -.19217057E+03 E0= -.19208659E+03  d E =-.866287E-02
       N       E                     dE             d eps       ncg     rms          rms(c)
DAV:   1    -0.192178950286E+03   -0.83564E-02   -0.79422E-01  8160   0.191E+00    0.224E-01
DAV:   2    -0.192180886033E+03   -0.19357E-02   -0.29817E-02 11160   0.446E-01    0.172E-01
DAV:   3    -0.192181704579E+03   -0.81855E-03   -0.32906E-03 12120   0.469E-01    0.333E-01
DAV:   4    -0.192180428724E+03    0.12759E-02   -0.16294E-03 10040   0.357E-01    0.903E-02
DAV:   5    -0.192180583183E+03   -0.15446E-03   -0.59509E-04  9240   0.210E-01    0.144E-01
DAV:   6    -0.192180394422E+03    0.18876E-03   -0.46657E-04  8840   0.188E-01    0.594E-02
DAV:   7    -0.192180366875E+03    0.27547E-04   -0.14716E-04  6840   0.891E-02
  27 F= -.19218037E+03 E0= -.19209657E+03  d E =-.979923E-02
       N       E                     dE             d eps       ncg     rms          rms(c)
DAV:   1    -0.192185147681E+03   -0.47533E-02   -0.12669E+01  8160   0.764E+00    0.852E-01
DAV:   2    -0.192220100869E+03   -0.34953E-01   -0.45926E-01 11720   0.195E+00    0.831E-01
DAV:   3    -0.192227535936E+03   -0.74351E-02   -0.52185E-02 11440   0.192E+00    0.123E+00
DAV:   4    -0.192211352682E+03    0.16183E-01   -0.25889E-02 11120   0.135E+00    0.439E-01
DAV:   5    -0.192211743073E+03   -0.39039E-03   -0.89322E-03 10800   0.853E-01    0.486E-01
DAV:   6    -0.192209840357E+03    0.19027E-02   -0.61375E-03 11920   0.596E-01    0.240E-01
DAV:   7    -0.192209339700E+03    0.50066E-03   -0.24851E-03 12440   0.379E-01    0.188E-01
DAV:   8    -0.192208942572E+03    0.39713E-03   -0.83083E-04  9320   0.212E-01    0.414E-02
DAV:   9    -0.192208917020E+03    0.25553E-04   -0.13650E-04  6360   0.441E-02
  28 F= -.19220892E+03 E0= -.19212540E+03  d E =-.285501E-01
       N       E                     dE             d eps       ncg     rms          rms(c)
DAV:   1    -0.192209993687E+03   -0.10511E-02   -0.82148E-02  8160   0.619E-01    0.100E-01
DAV:   2    -0.192211111506E+03   -0.11178E-02   -0.55325E-03 11800   0.433E-01    0.298E-01
DAV:   3    -0.192210128497E+03    0.98301E-03   -0.17213E-03 10080   0.343E-01    0.671E-02
DAV:   4    -0.192210124170E+03    0.43275E-05   -0.22043E-04  8320   0.115E-01
  29 F= -.19221012E+03 E0= -.19212655E+03  d E =-.120715E-02
       N       E                     dE             d eps       ncg     rms          rms(c)
DAV:   1    -0.192211732739E+03   -0.16042E-02   -0.10423E-01  8160   0.693E-01    0.952E-02
DAV:   2    -0.192212431468E+03   -0.69873E-03   -0.48236E-03 12040   0.321E-01    0.194E-01
DAV:   3    -0.192211975192E+03    0.45628E-03   -0.89212E-04 11160   0.269E-01    0.672E-02
DAV:   4    -0.192211965545E+03    0.96468E-05   -0.15936E-04  7120   0.959E-02
  30 F= -.19221197E+03 E0= -.19212827E+03  d E =-.184138E-02
       N       E                     dE             d eps       ncg     rms          rms(c)
DAV:   1    -0.192213427768E+03   -0.14526E-02   -0.96185E-02  8160   0.669E-01    0.954E-02
DAV:   2    -0.192214082988E+03   -0.65522E-03   -0.42994E-03 11600   0.289E-01    0.214E-01
DAV:   3    -0.192213608100E+03    0.47489E-03   -0.11197E-03 10360   0.269E-01    0.791E-02
DAV:   4    -0.192213597606E+03    0.10494E-04   -0.22206E-04  7320   0.106E-01
  31 F= -.19221360E+03 E0= -.19212983E+03  d E =-.163206E-02
       N       E                     dE             d eps       ncg     rms          rms(c)
DAV:   1    -0.192215158482E+03   -0.15504E-02   -0.13481E-01  8160   0.788E-01    0.107E-01
DAV:   2    -0.192215668352E+03   -0.50987E-03   -0.52454E-03 11480   0.263E-01    0.173E-01
DAV:   3    -0.192215458059E+03    0.21029E-03   -0.11266E-03 10360   0.268E-01    0.117E-01
DAV:   4    -0.192215358165E+03    0.99894E-04   -0.34809E-04  8640   0.140E-01
  32 F= -.19221536E+03 E0= -.19213174E+03  d E =-.176056E-02
       N       E                     dE             d eps       ncg     rms          rms(c)
DAV:   1    -0.192215688367E+03   -0.23031E-03   -0.31124E+00  8160   0.377E+00    0.460E-01
DAV:   2    -0.192229345985E+03   -0.13658E-01   -0.12444E-01 11760   0.136E+00    0.772E-01
DAV:   3    -0.192223561749E+03    0.57842E-02   -0.20453E-02 11880   0.118E+00    0.417E-01
DAV:   4    -0.192222408672E+03    0.11531E-02   -0.58830E-03 11720   0.572E-01    0.325E-01
DAV:   5    -0.192221498803E+03    0.90987E-03   -0.31802E-03 12400   0.486E-01    0.191E-01
DAV:   6    -0.192221404327E+03    0.94475E-04   -0.16798E-03 11920   0.265E-01    0.130E-01
DAV:   7    -0.192221256550E+03    0.14778E-03   -0.74327E-04 10040   0.204E-01    0.118E-01
DAV:   8    -0.192221110034E+03    0.14652E-03   -0.25950E-04  9320   0.131E-01    0.267E-02
DAV:   9    -0.192221107738E+03    0.22967E-05   -0.41040E-05  6160   0.288E-02
  33 F= -.19222111E+03 E0= -.19213732E+03  d E =-.574957E-02
       N       E                     dE             d eps       ncg     rms          rms(c)
DAV:   1    -0.192221431674E+03   -0.32164E-03   -0.36723E-02  8160   0.404E-01    0.552E-02
DAV:   2    -0.192221707024E+03   -0.27535E-03   -0.22927E-03 10520   0.200E-01    0.117E-01
DAV:   3    -0.192221568415E+03    0.13861E-03   -0.37695E-04  8800   0.155E-01    0.498E-02
DAV:   4    -0.192221554035E+03    0.14380E-04   -0.55938E-05  5720   0.671E-02
  34 F= -.19222155E+03 E0= -.19213778E+03  d E =-.446297E-03
