<?xml version="1.0" encoding="ISO-8859-1"?>
<modeling>
 <generator>
  <i name="program" type="string">vasp </i>
  <i name="version" type="string">5.4.1  </i>
  <i name="subversion" type="string">05Feb16 (build Jul 05 2020 17:13:04) complex                          parallel </i>
  <i name="platform" type="string">IFC91_ompi </i>
  <i name="date" type="string">2024 09 01 </i>
  <i name="time" type="string">03:23:44 </i>
 </generator>
 <incar>
  <i type="int" name="ISTART">     0</i>
  <i type="string" name="PREC">normal</i>
  <i type="string" name="ALGO"> Normal</i>
  <i type="int" name="ISPIN">     1</i>
  <i type="int" name="ICHARG">     2</i>
  <i type="int" name="IBRION">     1</i>
  <i type="int" name="NSW">   100</i>
  <i type="int" name="ISIF">     3</i>
  <i type="int" name="ISYM">     0</i>
  <i name="SYMPREC">      0.00000001</i>
  <i name="POTIM">      0.50000000</i>
  <i type="logical" name="LREAL"> F  </i>
  <i type="logical" name="LPLANE"> F  </i>
  <i type="int" name="ISMEAR">     0</i>
  <i type="logical" name="LWAVE"> F  </i>
  <i type="logical" name="LCHARG"> F  </i>
  <v type="int" name="KPOINT_BSE">    -1     0     0     0</v>
 </incar>
 <kpoints>
  <generation param="Gamma">
   <v type="int" name="divisions">       8        8        1 </v>
   <v name="usershift">      0.00000000       0.00000000       0.00000000 </v>
   <v name="genvec1">      0.12500000       0.00000000       0.00000000 </v>
   <v name="genvec2">     -0.00000000       0.12500000       0.00000000 </v>
   <v name="genvec3">      0.00000000       0.00000000       1.00000000 </v>
   <v name="shift">      0.00000000       0.00000000       0.00000000 </v>
  </generation>
  <varray name="kpointlist" >
   <v>       0.00000000       0.00000000       0.00000000 </v>
   <v>       0.12500000       0.00000000       0.00000000 </v>
   <v>       0.25000000       0.00000000       0.00000000 </v>
   <v>       0.37500000       0.00000000       0.00000000 </v>
   <v>       0.50000000       0.00000000       0.00000000 </v>
   <v>       0.00000000       0.12500000       0.00000000 </v>
   <v>       0.12500000       0.12500000       0.00000000 </v>
   <v>       0.25000000       0.12500000       0.00000000 </v>
   <v>       0.37500000       0.12500000       0.00000000 </v>
   <v>       0.50000000       0.12500000       0.00000000 </v>
   <v>      -0.37500000       0.12500000       0.00000000 </v>
   <v>      -0.25000000       0.12500000       0.00000000 </v>
   <v>      -0.12500000       0.12500000       0.00000000 </v>
   <v>       0.00000000       0.25000000       0.00000000 </v>
   <v>       0.12500000       0.25000000       0.00000000 </v>
   <v>       0.25000000       0.25000000       0.00000000 </v>
   <v>       0.37500000       0.25000000       0.00000000 </v>
   <v>       0.50000000       0.25000000       0.00000000 </v>
   <v>      -0.37500000       0.25000000       0.00000000 </v>
   <v>      -0.25000000       0.25000000       0.00000000 </v>
   <v>      -0.12500000       0.25000000       0.00000000 </v>
   <v>      -0.00000000       0.37500000       0.00000000 </v>
   <v>       0.12500000       0.37500000       0.00000000 </v>
   <v>       0.25000000       0.37500000       0.00000000 </v>
   <v>       0.37500000       0.37500000       0.00000000 </v>
   <v>       0.50000000       0.37500000       0.00000000 </v>
   <v>      -0.37500000       0.37500000       0.00000000 </v>
   <v>      -0.25000000       0.37500000       0.00000000 </v>
   <v>      -0.12500000       0.37500000       0.00000000 </v>
   <v>       0.00000000       0.50000000       0.00000000 </v>
   <v>       0.12500000       0.50000000       0.00000000 </v>
   <v>       0.25000000       0.50000000       0.00000000 </v>
   <v>       0.37500000       0.50000000       0.00000000 </v>
   <v>       0.50000000       0.50000000       0.00000000 </v>
  </varray>
  <varray name="weights" >
   <v>       0.01562500 </v>
   <v>       0.03125000 </v>
   <v>       0.03125000 </v>
   <v>       0.03125000 </v>
   <v>       0.01562500 </v>
   <v>       0.03125000 </v>
   <v>       0.03125000 </v>
   <v>       0.03125000 </v>
   <v>       0.03125000 </v>
   <v>       0.03125000 </v>
   <v>       0.03125000 </v>
   <v>       0.03125000 </v>
   <v>       0.03125000 </v>
   <v>       0.03125000 </v>
   <v>       0.03125000 </v>
   <v>       0.03125000 </v>
   <v>       0.03125000 </v>
   <v>       0.03125000 </v>
   <v>       0.03125000 </v>
   <v>       0.03125000 </v>
   <v>       0.03125000 </v>
   <v>       0.03125000 </v>
   <v>       0.03125000 </v>
   <v>       0.03125000 </v>
   <v>       0.03125000 </v>
   <v>       0.03125000 </v>
   <v>       0.03125000 </v>
   <v>       0.03125000 </v>
   <v>       0.03125000 </v>
   <v>       0.01562500 </v>
   <v>       0.03125000 </v>
   <v>       0.03125000 </v>
   <v>       0.03125000 </v>
   <v>       0.01562500 </v>
  </varray>
 </kpoints>
 <parameters>
  <separator name="general" >
   <i type="string" name="SYSTEM">unknown system</i>
   <i type="logical" name="LCOMPAT"> F  </i>
  </separator>
  <separator name="electronic" >
   <i type="string" name="PREC">normal</i>
   <i name="ENMAX">    280.00000000</i>
   <i name="ENAUG">    373.43800000</i>
   <i name="EDIFF">      0.00010000</i>
   <i type="int" name="IALGO">    38</i>
   <i type="int" name="IWAVPR">    11</i>
   <i type="int" name="NBANDS">   120</i>
   <i name="NELECT">    159.00000000</i>
   <i type="int" name="TURBO">     0</i>
   <i type="int" name="IRESTART">     0</i>
   <i type="int" name="NREBOOT">     0</i>
   <i type="int" name="NMIN">     0</i>
   <i name="EREF">      0.00000000</i>
   <separator name="electronic smearing" >
    <i type="int" name="ISMEAR">     0</i>
    <i name="SIGMA">      0.20000000</i>
    <i name="KSPACING">      0.50000000</i>
    <i type="logical" name="KGAMMA"> T  </i>
   </separator>
   <separator name="electronic projectors" >
    <i type="logical" name="LREAL"> F  </i>
    <v name="ROPT">      0.00000000      0.00000000      0.00000000      0.00000000</v>
    <i type="int" name="LMAXPAW">  -100</i>
    <i type="int" name="LMAXMIX">     2</i>
    <i type="logical" name="NLSPLINE"> F  </i>
   </separator>
   <separator name="electronic startup" >
    <i type="int" name="ISTART">     0</i>
    <i type="int" name="ICHARG">     2</i>
    <i type="int" name="INIWAV">     1</i>
   </separator>
   <separator name="electronic spin" >
    <i type="int" name="ISPIN">     1</i>
    <i type="logical" name="LNONCOLLINEAR"> F  </i>
    <v name="MAGMOM">      1.00000000      1.00000000      1.00000000      1.00000000      1.00000000      1.00000000      1.00000000      1.00000000      1.00000000      1.00000000      1.00000000      1.00000000      1.00000000      1.00000000      1.00000000      1.00000000      1.00000000      1.00000000      1.00000000      1.00000000
      1.00000000      1.00000000      1.00000000      1.00000000      1.00000000      1.00000000      1.00000000</v>
    <i name="NUPDOWN">     -1.00000000</i>
    <i type="logical" name="LSORBIT"> F  </i>
    <v name="SAXIS">      0.00000000      0.00000000      1.00000000</v>
    <i type="logical" name="LSPIRAL"> F  </i>
    <v name="QSPIRAL">      0.00000000      0.00000000      0.00000000</v>
    <i type="logical" name="LZEROZ"> F  </i>
   </separator>
   <separator name="electronic exchange-correlation" >
    <i type="logical" name="LASPH"> F  </i>
    <i type="logical" name="LMETAGGA"> F  </i>
   </separator>
   <separator name="electronic convergence" >
    <i type="int" name="NELM">    60</i>
    <i type="int" name="NELMDL">    -5</i>
    <i type="int" name="NELMIN">     2</i>
    <i name="ENINI">    280.00000000</i>
    <separator name="electronic convergence detail" >
     <i type="logical" name="LDIAG"> T  </i>
     <i type="logical" name="LSUBROT"> F  </i>
     <i name="WEIMIN">      0.00100000</i>
     <i name="EBREAK">      0.00000021</i>
     <i name="DEPER">      0.30000000</i>
     <i type="int" name="NRMM">     4</i>
     <i name="TIME">      0.40000000</i>
    </separator>
   </separator>
   <separator name="electronic mixer" >
    <i name="AMIX">      0.40000000</i>
    <i name="BMIX">      1.00000000</i>
    <i name="AMIN">      0.10000000</i>
    <i name="AMIX_MAG">      1.60000000</i>
    <i name="BMIX_MAG">      1.00000000</i>
    <separator name="electronic mixer details" >
     <i type="int" name="IMIX">     4</i>
     <i type="logical" name="MIXFIRST"> F  </i>
     <i type="int" name="MAXMIX">   -45</i>
     <i name="WC">    100.00000000</i>
     <i type="int" name="INIMIX">     1</i>
     <i type="int" name="MIXPRE">     1</i>
     <i type="int" name="MREMOVE">     5</i>
    </separator>
   </separator>
   <separator name="electronic dipolcorrection" >
    <i type="logical" name="LDIPOL"> F  </i>
    <i type="logical" name="LMONO"> F  </i>
    <i type="int" name="IDIPOL">     0</i>
    <i name="EPSILON">      1.00000000</i>
    <v name="DIPOL">   -100.00000000   -100.00000000   -100.00000000</v>
    <i name="EFIELD">      0.00000000</i>
   </separator>
  </separator>
  <separator name="grids" >
   <i type="int" name="NGX">    42</i>
   <i type="int" name="NGY">    42</i>
   <i type="int" name="NGZ">   126</i>
   <i type="int" name="NGXF">    84</i>
   <i type="int" name="NGYF">    84</i>
   <i type="int" name="NGZF">   252</i>
   <i type="logical" name="ADDGRID"> F  </i>
  </separator>
  <separator name="ionic" >
   <i type="int" name="NSW">   100</i>
   <i type="int" name="IBRION">     1</i>
   <i type="int" name="ISIF">     3</i>
   <i name="PSTRESS">      0.00000000</i>
   <i name="EDIFFG">      0.00100000</i>
   <i type="int" name="NFREE">     0</i>
   <i name="POTIM">      0.50000000</i>
   <i name="SMASS">     -3.00000000</i>
   <i name="SCALEE">      1.00000000</i>
  </separator>
  <separator name="ionic md" >
   <i name="TEBEG">      0.00010000</i>
   <i name="TEEND">      0.00010000</i>
   <i type="int" name="NBLOCK">     1</i>
   <i type="int" name="KBLOCK">   100</i>
   <i type="int" name="NPACO">   256</i>
   <i name="APACO">     16.00000000</i>
  </separator>
  <separator name="symmetry" >
   <i type="int" name="ISYM">     0</i>
   <i name="SYMPREC">      0.00000001</i>
  </separator>
  <separator name="dos" >
   <i type="logical" name="LORBIT"> F  </i>
   <v name="RWIGS">     -1.00000000     -1.00000000     -1.00000000     -1.00000000</v>
   <i type="int" name="NEDOS">   301</i>
   <i name="EMIN">     10.00000000</i>
   <i name="EMAX">    -10.00000000</i>
   <i name="EFERMI">      0.00000000</i>
  </separator>
  <separator name="writing" >
   <i type="int" name="NWRITE">     2</i>
   <i type="logical" name="LWAVE"> F  </i>
   <i type="logical" name="LCHARG"> F  </i>
   <i type="logical" name="LPARD"> F  </i>
   <i type="logical" name="LVTOT"> F  </i>
   <i type="logical" name="LVHAR"> F  </i>
   <i type="logical" name="LELF"> F  </i>
   <i type="logical" name="LOPTICS"> F  </i>
   <v name="STM">      0.00000000      0.00000000      0.00000000      0.00000000      0.00000000      0.00000000      0.00000000</v>
  </separator>
  <separator name="performance" >
   <i type="int" name="NPAR">    40</i>
   <i type="int" name="NSIM">     4</i>
   <i type="int" name="NBLK">    -1</i>
   <i type="logical" name="LPLANE"> F  </i>
   <i type="logical" name="LSCALAPACK"> T  </i>
   <i type="logical" name="LSCAAWARE"> F  </i>
   <i type="logical" name="LSCALU"> F  </i>
   <i type="logical" name="LASYNC"> F  </i>
   <i type="logical" name="LORBITALREAL"> F  </i>
  </separator>
  <separator name="miscellaneous" >
   <i type="int" name="IDIOT">     3</i>
   <i type="logical" name="LMUSIC"> F  </i>
   <v name="POMASS">     50.94100000     95.94000000    183.85000000     32.06600000</v>
   <v name="DARWINR">      0.00000000      0.00000000      0.00000000      0.00000000</v>
   <v name="DARWINV">      1.00000000      1.00000000      1.00000000      1.00000000</v>
   <i type="logical" name="LCORR"> T  </i>
  </separator>
  <i type="logical" name="GGA_COMPAT"> T  </i>
  <i type="logical" name="LBERRY"> F  </i>
  <i type="int" name="ICORELEVEL">     0</i>
  <i type="logical" name="LDAU"> F  </i>
  <i type="int" name="I_CONSTRAINED_M">     0</i>
  <separator name="electronic exchange-correlation" >
   <i type="string" name="GGA">--</i>
   <i type="int" name="VOSKOWN">     0</i>
   <i type="logical" name="LHFCALC"> F  </i>
   <i type="string" name="PRECFOCK"></i>
   <i type="logical" name="LSYMGRAD"> F  </i>
   <i type="logical" name="LHFONE"> F  </i>
   <i type="logical" name="LRHFCALC"> F  </i>
   <i type="logical" name="LTHOMAS"> F  </i>
   <i type="logical" name="LMODELHF"> F  </i>
   <i name="ENCUT4O">     -1.00000000</i>
   <i type="int" name="EXXOEP">     0</i>
   <i type="int" name="FOURORBIT">     0</i>
   <i name="AEXX">      0.00000000</i>
   <i name="HFALPHA">      0.00000000</i>
   <i name="MCALPHA">      0.00000000</i>
   <i name="ALDAX">      1.00000000</i>
   <i name="AGGAX">      1.00000000</i>
   <i name="ALDAC">      1.00000000</i>
   <i name="AGGAC">      1.00000000</i>
   <i type="int" name="NKREDX">     1</i>
   <i type="int" name="NKREDY">     1</i>
   <i type="int" name="NKREDZ">     1</i>
   <i type="logical" name="SHIFTRED"> F  </i>
   <i type="logical" name="ODDONLY"> F  </i>
   <i type="logical" name="EVENONLY"> F  </i>
   <i type="int" name="LMAXFOCK">     0</i>
   <i type="int" name="NMAXFOCKAE">     0</i>
   <i type="logical" name="LFOCKAEDFT"> F  </i>
   <i name="HFSCREEN">      0.00000000</i>
   <i name="HFSCREENC">      0.00000000</i>
   <i type="int" name="NBANDSGWLOW">     0</i>
  </separator>
  <separator name="vdW DFT" >
   <i type="logical" name="LUSE_VDW"> F  </i>
   <i name="Zab_VDW">     -0.84910000</i>
   <i name="PARAM1">      0.12340000</i>
   <i name="PARAM2">      1.00000000</i>
   <i name="PARAM3">      0.00000000</i>
  </separator>
  <separator name="model GW" >
   <i type="int" name="MODEL_GW">     0</i>
   <i name="MODEL_EPS0">     58.26239943</i>
   <i name="MODEL_ALPHA">      1.00000000</i>
  </separator>
  <separator name="linear response parameters" >
   <i type="logical" name="LEPSILON"> F  </i>
   <i type="logical" name="LRPA"> F  </i>
   <i type="logical" name="LNABLA"> F  </i>
   <i type="logical" name="LVEL"> F  </i>
   <i type="int" name="KINTER">     0</i>
   <i name="CSHIFT">      0.10000000</i>
   <i name="OMEGAMAX">     -1.00000000</i>
   <i name="DEG_THRESHOLD">      0.00200000</i>
  </separator>
  <separator name="orbital magnetization" >
   <i type="logical" name="NUCIND"> F  </i>
   <v name="MAGPOS">      0.00000000      0.00000000      0.00000000</v>
   <i type="logical" name="LNICSALL"> T  </i>
   <i type="logical" name="ORBITALMAG"> F  </i>
   <i type="logical" name="LMAGBLOCH"> F  </i>
   <i type="logical" name="LCHIMAG"> F  </i>
   <i type="logical" name="LGAUGE"> T  </i>
   <i type="int" name="MAGATOM">     0</i>
   <v name="MAGDIPOL">      0.00000000      0.00000000      0.00000000</v>
   <v name="AVECCONST">      0.00000000      0.00000000      0.00000000</v>
  </separator>
  <separator name="response functions" >
   <i type="logical" name="LADDER"> F  </i>
   <i type="logical" name="LFXC"> F  </i>
   <i type="logical" name="LHARTREE"> T  </i>
   <i type="int" name="IBSE">     0</i>
   <v type="int" name="KPOINT">    -1     0     0     0</v>
   <i type="logical" name="LTCTE"> F  </i>
   <i type="logical" name="LTETE"> F  </i>
   <i type="logical" name="LTRIPLET"> F  </i>
   <i type="logical" name="LFXCEPS"> F  </i>
   <i type="logical" name="LFXHEG"> F  </i>
   <i type="int" name="NATURALO">     0</i>
   <i type="logical" name="L2ORDER"> F  </i>
   <i type="logical" name="LUSEW"> F  </i>
   <i name="ENCUTGW">     -2.00000000</i>
   <i name="ENCUTGWSOFT">     -2.00000000</i>
   <i name="ENCUTLF">     -1.00000000</i>
   <i type="int" name="LMAXMP2">    -1</i>
   <i name="SCISSOR">      0.00000000</i>
   <i type="int" name="NOMEGA">     0</i>
   <i type="int" name="NOMEGAR">     0</i>
   <i type="int" name="NBANDSGW">    -1</i>
   <i type="int" name="NBANDSO">    -1</i>
   <i type="int" name="NBANDSV">    -1</i>
   <i type="int" name="NELM">     1</i>
   <i type="int" name="NELMHF">     1</i>
   <i type="int" name="DIM">     3</i>
   <i type="int" name="ANTIRES">     0</i>
   <i name="OMEGAMAX">    -30.00000000</i>
   <i name="OMEGAMIN">    -30.00000000</i>
   <i name="OMEGATL">   -200.00000000</i>
   <i type="int" name="OMEGAGRID">     0</i>
   <i name="CSHIFT">     -0.10000000</i>
   <i type="logical" name="SELFENERGY"> F  </i>
   <i type="logical" name="LSPECTRAL"> F  </i>
   <i type="logical" name="LSPECTRALGW"> F  </i>
   <i type="logical" name="LSINGLES"> F  </i>
   <i type="logical" name="LFERMIGW"> F  </i>
   <i type="logical" name="ODDONLYGW"> F  </i>
   <i type="logical" name="EVENONLYGW"> F  </i>
   <i type="int" name="NKREDLFX">     1</i>
   <i type="int" name="NKREDLFY">     1</i>
   <i type="int" name="NKREDLFZ">     1</i>
   <i type="int" name="MAXMEM">  1800</i>
   <i type="int" name="TELESCOPE">     0</i>
   <i type="int" name="TAUPAR">     1</i>
   <i type="int" name="OMEGAPAR">    -1</i>
   <i name="LAMBDA">      1.00000000</i>
  </separator>
  <separator name="External order field" >
   <i name="OFIELD_KAPPA">      0.00000000</i>
   <v name="OFIELD_K">      0.00000000      0.00000000      0.00000000</v>
   <i name="OFIELD_Q6_NEAR">      0.00000000</i>
   <i name="OFIELD_Q6_FAR">      0.00000000</i>
   <i name="OFIELD_A">      0.00000000</i>
  </separator>
 </parameters>
 <atominfo>
  <atoms>      27 </atoms>
  <types>       4 </types>
  <array name="atoms" >
   <dimension dim="1">ion</dimension>
   <field type="string">element</field>
   <field type="int">atomtype</field>
   <set>
    <rc><c>V </c><c>   1</c></rc>
    <rc><c>V </c><c>   1</c></rc>
    <rc><c>V </c><c>   1</c></rc>
    <rc><c>Mo</c><c>   2</c></rc>
    <rc><c>Mo</c><c>   2</c></rc>
    <rc><c>Mo</c><c>   2</c></rc>
    <rc><c>W </c><c>   3</c></rc>
    <rc><c>W </c><c>   3</c></rc>
    <rc><c>W </c><c>   3</c></rc>
    <rc><c>S </c><c>   4</c></rc>
    <rc><c>S </c><c>   4</c></rc>
    <rc><c>S </c><c>   4</c></rc>
    <rc><c>S </c><c>   4</c></rc>
    <rc><c>S </c><c>   4</c></rc>
    <rc><c>S </c><c>   4</c></rc>
    <rc><c>S </c><c>   4</c></rc>
    <rc><c>S </c><c>   4</c></rc>
    <rc><c>S </c><c>   4</c></rc>
    <rc><c>S </c><c>   4</c></rc>
    <rc><c>S </c><c>   4</c></rc>
    <rc><c>S </c><c>   4</c></rc>
    <rc><c>S </c><c>   4</c></rc>
    <rc><c>S </c><c>   4</c></rc>
    <rc><c>S </c><c>   4</c></rc>
    <rc><c>S </c><c>   4</c></rc>
    <rc><c>S </c><c>   4</c></rc>
    <rc><c>S </c><c>   4</c></rc>
   </set>
  </array>
  <array name="atomtypes" >
   <dimension dim="1">type</dimension>
   <field type="int">atomspertype</field>
   <field type="string">element</field>
   <field>mass</field>
   <field>valence</field>
   <field type="string">pseudopotential</field>
   <set>
    <rc><c>   3</c><c>V </c><c>     50.94100000</c><c>      5.00000000</c><c> PAW_PBE V 08Apr2002                    </c></rc>
    <rc><c>   3</c><c>Mo</c><c>     95.94000000</c><c>      6.00000000</c><c> PAW_PBE Mo 08Apr2002                   </c></rc>
    <rc><c>   3</c><c>W </c><c>    183.85000000</c><c>      6.00000000</c><c> PAW_PBE W 08Apr2002                    </c></rc>
    <rc><c>  18</c><c>S </c><c>     32.06600000</c><c>      6.00000000</c><c>  PAW_PBE S 17Jan2003                   </c></rc>
   </set>
  </array>
 </atominfo>
 <structure name="initialpos" >
  <crystal>
   <varray name="basis" >
    <v>       8.66999996       5.03999989       0.00000000 </v>
    <v>      -8.66999982       5.04000013       0.00000000 </v>
    <v>       0.00000000       0.00000000      30.00000000 </v>
   </varray>
   <i name="volume">   2621.80797419 </i>
   <varray name="rec_basis" >
    <v>       0.05767013       0.09920635       0.00000000 </v>
    <v>      -0.05767013       0.09920635       0.00000000 </v>
    <v>       0.00000000       0.00000000       0.03333333 </v>
   </varray>
  </crystal>
  <varray name="positions" >
   <v>       0.33333334       0.00000000       0.00000000 </v>
   <v>       0.33333334       0.33333334       0.00000000 </v>
   <v>       0.66666669       0.33333334       0.00000000 </v>
   <v>       1.00000000       0.33333334       0.00000000 </v>
   <v>       0.66666669       0.00000000       0.00000000 </v>
   <v>       0.00000000       0.00000000       0.00000000 </v>
   <v>       0.00000000       0.66666669       0.00000000 </v>
   <v>       0.33333334       0.66666669       0.00000000 </v>
   <v>       0.66666669       0.66666669       0.00000000 </v>
   <v>       0.11068511       0.22244981       0.95539999 </v>
   <v>       0.22244981       0.11068511       0.04460000 </v>
   <v>       0.11068511       0.55578315       0.95539999 </v>
   <v>       0.22244981       0.44401845       0.04460000 </v>
   <v>       0.11068511       0.88911647       0.95539999 </v>
   <v>       0.22244981       0.77735180       0.04460000 </v>
   <v>       0.44401845       0.22244981       0.95539999 </v>
   <v>       0.55578315       0.11068511       0.04460000 </v>
   <v>       0.44401845       0.55578315       0.95539999 </v>
   <v>       0.55578315       0.44401845       0.04460000 </v>
   <v>       0.44401845       0.88911647       0.95539999 </v>
   <v>       0.55578315       0.77735180       0.04460000 </v>
   <v>       0.77735180       0.22244981       0.95539999 </v>
   <v>       0.88911647       0.11068511       0.04460000 </v>
   <v>       0.77735180       0.55578315       0.95539999 </v>
   <v>       0.88911647       0.44401845       0.04460000 </v>
   <v>       0.77735180       0.88911647       0.95539999 </v>
   <v>       0.88911647       0.77735180       0.04460000 </v>
  </varray>
 </structure>
 <calculation>
  <scstep>
   <time name="dav">   21.59   21.64</time>
   <time name="total">   21.64   21.69</time>
   <energy>
    <i name="alphaZ">     81.65567618 </i>
    <i name="ewald">  41891.17179524 </i>
    <i name="hartreedc"> -47723.81756559 </i>
    <i name="XCdc">   -242.92457061 </i>
    <i name="pawpsdc">   3467.42045192 </i>
    <i name="pawaedc">  -2871.19716117 </i>
    <i name="eentropy">     -0.54648211 </i>
    <i name="bandstr">   -238.72822557 </i>
    <i name="atom">   6761.44252427 </i>
    <i name="e_fr_energy">   1124.47644255 </i>
    <i name="e_wo_entrp">   1125.02292467 </i>
    <i name="e_0_energy">   1124.74968361 </i>
   </energy>
  </scstep>
  <scstep>
   <time name="dav">   28.18   28.25</time>
   <time name="total">   28.19   28.26</time>
   <energy>
    <i name="e_fr_energy">     -3.51673630 </i>
    <i name="e_wo_entrp">     -3.30793490 </i>
    <i name="e_0_energy">     -3.41233560 </i>
   </energy>
  </scstep>
  <scstep>
   <time name="dav">   27.49   27.55</time>
   <time name="total">   27.49   27.56</time>
   <energy>
    <i name="e_fr_energy">   -200.06349853 </i>
    <i name="e_wo_entrp">   -199.78401915 </i>
    <i name="e_0_energy">   -199.92375884 </i>
   </energy>
  </scstep>
  <scstep>
   <time name="dav">   30.22   30.29</time>
   <time name="total">   30.22   30.30</time>
   <energy>
    <i name="e_fr_energy">   -208.99766181 </i>
    <i name="e_wo_entrp">   -208.69376096 </i>
    <i name="e_0_energy">   -208.84571138 </i>
   </energy>
  </scstep>
  <scstep>
   <time name="dav">   27.61   27.67</time>
   <time name="total">   28.07   28.14</time>
   <energy>
    <i name="e_fr_energy">   -209.27175409 </i>
    <i name="e_wo_entrp">   -208.97061380 </i>
    <i name="e_0_energy">   -209.12118394 </i>
   </energy>
  </scstep>
  <scstep>
   <time name="dav">   30.40   30.48</time>
   <time name="total">   30.90   30.99</time>
   <energy>
    <i name="e_fr_energy">   -237.52094233 </i>
    <i name="e_wo_entrp">   -237.26872805 </i>
    <i name="e_0_energy">   -237.39483519 </i>
   </energy>
  </scstep>
  <scstep>
   <time name="dav">   32.23   32.31</time>
   <time name="total">   32.73   32.82</time>
   <energy>
    <i name="e_fr_energy">   -196.66913697 </i>
    <i name="e_wo_entrp">   -196.31842955 </i>
    <i name="e_0_energy">   -196.49378326 </i>
   </energy>
  </scstep>
  <scstep>
   <time name="dav">   29.57   29.64</time>
   <time name="total">   30.07   30.16</time>
   <energy>
    <i name="e_fr_energy">   -189.67705268 </i>
    <i name="e_wo_entrp">   -189.36842407 </i>
    <i name="e_0_energy">   -189.52273837 </i>
   </energy>
  </scstep>
  <scstep>
   <time name="dav">   31.50   31.58</time>
   <time name="total">   32.01   32.10</time>
   <energy>
    <i name="e_fr_energy">   -188.19113723 </i>
    <i name="e_wo_entrp">   -187.85422364 </i>
    <i name="e_0_energy">   -188.02268043 </i>
   </energy>
  </scstep>
  <scstep>
   <time name="dav">   32.56   32.64</time>
   <time name="total">   33.08   33.18</time>
   <energy>
    <i name="e_fr_energy">   -186.92809231 </i>
    <i name="e_wo_entrp">   -186.57636758 </i>
    <i name="e_0_energy">   -186.75222995 </i>
   </energy>
  </scstep>
  <scstep>
   <time name="dav">   32.66   32.74</time>
   <time name="total">   33.19   33.28</time>
   <energy>
    <i name="e_fr_energy">   -187.01735967 </i>
    <i name="e_wo_entrp">   -186.67682050 </i>
    <i name="e_0_energy">   -186.84709009 </i>
   </energy>
  </scstep>
  <scstep>
   <time name="dav">   31.09   31.17</time>
   <time name="total">   31.62   31.71</time>
   <energy>
    <i name="e_fr_energy">   -186.95431809 </i>
    <i name="e_wo_entrp">   -186.61937782 </i>
    <i name="e_0_energy">   -186.78684795 </i>
   </energy>
  </scstep>
  <scstep>
   <time name="dav">   32.25   32.33</time>
   <time name="total">   32.78   32.87</time>
   <energy>
    <i name="e_fr_energy">   -186.85696110 </i>
    <i name="e_wo_entrp">   -186.52112802 </i>
    <i name="e_0_energy">   -186.68904456 </i>
   </energy>
  </scstep>
  <scstep>
   <time name="dav">   31.37   31.45</time>
   <time name="total">   31.90   31.99</time>
   <energy>
    <i name="e_fr_energy">   -186.82227087 </i>
    <i name="e_wo_entrp">   -186.47805844 </i>
    <i name="e_0_energy">   -186.65016466 </i>
   </energy>
  </scstep>
  <scstep>
   <time name="dav">   29.09   29.16</time>
   <time name="total">   29.62   29.70</time>
   <energy>
    <i name="e_fr_energy">   -186.81756730 </i>
    <i name="e_wo_entrp">   -186.47360717 </i>
    <i name="e_0_energy">   -186.64558724 </i>
   </energy>
  </scstep>
  <scstep>
   <time name="dav">   31.08   31.15</time>
   <time name="total">   31.61   31.69</time>
   <energy>
    <i name="e_fr_energy">   -186.81768223 </i>
    <i name="e_wo_entrp">   -186.47506076 </i>
    <i name="e_0_energy">   -186.64637149 </i>
   </energy>
  </scstep>
  <scstep>
   <time name="dav">   31.59   31.67</time>
   <time name="total">   32.12   32.20</time>
   <energy>
    <i name="e_fr_energy">   -186.81550588 </i>
    <i name="e_wo_entrp">   -186.47311817 </i>
    <i name="e_0_energy">   -186.64431203 </i>
   </energy>
  </scstep>
  <scstep>
   <time name="dav">   28.00   28.07</time>
   <time name="total">   28.55   28.63</time>
   <energy>
    <i name="e_fr_energy">   -186.81517911 </i>
    <i name="e_wo_entrp">   -186.47233040 </i>
    <i name="e_0_energy">   -186.64375475 </i>
   </energy>
  </scstep>
  <scstep>
   <time name="dav">   23.97   24.03</time>
   <time name="total">   24.01   24.07</time>
   <energy>
    <i name="alphaZ">     81.65567618 </i>
    <i name="ewald">  41891.17179524 </i>
    <i name="hartreedc"> -47818.61862631 </i>
    <i name="XCdc">   -231.69948213 </i>
    <i name="pawpsdc">   4194.27109844 </i>
    <i name="pawaedc">  -3612.28410503 </i>
    <i name="eentropy">     -0.34281354 </i>
    <i name="bandstr">  -1452.41128150 </i>
    <i name="atom">   6761.44252427 </i>
    <i name="e_fr_energy">   -186.81521438 </i>
    <i name="e_wo_entrp">   -186.47240084 </i>
    <i name="e_0_energy">   -186.64380761 </i>
   </energy>
  </scstep>
  <structure>
   <crystal>
    <varray name="basis" >
     <v>       8.66999996       5.03999989       0.00000000 </v>
     <v>      -8.66999982       5.04000013       0.00000000 </v>
     <v>       0.00000000       0.00000000      30.00000000 </v>
    </varray>
    <i name="volume">   2621.80797419 </i>
    <varray name="rec_basis" >
     <v>       0.05767013       0.09920635       0.00000000 </v>
     <v>      -0.05767013       0.09920635       0.00000000 </v>
     <v>       0.00000000       0.00000000       0.03333333 </v>
    </varray>
   </crystal>
   <varray name="positions" >
    <v>       0.33333334       0.00000000       0.00000000 </v>
    <v>       0.33333334       0.33333334       0.00000000 </v>
    <v>       0.66666669       0.33333334       0.00000000 </v>
    <v>       1.00000000       0.33333334       0.00000000 </v>
    <v>       0.66666669       0.00000000       0.00000000 </v>
    <v>       0.00000000       0.00000000       0.00000000 </v>
    <v>       0.00000000       0.66666669       0.00000000 </v>
    <v>       0.33333334       0.66666669       0.00000000 </v>
    <v>       0.66666669       0.66666669       0.00000000 </v>
    <v>       0.11068511       0.22244981       0.95539999 </v>
    <v>       0.22244981       0.11068511       0.04460000 </v>
    <v>       0.11068511       0.55578315       0.95539999 </v>
    <v>       0.22244981       0.44401845       0.04460000 </v>
    <v>       0.11068511       0.88911647       0.95539999 </v>
    <v>       0.22244981       0.77735180       0.04460000 </v>
    <v>       0.44401845       0.22244981       0.95539999 </v>
    <v>       0.55578315       0.11068511       0.04460000 </v>
    <v>       0.44401845       0.55578315       0.95539999 </v>
    <v>       0.55578315       0.44401845       0.04460000 </v>
    <v>       0.44401845       0.88911647       0.95539999 </v>
    <v>       0.55578315       0.77735180       0.04460000 </v>
    <v>       0.77735180       0.22244981       0.95539999 </v>
    <v>       0.88911647       0.11068511       0.04460000 </v>
    <v>       0.77735180       0.55578315       0.95539999 </v>
    <v>       0.88911647       0.44401845       0.04460000 </v>
    <v>       0.77735180       0.88911647       0.95539999 </v>
    <v>       0.88911647       0.77735180       0.04460000 </v>
   </varray>
  </structure>
  <varray name="forces" >
   <v>      -0.08502201       0.14813439      -0.02005117 </v>
   <v>      -0.03953046      -0.34737745       0.01061738 </v>
   <v>       0.34081474      -0.13738788       0.01672287 </v>
   <v>       0.26109199      -0.43687399       0.07891958 </v>
   <v>       0.21559970       0.42596529      -0.09410129 </v>
   <v>      -0.50388509       0.02894044      -0.10445774 </v>
   <v>      -0.00741169      -0.00172233       0.09364634 </v>
   <v>       0.00104591       0.00676922       0.09311000 </v>
   <v>      -0.21161898       0.35348109      -0.04859480 </v>
   <v>       0.54615804       0.68364914      -2.16509014 </v>
   <v>       0.33220108       0.68222063       1.40529994 </v>
   <v>       0.06445082       0.12386300      -2.84590593 </v>
   <v>       0.64335785       0.15391219       2.11224080 </v>
   <v>       0.59999037       0.54671542      -2.11824427 </v>
   <v>      -0.45258860       0.54827348       2.20291535 </v>
   <v>       0.07185600      -0.01444733      -0.77793853 </v>
   <v>      -0.91237815       0.00009668       1.44235013 </v>
   <v>       0.48452329      -0.55910371      -2.16282593 </v>
   <v>       0.23754369      -0.52427404       1.36060878 </v>
   <v>      -0.65266152      -0.13160689      -2.07816445 </v>
   <v>      -0.07932624      -0.15904026       2.88260149 </v>
   <v>      -0.74736660      -0.02538204      -2.12229967 </v>
   <v>      -0.13877957       0.02918057       2.92990612 </v>
   <v>       0.45189440      -0.57695748      -2.16109892 </v>
   <v>      -0.60798121      -0.53035179       2.14851489 </v>
   <v>       0.20414073      -0.15785896      -2.96119370 </v>
   <v>      -0.01611849      -0.12881738       2.88251289 </v>
  </varray>
  <varray name="stress" >
   <v>       7.53290534       0.14815808      -1.64574975 </v>
   <v>       0.14815817       4.42122087       0.14846404 </v>
   <v>      -1.64574962       0.14846413      31.13399259 </v>
  </varray>
  <energy>
   <i name="e_fr_energy">   -186.81521438 </i>
   <i name="e_wo_entrp">   -186.64380761 </i>
   <i name="e_0_energy">     -0.34281354 </i>
  </energy>
  <time name="totalsc">  611.58  613.24</time>
 </calculation>
 <calculation>
  <scstep>
   <time name="dav">   21.53   21.59</time>
   <time name="total">   22.07   22.13</time>
   <energy>
    <i name="alphaZ">     78.87632548 </i>
    <i name="ewald">  39355.02479131 </i>
    <i name="hartreedc"> -45302.86204692 </i>
    <i name="XCdc">   -239.17212420 </i>
    <i name="pawpsdc">   4193.11759307 </i>
    <i name="pawaedc">  -3611.11232061 </i>
    <i name="eentropy">     -0.28225567 </i>
    <i name="bandstr">  -1422.51417202 </i>
    <i name="atom">   6761.44252427 </i>
    <i name="e_fr_energy">   -187.48168528 </i>
    <i name="e_wo_entrp">   -187.19942961 </i>
    <i name="e_0_energy">   -187.34055745 </i>
   </energy>
  </scstep>
  <scstep>
   <time name="dav">   29.44   29.51</time>
   <time name="total">   29.97   30.06</time>
   <energy>
    <i name="e_fr_energy">   -189.42003794 </i>
    <i name="e_wo_entrp">   -189.09652253 </i>
    <i name="e_0_energy">   -189.25828024 </i>
   </energy>
  </scstep>
  <scstep>
   <time name="dav">   30.18   30.26</time>
   <time name="total">   30.73   30.82</time>
   <energy>
    <i name="e_fr_energy">   -189.31647557 </i>
    <i name="e_wo_entrp">   -189.05038021 </i>
    <i name="e_0_energy">   -189.18342789 </i>
   </energy>
  </scstep>
  <scstep>
   <time name="dav">   30.60   30.68</time>
   <time name="total">   31.14   31.23</time>
   <energy>
    <i name="e_fr_energy">   -188.72551849 </i>
    <i name="e_wo_entrp">   -188.44266308 </i>
    <i name="e_0_energy">   -188.58409079 </i>
   </energy>
  </scstep>
  <scstep>
   <time name="dav">   30.38   30.45</time>
   <time name="total">   30.92   31.00</time>
   <energy>
    <i name="e_fr_energy">   -188.75120648 </i>
    <i name="e_wo_entrp">   -188.46638165 </i>
    <i name="e_0_energy">   -188.60879406 </i>
   </energy>
  </scstep>
  <scstep>
   <time name="dav">   30.11   30.19</time>
   <time name="total">   30.65   30.74</time>
   <energy>
    <i name="e_fr_energy">   -188.72535106 </i>
    <i name="e_wo_entrp">   -188.44361103 </i>
    <i name="e_0_energy">   -188.58448105 </i>
   </energy>
  </scstep>
  <scstep>
   <time name="dav">   30.60   30.68</time>
   <time name="total">   31.14   31.23</time>
   <energy>
    <i name="e_fr_energy">   -188.66173247 </i>
    <i name="e_wo_entrp">   -188.37964841 </i>
    <i name="e_0_energy">   -188.52069044 </i>
   </energy>
  </scstep>
  <scstep>
   <time name="dav">   25.24   25.31</time>
   <time name="total">   25.79   25.86</time>
   <energy>
    <i name="e_fr_energy">   -188.64009656 </i>
    <i name="e_wo_entrp">   -188.35960020 </i>
    <i name="e_0_energy">   -188.49984838 </i>
   </energy>
  </scstep>
  <scstep>
   <time name="dav">   28.46   28.52</time>
   <time name="total">   29.00   29.07</time>
   <energy>
    <i name="e_fr_energy">   -188.63876150 </i>
    <i name="e_wo_entrp">   -188.35851276 </i>
    <i name="e_0_energy">   -188.49863713 </i>
   </energy>
  </scstep>
  <scstep>
   <time name="dav">   31.21   31.29</time>
   <time name="total">   31.76   31.84</time>
   <energy>
    <i name="e_fr_energy">   -188.63894883 </i>
    <i name="e_wo_entrp">   -188.35899571 </i>
    <i name="e_0_energy">   -188.49897227 </i>
   </energy>
  </scstep>
  <scstep>
   <time name="dav">   28.24   28.31</time>
   <time name="total">   28.79   28.86</time>
   <energy>
    <i name="e_fr_energy">   -188.63793710 </i>
    <i name="e_wo_entrp">   -188.35838516 </i>
    <i name="e_0_energy">   -188.49816113 </i>
   </energy>
  </scstep>
  <scstep>
   <time name="dav">   27.77   27.84</time>
   <time name="total">   28.32   28.39</time>
   <energy>
    <i name="e_fr_energy">   -188.63820568 </i>
    <i name="e_wo_entrp">   -188.35857832 </i>
    <i name="e_0_energy">   -188.49839200 </i>
   </energy>
  </scstep>
  <scstep>
   <time name="dav">   18.61   18.66</time>
   <time name="total">   18.65   18.70</time>
   <energy>
    <i name="alphaZ">     78.87632548 </i>
    <i name="ewald">  39355.02479131 </i>
    <i name="hartreedc"> -45320.12244540 </i>
    <i name="XCdc">   -238.02810088 </i>
    <i name="pawpsdc">   3949.49134447 </i>
    <i name="pawaedc">  -3363.98162391 </i>
    <i name="eentropy">     -0.27961515 </i>
    <i name="bandstr">  -1411.06140441 </i>
    <i name="atom">   6761.44252427 </i>
    <i name="e_fr_energy">   -188.63820422 </i>
    <i name="e_wo_entrp">   -188.35858908 </i>
    <i name="e_0_energy">   -188.49839665 </i>
   </energy>
  </scstep>
  <structure>
   <crystal>
    <varray name="basis" >
     <v>       8.86314190       5.10890810       0.00000000 </v>
     <v>      -8.85877516       5.10139675       0.00000000 </v>
     <v>       0.00000000       0.00000000      30.00000000 </v>
    </varray>
    <i name="volume">   2714.19214361 </i>
    <varray name="rec_basis" >
     <v>       0.05638580       0.09791615       0.00000000 </v>
     <v>      -0.05646883       0.09796442       0.00000000 </v>
     <v>       0.00000000       0.00000000       0.03333333 </v>
    </varray>
   </crystal>
   <varray name="positions" >
    <v>       0.33380577       0.00094551      -0.00003224 </v>
    <v>       0.33156082       0.33178078       0.00001707 </v>
    <v>       0.66695735       0.33172761       0.00002689 </v>
    <v>       0.99863553       0.33051607       0.00012691 </v>
    <v>       0.66930518       0.00143883      -0.00015132 </v>
    <v>      -0.00126338       0.00154040      -0.00016798 </v>
    <v>      -0.00002886       0.66667906       0.00015059 </v>
    <v>       0.33336865       0.66669617       0.00014973 </v>
    <v>       0.66776968       0.66894720      -0.00007814 </v>
    <v>       0.11547654       0.22420224       0.95191833 </v>
    <v>       0.22663914       0.11302597       0.04685985 </v>
    <v>       0.11145723       0.55619665       0.95082352 </v>
    <v>       0.22497635       0.44296515       0.04799667 </v>
    <v>       0.11497095       0.89006376       0.95199367 </v>
    <v>       0.22381466       0.78123500       0.04814248 </v>
    <v>       0.44414922       0.22218075       0.95414900 </v>
    <v>       0.55324523       0.11322395       0.04691943 </v>
    <v>       0.44269062       0.55175927       0.95192197 </v>
    <v>       0.55393487       0.44084841       0.04678798 </v>
    <v>       0.44157278       0.89030241       0.95205812 </v>
    <v>       0.55480129       0.77681133       0.04923548 </v>
    <v>       0.77515103       0.22440762       0.95198714 </v>
    <v>       0.88887002       0.11121087       0.04931155 </v>
    <v>       0.77584773       0.55176460       0.95192475 </v>
    <v>       0.88488671       0.44317170       0.04805500 </v>
    <v>       0.77716424       0.88779300       0.95063813 </v>
    <v>       0.88845510       0.77678012       0.04923533 </v>
   </varray>
  </structure>
  <varray name="forces" >
   <v>      -0.00960202       0.01387420      -0.05665095 </v>
   <v>      -0.10122133      -0.27005344       0.08700604 </v>
   <v>       0.27887269      -0.04141545       0.09052214 </v>
   <v>       0.23902733      -0.40921777       0.01289395 </v>
   <v>       0.52617659       0.40927906      -0.03148836 </v>
   <v>      -0.61960495      -0.25087703      -0.02750186 </v>
   <v>       0.05956917       0.02818448      -0.06602493 </v>
   <v>      -0.05186798      -0.03557113      -0.06487355 </v>
   <v>      -0.28556965       0.49464643       0.05977095 </v>
   <v>       0.03245505       0.06123945      -0.15049767 </v>
   <v>      -0.00254983       0.05212138      -0.09607674 </v>
   <v>      -0.06459331       0.09213130       0.14953524 </v>
   <v>      -0.01718521       0.09734743       0.00145632 </v>
   <v>       0.06590213      -0.05982578       0.13619148 </v>
   <v>       0.05274650      -0.05773846      -0.02075989 </v>
   <v>       0.01844561      -0.00669471       0.14241287 </v>
   <v>      -0.04072699       0.00962018      -0.10686133 </v>
   <v>      -0.04466317       0.06958847       0.15887718 </v>
   <v>      -0.06034239       0.07127321      -0.32146603 </v>
   <v>       0.03297358      -0.09775394       0.11727447 </v>
   <v>       0.06307362      -0.09444056      -0.00860853 </v>
   <v>      -0.05243208      -0.00910305      -0.16665735 </v>
   <v>       0.00517626       0.00675001       0.34989632 </v>
   <v>      -0.06493995       0.05562800       0.15861271 </v>
   <v>      -0.06966164       0.04916674      -0.01204227 </v>
   <v>       0.04426791      -0.09130096      -0.32109514 </v>
   <v>       0.06627405      -0.08685803      -0.01384507 </v>
  </varray>
  <varray name="stress" >
   <v>     -20.02592636      -0.00620064       0.03190022 </v>
   <v>      -0.00620076     -19.56812915       0.01707949 </v>
   <v>       0.03190026       0.01707958      -1.74452298 </v>
  </varray>
  <energy>
   <i name="e_fr_energy">   -188.63820422 </i>
   <i name="e_wo_entrp">   -188.49839665 </i>
   <i name="e_0_energy">     -0.27961515 </i>
  </energy>
  <time name="totalsc">  410.68  411.79</time>
 </calculation>
 <calculation>
  <scstep>
   <time name="dav">   23.57   23.62</time>
   <time name="total">   24.09   24.15</time>
   <energy>
    <i name="alphaZ">     82.33110337 </i>
    <i name="ewald">  41296.21485443 </i>
    <i name="hartreedc"> -47292.40627633 </i>
    <i name="XCdc">   -233.86291300 </i>
    <i name="pawpsdc">   3948.70853093 </i>
    <i name="pawaedc">  -3363.19182868 </i>
    <i name="eentropy">     -0.23552169 </i>
    <i name="bandstr">  -1389.59661986 </i>
    <i name="atom">   6761.44252427 </i>
    <i name="e_fr_energy">   -190.59614657 </i>
    <i name="e_wo_entrp">   -190.36062487 </i>
    <i name="e_0_energy">   -190.47838572 </i>
   </energy>
  </scstep>
  <scstep>
   <time name="dav">   30.16   30.23</time>
   <time name="total">   30.68   30.76</time>
   <energy>
    <i name="e_fr_energy">   -190.52398293 </i>
    <i name="e_wo_entrp">   -190.29917443 </i>
    <i name="e_0_energy">   -190.41157868 </i>
   </energy>
  </scstep>
  <scstep>
   <time name="dav">   29.93   30.00</time>
   <time name="total">   30.45   30.53</time>
   <energy>
    <i name="e_fr_energy">   -190.07155961 </i>
    <i name="e_wo_entrp">   -189.82100734 </i>
    <i name="e_0_energy">   -189.94628347 </i>
   </energy>
  </scstep>
  <scstep>
   <time name="dav">   31.77   31.84</time>
   <time name="total">   32.30   32.38</time>
   <energy>
    <i name="e_fr_energy">   -189.85558972 </i>
    <i name="e_wo_entrp">   -189.62622595 </i>
    <i name="e_0_energy">   -189.74090784 </i>
   </energy>
  </scstep>
  <scstep>
   <time name="dav">   30.20   30.27</time>
   <time name="total">   30.74   31.13</time>
   <energy>
    <i name="e_fr_energy">   -189.76548310 </i>
    <i name="e_wo_entrp">   -189.52898077 </i>
    <i name="e_0_energy">   -189.64723193 </i>
   </energy>
  </scstep>
  <scstep>
   <time name="dav">   29.30   29.37</time>
   <time name="total">   29.84   29.92</time>
   <energy>
    <i name="e_fr_energy">   -189.75424108 </i>
    <i name="e_wo_entrp">   -189.51738062 </i>
    <i name="e_0_energy">   -189.63581085 </i>
   </energy>
  </scstep>
  <scstep>
   <time name="dav">   28.24   28.31</time>
   <time name="total">   28.78   28.85</time>
   <energy>
    <i name="e_fr_energy">   -189.75007523 </i>
    <i name="e_wo_entrp">   -189.51333634 </i>
    <i name="e_0_energy">   -189.63170579 </i>
   </energy>
  </scstep>
  <scstep>
   <time name="dav">   29.06   29.13</time>
   <time name="total">   29.59   29.67</time>
   <energy>
    <i name="e_fr_energy">   -189.74961071 </i>
    <i name="e_wo_entrp">   -189.51297745 </i>
    <i name="e_0_energy">   -189.63129408 </i>
   </energy>
  </scstep>
  <scstep>
   <time name="dav">   29.40   29.47</time>
   <time name="total">   29.93   30.01</time>
   <energy>
    <i name="e_fr_energy">   -189.75006692 </i>
    <i name="e_wo_entrp">   -189.51350130 </i>
    <i name="e_0_energy">   -189.63178411 </i>
   </energy>
  </scstep>
  <scstep>
   <time name="dav">   25.78   25.84</time>
   <time name="total">   26.31   26.38</time>
   <energy>
    <i name="e_fr_energy">   -189.75021390 </i>
    <i name="e_wo_entrp">   -189.51353464 </i>
    <i name="e_0_energy">   -189.63187427 </i>
   </energy>
  </scstep>
  <scstep>
   <time name="dav">   23.07   23.13</time>
   <time name="total">   23.60   23.67</time>
   <energy>
    <i name="e_fr_energy">   -189.74972984 </i>
    <i name="e_wo_entrp">   -189.51294309 </i>
    <i name="e_0_energy">   -189.63133647 </i>
   </energy>
  </scstep>
  <scstep>
   <time name="dav">   17.15   17.19</time>
   <time name="total">   17.19   17.24</time>
   <energy>
    <i name="alphaZ">     82.33110337 </i>
    <i name="ewald">  41296.21485443 </i>
    <i name="hartreedc"> -47267.50382007 </i>
    <i name="XCdc">   -235.25742147 </i>
    <i name="pawpsdc">   4038.78158994 </i>
    <i name="pawaedc">  -3454.48218288 </i>
    <i name="eentropy">     -0.23677536 </i>
    <i name="bandstr">  -1411.03965145 </i>
    <i name="atom">   6761.44252427 </i>
    <i name="e_fr_energy">   -189.74977922 </i>
    <i name="e_wo_entrp">   -189.51300385 </i>
    <i name="e_0_energy">   -189.63139154 </i>
   </energy>
  </scstep>
  <structure>
   <crystal>
    <varray name="basis" >
     <v>       8.67298470       5.00176332       0.00000000 </v>
     <v>      -8.66877944       4.99452712       0.00000000 </v>
     <v>       0.00000000       0.00000000      30.00000000 </v>
    </varray>
    <i name="volume">   2600.29920860 </i>
    <varray name="rec_basis" >
     <v>       0.05762253       0.10001287       0.00000000 </v>
     <v>      -0.05770601       0.10006139       0.00000000 </v>
     <v>       0.00000000       0.00000000       0.03333333 </v>
    </varray>
   </crystal>
   <varray name="positions" >
    <v>       0.33381972       0.00097797      -0.00006448 </v>
    <v>       0.33101195       0.33142671       0.00006659 </v>
    <v>       0.66715657       0.33138950       0.00007841 </v>
    <v>       0.99818156       0.32960124       0.00013425 </v>
    <v>       0.67049586       0.00161607      -0.00016924 </v>
    <v>      -0.00227921       0.00171814      -0.00018363 </v>
    <v>       0.00007559       0.66666877       0.00011302 </v>
    <v>       0.33325926       0.66668669       0.00011281 </v>
    <v>       0.66832166       0.67004978      -0.00004413 </v>
    <v>       0.11561015       0.22427337       0.95183269 </v>
    <v>       0.22672381       0.11311560       0.04680517 </v>
    <v>       0.11154906       0.55641300       0.95090862 </v>
    <v>       0.22512254       0.44314453       0.04799750 </v>
    <v>       0.11493438       0.88990018       0.95207117 </v>
    <v>       0.22376892       0.78108758       0.04813067 </v>
    <v>       0.44415579       0.22215177       0.95423004 </v>
    <v>       0.55322211       0.11327931       0.04685861 </v>
    <v>       0.44276395       0.55191872       0.95201239 </v>
    <v>       0.55399593       0.44102578       0.04660504 </v>
    <v>       0.44144111       0.89010713       0.95212486 </v>
    <v>       0.55470414       0.77659258       0.04923058 </v>
    <v>       0.77508534       0.22444295       0.95189230 </v>
    <v>       0.88888628       0.11121717       0.04951066 </v>
    <v>       0.77587821       0.55192025       0.95201501 </v>
    <v>       0.88490184       0.44332109       0.04804815 </v>
    <v>       0.77705423       0.88759763       0.95045540 </v>
    <v>       0.88837371       0.77657097       0.04922746 </v>
   </varray>
  </structure>
  <varray name="forces" >
   <v>       0.03774564      -0.06733523      -0.04771992 </v>
   <v>      -0.15838058      -0.24005684       0.08936148 </v>
   <v>       0.27977541       0.02074790       0.09222385 </v>
   <v>       0.21843606      -0.37745713      -0.00565668 </v>
   <v>       0.62595241       0.38584071      -0.00931136 </v>
   <v>      -0.64922450      -0.34985622      -0.00545089 </v>
   <v>       0.08529791       0.04056759      -0.08437529 </v>
   <v>      -0.07556708      -0.05044830      -0.08272532 </v>
   <v>      -0.31590163       0.54485482       0.07092364 </v>
   <v>       0.06907916       0.12118556      -0.65298272 </v>
   <v>       0.02654413       0.08919839       0.34058557 </v>
   <v>      -0.01255955       0.00439590      -0.39820174 </v>
   <v>       0.09161592       0.01333754       0.50273991 </v>
   <v>       0.03649748       0.08072235      -0.34634113 </v>
   <v>      -0.03107411       0.08316283       0.51030209 </v>
   <v>       0.01557074       0.00234182      -0.27493966 </v>
   <v>      -0.09012362       0.00482678       0.32847304 </v>
   <v>       0.04539057      -0.05503581      -0.34360382 </v>
   <v>       0.01267014      -0.05055300       0.11081502 </v>
   <v>      -0.07382331      -0.00100127      -0.36478784 </v>
   <v>       0.00729148      -0.01346395       0.55125720 </v>
   <v>      -0.12193239      -0.00817513      -0.66538545 </v>
   <v>       0.00603493       0.00247242       0.91672818 </v>
   <v>       0.00236763      -0.08315684      -0.34187642 </v>
   <v>      -0.05296255      -0.08750722       0.48857522 </v>
   <v>      -0.00093339      -0.01036217      -0.92508308 </v>
   <v>       0.02221309       0.00075448       0.54645610 </v>
  </varray>
  <varray name="stress" >
   <v>     -10.21677252      -0.03517218       0.03351544 </v>
   <v>      -0.03517200      -9.82812839      -0.01243439 </v>
   <v>       0.03351561      -0.01243422       6.49415162 </v>
  </varray>
  <energy>
   <i name="e_fr_energy">   -189.74977922 </i>
   <i name="e_wo_entrp">   -189.63139154 </i>
   <i name="e_0_energy">     -0.23677536 </i>
  </energy>
  <time name="totalsc">  375.60  376.91</time>
 </calculation>
 <calculation>
  <scstep>
   <time name="dav">   21.76   21.81</time>
   <time name="total">   22.28   22.34</time>
   <energy>
    <i name="alphaZ">     85.81990824 </i>
    <i name="ewald">  42834.35945395 </i>
    <i name="hartreedc"> -48850.27871077 </i>
    <i name="XCdc">   -232.95682792 </i>
    <i name="pawpsdc">   4038.71837268 </i>
    <i name="pawaedc">  -3454.41488652 </i>
    <i name="eentropy">     -0.20269235 </i>
    <i name="bandstr">  -1373.83615244 </i>
    <i name="atom">   6761.44252427 </i>
    <i name="e_fr_energy">   -191.34901084 </i>
    <i name="e_wo_entrp">   -191.14631849 </i>
    <i name="e_0_energy">   -191.24766466 </i>
   </energy>
  </scstep>
  <scstep>
   <time name="dav">   31.80   31.87</time>
   <time name="total">   32.31   32.40</time>
   <energy>
    <i name="e_fr_energy">   -191.15286694 </i>
    <i name="e_wo_entrp">   -190.95760621 </i>
    <i name="e_0_energy">   -191.05523657 </i>
   </energy>
  </scstep>
  <scstep>
   <time name="dav">   30.38   30.45</time>
   <time name="total">   30.89   30.97</time>
   <energy>
    <i name="e_fr_energy">   -191.29856276 </i>
    <i name="e_wo_entrp">   -191.07310857 </i>
    <i name="e_0_energy">   -191.18583566 </i>
   </energy>
  </scstep>
  <scstep>
   <time name="dav">   31.79   31.86</time>
   <time name="total">   32.31   32.39</time>
   <energy>
    <i name="e_fr_energy">   -190.89927443 </i>
    <i name="e_wo_entrp">   -190.70058331 </i>
    <i name="e_0_energy">   -190.79992887 </i>
   </energy>
  </scstep>
  <scstep>
   <time name="dav">   29.91   29.98</time>
   <time name="total">   30.43   30.51</time>
   <energy>
    <i name="e_fr_energy">   -190.78016232 </i>
    <i name="e_wo_entrp">   -190.57639360 </i>
    <i name="e_0_energy">   -190.67827796 </i>
   </energy>
  </scstep>
  <scstep>
   <time name="dav">   27.16   27.22</time>
   <time name="total">   27.68   27.76</time>
   <energy>
    <i name="e_fr_energy">   -190.76368025 </i>
    <i name="e_wo_entrp">   -190.55617440 </i>
    <i name="e_0_energy">   -190.65992733 </i>
   </energy>
  </scstep>
  <scstep>
   <time name="dav">   30.66   30.73</time>
   <time name="total">   31.18   31.26</time>
   <energy>
    <i name="e_fr_energy">   -190.76590470 </i>
    <i name="e_wo_entrp">   -190.55891054 </i>
    <i name="e_0_energy">   -190.66240762 </i>
   </energy>
  </scstep>
  <scstep>
   <time name="dav">   29.30   29.37</time>
   <time name="total">   29.83   29.91</time>
   <energy>
    <i name="e_fr_energy">   -190.76127515 </i>
    <i name="e_wo_entrp">   -190.55453015 </i>
    <i name="e_0_energy">   -190.65790265 </i>
   </energy>
  </scstep>
  <scstep>
   <time name="dav">   27.19   27.25</time>
   <time name="total">   27.70   27.78</time>
   <energy>
    <i name="e_fr_energy">   -190.76150412 </i>
    <i name="e_wo_entrp">   -190.55480833 </i>
    <i name="e_0_energy">   -190.65815623 </i>
   </energy>
  </scstep>
  <scstep>
   <time name="dav">   29.51   29.58</time>
   <time name="total">   30.03   30.11</time>
   <energy>
    <i name="e_fr_energy">   -190.76158700 </i>
    <i name="e_wo_entrp">   -190.55480403 </i>
    <i name="e_0_energy">   -190.65819551 </i>
   </energy>
  </scstep>
  <scstep>
   <time name="dav">   23.38   23.44</time>
   <time name="total">   23.90   23.97</time>
   <energy>
    <i name="e_fr_energy">   -190.76136423 </i>
    <i name="e_wo_entrp">   -190.55464286 </i>
    <i name="e_0_energy">   -190.65800354 </i>
   </energy>
  </scstep>
  <scstep>
   <time name="dav">   17.76   17.80</time>
   <time name="total">   17.79   17.85</time>
   <energy>
    <i name="alphaZ">     85.81990824 </i>
    <i name="ewald">  42834.35945395 </i>
    <i name="hartreedc"> -48822.08507611 </i>
    <i name="XCdc">   -234.28624131 </i>
    <i name="pawpsdc">   4064.27814391 </i>
    <i name="pawaedc">  -3480.16843286 </i>
    <i name="eentropy">     -0.20686491 </i>
    <i name="bandstr">  -1399.91474479 </i>
    <i name="atom">   6761.44252427 </i>
    <i name="e_fr_energy">   -190.76132960 </i>
    <i name="e_wo_entrp">   -190.55446469 </i>
    <i name="e_0_energy">   -190.65789715 </i>
   </energy>
  </scstep>
  <structure>
   <crystal>
    <varray name="basis" >
     <v>       8.48842892       4.90073768       0.00000000 </v>
     <v>      -8.48605802       4.89667323       0.00000000 </v>
     <v>       0.00000000       0.00000000      30.00000000 </v>
    </varray>
    <i name="volume">   2494.59021009 </i>
    <varray name="rec_basis" >
     <v>       0.05888751       0.10205353       0.00000000 </v>
     <v>      -0.05893639       0.10208204       0.00000000 </v>
     <v>       0.00000000       0.00000000       0.03333333 </v>
    </varray>
   </crystal>
   <varray name="positions" >
    <v>       0.33340031       0.00015015      -0.00015575 </v>
    <v>       0.32892877       0.33065077       0.00025360 </v>
    <v>       0.66845221       0.33066090       0.00027080 </v>
    <v>       0.99665464       0.32655357       0.00010687 </v>
    <v>       0.67525782       0.00157053      -0.00016980 </v>
    <v>      -0.00710316       0.00166928      -0.00017630 </v>
    <v>       0.00070521       0.66660858      -0.00007718 </v>
    <v>       0.33259958       0.66664067      -0.00007355 </v>
    <v>       0.67067607       0.67477546       0.00011214 </v>
    <v>       0.11681986       0.22487962       0.95005638 </v>
    <v>       0.22751205       0.11362915       0.04787907 </v>
    <v>       0.11138796       0.55619383       0.94962164 </v>
    <v>       0.22548393       0.44253277       0.04946171 </v>
    <v>       0.11587853       0.89066505       0.95094662 </v>
    <v>       0.22440754       0.78219079       0.04963568 </v>
    <v>       0.44424499       0.22213669       0.95330837 </v>
    <v>       0.55284451       0.11369420       0.04790631 </v>
    <v>       0.44240253       0.55097153       0.95087667 </v>
    <v>       0.55352705       0.44025632       0.04719949 </v>
    <v>       0.44125572       0.89076064       0.95096251 </v>
    <v>       0.55476728       0.77676255       0.05084471 </v>
    <v>       0.77449690       0.22493430       0.95009349 </v>
    <v>       0.88891418       0.11119901       0.05188740 </v>
    <v>       0.77511765       0.55094974       0.95088455 </v>
    <v>       0.88384720       0.44260100       0.04948246 </v>
    <v>       0.77712213       0.88780156       0.94802999 </v>
    <v>       0.88861301       0.77677581       0.05083201 </v>
   </varray>
  </structure>
  <varray name="forces" >
   <v>       0.07396512      -0.12876949      -0.00649109 </v>
   <v>      -0.16526431      -0.21829654       0.05984866 </v>
   <v>       0.26744279       0.03526659       0.06101633 </v>
   <v>       0.17081848      -0.30183703      -0.03947052 </v>
   <v>       0.66805582       0.33544470       0.02781353 </v>
   <v>      -0.62569147      -0.41197613       0.02270715 </v>
   <v>       0.15498476       0.06305609      -0.06074929 </v>
   <v>      -0.13333361      -0.09967323      -0.05993273 </v>
   <v>      -0.34544782       0.59710738       0.02986531 </v>
   <v>       0.03015330      -0.02183963      -0.45622624 </v>
   <v>      -0.05065979      -0.05169666       0.22988228 </v>
   <v>       0.05124151      -0.08599748      -0.27031443 </v>
   <v>       0.00449222      -0.03791710       0.35201825 </v>
   <v>      -0.08908748       0.04362515      -0.20259270 </v>
   <v>      -0.03066321       0.05280329       0.37494526 </v>
   <v>       0.00945439       0.00430470      -0.25427340 </v>
   <v>       0.06385327       0.00819359       0.22532200 </v>
   <v>       0.05655917       0.00597721      -0.17500537 </v>
   <v>      -0.03657043       0.04603716       0.02182048 </v>
   <v>       0.01906596       0.09871174      -0.21189523 </v>
   <v>      -0.05685703       0.05290784       0.35707206 </v>
   <v>       0.01758056      -0.03465879      -0.46229124 </v>
   <v>      -0.00935555       0.01153985       0.70045253 </v>
   <v>      -0.03265280      -0.04568702      -0.17367484 </v>
   <v>       0.02551971      -0.03149003       0.34805820 </v>
   <v>      -0.01925660       0.03895858      -0.79224960 </v>
   <v>      -0.01834700       0.07590524       0.35434464 </v>
  </varray>
  <varray name="stress" >
   <v>      -5.65312707       0.12645615      -0.14554593 </v>
   <v>       0.12645601      -5.82774599       0.12066271 </v>
   <v>      -0.14554569       0.12066264       4.53226639 </v>
  </varray>
  <energy>
   <i name="e_fr_energy">   -190.76132960 </i>
   <i name="e_wo_entrp">   -190.65789715 </i>
   <i name="e_0_energy">     -0.20686491 </i>
  </energy>
  <time name="totalsc">  378.46  379.47</time>
 </calculation>
 <calculation>
  <scstep>
   <time name="dav">   21.73   21.78</time>
   <time name="total">   22.24   22.29</time>
   <energy>
    <i name="alphaZ">     90.10683308 </i>
    <i name="ewald">  44643.27383223 </i>
    <i name="hartreedc"> -50685.17223489 </i>
    <i name="XCdc">   -231.85369782 </i>
    <i name="pawpsdc">   4064.24522380 </i>
    <i name="pawaedc">  -3480.13188623 </i>
    <i name="eentropy">     -0.19519721 </i>
    <i name="bandstr">  -1353.82730107 </i>
    <i name="atom">   6761.44252427 </i>
    <i name="e_fr_energy">   -192.11190383 </i>
    <i name="e_wo_entrp">   -191.91670662 </i>
    <i name="e_0_energy">   -192.01430523 </i>
   </energy>
  </scstep>
  <scstep>
   <time name="dav">   28.36   28.43</time>
   <time name="total">   28.87   28.95</time>
   <energy>
    <i name="e_fr_energy">   -191.84048489 </i>
    <i name="e_wo_entrp">   -191.64380226 </i>
    <i name="e_0_energy">   -191.74214358 </i>
   </energy>
  </scstep>
  <scstep>
   <time name="dav">   29.78   29.85</time>
   <time name="total">   30.28   30.36</time>
   <energy>
    <i name="e_fr_energy">   -191.96611591 </i>
    <i name="e_wo_entrp">   -191.75457659 </i>
    <i name="e_0_energy">   -191.86034625 </i>
   </energy>
  </scstep>
  <scstep>
   <time name="dav">   27.84   27.91</time>
   <time name="total">   28.35   28.43</time>
   <energy>
    <i name="e_fr_energy">   -191.77352989 </i>
    <i name="e_wo_entrp">   -191.57414453 </i>
    <i name="e_0_energy">   -191.67383721 </i>
   </energy>
  </scstep>
  <scstep>
   <time name="dav">   30.56   30.64</time>
   <time name="total">   31.07   31.15</time>
   <energy>
    <i name="e_fr_energy">   -191.57659307 </i>
    <i name="e_wo_entrp">   -191.39045259 </i>
    <i name="e_0_energy">   -191.48352283 </i>
   </energy>
  </scstep>
  <scstep>
   <time name="dav">   30.66   30.73</time>
   <time name="total">   31.17   31.25</time>
   <energy>
    <i name="e_fr_energy">   -191.44024293 </i>
    <i name="e_wo_entrp">   -191.23702292 </i>
    <i name="e_0_energy">   -191.33863292 </i>
   </energy>
  </scstep>
  <scstep>
   <time name="dav">   30.18   30.25</time>
   <time name="total">   30.69   30.77</time>
   <energy>
    <i name="e_fr_energy">   -191.42350831 </i>
    <i name="e_wo_entrp">   -191.22093808 </i>
    <i name="e_0_energy">   -191.32222320 </i>
   </energy>
  </scstep>
  <scstep>
   <time name="dav">   26.92   26.98</time>
   <time name="total">   27.43   27.50</time>
   <energy>
    <i name="e_fr_energy">   -191.41886547 </i>
    <i name="e_wo_entrp">   -191.21668578 </i>
    <i name="e_0_energy">   -191.31777563 </i>
   </energy>
  </scstep>
  <scstep>
   <time name="dav">   30.88   30.96</time>
   <time name="total">   31.39   31.48</time>
   <energy>
    <i name="e_fr_energy">   -191.42029570 </i>
    <i name="e_wo_entrp">   -191.21787360 </i>
    <i name="e_0_energy">   -191.31908465 </i>
   </energy>
  </scstep>
  <scstep>
   <time name="dav">   29.70   29.78</time>
   <time name="total">   30.21   30.29</time>
   <energy>
    <i name="e_fr_energy">   -191.41921530 </i>
    <i name="e_wo_entrp">   -191.21661398 </i>
    <i name="e_0_energy">   -191.31791464 </i>
   </energy>
  </scstep>
  <scstep>
   <time name="dav">   26.79   26.86</time>
   <time name="total">   27.30   27.38</time>
   <energy>
    <i name="e_fr_energy">   -191.41895528 </i>
    <i name="e_wo_entrp">   -191.21611294 </i>
    <i name="e_0_energy">   -191.31753411 </i>
   </energy>
  </scstep>
  <scstep>
   <time name="dav">   19.12   19.17</time>
   <time name="total">   19.16   19.21</time>
   <energy>
    <i name="alphaZ">     90.10683308 </i>
    <i name="ewald">  44643.27383223 </i>
    <i name="hartreedc"> -50652.39065402 </i>
    <i name="XCdc">   -233.34531605 </i>
    <i name="pawpsdc">   4087.71355698 </i>
    <i name="pawaedc">  -3503.72884758 </i>
    <i name="eentropy">     -0.20290445 </i>
    <i name="bandstr">  -1384.28796480 </i>
    <i name="atom">   6761.44252427 </i>
    <i name="e_fr_energy">   -191.41894034 </i>
    <i name="e_wo_entrp">   -191.21603589 </i>
    <i name="e_0_energy">   -191.31748812 </i>
   </energy>
  </scstep>
  <structure>
   <crystal>
    <varray name="basis" >
     <v>       8.29096040       4.78625782       0.00000000 </v>
     <v>      -8.28214505       4.77103184       0.00000000 </v>
     <v>       0.00000000       0.00000000      30.00000000 </v>
    </varray>
    <i name="volume">   2375.90752688 </i>
    <varray name="rec_basis" >
     <v>       0.06024265       0.10457661       0.00000000 </v>
     <v>      -0.06043490       0.10468792       0.00000000 </v>
     <v>       0.00000000       0.00000000       0.03333333 </v>
    </varray>
   </crystal>
   <varray name="positions" >
    <v>       0.33228079      -0.00208070      -0.00019405 </v>
    <v>       0.32512003       0.32930540       0.00050561 </v>
    <v>       0.67089371       0.32936364       0.00052763 </v>
    <v>       0.99418760       0.32169108      -0.00004784 </v>
    <v>       0.68406372       0.00086210      -0.00005906 </v>
    <v>      -0.01664247       0.00095369      -0.00008106 </v>
    <v>       0.00251349       0.66631249      -0.00034475 </v>
    <v>       0.33052944       0.66638981      -0.00033702 </v>
    <v>       0.67549406       0.68443384       0.00026088 </v>
    <v>       0.11725684       0.22470897       0.94769330 </v>
    <v>       0.22698596       0.11357030       0.04924864 </v>
    <v>       0.11063555       0.55468199       0.94798006 </v>
    <v>       0.22516318       0.44164060       0.05139149 </v>
    <v>       0.11630331       0.89218787       0.94962371 </v>
    <v>       0.22513467       0.78361227       0.05167545 </v>
    <v>       0.44438531       0.22214359       0.95190787 </v>
    <v>       0.55314592       0.11355244       0.04925286 </v>
    <v>       0.44255697       0.55007390       0.94963025 </v>
    <v>       0.55349644       0.44040905       0.04773832 </v>
    <v>       0.44242629       0.89218004       0.94959887 </v>
    <v>       0.55509704       0.77794091       0.05287194 </v>
    <v>       0.77400707       0.22468093       0.94770691 </v>
    <v>       0.88897726       0.11136071       0.05527833 </v>
    <v>       0.77403695       0.55004227       0.94964543 </v>
    <v>       0.88313099       0.44162250       0.05139084 </v>
    <v>       0.77754672       0.88860395       0.94428735 </v>
    <v>       0.88948763       0.77797082       0.05284790 </v>
   </varray>
  </structure>
  <varray name="forces" >
   <v>       0.05024904      -0.08553378      -0.02280569 </v>
   <v>      -0.10193872      -0.22929000      -0.00852996 </v>
   <v>       0.24605916      -0.02914123      -0.01530451 </v>
   <v>      -0.02533940       0.03774338       0.03156294 </v>
   <v>       0.08440618       0.03022829       0.01248919 </v>
   <v>      -0.06786329      -0.05262351       0.02150638 </v>
   <v>       0.28132458       0.07453923      -0.00111088 </v>
   <v>      -0.20676006      -0.20273065      -0.00345146 </v>
   <v>      -0.18495975       0.31306710      -0.08737571 </v>
   <v>      -0.00387862      -0.16666720      -0.08587114 </v>
   <v>      -0.11694435      -0.22927039      -0.02078952 </v>
   <v>       0.08522554      -0.14338902      -0.13607809 </v>
   <v>      -0.09414770      -0.05323094       0.05971933 </v>
   <v>      -0.21698679      -0.03585978       0.08776074 </v>
   <v>       0.00960049      -0.02020311       0.13038459 </v>
   <v>       0.00086735      -0.00314915      -0.00199625 </v>
   <v>       0.25694361      -0.01229237      -0.01548916 </v>
   <v>       0.01895576       0.09768692       0.10223743 </v>
   <v>      -0.12476168       0.21683743      -0.20019088 </v>
   <v>       0.13997643       0.17131791       0.09108908 </v>
   <v>      -0.09522980       0.08892408       0.04438737 </v>
   <v>       0.14727535      -0.07870101      -0.08212840 </v>
   <v>      -0.02853424       0.04969393       0.24540753 </v>
   <v>      -0.09092181       0.03614085       0.10154511 </v>
   <v>       0.09167990       0.05689552       0.06639707 </v>
   <v>      -0.02370203       0.04180642      -0.35525043 </v>
   <v>      -0.03059515       0.12720109       0.04188533 </v>
  </varray>
  <varray name="stress" >
   <v>       0.47826462       0.27588820      -0.20095936 </v>
   <v>       0.27588815       0.20462390       0.32640908 </v>
   <v>      -0.20095929       0.32640899      -0.41675037 </v>
  </varray>
  <energy>
   <i name="e_fr_energy">   -191.41894034 </i>
   <i name="e_wo_entrp">   -191.31748812 </i>
   <i name="e_0_energy">     -0.20290445 </i>
  </energy>
  <time name="totalsc">  380.48  381.50</time>
 </calculation>
 <calculation>
  <scstep>
   <time name="dav">   21.72   21.77</time>
   <time name="total">   22.22   22.28</time>
   <energy>
    <i name="alphaZ">     89.87277000 </i>
    <i name="ewald">  44518.76246711 </i>
    <i name="hartreedc"> -50526.24774598 </i>
    <i name="XCdc">   -233.58376612 </i>
    <i name="pawpsdc">   4087.49441770 </i>
    <i name="pawaedc">  -3503.50276835 </i>
    <i name="eentropy">     -0.20543250 </i>
    <i name="bandstr">  -1385.49263730 </i>
    <i name="atom">   6761.44252427 </i>
    <i name="e_fr_energy">   -191.46017118 </i>
    <i name="e_wo_entrp">   -191.25473868 </i>
    <i name="e_0_energy">   -191.35745493 </i>
   </energy>
  </scstep>
  <scstep>
   <time name="dav">   32.43   32.50</time>
   <time name="total">   32.94   33.03</time>
   <energy>
    <i name="e_fr_energy">   -191.49607742 </i>
    <i name="e_wo_entrp">   -191.28252018 </i>
    <i name="e_0_energy">   -191.38929880 </i>
   </energy>
  </scstep>
  <scstep>
   <time name="dav">   30.83   30.90</time>
   <time name="total">   31.34   31.42</time>
   <energy>
    <i name="e_fr_energy">   -191.46865167 </i>
    <i name="e_wo_entrp">   -191.26312738 </i>
    <i name="e_0_energy">   -191.36588953 </i>
   </energy>
  </scstep>
  <scstep>
   <time name="dav">   28.90   28.97</time>
   <time name="total">   29.41   29.48</time>
   <energy>
    <i name="e_fr_energy">   -191.46993654 </i>
    <i name="e_wo_entrp">   -191.26414434 </i>
    <i name="e_0_energy">   -191.36704044 </i>
   </energy>
  </scstep>
  <scstep>
   <time name="dav">   26.40   26.46</time>
   <time name="total">   26.90   26.98</time>
   <energy>
    <i name="e_fr_energy">   -191.46670928 </i>
    <i name="e_wo_entrp">   -191.25943152 </i>
    <i name="e_0_energy">   -191.36307040 </i>
   </energy>
  </scstep>
  <scstep>
   <time name="dav">   28.07   28.13</time>
   <time name="total">   28.57   28.65</time>
   <energy>
    <i name="e_fr_energy">   -191.46625077 </i>
    <i name="e_wo_entrp">   -191.25995893 </i>
    <i name="e_0_energy">   -191.36310485 </i>
   </energy>
  </scstep>
  <scstep>
   <time name="dav">   24.06   24.12</time>
   <time name="total">   24.57   24.64</time>
   <energy>
    <i name="e_fr_energy">   -191.46610537 </i>
    <i name="e_wo_entrp">   -191.25977447 </i>
    <i name="e_0_energy">   -191.36293992 </i>
   </energy>
  </scstep>
  <scstep>
   <time name="dav">   19.02   19.08</time>
   <time name="total">   19.06   19.24</time>
   <energy>
    <i name="alphaZ">     89.87277000 </i>
    <i name="ewald">  44518.76246711 </i>
    <i name="hartreedc"> -50528.93216528 </i>
    <i name="XCdc">   -233.48924990 </i>
    <i name="pawpsdc">   4082.44720690 </i>
    <i name="pawaedc">  -3498.39125706 </i>
    <i name="eentropy">     -0.20638590 </i>
    <i name="bandstr">  -1382.97200035 </i>
    <i name="atom">   6761.44252427 </i>
    <i name="e_fr_energy">   -191.46609022 </i>
    <i name="e_wo_entrp">   -191.25970432 </i>
    <i name="e_0_energy">   -191.36289727 </i>
   </energy>
  </scstep>
  <structure>
   <crystal>
    <varray name="basis" >
     <v>       8.30773702       4.79648744       0.00000000 </v>
     <v>      -8.29246198       4.77006997       0.00000000 </v>
     <v>       0.00000000       0.00000000      30.00000000 </v>
    </varray>
    <i name="volume">   2382.09529923 </i>
    <varray name="rec_basis" >
     <v>       0.06007404       0.10443489       0.00000000 </v>
     <v>      -0.06040674       0.10462726       0.00000000 </v>
     <v>       0.00000000       0.00000000       0.03333333 </v>
    </varray>
   </crystal>
   <varray name="positions" >
    <v>       0.33204791      -0.00255384      -0.00022726 </v>
    <v>       0.32386630       0.32853043       0.00048427 </v>
    <v>       0.67135049       0.32858352       0.00049583 </v>
    <v>       0.99437673       0.32209636       0.00000508 </v>
    <v>       0.68415838       0.00079840      -0.00004359 </v>
    <v>      -0.01677299       0.00091439      -0.00005148 </v>
    <v>       0.00358645       0.66590143      -0.00033733 </v>
    <v>       0.32905718       0.66599878      -0.00033331 </v>
    <v>       0.67632678       0.68613303       0.00012251 </v>
    <v>       0.11642581       0.22392185       0.94764998 </v>
    <v>       0.22557649       0.11279437       0.04916339 </v>
    <v>       0.11021079       0.55381202       0.94783767 </v>
    <v>       0.22465795       0.44168309       0.05140927 </v>
    <v>       0.11551046       0.89255865       0.94981073 </v>
    <v>       0.22503489       0.78343162       0.05179685 </v>
    <v>       0.44436771       0.22212547       0.95195800 </v>
    <v>       0.55378966       0.11278475       0.04917652 </v>
    <v>       0.44307743       0.55052959       0.94983758 </v>
    <v>       0.55419682       0.44179924       0.04740665 </v>
    <v>       0.44359545       0.89255971       0.94979234 </v>
    <v>       0.55524731       0.77858815       0.05286159 </v>
    <v>       0.77405617       0.22390016       0.94767002 </v>
    <v>       0.88913429       0.11167277       0.05553040 </v>
    <v>       0.77400034       0.55050745       0.94985143 </v>
    <v>       0.88368878       0.44168173       0.05141958 </v>
    <v>       0.77766573       0.88883937       0.94387906 </v>
    <v>       0.88998116       0.77862198       0.05283411 </v>
   </varray>
  </structure>
  <varray name="forces" >
   <v>       0.03192637      -0.05466666      -0.04398566 </v>
   <v>      -0.07992128      -0.26259377       0.00353097 </v>
   <v>       0.26544357      -0.06395634       0.00362441 </v>
   <v>      -0.02205530       0.03384776       0.03666241 </v>
   <v>       0.21143867       0.14505879       0.02296850 </v>
   <v>      -0.23280571      -0.10853799       0.01888908 </v>
   <v>       0.31361976       0.06187601      -0.00890955 </v>
   <v>      -0.20986820      -0.23514649      -0.00944652 </v>
   <v>      -0.20753176       0.35289806       0.00444730 </v>
   <v>      -0.01577821      -0.08417159      -0.07168502 </v>
   <v>      -0.05850124      -0.13138521      -0.00914159 </v>
   <v>       0.04670161      -0.07727042      -0.14855859 </v>
   <v>      -0.05146406      -0.02852093       0.05642463 </v>
   <v>      -0.10618677      -0.02289599       0.08990610 </v>
   <v>       0.00613538      -0.01296845       0.11974646 </v>
   <v>       0.00437924      -0.00650486       0.04316144 </v>
   <v>       0.14202448      -0.01390632      -0.00960349 </v>
   <v>      -0.01032207       0.05924393       0.11630924 </v>
   <v>      -0.07771659       0.13441736      -0.24537915 </v>
   <v>       0.07404884       0.08244789       0.08870134 </v>
   <v>      -0.05697921       0.02771901      -0.02482631 </v>
   <v>       0.08191809      -0.02716898      -0.07296911 </v>
   <v>      -0.01794842       0.02735512       0.11647180 </v>
   <v>      -0.04381125       0.04160677       0.11632179 </v>
   <v>       0.04824897       0.02955292       0.05861169 </v>
   <v>      -0.03821699       0.07193146      -0.22491682 </v>
   <v>       0.00322207       0.06173891      -0.02635536 </v>
  </varray>
  <varray name="stress" >
   <v>      -0.38065640      -0.04013690      -0.05412628 </v>
   <v>      -0.04013678      -0.34078622       0.05141443 </v>
   <v>      -0.05412627       0.05141423      -1.15935938 </v>
  </varray>
  <energy>
   <i name="e_fr_energy">   -191.46609022 </i>
   <i name="e_wo_entrp">   -191.36289727 </i>
   <i name="e_0_energy">     -0.20638590 </i>
  </energy>
  <time name="totalsc">  256.91  257.72</time>
 </calculation>
 <calculation>
  <scstep>
   <time name="dav">   21.74   21.80</time>
   <time name="total">   22.25   22.31</time>
   <energy>
    <i name="alphaZ">     90.13569864 </i>
    <i name="ewald">  44633.32138828 </i>
    <i name="hartreedc"> -50646.47846286 </i>
    <i name="XCdc">   -233.32981494 </i>
    <i name="pawpsdc">   4082.17097848 </i>
    <i name="pawaedc">  -3498.11183849 </i>
    <i name="eentropy">     -0.20787352 </i>
    <i name="bandstr">  -1380.46190327 </i>
    <i name="atom">   6761.44252427 </i>
    <i name="e_fr_energy">   -191.51930342 </i>
    <i name="e_wo_entrp">   -191.31142989 </i>
    <i name="e_0_energy">   -191.41536666 </i>
   </energy>
  </scstep>
  <scstep>
   <time name="dav">   32.97   33.05</time>
   <time name="total">   33.48   33.57</time>
   <energy>
    <i name="e_fr_energy">   -191.54080867 </i>
    <i name="e_wo_entrp">   -191.32495989 </i>
    <i name="e_0_energy">   -191.43288428 </i>
   </energy>
  </scstep>
  <scstep>
   <time name="dav">   30.40   30.47</time>
   <time name="total">   30.90   30.99</time>
   <energy>
    <i name="e_fr_energy">   -191.52922577 </i>
    <i name="e_wo_entrp">   -191.32255826 </i>
    <i name="e_0_energy">   -191.42589201 </i>
   </energy>
  </scstep>
  <scstep>
   <time name="dav">   29.15   29.22</time>
   <time name="total">   29.66   29.74</time>
   <energy>
    <i name="e_fr_energy">   -191.52668812 </i>
    <i name="e_wo_entrp">   -191.31886424 </i>
    <i name="e_0_energy">   -191.42277618 </i>
   </energy>
  </scstep>
  <scstep>
   <time name="dav">   27.06   27.12</time>
   <time name="total">   27.56   27.63</time>
   <energy>
    <i name="e_fr_energy">   -191.52423089 </i>
    <i name="e_wo_entrp">   -191.31423180 </i>
    <i name="e_0_energy">   -191.41923134 </i>
   </energy>
  </scstep>
  <scstep>
   <time name="dav">   26.25   26.31</time>
   <time name="total">   26.76   26.83</time>
   <energy>
    <i name="e_fr_energy">   -191.52314978 </i>
    <i name="e_wo_entrp">   -191.31415738 </i>
    <i name="e_0_energy">   -191.41865358 </i>
   </energy>
  </scstep>
  <scstep>
   <time name="dav">   29.60   29.68</time>
   <time name="total">   30.11   30.19</time>
   <energy>
    <i name="e_fr_energy">   -191.52297303 </i>
    <i name="e_wo_entrp">   -191.31343729 </i>
    <i name="e_0_energy">   -191.41820516 </i>
   </energy>
  </scstep>
  <scstep>
   <time name="dav">   22.95   23.01</time>
   <time name="total">   22.99   23.05</time>
   <energy>
    <i name="alphaZ">     90.13569864 </i>
    <i name="ewald">  44633.32138828 </i>
    <i name="hartreedc"> -50644.86318282 </i>
    <i name="XCdc">   -233.40146767 </i>
    <i name="pawpsdc">   4084.84222694 </i>
    <i name="pawaedc">  -3500.81686720 </i>
    <i name="eentropy">     -0.20948124 </i>
    <i name="bandstr">  -1381.97375648 </i>
    <i name="atom">   6761.44252427 </i>
    <i name="e_fr_energy">   -191.52291728 </i>
    <i name="e_wo_entrp">   -191.31343604 </i>
    <i name="e_0_energy">   -191.41817666 </i>
   </energy>
  </scstep>
  <structure>
   <crystal>
    <varray name="basis" >
     <v>       8.29523728       4.78921576       0.00000000 </v>
     <v>      -8.28040516       4.76356575       0.00000000 </v>
     <v>       0.00000000       0.00000000      30.00000000 </v>
    </varray>
    <i name="volume">   2375.14665298 </i>
    <varray name="rec_basis" >
     <v>       0.06016764       0.10458813       0.00000000 </v>
     <v>      -0.06049162       0.10477547       0.00000000 </v>
     <v>       0.00000000       0.00000000       0.03333333 </v>
    </varray>
   </crystal>
   <varray name="positions" >
    <v>       0.33179641      -0.00306030      -0.00030471 </v>
    <v>       0.32201941       0.32729616       0.00049910 </v>
    <v>       0.67194498       0.32734690       0.00051032 </v>
    <v>       0.99440241       0.32217504       0.00006370 </v>
    <v>       0.68590823       0.00088388       0.00000015 </v>
    <v>      -0.01843029       0.00101630      -0.00001409 </v>
    <v>       0.00499456       0.66523886      -0.00036300 </v>
    <v>       0.32701925       0.66536665      -0.00035994 </v>
    <v>       0.67779297       0.68910296       0.00012742 </v>
    <v>       0.11591364       0.22347793       0.94741914 </v>
    <v>       0.22461160       0.11223505       0.04920897 </v>
    <v>       0.10988750       0.55314563       0.94750009 </v>
    <v>       0.22431076       0.44164609       0.05159527 </v>
    <v>       0.11504956       0.89285459       0.94990686 </v>
    <v>       0.22501578       0.78340458       0.05210025 </v>
    <v>       0.44435184       0.22207780       0.95196740 </v>
    <v>       0.55419212       0.11223143       0.04922087 </v>
    <v>       0.44338831       0.55085039       0.94998124 </v>
    <v>       0.55470213       0.44281875       0.04700870 </v>
    <v>       0.44436874       0.89285850       0.94988517 </v>
[...]
      <set comment="kpoint 31">
       <r>  -17.5874    1.0000 </r>
       <r>  -17.2112    1.0000 </r>
       <r>  -16.9595    1.0000 </r>
       <r>  -16.6838    1.0000 </r>
       <r>  -16.5249    1.0000 </r>
       <r>  -16.4203    1.0000 </r>
       <r>  -16.3212    1.0000 </r>
       <r>  -16.2604    1.0000 </r>
       <r>  -16.0852    1.0000 </r>
       <r>  -16.0002    1.0000 </r>
       <r>  -15.9139    1.0000 </r>
       <r>  -15.8734    1.0000 </r>
       <r>  -15.7655    1.0000 </r>
       <r>  -15.6425    1.0000 </r>
       <r>  -15.6305    1.0000 </r>
       <r>  -15.5493    1.0000 </r>
       <r>  -15.3605    1.0000 </r>
       <r>  -15.2627    1.0000 </r>
       <r>   -9.7864    1.0000 </r>
       <r>   -9.5153    1.0000 </r>
       <r>   -9.2679    1.0000 </r>
       <r>   -8.9929    1.0000 </r>
       <r>   -8.9666    1.0000 </r>
       <r>   -8.7285    1.0000 </r>
       <r>   -8.5222    1.0000 </r>
       <r>   -8.4541    1.0000 </r>
       <r>   -8.4289    1.0000 </r>
       <r>   -8.3643    1.0000 </r>
       <r>   -8.3315    1.0000 </r>
       <r>   -8.2192    1.0000 </r>
       <r>   -8.1718    1.0000 </r>
       <r>   -8.0955    1.0000 </r>
       <r>   -7.8910    1.0000 </r>
       <r>   -7.8730    1.0000 </r>
       <r>   -7.8265    1.0000 </r>
       <r>   -7.7322    1.0000 </r>
       <r>   -7.6553    1.0000 </r>
       <r>   -7.3812    1.0000 </r>
       <r>   -7.3433    1.0000 </r>
       <r>   -7.2427    1.0000 </r>
       <r>   -7.1715    1.0000 </r>
       <r>   -7.1102    1.0000 </r>
       <r>   -6.9894    1.0000 </r>
       <r>   -6.9607    1.0000 </r>
       <r>   -6.8197    1.0000 </r>
       <r>   -6.6975    1.0000 </r>
       <r>   -6.6354    1.0000 </r>
       <r>   -6.5761    1.0000 </r>
       <r>   -6.5345    1.0000 </r>
       <r>   -6.4751    1.0000 </r>
       <r>   -6.3962    1.0000 </r>
       <r>   -6.3475    1.0000 </r>
       <r>   -6.2472    1.0000 </r>
       <r>   -6.2089    1.0000 </r>
       <r>   -6.1118    1.0000 </r>
       <r>   -6.0857    1.0000 </r>
       <r>   -6.0354    1.0000 </r>
       <r>   -5.9168    1.0000 </r>
       <r>   -5.8411    1.0000 </r>
       <r>   -5.7893    1.0000 </r>
       <r>   -5.6738    1.0000 </r>
       <r>   -5.5800    1.0000 </r>
       <r>   -5.5021    1.0000 </r>
       <r>   -5.4641    1.0000 </r>
       <r>   -5.3612    1.0000 </r>
       <r>   -5.1658    1.0000 </r>
       <r>   -5.0911    1.0000 </r>
       <r>   -4.8669    1.0000 </r>
       <r>   -4.8375    1.0000 </r>
       <r>   -4.5717    1.0000 </r>
       <r>   -4.5295    1.0000 </r>
       <r>   -4.4643    1.0000 </r>
       <r>   -4.3356    1.0000 </r>
       <r>   -4.2914    1.0000 </r>
       <r>   -4.1802    1.0000 </r>
       <r>   -4.0183    1.0000 </r>
       <r>   -3.9322    1.0000 </r>
       <r>   -3.7703    0.9999 </r>
       <r>   -3.5471    0.9804 </r>
       <r>   -3.0925    0.1247 </r>
       <r>   -3.0182    0.0468 </r>
       <r>   -2.7475    0.0002 </r>
       <r>   -2.6707    0.0000 </r>
       <r>   -2.5440    0.0000 </r>
       <r>   -2.3629    0.0000 </r>
       <r>   -2.2974    0.0000 </r>
       <r>   -2.1167    0.0000 </r>
       <r>   -1.9358    0.0000 </r>
       <r>   -1.9153    0.0000 </r>
       <r>   -1.8418    0.0000 </r>
       <r>   -1.7656    0.0000 </r>
       <r>   -1.5877    0.0000 </r>
       <r>   -1.4939    0.0000 </r>
       <r>   -1.4336    0.0000 </r>
       <r>   -1.2408    0.0000 </r>
       <r>   -1.1710    0.0000 </r>
       <r>   -1.0660    0.0000 </r>
       <r>   -1.0492    0.0000 </r>
       <r>   -1.0075    0.0000 </r>
       <r>   -0.9615    0.0000 </r>
       <r>   -0.9142    0.0000 </r>
       <r>   -0.7702    0.0000 </r>
       <r>   -0.7111    0.0000 </r>
       <r>   -0.6704    0.0000 </r>
       <r>   -0.3319    0.0000 </r>
       <r>   -0.2707    0.0000 </r>
       <r>   -0.1838    0.0000 </r>
       <r>   -0.0225    0.0000 </r>
       <r>    0.0602    0.0000 </r>
       <r>    0.3569    0.0000 </r>
       <r>    0.5284    0.0000 </r>
       <r>    0.6634    0.0000 </r>
       <r>    0.7565    0.0000 </r>
       <r>    0.8320    0.0000 </r>
       <r>    0.8474    0.0000 </r>
       <r>    1.1369    0.0000 </r>
       <r>    1.3312    0.0000 </r>
       <r>    2.1251    0.0000 </r>
       <r>    2.3071    0.0000 </r>
       <r>    2.3877    0.0000 </r>
      </set>
      <set comment="kpoint 32">
       <r>  -17.5738    1.0000 </r>
       <r>  -17.1563    1.0000 </r>
       <r>  -17.0893    1.0000 </r>
       <r>  -16.6637    1.0000 </r>
       <r>  -16.4896    1.0000 </r>
       <r>  -16.3604    1.0000 </r>
       <r>  -16.3180    1.0000 </r>
       <r>  -16.2517    1.0000 </r>
       <r>  -16.1511    1.0000 </r>
       <r>  -16.0125    1.0000 </r>
       <r>  -15.9429    1.0000 </r>
       <r>  -15.8634    1.0000 </r>
       <r>  -15.7713    1.0000 </r>
       <r>  -15.6391    1.0000 </r>
       <r>  -15.5882    1.0000 </r>
       <r>  -15.5224    1.0000 </r>
       <r>  -15.4011    1.0000 </r>
       <r>  -15.2562    1.0000 </r>
       <r>   -9.6829    1.0000 </r>
       <r>   -9.6393    1.0000 </r>
       <r>   -9.3945    1.0000 </r>
       <r>   -8.9383    1.0000 </r>
       <r>   -8.8101    1.0000 </r>
       <r>   -8.5914    1.0000 </r>
       <r>   -8.5349    1.0000 </r>
       <r>   -8.4719    1.0000 </r>
       <r>   -8.4298    1.0000 </r>
       <r>   -8.3987    1.0000 </r>
       <r>   -8.3549    1.0000 </r>
       <r>   -8.2635    1.0000 </r>
       <r>   -8.1689    1.0000 </r>
       <r>   -8.1038    1.0000 </r>
       <r>   -7.9910    1.0000 </r>
       <r>   -7.8581    1.0000 </r>
       <r>   -7.8212    1.0000 </r>
       <r>   -7.7562    1.0000 </r>
       <r>   -7.6132    1.0000 </r>
       <r>   -7.4384    1.0000 </r>
       <r>   -7.3420    1.0000 </r>
       <r>   -7.2577    1.0000 </r>
       <r>   -7.1801    1.0000 </r>
       <r>   -7.1132    1.0000 </r>
       <r>   -7.0718    1.0000 </r>
       <r>   -6.9964    1.0000 </r>
       <r>   -6.7991    1.0000 </r>
       <r>   -6.7452    1.0000 </r>
       <r>   -6.6544    1.0000 </r>
       <r>   -6.5796    1.0000 </r>
       <r>   -6.4849    1.0000 </r>
       <r>   -6.4361    1.0000 </r>
       <r>   -6.3757    1.0000 </r>
       <r>   -6.3054    1.0000 </r>
       <r>   -6.2542    1.0000 </r>
       <r>   -6.1621    1.0000 </r>
       <r>   -6.1391    1.0000 </r>
       <r>   -6.0462    1.0000 </r>
       <r>   -5.9807    1.0000 </r>
       <r>   -5.9193    1.0000 </r>
       <r>   -5.7994    1.0000 </r>
       <r>   -5.7042    1.0000 </r>
       <r>   -5.6437    1.0000 </r>
       <r>   -5.5668    1.0000 </r>
       <r>   -5.5115    1.0000 </r>
       <r>   -5.4431    1.0000 </r>
       <r>   -5.3571    1.0000 </r>
       <r>   -5.2697    1.0000 </r>
       <r>   -5.1551    1.0000 </r>
       <r>   -4.8862    1.0000 </r>
       <r>   -4.7655    1.0000 </r>
       <r>   -4.6689    1.0000 </r>
       <r>   -4.5210    1.0000 </r>
       <r>   -4.4312    1.0000 </r>
       <r>   -4.3827    1.0000 </r>
       <r>   -4.2679    1.0000 </r>
       <r>   -4.2041    1.0000 </r>
       <r>   -3.9973    1.0000 </r>
       <r>   -3.8658    1.0000 </r>
       <r>   -3.7022    0.9992 </r>
       <r>   -3.5239    0.9712 </r>
       <r>   -3.1708    0.2749 </r>
       <r>   -2.9854    0.0281 </r>
       <r>   -2.8171    0.0010 </r>
       <r>   -2.6885    0.0000 </r>
       <r>   -2.5345    0.0000 </r>
       <r>   -2.4217    0.0000 </r>
       <r>   -2.3120    0.0000 </r>
       <r>   -2.1584    0.0000 </r>
       <r>   -2.0309    0.0000 </r>
       <r>   -1.9256    0.0000 </r>
       <r>   -1.8506    0.0000 </r>
       <r>   -1.8048    0.0000 </r>
       <r>   -1.5798    0.0000 </r>
       <r>   -1.3966    0.0000 </r>
       <r>   -1.3883    0.0000 </r>
       <r>   -1.2296    0.0000 </r>
       <r>   -1.1291    0.0000 </r>
       <r>   -1.0466    0.0000 </r>
       <r>   -1.0237    0.0000 </r>
       <r>   -0.9937    0.0000 </r>
       <r>   -0.9355    0.0000 </r>
       <r>   -0.8958    0.0000 </r>
       <r>   -0.7643    0.0000 </r>
       <r>   -0.6683    0.0000 </r>
       <r>   -0.6360    0.0000 </r>
       <r>   -0.3982    0.0000 </r>
       <r>   -0.3013    0.0000 </r>
       <r>   -0.2385    0.0000 </r>
       <r>   -0.1020    0.0000 </r>
       <r>    0.0874    0.0000 </r>
       <r>    0.2929    0.0000 </r>
       <r>    0.5359    0.0000 </r>
       <r>    0.5713    0.0000 </r>
       <r>    0.6996    0.0000 </r>
       <r>    0.8457    0.0000 </r>
       <r>    0.9001    0.0000 </r>
       <r>    1.1323    0.0000 </r>
       <r>    1.5408    0.0000 </r>
       <r>    2.1050    0.0000 </r>
       <r>    2.2739    0.0000 </r>
       <r>    2.5833    0.0000 </r>
      </set>
      <set comment="kpoint 33">
       <r>  -17.5285    1.0000 </r>
       <r>  -17.3167    1.0000 </r>
       <r>  -16.9268    1.0000 </r>
       <r>  -16.6379    1.0000 </r>
       <r>  -16.5653    1.0000 </r>
       <r>  -16.4486    1.0000 </r>
       <r>  -16.2905    1.0000 </r>
       <r>  -16.2416    1.0000 </r>
       <r>  -16.1289    1.0000 </r>
       <r>  -16.0294    1.0000 </r>
       <r>  -15.9060    1.0000 </r>
       <r>  -15.8353    1.0000 </r>
       <r>  -15.7779    1.0000 </r>
       <r>  -15.6383    1.0000 </r>
       <r>  -15.5785    1.0000 </r>
       <r>  -15.4899    1.0000 </r>
       <r>  -15.4318    1.0000 </r>
       <r>  -15.2782    1.0000 </r>
       <r>   -9.7701    1.0000 </r>
       <r>   -9.4589    1.0000 </r>
       <r>   -9.4034    1.0000 </r>
       <r>   -8.9013    1.0000 </r>
       <r>   -8.8729    1.0000 </r>
       <r>   -8.7136    1.0000 </r>
       <r>   -8.6332    1.0000 </r>
       <r>   -8.5419    1.0000 </r>
       <r>   -8.4685    1.0000 </r>
       <r>   -8.3728    1.0000 </r>
       <r>   -8.2683    1.0000 </r>
       <r>   -8.1868    1.0000 </r>
       <r>   -8.1240    1.0000 </r>
       <r>   -8.0412    1.0000 </r>
       <r>   -7.9916    1.0000 </r>
       <r>   -7.9012    1.0000 </r>
       <r>   -7.7757    1.0000 </r>
       <r>   -7.7030    1.0000 </r>
       <r>   -7.5952    1.0000 </r>
       <r>   -7.5123    1.0000 </r>
       <r>   -7.4352    1.0000 </r>
       <r>   -7.2962    1.0000 </r>
       <r>   -7.1696    1.0000 </r>
       <r>   -7.0678    1.0000 </r>
       <r>   -6.9897    1.0000 </r>
       <r>   -6.9314    1.0000 </r>
       <r>   -6.8633    1.0000 </r>
       <r>   -6.7400    1.0000 </r>
       <r>   -6.6971    1.0000 </r>
       <r>   -6.6199    1.0000 </r>
       <r>   -6.4827    1.0000 </r>
       <r>   -6.4238    1.0000 </r>
       <r>   -6.3937    1.0000 </r>
       <r>   -6.3389    1.0000 </r>
       <r>   -6.1956    1.0000 </r>
       <r>   -6.1680    1.0000 </r>
       <r>   -6.1299    1.0000 </r>
       <r>   -6.0510    1.0000 </r>
       <r>   -6.0053    1.0000 </r>
       <r>   -5.9288    1.0000 </r>
       <r>   -5.8847    1.0000 </r>
       <r>   -5.7047    1.0000 </r>
       <r>   -5.6114    1.0000 </r>
       <r>   -5.5556    1.0000 </r>
       <r>   -5.4939    1.0000 </r>
       <r>   -5.4162    1.0000 </r>
       <r>   -5.3198    1.0000 </r>
       <r>   -5.2658    1.0000 </r>
       <r>   -5.0160    1.0000 </r>
       <r>   -4.8844    1.0000 </r>
       <r>   -4.7895    1.0000 </r>
       <r>   -4.7608    1.0000 </r>
       <r>   -4.5454    1.0000 </r>
       <r>   -4.4710    1.0000 </r>
       <r>   -4.3604    1.0000 </r>
       <r>   -4.2186    1.0000 </r>
       <r>   -4.1339    1.0000 </r>
       <r>   -3.9608    1.0000 </r>
       <r>   -3.7979    0.9999 </r>
       <r>   -3.7020    0.9992 </r>
       <r>   -3.5596    0.9843 </r>
       <r>   -3.1958    0.3367 </r>
       <r>   -3.0242    0.0510 </r>
       <r>   -2.9039    0.0065 </r>
       <r>   -2.6823    0.0000 </r>
       <r>   -2.5496    0.0000 </r>
       <r>   -2.4508    0.0000 </r>
       <r>   -2.3275    0.0000 </r>
       <r>   -2.1967    0.0000 </r>
       <r>   -2.1134    0.0000 </r>
       <r>   -1.9092    0.0000 </r>
       <r>   -1.8653    0.0000 </r>
       <r>   -1.8117    0.0000 </r>
       <r>   -1.5645    0.0000 </r>
       <r>   -1.3565    0.0000 </r>
       <r>   -1.3175    0.0000 </r>
       <r>   -1.2164    0.0000 </r>
       <r>   -1.0864    0.0000 </r>
       <r>   -1.0641    0.0000 </r>
       <r>   -1.0010    0.0000 </r>
       <r>   -0.9528    0.0000 </r>
       <r>   -0.9040    0.0000 </r>
       <r>   -0.8584    0.0000 </r>
       <r>   -0.7575    0.0000 </r>
       <r>   -0.6834    0.0000 </r>
       <r>   -0.5777    0.0000 </r>
       <r>   -0.4885    0.0000 </r>
       <r>   -0.3904    0.0000 </r>
       <r>   -0.2747    0.0000 </r>
       <r>   -0.1438    0.0000 </r>
       <r>    0.0693    0.0000 </r>
       <r>    0.2249    0.0000 </r>
       <r>    0.4632    0.0000 </r>
       <r>    0.5617    0.0000 </r>
       <r>    0.6886    0.0000 </r>
       <r>    0.9141    0.0000 </r>
       <r>    0.9944    0.0000 </r>
       <r>    1.1322    0.0000 </r>
       <r>    1.7316    0.0000 </r>
       <r>    2.1448    0.0000 </r>
       <r>    2.3040    0.0000 </r>
       <r>    2.4108    0.0000 </r>
      </set>
      <set comment="kpoint 34">
       <r>  -17.4524    1.0000 </r>
       <r>  -17.4332    1.0000 </r>
       <r>  -16.7696    1.0000 </r>
       <r>  -16.7054    1.0000 </r>
       <r>  -16.5812    1.0000 </r>
       <r>  -16.5434    1.0000 </r>
       <r>  -16.2726    1.0000 </r>
       <r>  -16.2333    1.0000 </r>
       <r>  -16.1115    1.0000 </r>
       <r>  -16.0415    1.0000 </r>
       <r>  -15.8708    1.0000 </r>
       <r>  -15.8222    1.0000 </r>
       <r>  -15.7809    1.0000 </r>
       <r>  -15.6399    1.0000 </r>
       <r>  -15.5731    1.0000 </r>
       <r>  -15.4722    1.0000 </r>
       <r>  -15.4510    1.0000 </r>
       <r>  -15.2955    1.0000 </r>
       <r>   -9.8075    1.0000 </r>
       <r>   -9.3712    1.0000 </r>
       <r>   -9.2897    1.0000 </r>
       <r>   -9.0676    1.0000 </r>
       <r>   -8.8422    1.0000 </r>
       <r>   -8.7987    1.0000 </r>
       <r>   -8.7200    1.0000 </r>
       <r>   -8.5498    1.0000 </r>
       <r>   -8.4758    1.0000 </r>
       <r>   -8.3548    1.0000 </r>
       <r>   -8.2604    1.0000 </r>
       <r>   -8.1497    1.0000 </r>
       <r>   -8.0793    1.0000 </r>
       <r>   -8.0401    1.0000 </r>
       <r>   -7.9080    1.0000 </r>
       <r>   -7.8373    1.0000 </r>
       <r>   -7.7892    1.0000 </r>
       <r>   -7.6895    1.0000 </r>
       <r>   -7.6117    1.0000 </r>
       <r>   -7.5832    1.0000 </r>
       <r>   -7.4744    1.0000 </r>
       <r>   -7.3296    1.0000 </r>
       <r>   -7.1294    1.0000 </r>
       <r>   -7.0398    1.0000 </r>
       <r>   -6.9884    1.0000 </r>
       <r>   -6.9049    1.0000 </r>
       <r>   -6.7782    1.0000 </r>
       <r>   -6.7585    1.0000 </r>
       <r>   -6.6718    1.0000 </r>
       <r>   -6.5861    1.0000 </r>
       <r>   -6.5170    1.0000 </r>
       <r>   -6.4606    1.0000 </r>
       <r>   -6.3855    1.0000 </r>
       <r>   -6.3755    1.0000 </r>
       <r>   -6.3367    1.0000 </r>
       <r>   -6.1761    1.0000 </r>
       <r>   -6.1316    1.0000 </r>
       <r>   -6.0987    1.0000 </r>
       <r>   -6.0253    1.0000 </r>
       <r>   -5.8916    1.0000 </r>
       <r>   -5.7934    1.0000 </r>
       <r>   -5.7377    1.0000 </r>
       <r>   -5.6399    1.0000 </r>
       <r>   -5.5901    1.0000 </r>
       <r>   -5.4664    1.0000 </r>
       <r>   -5.4225    1.0000 </r>
       <r>   -5.2537    1.0000 </r>
       <r>   -5.1284    1.0000 </r>
       <r>   -5.0297    1.0000 </r>
       <r>   -5.0085    1.0000 </r>
       <r>   -4.8417    1.0000 </r>
       <r>   -4.6160    1.0000 </r>
       <r>   -4.5406    1.0000 </r>
       <r>   -4.5169    1.0000 </r>
       <r>   -4.3537    1.0000 </r>
       <r>   -4.1978    1.0000 </r>
       <r>   -4.1207    1.0000 </r>
       <r>   -3.9091    1.0000 </r>
       <r>   -3.8125    1.0000 </r>
       <r>   -3.6988    0.9991 </r>
       <r>   -3.5912    0.9912 </r>
       <r>   -3.1797    0.2963 </r>
       <r>   -3.0562    0.0795 </r>
       <r>   -2.9538    0.0165 </r>
       <r>   -2.6788    0.0000 </r>
       <r>   -2.5654    0.0000 </r>
       <r>   -2.4442    0.0000 </r>
       <r>   -2.3389    0.0000 </r>
       <r>   -2.2203    0.0000 </r>
       <r>   -2.1350    0.0000 </r>
       <r>   -1.9019    0.0000 </r>
       <r>   -1.8675    0.0000 </r>
       <r>   -1.8083    0.0000 </r>
       <r>   -1.5555    0.0000 </r>
       <r>   -1.3360    0.0000 </r>
       <r>   -1.2976    0.0000 </r>
       <r>   -1.2090    0.0000 </r>
       <r>   -1.0842    0.0000 </r>
       <r>   -1.0542    0.0000 </r>
       <r>   -1.0078    0.0000 </r>
       <r>   -0.9516    0.0000 </r>
       <r>   -0.8687    0.0000 </r>
       <r>   -0.8062    0.0000 </r>
       <r>   -0.7439    0.0000 </r>
       <r>   -0.6928    0.0000 </r>
       <r>   -0.6282    0.0000 </r>
       <r>   -0.5473    0.0000 </r>
       <r>   -0.3964    0.0000 </r>
       <r>   -0.2782    0.0000 </r>
       <r>   -0.1193    0.0000 </r>
       <r>   -0.0068    0.0000 </r>
       <r>    0.2098    0.0000 </r>
       <r>    0.4462    0.0000 </r>
       <r>    0.5407    0.0000 </r>
       <r>    0.7127    0.0000 </r>
       <r>    0.9529    0.0000 </r>
       <r>    1.0481    0.0000 </r>
       <r>    1.1226    0.0000 </r>
       <r>    1.8100    0.0000 </r>
       <r>    2.2373    0.0000 </r>
       <r>    2.2558    0.0000 </r>
       <r>    2.3995    0.0000 </r>
      </set>
     </set>
    </set>
   </array>
  </eigenvalues>
  <separator name="orbital magnetization" >
   <v name="MAGDIPOLOUT">      0.00000000      0.00000000      0.00000000</v>
  </separator>
 </calculation>
 <structure name="finalpos" >
  <crystal>
   <varray name="basis" >
    <v>       8.31559613       4.80833751       0.00000000 </v>
    <v>      -8.32572905       4.82581222       0.00000000 </v>
    <v>       0.00000000       0.00000000      30.00000000 </v>
   </varray>
   <i name="volume">   2404.87261881 </i>
   <varray name="rec_basis" >
    <v>       0.06020043       0.10386075       0.00000000 </v>
    <v>      -0.05998244       0.10373434       0.00000000 </v>
    <v>       0.00000000       0.00000000       0.03333333 </v>
   </varray>
  </crystal>
  <varray name="positions" >
   <v>       0.32086117      -0.00723778      -0.00038768 </v>
   <v>       0.31207928       0.29928329      -0.00135065 </v>
   <v>       0.65092753       0.29444949      -0.00207919 </v>
   <v>       0.97913164       0.29226949      -0.00155640 </v>
   <v>       0.68370981      -0.00181590      -0.00021968 </v>
   <v>      -0.01119629      -0.00159994       0.00000307 </v>
   <v>       0.01884515       0.70484311       0.00231220 </v>
   <v>       0.34470905       0.70562190       0.00233908 </v>
   <v>       0.69121438       0.70122613       0.00068826 </v>
   <v>       0.11363881       0.22020129       0.94501020 </v>
   <v>       0.22433849       0.11032692       0.05160897 </v>
   <v>       0.10928369       0.55417918       0.95617183 </v>
   <v>       0.22216375       0.44375477       0.04449368 </v>
   <v>       0.11811194       0.89855602       0.94636856 </v>
   <v>       0.22638661       0.79173316       0.05701219 </v>
   <v>       0.44103685       0.21826172       0.94836464 </v>
   <v>       0.55133626       0.10554520       0.04966523 </v>
   <v>       0.44289462       0.55561546       0.95733503 </v>
   <v>       0.55686002       0.44177766       0.04169988 </v>
   <v>       0.44607176       0.90019276       0.94794559 </v>
   <v>       0.55711438       0.77776667       0.05507996 </v>
   <v>       0.77284032       0.21640871       0.94453511 </v>
   <v>       0.88700443       0.10534724       0.05657865 </v>
   <v>       0.77973691       0.55344753       0.95488275 </v>
   <v>       0.88575329       0.44333921       0.04368855 </v>
   <v>       0.78251170       0.89260926       0.94271651 </v>
   <v>       0.89084889       0.78211191       0.05709359 </v>
  </varray>
 </structure>
</modeling>
