   27   27  100    1
  0.9710400E+02  0.1002848E-08  0.1002848E-08  0.3000000E-08  0.5000000E-15
  1.000000000000000E-004
  CAR 
 unknown system                          
    159     34    120
 
  0.0000000E+00  0.0000000E+00  0.0000000E+00  0.1562500E-01
    1      -17.785126   1.000000
    2      -16.664765   1.000000
    3      -16.600631   1.000000
    4      -16.560742   1.000000
    5      -16.504097   1.000000
    6      -16.455239   1.000000
    7      -16.426411   1.000000
    8      -16.345803   1.000000
    9      -16.150065   1.000000
   10      -16.121636   1.000000
   11      -16.038886   1.000000
   12      -15.979899   1.000000
   13      -15.887455   1.000000
   14      -15.748027   1.000000
   15      -15.626112   1.000000
   16      -15.531456   1.000000
   17      -15.389207   1.000000
   18      -15.284997   1.000000
   19       -9.219465   1.000000
   20       -8.925365   1.000000
   21       -8.846146   1.000000
   22       -8.826999   1.000000
   23       -8.726819   1.000000
   24       -8.703519   1.000000
   25       -8.674535   1.000000
   26       -8.609574   1.000000
   27       -8.543941   1.000000
   28       -8.450412   1.000000
   29       -8.438094   1.000000
   30       -8.350601   1.000000
   31       -8.293000   1.000000
   32       -8.185849   1.000000
   33       -8.082794   1.000000
   34       -7.955833   1.000000
   35       -7.837149   1.000000
   36       -7.812681   1.000000
   37       -7.743452   1.000000
   38       -7.544734   1.000000
   39       -7.449244   1.000000
   40       -7.388674   1.000000
   41       -7.297774   1.000000
   42       -7.269675   1.000000
   43       -7.141912   1.000000
   44       -6.951855   1.000000
   45       -6.795240   1.000000
   46       -6.774672   1.000000
   47       -6.735361   1.000000
   48       -6.647165   1.000000
   49       -6.530027   1.000000
   50       -6.458166   1.000000
   51       -6.443435   1.000000
   52       -6.380291   1.000000
   53       -6.325170   1.000000
   54       -6.229492   1.000000
   55       -6.202869   1.000000
   56       -6.161065   1.000000
   57       -6.067901   1.000000
   58       -5.851702   1.000000
   59       -5.734799   1.000000
   60       -5.556387   1.000000
   61       -5.502058   1.000000
   62       -5.474863   1.000000
   63       -5.335610   1.000000
   64       -5.169514   1.000000
   65       -5.120472   1.000000
   66       -5.018891   1.000000
   67       -4.924712   1.000000
   68       -4.912017   1.000000
   69       -4.808504   1.000000
   70       -4.773468   1.000000
   71       -4.650880   1.000000
   72       -4.603893   1.000000
   73       -4.553161   1.000000
   74       -4.269928   1.000000
   75       -4.144825   1.000000
   76       -3.966370   0.999999
   77       -3.728313   0.999302
   78       -3.665227   0.997014
   79       -3.493755   0.937826
   80       -3.448070   0.887576
   81       -3.280058   0.510257
   82       -2.744990   0.000086
   83       -2.672902   0.000010
   84       -2.640374   0.000003
   85       -2.467673   0.000000
   86       -2.364607   0.000000
   87       -2.275617   0.000000
   88       -2.252935   0.000000
   89       -2.184944   0.000000
   90       -2.074608   0.000000
   91       -1.881678   0.000000
   92       -1.862393   0.000000
   93       -1.486151   0.000000
   94       -1.336544   0.000000
   95       -1.232211   0.000000
   96       -1.150308   0.000000
   97       -0.920321   0.000000
   98       -0.825013   0.000000
   99       -0.705871   0.000000
  100       -0.662524   0.000000
  101       -0.568693   0.000000
  102       -0.502476   0.000000
  103       -0.446510   0.000000
  104       -0.408573   0.000000
  105       -0.331338   0.000000
  106       -0.129402   0.000000
  107       -0.021949   0.000000
  108       -0.011859   0.000000
  109        0.062752   0.000000
  110        0.246918   0.000000
  111        0.357536   0.000000
  112        0.400444   0.000000
  113        0.677095   0.000000
  114        0.834871   0.000000
  115        0.890948   0.000000
  116        1.176369   0.000000
  117        1.322792   0.000000
  118        1.638010   0.000000
  119        1.829868   0.000000
  120        2.141595   0.000000
 
  0.1250000E+00  0.2775558E-16  0.0000000E+00  0.3125000E-01
    1      -17.759616   1.000000
    2      -16.755633   1.000000
    3      -16.657155   1.000000
    4      -16.569994   1.000000
    5      -16.548656   1.000000
    6      -16.444007   1.000000
    7      -16.352390   1.000000
    8      -16.289223   1.000000
    9      -16.177624   1.000000
   10      -16.094045   1.000000
   11      -16.031717   1.000000
   12      -15.958751   1.000000
   13      -15.838338   1.000000
   14      -15.750096   1.000000
   15      -15.626995   1.000000
   16      -15.540307   1.000000
   17      -15.401476   1.000000
   18      -15.292977   1.000000
   19       -9.209378   1.000000
   20       -9.109235   1.000000
   21       -8.994224   1.000000
   22       -8.928481   1.000000
   23       -8.774636   1.000000
   24       -8.717132   1.000000
   25       -8.641107   1.000000
   26       -8.592943   1.000000
   27       -8.506716   1.000000
   28       -8.421207   1.000000
   29       -8.371054   1.000000
   30       -8.302846   1.000000
   31       -8.246535   1.000000
   32       -8.015406   1.000000
   33       -7.991662   1.000000
   34       -7.932900   1.000000
   35       -7.844238   1.000000
   36       -7.740446   1.000000
   37       -7.686714   1.000000
   38       -7.550802   1.000000
   39       -7.485843   1.000000
   40       -7.400296   1.000000
   41       -7.304572   1.000000
   42       -7.243922   1.000000
   43       -7.133985   1.000000
   44       -6.954907   1.000000
   45       -6.889403   1.000000
   46       -6.809820   1.000000
   47       -6.746782   1.000000
   48       -6.631155   1.000000
   49       -6.523630   1.000000
   50       -6.461992   1.000000
   51       -6.415209   1.000000
   52       -6.386330   1.000000
   53       -6.302588   1.000000
   54       -6.238526   1.000000
   55       -6.216468   1.000000
   56       -6.144506   1.000000
   57       -6.063049   1.000000
   58       -5.863022   1.000000
   59       -5.684607   1.000000
   60       -5.560711   1.000000
   61       -5.491444   1.000000
   62       -5.465691   1.000000
   63       -5.384914   1.000000
   64       -5.228635   1.000000
   65       -5.170501   1.000000
   66       -5.092851   1.000000
   67       -4.963439   1.000000
   68       -4.924246   1.000000
   69       -4.799621   1.000000
   70       -4.745918   1.000000
   71       -4.663215   1.000000
   72       -4.572430   1.000000
   73       -4.500954   1.000000
   74       -4.253469   1.000000
   75       -4.076319   1.000000
   76       -3.917893   0.999997
   77       -3.829555   0.999954
   78       -3.701983   0.998690
   79       -3.641279   0.995059
   80       -3.369148   0.743984
   81       -3.155575   0.196412
   82       -2.757671   0.000122
   83       -2.688203   0.000016
   84       -2.628546   0.000002
   85       -2.457424   0.000000
   86       -2.357310   0.000000
   87       -2.263440   0.000000
   88       -2.242963   0.000000
   89       -2.150468   0.000000
   90       -2.073825   0.000000
   91       -1.915633   0.000000
   92       -1.826271   0.000000
   93       -1.474129   0.000000
   94       -1.336877   0.000000
   95       -1.223284   0.000000
   96       -1.136763   0.000000
   97       -0.946620   0.000000
   98       -0.835969   0.000000
   99       -0.743963   0.000000
  100       -0.704307   0.000000
  101       -0.625974   0.000000
  102       -0.575406   0.000000
  103       -0.512748   0.000000
  104       -0.424249   0.000000
  105       -0.299938   0.000000
  106       -0.240735   0.000000
  107       -0.094402   0.000000
  108       -0.008990   0.000000
  109        0.076990   0.000000
  110        0.284765   0.000000
  111        0.394494   0.000000
  112        0.509581   0.000000
  113        0.703531   0.000000
  114        0.815502   0.000000
  115        0.896594   0.000000
  116        1.185238   0.000000
  117        1.289925   0.000000
  118        1.682950   0.000000
  119        1.867520   0.000000
  120        2.176832   0.000000
 
  0.2500000E+00  0.5551115E-16  0.0000000E+00  0.3125000E-01
    1      -17.684057   1.000000
    2      -16.970005   1.000000
    3      -16.682063   1.000000
    4      -16.633611   1.000000
    5      -16.580885   1.000000
    6      -16.416561   1.000000
    7      -16.272439   1.000000
    8      -16.232226   1.000000
    9      -16.153976   1.000000
   10      -16.107715   1.000000
   11      -15.995915   1.000000
   12      -15.894197   1.000000
   13      -15.765777   1.000000
   14      -15.744907   1.000000
   15      -15.617199   1.000000
   16      -15.563625   1.000000
   17      -15.436591   1.000000
   18      -15.309022   1.000000
   19       -9.461293   1.000000
   20       -9.191225   1.000000
   21       -9.101690   1.000000
   22       -9.031689   1.000000
   23       -8.841185   1.000000
   24       -8.807170   1.000000
   25       -8.669501   1.000000
   26       -8.533762   1.000000
   27       -8.469038   1.000000
   28       -8.381646   1.000000
   29       -8.271501   1.000000
   30       -8.167190   1.000000
   31       -8.097960   1.000000
   32       -8.028373   1.000000
   33       -7.906809   1.000000
   34       -7.876885   1.000000
   35       -7.745145   1.000000
   36       -7.693400   1.000000
   37       -7.563101   1.000000
   38       -7.540738   1.000000
   39       -7.430925   1.000000
   40       -7.345296   1.000000
   41       -7.296899   1.000000
   42       -7.221736   1.000000
   43       -7.088752   1.000000
   44       -6.985650   1.000000
   45       -6.908155   1.000000
   46       -6.845805   1.000000
   47       -6.737623   1.000000
   48       -6.644956   1.000000
   49       -6.594304   1.000000
   50       -6.487015   1.000000
   51       -6.409808   1.000000
   52       -6.370476   1.000000
   53       -6.258770   1.000000
   54       -6.211228   1.000000
   55       -6.170283   1.000000
   56       -6.126887   1.000000
   57       -6.041156   1.000000
   58       -5.878239   1.000000
   59       -5.722750   1.000000
   60       -5.632935   1.000000
   61       -5.558580   1.000000
   62       -5.530465   1.000000
   63       -5.464837   1.000000
   64       -5.323257   1.000000
   65       -5.271249   1.000000
   66       -5.080147   1.000000
   67       -5.031764   1.000000
   68       -4.876353   1.000000
   69       -4.842010   1.000000
   70       -4.752418   1.000000
   71       -4.560381   1.000000
   72       -4.500058   1.000000
   73       -4.410040   1.000000
   74       -4.235534   1.000000
   75       -4.168148   1.000000
   76       -4.037787   1.000000
   77       -3.922415   0.999998
   78       -3.713286   0.998996
   79       -3.545401   0.971413
   80       -3.267234   0.474100
   81       -3.038603   0.046320
   82       -2.782167   0.000237
   83       -2.717779   0.000039
   84       -2.596151   0.000001
   85       -2.469749   0.000000
   86       -2.355933   0.000000
   87       -2.274875   0.000000
   88       -2.157958   0.000000
   89       -2.096529   0.000000
   90       -2.058451   0.000000
   91       -1.922526   0.000000
   92       -1.781037   0.000000
   93       -1.453386   0.000000
   94       -1.336696   0.000000
   95       -1.202275   0.000000
   96       -1.127614   0.000000
   97       -1.025787   0.000000
   98       -0.897116   0.000000
   99       -0.847200   0.000000
  100       -0.796228   0.000000
  101       -0.738242   0.000000
  102       -0.649637   0.000000
  103       -0.594342   0.000000
  104       -0.470949   0.000000
  105       -0.416563   0.000000
  106       -0.281353   0.000000
  107       -0.173318   0.000000
  108       -0.090000   0.000000
  109        0.077984   0.000000
  110        0.297323   0.000000
  111        0.446775   0.000000
  112        0.622794   0.000000
  113        0.782199   0.000000
  114        0.845547   0.000000
  115        0.940175   0.000000
  116        1.200737   0.000000
  117        1.245934   0.000000
  118        1.807301   0.000000
  119        1.976523   0.000000
  120        2.281372   0.000000
 
  0.3750000E+00  0.0000000E+00  0.0000000E+00  0.3125000E-01
    1      -17.561896   1.000000
    2      -17.189753   1.000000
    3      -16.720683   1.000000
    4      -16.668416   1.000000
    5      -16.579314   1.000000
    6      -16.422436   1.000000
    7      -16.233692   1.000000
    8      -16.206464   1.000000
    9      -16.134127   1.000000
   10      -16.075920   1.000000
   11      -15.936496   1.000000
   12      -15.846403   1.000000
   13      -15.766902   1.000000
   14      -15.707472   1.000000
   15      -15.628704   1.000000
   16      -15.567710   1.000000
   17      -15.464044   1.000000
   18      -15.321321   1.000000
   19       -9.685935   1.000000
   20       -9.312351   1.000000
   21       -9.138166   1.000000
   22       -9.041242   1.000000
   23       -8.890811   1.000000
   24       -8.822752   1.000000
   25       -8.648798   1.000000
   26       -8.504322   1.000000
   27       -8.431940   1.000000
   28       -8.292891   1.000000
   29       -8.248501   1.000000
   30       -8.210674   1.000000
   31       -8.036484   1.000000
   32       -7.977576   1.000000
   33       -7.876051   1.000000
   34       -7.860718   1.000000
   35       -7.798681   1.000000
   36       -7.684298   1.000000
   37       -7.538220   1.000000
   38       -7.456849   1.000000
   39       -7.372539   1.000000
   40       -7.303257   1.000000
   41       -7.210227   1.000000
   42       -7.152171   1.000000
   43       -7.046146   1.000000
   44       -6.924533   1.000000
   45       -6.855236   1.000000
   46       -6.769560   1.000000
   47       -6.686881   1.000000
   48       -6.637735   1.000000
   49       -6.606940   1.000000
   50       -6.497910   1.000000
   51       -6.381456   1.000000
   52       -6.345411   1.000000
   53       -6.257640   1.000000
   54       -6.209272   1.000000
   55       -6.117988   1.000000
   56       -6.075380   1.000000
   57       -6.034396   1.000000
   58       -5.966822   1.000000
   59       -5.862401   1.000000
   60       -5.809049   1.000000
   61       -5.723427   1.000000
   62       -5.604063   1.000000
   63       -5.514714   1.000000
   64       -5.362918   1.000000
   65       -5.243066   1.000000
   66       -5.108511   1.000000
   67       -5.015538   1.000000
   68       -4.878880   1.000000
   69       -4.787823   1.000000
   70       -4.734925   1.000000
   71       -4.655396   1.000000
   72       -4.509882   1.000000
   73       -4.391520   1.000000
   74       -4.261004   1.000000
   75       -4.220325   1.000000
   76       -4.092311   1.000000
   77       -3.875453   0.999989
   78       -3.692638   0.998375
   79       -3.405817   0.819896
   80       -3.170727   0.227420
   81       -2.992159   0.022213
   82       -2.781625   0.000234
   83       -2.746174   0.000089
   84       -2.583071   0.000000
   85       -2.496832   0.000000
   86       -2.374371   0.000000
   87       -2.268172   0.000000
   88       -2.108589   0.000000
   89       -2.066433   0.000000
   90       -2.016473   0.000000
   91       -1.895897   0.000000
   92       -1.708525   0.000000
   93       -1.436385   0.000000
   94       -1.350449   0.000000
   95       -1.229738   0.000000
   96       -1.152878   0.000000
   97       -1.092426   0.000000
   98       -0.991599   0.000000
   99       -0.913056   0.000000
  100       -0.876898   0.000000
  101       -0.818817   0.000000
  102       -0.708530   0.000000
  103       -0.618572   0.000000
  104       -0.544570   0.000000
  105       -0.450886   0.000000
  106       -0.384282   0.000000
  107       -0.209558   0.000000
  108       -0.150224   0.000000
  109        0.038244   0.000000
  110        0.259436   0.000000
  111        0.458184   0.000000
  112        0.686874   0.000000
  113        0.791419   0.000000
  114        0.939162   0.000000
  115        1.043839   0.000000
  116        1.157437   0.000000
  117        1.289506   0.000000
  118        1.992343   0.000000
  119        2.149102   0.000000
  120        2.452594   0.000000
 
  0.5000000E+00  0.1110223E-15  0.0000000E+00  0.1562500E-01
    1      -17.425323   1.000000
    2      -17.360693   1.000000
    3      -16.736275   1.000000
    4      -16.680440   1.000000
    5      -16.573671   1.000000
    6      -16.429959   1.000000
    7      -16.226160   1.000000
    8      -16.199837   1.000000
    9      -16.127472   1.000000
   10      -16.052721   1.000000
   11      -15.906711   1.000000
   12      -15.819541   1.000000
   13      -15.758266   1.000000
   14      -15.709809   1.000000
   15      -15.658038   1.000000
   16      -15.569942   1.000000
   17      -15.459386   1.000000
   18      -15.325278   1.000000
   19       -9.766281   1.000000
   20       -9.355621   1.000000
   21       -9.171772   1.000000
   22       -9.047214   1.000000
   23       -8.904369   1.000000
   24       -8.732808   1.000000
   25       -8.645328   1.000000
   26       -8.596398   1.000000
   27       -8.381473   1.000000
   28       -8.311413   1.000000
   29       -8.210763   1.000000
   30       -8.135097   1.000000
   31       -8.086922   1.000000
   32       -7.976734   1.000000
   33       -7.869636   1.000000
   34       -7.865719   1.000000
   35       -7.795586   1.000000
   36       -7.688504   1.000000
   37       -7.602193   1.000000
   38       -7.432763   1.000000
   39       -7.387854   1.000000
   40       -7.300822   1.000000
   41       -7.113192   1.000000
   42       -7.060739   1.000000
   43       -6.981549   1.000000
   44       -6.883870   1.000000
   45       -6.829663   1.000000
   46       -6.709448   1.000000
   47       -6.691966   1.000000
   48       -6.619745   1.000000
   49       -6.584104   1.000000
   50       -6.511718   1.000000
   51       -6.437166   1.000000
   52       -6.331333   1.000000
   53       -6.254743   1.000000
   54       -6.200862   1.000000
   55       -6.155739   1.000000
   56       -6.067867   1.000000
   57       -6.037010   1.000000
   58       -5.964246   1.000000
   59       -5.890194   1.000000
   60       -5.790841   1.000000
   61       -5.761201   1.000000
   62       -5.687187   1.000000
   63       -5.480679   1.000000
   64       -5.389142   1.000000
   65       -5.357531   1.000000
   66       -5.132323   1.000000
   67       -5.069496   1.000000
   68       -4.886546   1.000000
   69       -4.820649   1.000000
   70       -4.671644   1.000000
   71       -4.633196   1.000000
   72       -4.511571   1.000000
   73       -4.420008   1.000000
   74       -4.313626   1.000000
   75       -4.202933   1.000000
   76       -4.040330   1.000000
   77       -3.861000   0.999982
   78       -3.698062   0.998566
   79       -3.339315   0.671740
   80       -3.127165   0.145621
   81       -2.990173   0.021481
   82       -2.767651   0.000161
   83       -2.762806   0.000141
   84       -2.582096   0.000000
   85       -2.514664   0.000000
   86       -2.383682   0.000000
   87       -2.260838   0.000000
   88       -2.118003   0.000000
   89       -2.034225   0.000000
   90       -1.992570   0.000000
   91       -1.881329   0.000000
   92       -1.675378   0.000000
   93       -1.415366   0.000000
   94       -1.356022   0.000000
   95       -1.287700   0.000000
   96       -1.157581   0.000000
   97       -1.121233   0.000000
   98       -1.021743   0.000000
   99       -0.961181   0.000000
  100       -0.884645   0.000000
  101       -0.841537   0.000000
  102       -0.732204   0.000000
  103       -0.620667   0.000000
  104       -0.566710   0.000000
  105       -0.474442   0.000000
  106       -0.422893   0.000000
  107       -0.222729   0.000000
  108       -0.174845   0.000000
  109        0.016034   0.000000
  110        0.240055   0.000000
  111        0.456124   0.000000
  112        0.709580   0.000000
  113        0.796381   0.000000
  114        0.973987   0.000000
  115        1.089215   0.000000
  116        1.136826   0.000000
  117        1.316136   0.000000
  118        2.210148   0.000000
  119        2.245729   0.000000
  120        2.362691   0.000000
 
  0.0000000E+00  0.1250000E+00  0.0000000E+00  0.3125000E-01
    1      -17.760064   1.000000
    2      -16.746891   1.000000
    3      -16.648693   1.000000
    4      -16.617362   1.000000
    5      -16.523925   1.000000
    6      -16.427014   1.000000
    7      -16.374321   1.000000
    8      -16.277223   1.000000
    9      -16.176939   1.000000
   10      -16.107061   1.000000
   11      -15.991237   1.000000
   12      -15.957548   1.000000
   13      -15.872771   1.000000
   14      -15.744708   1.000000
   15      -15.635678   1.000000
   16      -15.540027   1.000000
   17      -15.397476   1.000000
   18      -15.290847   1.000000
   19       -9.212371   1.000000
   20       -9.087146   1.000000
   21       -8.981706   1.000000
   22       -8.921357   1.000000
   23       -8.771249   1.000000
   24       -8.708831   1.000000
   25       -8.640165   1.000000
   26       -8.605979   1.000000
   27       -8.517848   1.000000
   28       -8.473962   1.000000
   29       -8.387675   1.000000
   30       -8.289827   1.000000
   31       -8.196800   1.000000
   32       -8.059733   1.000000
   33       -7.990494   1.000000
   34       -7.902099   1.000000
   35       -7.853454   1.000000
   36       -7.740020   1.000000
   37       -7.684958   1.000000
   38       -7.571067   1.000000
   39       -7.483961   1.000000
   40       -7.355754   1.000000
   41       -7.334078   1.000000
   42       -7.223543   1.000000
   43       -7.165590   1.000000
   44       -6.993705   1.000000
   45       -6.845665   1.000000
   46       -6.809925   1.000000
   47       -6.719416   1.000000
   48       -6.655394   1.000000
   49       -6.514151   1.000000
   50       -6.471163   1.000000
   51       -6.425927   1.000000
   52       -6.380062   1.000000
   53       -6.334495   1.000000
   54       -6.224292   1.000000
   55       -6.178208   1.000000
   56       -6.145789   1.000000
   57       -6.059558   1.000000
   58       -5.879435   1.000000
   59       -5.713343   1.000000
   60       -5.531813   1.000000
   61       -5.478618   1.000000
   62       -5.466591   1.000000
   63       -5.384194   1.000000
   64       -5.248001   1.000000
   65       -5.178268   1.000000
   66       -5.067703   1.000000
   67       -5.024089   1.000000
   68       -4.926751   1.000000
   69       -4.838194   1.000000
   70       -4.712170   1.000000
   71       -4.597249   1.000000
   72       -4.557706   1.000000
   73       -4.493324   1.000000
   74       -4.211381   1.000000
   75       -4.124477   1.000000
   76       -3.934704   0.999998
   77       -3.792892   0.999870
   78       -3.738386   0.999456
   79       -3.562360   0.978406
   80       -3.466965   0.911065
   81       -3.142727   0.172237
   82       -2.753197   0.000108
   83       -2.674029   0.000010
   84       -2.616229   0.000002
   85       -2.474168   0.000000
   86       -2.340741   0.000000
   87       -2.268674   0.000000
   88       -2.251184   0.000000
   89       -2.156606   0.000000
   90       -2.079287   0.000000
   91       -1.893669   0.000000
   92       -1.845403   0.000000
   93       -1.484600   0.000000
   94       -1.329383   0.000000
   95       -1.220446   0.000000
   96       -1.137190   0.000000
   97       -0.948227   0.000000
   98       -0.835860   0.000000
   99       -0.776840   0.000000
  100       -0.682820   0.000000
  101       -0.626621   0.000000
  102       -0.571352   0.000000
  103       -0.477777   0.000000
  104       -0.449614   0.000000
  105       -0.314909   0.000000
  106       -0.254800   0.000000
  107       -0.101433   0.000000
  108        0.023904   0.000000
  109        0.124601   0.000000
  110        0.298333   0.000000
  111        0.339901   0.000000
  112        0.387238   0.000000
  113        0.661907   0.000000
  114        0.843269   0.000000
  115        0.907393   0.000000
  116        1.249220   0.000000
  117        1.345325   0.000000
  118        1.681986   0.000000
  119        1.869608   0.000000
  120        2.176698   0.000000
 
  0.1250000E+00  0.1250000E+00  0.0000000E+00  0.3125000E-01
    1      -17.709200   1.000000
    2      -16.890458   1.000000
    3      -16.740760   1.000000
    4      -16.623054   1.000000
    5      -16.496465   1.000000
    6      -16.421243   1.000000
    7      -16.327446   1.000000
    8      -16.240065   1.000000
    9      -16.152572   1.000000
   10      -16.104531   1.000000
   11      -16.030257   1.000000
   12      -15.874362   1.000000
   13      -15.801904   1.000000
   14      -15.747372   1.000000
   15      -15.632112   1.000000
   16      -15.546803   1.000000
   17      -15.423387   1.000000
   18      -15.307773   1.000000
   19       -9.340874   1.000000
   20       -9.234343   1.000000
   21       -9.096851   1.000000
   22       -8.973050   1.000000
   23       -8.833385   1.000000
   24       -8.732815   1.000000
   25       -8.632071   1.000000
   26       -8.555649   1.000000
   27       -8.452629   1.000000
   28       -8.425377   1.000000
   29       -8.339914   1.000000
   30       -8.275977   1.000000
   31       -8.123869   1.000000
   32       -8.064937   1.000000
   33       -7.936406   1.000000
   34       -7.843970   1.000000
   35       -7.707634   1.000000
   36       -7.662335   1.000000
   37       -7.639578   1.000000
   38       -7.538079   1.000000
   39       -7.407471   1.000000
   40       -7.355075   1.000000
   41       -7.288073   1.000000
   42       -7.266904   1.000000
   43       -7.134512   1.000000
   44       -7.002868   1.000000
   45       -6.931155   1.000000
   46       -6.810097   1.000000
   47       -6.764458   1.000000
   48       -6.655890   1.000000
   49       -6.563051   1.000000
   50       -6.491194   1.000000
   51       -6.424318   1.000000
   52       -6.363338   1.000000
   53       -6.285743   1.000000
   54       -6.217507   1.000000
   55       -6.149928   1.000000
   56       -6.127454   1.000000
   57       -6.027988   1.000000
   58       -5.888022   1.000000
   59       -5.687706   1.000000
   60       -5.619299   1.000000
   61       -5.523742   1.000000
   62       -5.472404   1.000000
   63       -5.413499   1.000000
   64       -5.344507   1.000000
   65       -5.236640   1.000000
   66       -5.122303   1.000000
   67       -5.055698   1.000000
   68       -4.916234   1.000000
   69       -4.832217   1.000000
   70       -4.695976   1.000000
   71       -4.625668   1.000000
   72       -4.474889   1.000000
   73       -4.404263   1.000000
   74       -4.183884   1.000000
   75       -4.120564   1.000000
   76       -4.009175   1.000000
   77       -3.937115   0.999999
   78       -3.711237   0.998946
   79       -3.545411   0.971417
   80       -3.398972   0.806909
   81       -3.030545   0.041052
   82       -2.783003   0.000242
   83       -2.716463   0.000038
   84       -2.585791   0.000001
   85       -2.470227   0.000000
   86       -2.344656   0.000000
   87       -2.286502   0.000000
   88       -2.193877   0.000000
   89       -2.120380   0.000000
   90       -2.049741   0.000000
   91       -1.927881   0.000000
   92       -1.805609   0.000000
   93       -1.462411   0.000000
   94       -1.320497   0.000000
   95       -1.201183   0.000000
   96       -1.123729   0.000000
   97       -1.021898   0.000000
   98       -0.885359   0.000000
   99       -0.838452   0.000000
  100       -0.746002   0.000000
  101       -0.708471   0.000000
  102       -0.641432   0.000000
  103       -0.519390   0.000000
  104       -0.458373   0.000000
  105       -0.431640   0.000000
  106       -0.243645   0.000000
  107       -0.166491   0.000000
  108       -0.042268   0.000000
  109        0.075615   0.000000
  110        0.278085   0.000000
  111        0.375733   0.000000
  112        0.521607   0.000000
  113        0.700215   0.000000
  114        0.876644   0.000000
  115        0.906657   0.000000
  116        1.292222   0.000000
  117        1.339547   0.000000
  118        1.768525   0.000000
  119        1.941390   0.000000
  120        2.246936   0.000000
 
  0.2500000E+00  0.1250000E+00  0.0000000E+00  0.3125000E-01
    1      -17.609932   1.000000
    2      -17.080444   1.000000
    3      -16.853920   1.000000
    4      -16.602966   1.000000
    5      -16.478978   1.000000
    6      -16.423146   1.000000
    7      -16.275409   1.000000
    8      -16.218319   1.000000
    9      -16.124343   1.000000
   10      -16.084133   1.000000
   11      -16.004348   1.000000
   12      -15.840923   1.000000
   13      -15.772755   1.000000
   14      -15.722325   1.000000
   15      -15.617657   1.000000
   16      -15.549187   1.000000
   17      -15.458988   1.000000
   18      -15.323088   1.000000
   19       -9.577816   1.000000
   20       -9.389434   1.000000
   21       -9.153093   1.000000
   22       -8.993753   1.000000
   23       -8.819184   1.000000
   24       -8.763472   1.000000
   25       -8.635212   1.000000
   26       -8.499819   1.000000
   27       -8.412282   1.000000
   28       -8.334818   1.000000
   29       -8.278950   1.000000
   30       -8.225582   1.000000
   31       -8.073813   1.000000
   32       -8.042404   1.000000
   33       -7.972904   1.000000
   34       -7.906754   1.000000
   35       -7.777830   1.000000
   36       -7.636448   1.000000
   37       -7.493235   1.000000
   38       -7.434147   1.000000
   39       -7.362137   1.000000
   40       -7.317979   1.000000
   41       -7.238663   1.000000
   42       -7.159880   1.000000
   43       -7.035573   1.000000
   44       -6.980389   1.000000
   45       -6.887555   1.000000
   46       -6.821670   1.000000
   47       -6.705463   1.000000