 vasp.5.4.1 05Feb16 (build Jul 05 2020 17:13:04) complex                        
  
 executed on           IFC91_ompi date 2024.07.15  15:31:12
 running on   40 total cores
 distrk:  each k-point on   40 cores,    1 groups
 distr:  one band on NCORES_PER_BAND=   1 cores,   40 groups


--------------------------------------------------------------------------------------------------------


 INCAR:
 POTCAR:   PAW_PBE V 08Apr2002                    
 POTCAR:   PAW_PBE Mo 08Apr2002                   
 POTCAR:   PAW_PBE W 08Apr2002                    
 POTCAR:    PAW_PBE S 17Jan2003                   

 ----------------------------------------------------------------------------- 
|                                                                             |
|           W    W    AA    RRRRR   N    N  II  N    N   GGGG   !!!           |
|           W    W   A  A   R    R  NN   N  II  NN   N  G    G  !!!           |
|           W    W  A    A  R    R  N N  N  II  N N  N  G       !!!           |
|           W WW W  AAAAAA  RRRRR   N  N N  II  N  N N  G  GGG   !            |
|           WW  WW  A    A  R   R   N   NN  II  N   NN  G    G                |
|           W    W  A    A  R    R  N    N  II  N    N   GGGG   !!!           |
|                                                                             |
|      For optimal performance we recommend to set                            |
|        NCORE= 4 - approx SQRT( number of cores)                             |
|      NCORE specifies how many cores store one orbital (NPAR=cpu/NCORE).     |
|      This setting can  greatly improve the performance of VASP for DFT.     |
|      The default, NPAR=number of cores might be grossly inefficient         |
|      on modern multi-core architectures or massively parallel machines.     |
|      Do your own testing !!!!                                               |
|      Unfortunately you need to use the default for GW and RPA calculations. |
|      (for HF NCORE is supported but not extensively tested yet)             |
|                                                                             |
 ----------------------------------------------------------------------------- 

 POTCAR:   PAW_PBE V 08Apr2002                    
   VRHFIN =V: p6 d4 s1                                                          
   LEXCH  = PE                                                                  
   EATOM  =   170.8679 eV,   12.5584 Ry                                         
                                                                                
   TITEL  = PAW_PBE V 08Apr2002                                                 
   LULTRA =        F    use ultrasoft PP ?                                      
   IUNSCR =        1    unscreen: 0-lin 1-nonlin 2-no                           
   RPACOR =    2.000    partial core radius                                     
   POMASS =   50.941; ZVAL   =    5.000    mass and valenz                      
   RCORE  =    2.700    outmost cutoff radius                                   
   RWIGS  =    2.500; RWIGS  =    1.323    wigner-seitz radius (au A)           
   ENMAX  =  192.543; ENMIN  =  144.408 eV                                      
   RCLOC  =    1.779    cutoff for local pot                                    
   LCOR   =        T    correct aug charges                                     
   LPAW   =        T    paw PP                                                  
   EAUG   =  358.662                                                            
   DEXC   =    -.034                                                            
   RMAX   =    3.323    core radius for proj-oper                               
   RAUG   =    1.300    factor for augmentation sphere                          
   RDEP   =    2.762    radius for radial grids                                 
   QCUT   =   -3.762; QGAM   =    7.524    optimization parameters              
                                                                                
   Description                                                                  
     l     E      TYP  RCUT    TYP  RCUT                                        
     2   .000     23  2.700                                                     
     2   .000     23  2.700                                                     
     0   .000     23  2.700                                                     
     0  2.000     23  2.700                                                     
     1   .000     23  2.700                                                     
     1  2.000     23  2.700                                                     
     3   .000      7   .000                                                     
  local pseudopotential read in
  partial core-charges read in
  atomic valenz-charges read in
  non local Contribution for L=           2  read in
    real space projection operators read in
  non local Contribution for L=           2  read in
    real space projection operators read in
  non local Contribution for L=           0  read in
    real space projection operators read in
  non local Contribution for L=           0  read in
    real space projection operators read in
  non local Contribution for L=           1  read in
    real space projection operators read in
  non local Contribution for L=           1  read in
    real space projection operators read in
    PAW grid and wavefunctions read in
 
   number of l-projection  operators is LMAX  =           6
   number of lm-projection operators is LMMAX =          18
 
 POTCAR:   PAW_PBE Mo 08Apr2002                   
   VRHFIN =Mo: 4p5s4d                                                           
   LEXCH  = PE                                                                  
   EATOM  =   217.5180 eV,   15.9871 Ry                                         
                                                                                
   TITEL  = PAW_PBE Mo 08Apr2002                                                
   LULTRA =        F    use ultrasoft PP ?                                      
   IUNSCR =        1    unscreen: 0-lin 1-nonlin 2-no                           
   RPACOR =    2.200    partial core radius                                     
   POMASS =   95.940; ZVAL   =    6.000    mass and valenz                      
   RCORE  =    2.750    outmost cutoff radius                                   
   RWIGS  =    2.750; RWIGS  =    1.455    wigner-seitz radius (au A)           
   ENMAX  =  224.584; ENMIN  =  168.438 eV                                      
   RCLOC  =    2.111    cutoff for local pot                                    
   LCOR   =        T    correct aug charges                                     
   LPAW   =        T    paw PP                                                  
   EAUG   =  345.278                                                            
   DEXC   =    -.088                                                            
   RMAX   =    3.077    core radius for proj-oper                               
   RAUG   =    1.300    factor for augmentation sphere                          
   RDEP   =    2.815    radius for radial grids                                 
   QCUT   =   -4.063; QGAM   =    8.126    optimization parameters              
                                                                                
   Description                                                                  
     l     E      TYP  RCUT    TYP  RCUT                                        
     2   .000     23  2.500                                                     
     2   .000     23  2.500                                                     
     0   .000     23  2.600                                                     
     0  1.000     23  2.600                                                     
     1   .400     23  2.750                                                     
     1  2.000     23  2.750                                                     
     3   .000      7   .000                                                     
  local pseudopotential read in
  partial core-charges read in
  atomic valenz-charges read in
  non local Contribution for L=           2  read in
    real space projection operators read in
  non local Contribution for L=           2  read in
    real space projection operators read in
  non local Contribution for L=           0  read in
    real space projection operators read in
  non local Contribution for L=           0  read in
    real space projection operators read in
  non local Contribution for L=           1  read in
    real space projection operators read in
  non local Contribution for L=           1  read in
    real space projection operators read in
    PAW grid and wavefunctions read in
 
   number of l-projection  operators is LMAX  =           6
   number of lm-projection operators is LMMAX =          18
 
 POTCAR:   PAW_PBE W 08Apr2002                    
   VRHFIN =W : 6s5d                                                             
   LEXCH  = PE                                                                  
   EATOM  =   204.6100 eV,   15.0384 Ry                                         
                                                                                
   TITEL  = PAW_PBE W 08Apr2002                                                 
   LULTRA =        F    use ultrasoft PP ?                                      
   IUNSCR =        1    unscreen: 0-lin 1-nonlin 2-no                           
   RPACOR =    2.330    partial core radius                                     
   POMASS =  183.850; ZVAL   =    6.000    mass and valenz                      
   RCORE  =    2.750    outmost cutoff radius                                   
   RWIGS  =    2.750; RWIGS  =    1.455    wigner-seitz radius (au A)           
   ENMAX  =  223.057; ENMIN  =  167.293 eV                                      
   RCLOC  =    2.147    cutoff for local pot                                    
   LCOR   =        T    correct aug charges                                     
   LPAW   =        T    paw PP                                                  
   EAUG   =  373.438                                                            
   DEXC   =    -.060                                                            
   RMAX   =    3.087    core radius for proj-oper                               
   RAUG   =    1.300    factor for augmentation sphere                          
   RDEP   =    2.886    radius for radial grids                                 
   QCUT   =   -4.049; QGAM   =    8.098    optimization parameters              
                                                                                
   Description                                                                  
     l     E      TYP  RCUT    TYP  RCUT                                        
     2   .000     23  2.500                                                     
     2   .000     23  2.500                                                     
     0   .000     23  2.500                                                     
     0   .000     23  2.500                                                     
     1   .200     23  2.750                                                     
     1  2.000     23  2.750                                                     
     3   .000      7   .000                                                     
  local pseudopotential read in
  partial core-charges read in
  atomic valenz-charges read in
  non local Contribution for L=           2  read in
    real space projection operators read in
  non local Contribution for L=           2  read in
    real space projection operators read in
  non local Contribution for L=           0  read in
    real space projection operators read in
  non local Contribution for L=           0  read in
    real space projection operators read in
  non local Contribution for L=           1  read in
    real space projection operators read in
  non local Contribution for L=           1  read in
    real space projection operators read in
    PAW grid and wavefunctions read in
 
   number of l-projection  operators is LMAX  =           6
   number of lm-projection operators is LMMAX =          18
 
 POTCAR:    PAW_PBE S 17Jan2003                   
   VRHFIN =S : s2p4                                                             
   LEXCH  = PE                                                                  
   EATOM  =   276.8230 eV,   20.3459 Ry                                         
                                                                                
   TITEL  = PAW_PBE S 17Jan2003                                                 
   LULTRA =        F    use ultrasoft PP ?                                      
   IUNSCR =        1    unscreen: 0-lin 1-nonlin 2-no                           
   RPACOR =    1.500    partial core radius                                     
   POMASS =   32.066; ZVAL   =    6.000    mass and valenz                      
   RCORE  =    1.900    outmost cutoff radius                                   
   RWIGS  =    2.200; RWIGS  =    1.164    wigner-seitz radius (au A)           
   ENMAX  =  280.000; ENMIN  =  194.016 eV                                      
   ICORE  =        2    local potential                                         
   LCOR   =        T    correct aug charges                                     
   LPAW   =        T    paw PP                                                  
   EAUG   =  335.092                                                            
   DEXC   =     .000                                                            
   RMAX   =    2.867    core radius for proj-oper                               
   RAUG   =    1.300    factor for augmentation sphere                          
   RDEP   =    1.954    radius for radial grids                                 
   QCUT   =   -4.360; QGAM   =    8.721    optimization parameters              
                                                                                
   Description                                                                  
     l     E      TYP  RCUT    TYP  RCUT                                        
     0   .000     23  1.900                                                     
     0   .000     23  1.900                                                     
     1   .000     23  1.900                                                     
     1   .000     23  1.900                                                     
     2   .000     23  1.900                                                     
  local pseudopotential read in
  partial core-charges read in
  atomic valenz-charges read in
  non local Contribution for L=           0  read in
    real space projection operators read in
  non local Contribution for L=           0  read in
    real space projection operators read in
  non local Contribution for L=           1  read in
    real space projection operators read in
  non local Contribution for L=           1  read in
    real space projection operators read in
    PAW grid and wavefunctions read in
 
   number of l-projection  operators is LMAX  =           4
   number of lm-projection operators is LMMAX =           8
 

 ----------------------------------------------------------------------------- 
|                                                                             |
|  ADVICE TO THIS USER RUNNING 'VASP/VAMP'   (HEAR YOUR MASTER'S VOICE ...):  |
|                                                                             |
|      You have a (more or less) 'large supercell' and for larger cells       |
|      it might be more efficient to use real space projection operators      |
|      So try LREAL= Auto  in the INCAR   file.                               |
|      Mind: If you want to do a very accurate calculations keep the          |
|      reciprocal projection scheme          (i.e. LREAL=.FALSE.)             |
|                                                                             |
 ----------------------------------------------------------------------------- 

 PAW_PBE V 08Apr2002                    :
 energy of atom  1       EATOM= -170.8679
 kinetic energy error for atom=    0.0047 (will be added to EATOM!!)
 PAW_PBE Mo 08Apr2002                   :
 energy of atom  2       EATOM= -217.5180
 kinetic energy error for atom=    0.0215 (will be added to EATOM!!)
 PAW_PBE W 08Apr2002                    :
 energy of atom  3       EATOM= -204.6100
 kinetic energy error for atom=    0.0205 (will be added to EATOM!!)
  PAW_PBE S 17Jan2003                   :
 energy of atom  4       EATOM= -276.8230
 kinetic energy error for atom=    0.0122 (will be added to EATOM!!)
 
 
 POSCAR: crystal structure from VMoWS2 with Hexag
  positions in cartesian coordinates
  No initial velocities read in
 exchange correlation table for  LEXCH =        8
   RHO(1)=    0.500       N(1)  =     2000
   RHO(2)=  100.500       N(2)  =     4000
 


--------------------------------------------------------------------------------------------------------


 ion  position               nearest neighbor table
   1  0.333  0.667  0.000-  15 2.34  18 2.34  20 2.36  21 2.36  13 2.36  12 2.36
   2  0.667  0.000  0.000-  17 2.34  26 2.34  23 2.36  22 2.36  21 2.36  20 2.36
   3  1.000  0.333  0.000-  25 2.34  10 2.34  13 2.36  12 2.36  22 2.36  23 2.36
   4  0.667  0.667  0.000-  21 2.34  24 2.34  27 2.36  26 2.36  19 2.36  18 2.36   7 3.34   9 3.34
                             6 3.36   5 3.36
   5  0.333  0.333  0.000-  13 2.34  16 2.34  19 2.36  18 2.36  11 2.36  10 2.36   8 3.34   9 3.34
                             6 3.36   4 3.36
   6  0.000  0.000  0.000-  23 2.34  14 2.34  11 2.36  10 2.36  27 2.36  26 2.36   7 3.34   8 3.34
                             4 3.36   5 3.36
   7  0.000  0.667  0.000-  27 2.34  12 2.34  14 2.36  15 2.36  24 2.36  25 2.36   4 3.34   6 3.34
                             8 3.36   9 3.36
   8  0.333  0.000  0.000-  11 2.34  20 2.34  17 2.36  16 2.36  15 2.36  14 2.36   5 3.34   6 3.34
                             7 3.36   9 3.36
   9  0.667  0.333  0.000-  19 2.34  22 2.34  25 2.36  24 2.36  17 2.36  16 2.36   4 3.34   5 3.34
                             7 3.36   8 3.36
  10  0.111  0.222  0.955-   3 2.34   6 2.36   5 2.36
  11  0.222  0.111  0.045-   8 2.34   6 2.36   5 2.36
  12  0.111  0.556  0.955-   7 2.34   3 2.36   1 2.36
  13  0.222  0.444  0.045-   5 2.34   3 2.36   1 2.36
  14  0.111  0.889  0.955-   6 2.34   7 2.36   8 2.36
  15  0.222  0.777  0.045-   1 2.34   7 2.36   8 2.36
  16  0.444  0.222  0.955-   5 2.34   8 2.36   9 2.36
  17  0.556  0.111  0.045-   2 2.34   8 2.36   9 2.36
  18  0.444  0.556  0.955-   1 2.34   5 2.36   4 2.36
  19  0.556  0.444  0.045-   9 2.34   5 2.36   4 2.36
  20  0.444  0.889  0.955-   8 2.34   1 2.36   2 2.36
  21  0.556  0.777  0.045-   4 2.34   1 2.36   2 2.36
  22  0.777  0.222  0.955-   9 2.34   2 2.36   3 2.36
  23  0.889  0.111  0.045-   6 2.34   2 2.36   3 2.36
  24  0.777  0.556  0.955-   4 2.34   9 2.36   7 2.36
  25  0.889  0.444  0.045-   3 2.34   9 2.36   7 2.36
  26  0.777  0.889  0.955-   2 2.34   4 2.36   6 2.36
  27  0.889  0.777  0.045-   7 2.34   4 2.36   6 2.36
 

IMPORTANT INFORMATION: All symmetrisations will be switched off!
NOSYMM: (Re-)initialisation of all symmetry stuff for point group C_1.

 
 
 KPOINTS: K-POINTS 	#supercell of CrS2 in hexagona

Automatic generation of k-mesh.
Space group operators:
 irot       det(A)        alpha          n_x          n_y          n_z        tau_x        tau_y        tau_z
    1     1.000000     0.000000     1.000000     0.000000     0.000000     0.000000     0.000000     0.000000
 
 Subroutine IBZKPT returns following result:
 ===========================================
 
 Found     34 irreducible k-points:
 
 Following reciprocal coordinates:
            Coordinates               Weight
  0.000000  0.000000  0.000000      1.000000
  0.125000  0.000000  0.000000      2.000000
  0.250000  0.000000  0.000000      2.000000
  0.375000  0.000000  0.000000      2.000000
  0.500000  0.000000  0.000000      1.000000
  0.000000  0.125000  0.000000      2.000000
  0.125000  0.125000  0.000000      2.000000
  0.250000  0.125000  0.000000      2.000000
  0.375000  0.125000  0.000000      2.000000
  0.500000  0.125000  0.000000      2.000000
 -0.375000  0.125000  0.000000      2.000000
 -0.250000  0.125000  0.000000      2.000000
 -0.125000  0.125000  0.000000      2.000000
  0.000000  0.250000  0.000000      2.000000
  0.125000  0.250000  0.000000      2.000000
  0.250000  0.250000  0.000000      2.000000
  0.375000  0.250000  0.000000      2.000000
  0.500000  0.250000  0.000000      2.000000
 -0.375000  0.250000  0.000000      2.000000
 -0.250000  0.250000  0.000000      2.000000
 -0.125000  0.250000  0.000000      2.000000
 -0.000000  0.375000  0.000000      2.000000
  0.125000  0.375000  0.000000      2.000000
  0.250000  0.375000  0.000000      2.000000
  0.375000  0.375000  0.000000      2.000000
  0.500000  0.375000  0.000000      2.000000
 -0.375000  0.375000  0.000000      2.000000
 -0.250000  0.375000  0.000000      2.000000
 -0.125000  0.375000  0.000000      2.000000
  0.000000  0.500000  0.000000      1.000000
  0.125000  0.500000  0.000000      2.000000
  0.250000  0.500000  0.000000      2.000000
  0.375000  0.500000  0.000000      2.000000
  0.500000  0.500000  0.000000      1.000000
 
 Following cartesian coordinates:
            Coordinates               Weight
  0.000000  0.000000  0.000000      1.000000
  0.007209  0.012401  0.000000      2.000000
  0.014418  0.024802  0.000000      2.000000
  0.021626  0.037202  0.000000      2.000000
  0.028835  0.049603  0.000000      1.000000
 -0.007209  0.012401  0.000000      2.000000
  0.000000  0.024802  0.000000      2.000000
  0.007209  0.037202  0.000000      2.000000
  0.014418  0.049603  0.000000      2.000000
  0.021626  0.062004  0.000000      2.000000
 -0.028835 -0.024802  0.000000      2.000000
 -0.021626 -0.012401  0.000000      2.000000
 -0.014418  0.000000  0.000000      2.000000
 -0.014418  0.024802  0.000000      2.000000
 -0.007209  0.037202  0.000000      2.000000
  0.000000  0.049603  0.000000      2.000000
  0.007209  0.062004  0.000000      2.000000
  0.014418  0.074405  0.000000      2.000000
 -0.036044 -0.012401  0.000000      2.000000
 -0.028835  0.000000  0.000000      2.000000
 -0.021626  0.012401  0.000000      2.000000
 -0.021626  0.037202  0.000000      2.000000
 -0.014418  0.049603  0.000000      2.000000
 -0.007209  0.062004  0.000000      2.000000
  0.000000  0.074405  0.000000      2.000000
  0.007209  0.086806  0.000000      2.000000
 -0.043253  0.000000  0.000000      2.000000
 -0.036044  0.012401  0.000000      2.000000
 -0.028835  0.024802  0.000000      2.000000
 -0.028835  0.049603  0.000000      1.000000
 -0.021626  0.062004  0.000000      2.000000
 -0.014418  0.074405  0.000000      2.000000
 -0.007209  0.086806  0.000000      2.000000
  0.000000  0.099206  0.000000      1.000000
 


--------------------------------------------------------------------------------------------------------




 Dimension of arrays:
   k-points           NKPTS =     34   k-points in BZ     NKDIM =     34   number of bands    NBANDS=    120
   number of dos      NEDOS =    301   number of ions     NIONS =     27
   non local maximal  LDIM  =      6   non local SUM 2l+1 LMDIM =     18
   total plane-waves  NPLWV = 222264
   max r-space proj   IRMAX =      1   max aug-charges    IRDMAX=   5642
   dimension x,y,z NGX =    42 NGY =   42 NGZ =  126
   dimension x,y,z NGXF=    84 NGYF=   84 NGZF=  252
   support grid    NGXF=    84 NGYF=   84 NGZF=  252
   ions per type =               3   3   3  18
 NGX,Y,Z   is equivalent  to a cutoff of   6.96,  6.96,  6.98 a.u.
 NGXF,Y,Z  is equivalent  to a cutoff of  13.92, 13.92, 13.96 a.u.


 I would recommend the setting:
   dimension x,y,z NGX =    41 NGY =   41 NGZ =  123
 SYSTEM =  unknown system                          
 POSCAR =  crystal structure from VMoWS2 with Hexag

 Startparameter for this run:
   NWRITE =      2    write-flag & timer
   PREC   = normal    normal or accurate (medium, high low for compatibility)
   ISTART =      0    job   : 0-new  1-cont  2-samecut
   ICHARG =      2    charge: 1-file 2-atom 10-const
   ISPIN  =      1    spin polarized calculation?
   LNONCOLLINEAR =      F non collinear calculations
   LSORBIT =      F    spin-orbit coupling
   INIWAV =      1    electr: 0-lowe 1-rand  2-diag
   LASPH  =      F    aspherical Exc in radial PAW
   METAGGA=      F    non-selfconsistent MetaGGA calc.

 Electronic Relaxation 1
   ENCUT  =  280.0 eV  20.58 Ry    4.54 a.u.  13.68 13.68 40.93*2*pi/ulx,y,z
   ENINI  =  280.0     initial cutoff
   ENAUG  =  373.4 eV  augmentation charge cutoff
   NELM   =     60;   NELMIN=  2; NELMDL= -5     # of ELM steps 
   EDIFF  = 0.1E-03   stopping-criterion for ELM
   LREAL  =      F    real-space projection
   NLSPLINE    = F    spline interpolate recip. space projectors
   LCOMPAT=      F    compatible to vasp.4.4
   GGA_COMPAT  = T    GGA compatible to vasp.4.4-vasp.4.6
   LMAXPAW     = -100 max onsite density
   LMAXMIX     =    2 max onsite mixed and CHGCAR
   VOSKOWN=      0    Vosko Wilk Nusair interpolation
   ROPT   =    0.00000   0.00000   0.00000   0.00000
 Ionic relaxation
   EDIFFG = 0.1E-02   stopping-criterion for IOM
   NSW    =    100    number of steps for IOM
   NBLOCK =      1;   KBLOCK =    100    inner block; outer block 
   IBRION =      1    ionic relax: 0-MD 1-quasi-New 2-CG
   NFREE  =      0    steps in history (QN), initial steepest desc. (CG)
   ISIF   =      3    stress and relaxation
   IWAVPR =     11    prediction:  0-non 1-charg 2-wave 3-comb
   ISYM   =      0    0-nonsym 1-usesym 2-fastsym
   LCORR  =      T    Harris-Foulkes like correction to forces

   POTIM  = 0.5000    time-step for ionic-motion
   TEIN   =    0.0    initial temperature
   TEBEG  =    0.0;   TEEND  =   0.0 temperature during run
   SMASS  =  -3.00    Nose mass-parameter (am)
   estimated Nose-frequenzy (Omega)   =  0.10E-29 period in steps =****** mass=  -0.230E-26a.u.
   SCALEE = 1.0000    scale energy and forces
   NPACO  =    256;   APACO  = 16.0  distance and # of slots for P.C.
   PSTRESS=    0.0 pullay stress

  Mass of Ions in am
   POMASS =  50.94 95.94183.85 32.07
  Ionic Valenz
   ZVAL   =   5.00  6.00  6.00  6.00
  Atomic Wigner-Seitz radii
   RWIGS  =  -1.00 -1.00 -1.00 -1.00
  virtual crystal weights 
   VCA    =   1.00  1.00  1.00  1.00
   NELECT =     159.0000    total number of electrons
   NUPDOWN=      -1.0000    fix difference up-down

 DOS related values:
   EMIN   =  10.00;   EMAX   =-10.00  energy-range for DOS
   EFERMI =   0.00
   ISMEAR =     0;   SIGMA  =   0.20  broadening in eV -4-tet -1-fermi 0-gaus

 Electronic relaxation 2 (details)
   IALGO  =     38    algorithm
   LDIAG  =      T    sub-space diagonalisation (order eigenvalues)
   LSUBROT=      F    optimize rotation matrix (better conditioning)
   TURBO    =      0    0=normal 1=particle mesh
   IRESTART =      0    0=no restart 2=restart with 2 vectors
   NREBOOT  =      0    no. of reboots
   NMIN     =      0    reboot dimension
   EREF     =   0.00    reference energy to select bands
   IMIX   =      4    mixing-type and parameters
     AMIX     =   0.40;   BMIX     =  1.00
     AMIX_MAG =   1.60;   BMIX_MAG =  1.00
     AMIN     =   0.10
     WC   =   100.;   INIMIX=   1;  MIXPRE=   1;  MAXMIX= -45

 Intra band minimization:
   WEIMIN = 0.0010     energy-eigenvalue tresh-hold
   EBREAK =  0.21E-06  absolut break condition
   DEPER  =   0.30     relativ break condition  

   TIME   =   0.40     timestep for ELM

  volume/ion in A,a.u.               =      97.10       655.29
  Fermi-wavevector in a.u.,A,eV,Ry     =   0.643191  1.215456  5.628665  0.413695
  Thomas-Fermi vector in A             =   1.710110
 
 Write flags
   LWAVE  =      F    write WAVECAR
   LCHARG =      F    write CHGCAR
   LVTOT  =      F    write LOCPOT, total local potential
   LVHAR  =      F    write LOCPOT, Hartree potential only
   LELF   =      F    write electronic localiz. function (ELF)
   LORBIT =      0    0 simple, 1 ext, 2 COOP (PROOUT)


 Dipole corrections
   LMONO  =      F    monopole corrections only (constant potential shift)
   LDIPOL =      F    correct potential (dipole corrections)
   IDIPOL =      0    1-x, 2-y, 3-z, 4-all directions 
   EPSILON=  1.0000000 bulk dielectric constant

 Exchange correlation treatment:
   GGA     =    --    GGA type
   LEXCH   =     8    internal setting for exchange type
   VOSKOWN=      0    Vosko Wilk Nusair interpolation
   LHFCALC =     F    Hartree Fock is set to
   LHFONE  =     F    Hartree Fock one center treatment
   AEXX    =    0.0000 exact exchange contribution

 Linear response parameters
   LEPSILON=     F    determine dielectric tensor
   LRPA    =     F    only Hartree local field effects (RPA)
   LNABLA  =     F    use nabla operator in PAW spheres
   LVEL    =     F    velocity operator in full k-point grid
   LINTERFAST=   F  fast interpolation
   KINTER  =     0    interpolate to denser k-point grid
   CSHIFT  =0.1000    complex shift for real part using Kramers Kronig
   OMEGAMAX=  -1.0    maximum frequency
   DEG_THRESHOLD= 0.2000000E-02 threshold for treating states as degnerate
   RTIME   =    0.100 relaxation time in fs

 Orbital magnetization related:
   ORBITALMAG=     F  switch on orbital magnetization
   LCHIMAG   =     F  perturbation theory with respect to B field
   DQ        =  0.001000  dq finite difference perturbation B field



--------------------------------------------------------------------------------------------------------


 quasi-Newton-method for relaxation of ions
 charge density and potential will be updated during run
 non-spin polarized calculation
 Variant of blocked Davidson
 Davidson routine will perform the subspace rotation
 perform sub-space diagonalisation
    after iterative eigenvector-optimisation
 modified Broyden-mixing scheme, WC =      100.0
 initial mixing is a Kerker type mixing with AMIX =  0.4000 and BMIX =      1.0000
 Hartree-type preconditioning will be used
 using additional bands           40
 reciprocal scheme for non local part
 use partial core corrections
 calculate Harris-corrections to forces 
   (improved forces if not selfconsistent)
 use gradient corrections 
 use of overlap-Matrix (Vanderbilt PP)
 Gauss-broadening in eV      SIGMA  =   0.20


--------------------------------------------------------------------------------------------------------


  energy-cutoff  :      280.00
  volume of cell :     2621.81
      direct lattice vectors                 reciprocal lattice vectors
     8.669999960  5.039999894  0.000000000     0.057670129  0.099206348  0.000000000
    -8.669999821  5.040000133  0.000000000    -0.057670126  0.099206350  0.000000000
     0.000000000  0.000000000 30.000000000     0.000000000  0.000000000  0.033333333

  length of vectors
    10.028484344 10.028484344 30.000000000     0.114750788  0.114750788  0.033333333


 
 k-points in units of 2pi/SCALE and weight: K-POINTS 	#supercell of CrS2 in hexagona
   0.00000000  0.00000000  0.00000000       0.016
   0.00720877  0.01240079  0.00000000       0.031
   0.01441753  0.02480159  0.00000000       0.031
   0.02162630  0.03720238  0.00000000       0.031
   0.02883506  0.04960317  0.00000000       0.016
  -0.00720877  0.01240079  0.00000000       0.031
   0.00000000  0.02480159  0.00000000       0.031
   0.00720877  0.03720238  0.00000000       0.031
   0.01441753  0.04960317  0.00000000       0.031
   0.02162630  0.06200397  0.00000000       0.031
  -0.02883506 -0.02480159  0.00000000       0.031
  -0.02162630 -0.01240079  0.00000000       0.031
  -0.01441753  0.00000000  0.00000000       0.031
  -0.01441753  0.02480159  0.00000000       0.031
  -0.00720877  0.03720238  0.00000000       0.031
   0.00000000  0.04960317  0.00000000       0.031
   0.00720877  0.06200397  0.00000000       0.031
   0.01441753  0.07440476  0.00000000       0.031
  -0.03604383 -0.01240079  0.00000000       0.031
  -0.02883506  0.00000000  0.00000000       0.031
  -0.02162630  0.01240079  0.00000000       0.031
  -0.02162630  0.03720238  0.00000000       0.031
  -0.01441753  0.04960317  0.00000000       0.031
  -0.00720877  0.06200397  0.00000000       0.031
   0.00000000  0.07440476  0.00000000       0.031
   0.00720877  0.08680556  0.00000000       0.031
  -0.04325260  0.00000000  0.00000000       0.031
  -0.03604383  0.01240079  0.00000000       0.031
  -0.02883506  0.02480159  0.00000000       0.031
  -0.02883506  0.04960317  0.00000000       0.016
  -0.02162630  0.06200397  0.00000000       0.031
  -0.01441753  0.07440476  0.00000000       0.031
  -0.00720876  0.08680556  0.00000000       0.031
   0.00000000  0.09920635  0.00000000       0.016
 
 k-points in reciprocal lattice and weights: K-POINTS 	#supercell of CrS2 in hexagona
   0.00000000  0.00000000  0.00000000       0.016
   0.12500000  0.00000000  0.00000000       0.031
   0.25000000  0.00000000  0.00000000       0.031
   0.37500000  0.00000000  0.00000000       0.031
   0.50000000  0.00000000  0.00000000       0.016
   0.00000000  0.12500000  0.00000000       0.031
   0.12500000  0.12500000  0.00000000       0.031
   0.25000000  0.12500000  0.00000000       0.031
   0.37500000  0.12500000  0.00000000       0.031
   0.50000000  0.12500000  0.00000000       0.031
  -0.37500000  0.12500000  0.00000000       0.031
  -0.25000000  0.12500000  0.00000000       0.031
  -0.12500000  0.12500000  0.00000000       0.031
   0.00000000  0.25000000  0.00000000       0.031
   0.12500000  0.25000000  0.00000000       0.031
   0.25000000  0.25000000  0.00000000       0.031
   0.37500000  0.25000000  0.00000000       0.031
   0.50000000  0.25000000  0.00000000       0.031
  -0.37500000  0.25000000  0.00000000       0.031
  -0.25000000  0.25000000  0.00000000       0.031
  -0.12500000  0.25000000  0.00000000       0.031
  -0.00000000  0.37500000  0.00000000       0.031
   0.12500000  0.37500000  0.00000000       0.031
   0.25000000  0.37500000  0.00000000       0.031
   0.37500000  0.37500000  0.00000000       0.031
   0.50000000  0.37500000  0.00000000       0.031
  -0.37500000  0.37500000  0.00000000       0.031
  -0.25000000  0.37500000  0.00000000       0.031
  -0.12500000  0.37500000  0.00000000       0.031
   0.00000000  0.50000000  0.00000000       0.016
   0.12500000  0.50000000  0.00000000       0.031
   0.25000000  0.50000000  0.00000000       0.031
   0.37500000  0.50000000  0.00000000       0.031
   0.50000000  0.50000000  0.00000000       0.016
 
 position of ions in fractional coordinates (direct lattice) 
   0.33333334  0.66666669  0.00000000
   0.66666669  0.00000000  0.00000000
   1.00000000  0.33333334  0.00000000
   0.66666669  0.66666669  0.00000000
   0.33333334  0.33333334  0.00000000
   0.00000000  0.00000000  0.00000000
   0.00000000  0.66666669  0.00000000
   0.33333334  0.00000000  0.00000000
   0.66666669  0.33333334  0.00000000
   0.11068511  0.22244981  0.95539999
   0.22244981  0.11068511  0.04460000
   0.11068511  0.55578315  0.95539999
   0.22244981  0.44401845  0.04460000
   0.11068511  0.88911647  0.95539999
   0.22244981  0.77735180  0.04460000
   0.44401845  0.22244981  0.95539999
   0.55578315  0.11068511  0.04460000
   0.44401845  0.55578315  0.95539999
   0.55578315  0.44401845  0.04460000
   0.44401845  0.88911647  0.95539999
   0.55578315  0.77735180  0.04460000
   0.77735180  0.22244981  0.95539999
   0.88911647  0.11068511  0.04460000
   0.77735180  0.55578315  0.95539999
   0.88911647  0.44401845  0.04460000
   0.77735180  0.88911647  0.95539999
   0.88911647  0.77735180  0.04460000
 
 position of ions in cartesian coordinates  (Angst):
  -2.88999998  5.04000020  0.00000000
   5.78000015  3.36000003  0.00000000
   5.77999993  6.71999999  0.00000000
   0.00000009  6.72000022  0.00000000
   0.00000005  3.36000011  0.00000000
   0.00000000  0.00000000  0.00000000
  -5.78000005  3.36000019  0.00000000
   2.89000007  1.68000002  0.00000000
   2.89000012  5.04000012  0.00000000
  -0.96899991  1.67900001 28.66199970
   0.96899995  1.67899998  1.33799996
  -3.85899993  3.35900011 28.66199970
  -1.92100007  3.35900008  1.33799996
  -6.74899970  5.03900005 28.66199970
  -4.81100010  5.03900017  1.33799996
   1.92100017  3.35900003 28.66199970
   3.85900003  3.35900000  1.33799996
  -0.96899986  5.03900012 28.66199970
   0.96900000  5.03900009  1.33799996
  -3.85899963  6.71900006 28.66199970
  -1.92100003  6.71900019  1.33799996
   4.81100024  5.03900004 28.66199970
   6.74899984  5.03899987  1.33799996
   1.92100021  6.71900014 28.66199970
   3.85899981  6.71899996  1.33799996
  -0.96899956  8.39900008 28.66199970
   0.96899979  8.39900005  1.33799996
 


--------------------------------------------------------------------------------------------------------


 k-point  1 :   0.0000 0.0000 0.0000  plane waves:   27959
 k-point  2 :   0.1250 0.0000 0.0000  plane waves:   27889
 k-point  3 :   0.2500 0.0000 0.0000  plane waves:   27875
 k-point  4 :   0.3750 0.0000 0.0000  plane waves:   27893
 k-point  5 :   0.5000 0.0000 0.0000  plane waves:   27932
 k-point  6 :   0.0000 0.1250 0.0000  plane waves:   27889
 k-point  7 :   0.1250 0.1250 0.0000  plane waves:   27906
 k-point  8 :   0.2500 0.1250 0.0000  plane waves:   27898
 k-point  9 :   0.3750 0.1250 0.0000  plane waves:   27888
 k-point 10 :   0.5000 0.1250 0.0000  plane waves:   27873
 k-point 11 :  -0.3750 0.1250 0.0000  plane waves:   27874
 k-point 12 :  -0.2500 0.1250 0.0000  plane waves:   27895
 k-point 13 :  -0.1250 0.1250 0.0000  plane waves:   27879
 k-point 14 :   0.0000 0.2500 0.0000  plane waves:   27875
 k-point 15 :   0.1250 0.2500 0.0000  plane waves:   27898
 k-point 16 :   0.2500 0.2500 0.0000  plane waves:   27920
 k-point 17 :   0.3750 0.2500 0.0000  plane waves:   27901
 k-point 18 :   0.5000 0.2500 0.0000  plane waves:   27875
 k-point 19 :  -0.3750 0.2500 0.0000  plane waves:   27894
 k-point 20 :  -0.2500 0.2500 0.0000  plane waves:   27870
 k-point 21 :  -0.1250 0.2500 0.0000  plane waves:   27895
 k-point 22 :  -0.0000 0.3750 0.0000  plane waves:   27893
 k-point 23 :   0.1250 0.3750 0.0000  plane waves:   27888
 k-point 24 :   0.2500 0.3750 0.0000  plane waves:   27901
 k-point 25 :   0.3750 0.3750 0.0000  plane waves:   27860
 k-point 26 :   0.5000 0.3750 0.0000  plane waves:   27895
 k-point 27 :  -0.3750 0.3750 0.0000  plane waves:   27858
 k-point 28 :  -0.2500 0.3750 0.0000  plane waves:   27894
 k-point 29 :  -0.1250 0.3750 0.0000  plane waves:   27874
 k-point 30 :   0.0000 0.5000 0.0000  plane waves:   27932
 k-point 31 :   0.1250 0.5000 0.0000  plane waves:   27873
 k-point 32 :   0.2500 0.5000 0.0000  plane waves:   27875
 k-point 33 :   0.3750 0.5000 0.0000  plane waves:   27895
 k-point 34 :   0.5000 0.5000 0.0000  plane waves:   27910

 maximum and minimum number of plane-waves per node :     27959    27858

 maximum number of plane-waves:     27959
 maximum index in each direction: 
   IXMAX=   14   IYMAX=   13   IZMAX=   40
   IXMIN=  -14   IYMIN=  -14   IZMIN=  -40

 WARNING: aliasing errors must be expected set NGX to  58 to avoid them
 WARNING: aliasing errors must be expected set NGY to  56 to avoid them
 WARNING: aliasing errors must be expected set NGZ to 162 to avoid them
 aliasing errors are usually negligible using standard VASP settings
 and one can safely disregard these warnings

 serial   3D FFT for wavefunctions

 total amount of memory used by VASP on root node   650782. kBytes
========================================================================

   base      :      30000. kBytes
   nonl-proj :     559647. kBytes
   fftplans  :       2414. kBytes
   grid      :      12150. kBytes
   one-center:        419. kBytes
   wavefun   :      46152. kBytes
 
     INWAV:  cpu time    0.0001: real time    0.0001
 Broyden mixing: mesh for mixing (old mesh)
   NGX = 27   NGY = 27   NGZ = 81
  (NGX  = 84   NGY  = 84   NGZ  =252)
  gives a total of  59049 points

 initial charge density was supplied:
 charge density of overlapping atoms calculated
 number of electron     159.0000000 magnetization 
 keeping initial charge density in first step


--------------------------------------------------------------------------------------------------------


 Maximum index for augmentation-charges          148 (set IRDMAX)


--------------------------------------------------------------------------------------------------------


 First call to EWALD:  gamma=   0.129
 Maximum number of real-space cells 4x 4x 2
 Maximum number of reciprocal cells 2x 2x 5

 FEWALD executed in parallel
    FEWALD:  cpu time    0.0015: real time    0.0015


----------------------------------------- Iteration    1(   1)  ---------------------------------------


    POTLOK:  cpu time    0.0383: real time    0.0386
    SETDIJ:  cpu time    0.0033: real time    0.0034
     EDDAV:  cpu time   21.8079: real time   21.8630
       DOS:  cpu time    0.0014: real time    0.0016
    --------------------------------------------
      LOOP:  cpu time   21.8555: real time   21.9136

 eigenvalue-minimisations  :  8160
 total energy-change (2. order) : 0.1124432E+04  (-0.3586469E+04)
 number of electron     159.0000000 magnetization 
 augmentation part      159.0000000 magnetization 

 Free energy of the ion-electron system (eV)
  ---------------------------------------------------
  alpha Z        PSCENC =        81.65567618
  Ewald energy   TEWEN  =     41891.12778375
  -Hartree energ DENC   =    -47723.77488915
  -exchange      EXHF   =         0.00000000
  -V(xc)+E(xc)   XCENC  =      -242.92498268
  PAW double counting   =      3467.42045192    -2871.19716117
  entropy T*S    EENTRO =        -0.52877100
  eigenvalues    EBANDS =      -238.78841965
  atomic energy  EATOM  =      6761.44252427
  Solvation  Ediel_sol  =         0.00000000
  ---------------------------------------------------
  free energy    TOTEN  =      1124.43221248 eV

  energy without entropy =     1124.96098348  energy(sigma->0) =     1124.69659798


--------------------------------------------------------------------------------------------------------




----------------------------------------- Iteration    1(   2)  ---------------------------------------


     EDDAV:  cpu time   27.5816: real time   27.6483
       DOS:  cpu time    0.0010: real time    0.0010
    --------------------------------------------
      LOOP:  cpu time   27.5837: real time   27.6578

 eigenvalue-minimisations  : 10920
 total energy-change (2. order) :-0.1125661E+04  (-0.1084711E+04)
 number of electron     159.0000000 magnetization 
 augmentation part      159.0000000 magnetization 

 Free energy of the ion-electron system (eV)
  ---------------------------------------------------
  alpha Z        PSCENC =        81.65567618
  Ewald energy   TEWEN  =     41891.12778375
  -Hartree energ DENC   =    -47723.77488915
  -exchange      EXHF   =         0.00000000
  -V(xc)+E(xc)   XCENC  =      -242.92498268
  PAW double counting   =      3467.42045192    -2871.19716117
  entropy T*S    EENTRO =        -0.18154293
  eigenvalues    EBANDS =     -1364.79699601
  atomic energy  EATOM  =      6761.44252427
  Solvation  Ediel_sol  =         0.00000000
  ---------------------------------------------------
  free energy    TOTEN  =        -1.22913581 eV

  energy without entropy =       -1.04759288  energy(sigma->0) =       -1.13836435


--------------------------------------------------------------------------------------------------------




----------------------------------------- Iteration    1(   3)  ---------------------------------------


     EDDAV:  cpu time   27.5876: real time   27.6540
       DOS:  cpu time    0.0011: real time    0.0011
    --------------------------------------------
      LOOP:  cpu time   27.5896: real time   27.6623

 eigenvalue-minimisations  : 10920
 total energy-change (2. order) :-0.1983137E+03  (-0.1899273E+03)
 number of electron     159.0000000 magnetization 
 augmentation part      159.0000000 magnetization 

 Free energy of the ion-electron system (eV)
  ---------------------------------------------------
  alpha Z        PSCENC =        81.65567618
  Ewald energy   TEWEN  =     41891.12778375
  -Hartree energ DENC   =    -47723.77488915
  -exchange      EXHF   =         0.00000000
  -V(xc)+E(xc)   XCENC  =      -242.92498268
  PAW double counting   =      3467.42045192    -2871.19716117
  entropy T*S    EENTRO =        -0.26823758
  eigenvalues    EBANDS =     -1563.02397381
  atomic energy  EATOM  =      6761.44252427
  Solvation  Ediel_sol  =         0.00000000
  ---------------------------------------------------
  free energy    TOTEN  =      -199.54280827 eV

  energy without entropy =     -199.27457069  energy(sigma->0) =     -199.40868948


--------------------------------------------------------------------------------------------------------




----------------------------------------- Iteration    1(   4)  ---------------------------------------


     EDDAV:  cpu time   29.6095: real time   29.6803
       DOS:  cpu time    0.0010: real time    0.0010
    --------------------------------------------
      LOOP:  cpu time   29.6114: real time   29.6890

 eigenvalue-minimisations  : 11920
 total energy-change (2. order) :-0.9488007E+01  (-0.9128625E+01)
 number of electron     159.0000000 magnetization 
 augmentation part      159.0000000 magnetization 

 Free energy of the ion-electron system (eV)
  ---------------------------------------------------
  alpha Z        PSCENC =        81.65567618
  Ewald energy   TEWEN  =     41891.12778375
  -Hartree energ DENC   =    -47723.77488915
  -exchange      EXHF   =         0.00000000
  -V(xc)+E(xc)   XCENC  =      -242.92498268
  PAW double counting   =      3467.42045192    -2871.19716117
  entropy T*S    EENTRO =        -0.25634726
  eigenvalues    EBANDS =     -1572.52387082
  atomic energy  EATOM  =      6761.44252427
  Solvation  Ediel_sol  =         0.00000000
  ---------------------------------------------------
  free energy    TOTEN  =      -209.03081495 eV

  energy without entropy =     -208.77446769  energy(sigma->0) =     -208.90264132


--------------------------------------------------------------------------------------------------------




----------------------------------------- Iteration    1(   5)  ---------------------------------------


     EDDAV:  cpu time   29.2057: real time   29.2764
       DOS:  cpu time    0.0011: real time    0.0011
    CHARGE:  cpu time    0.4681: real time    0.4693
    MIXING:  cpu time    0.0018: real time    0.0019
    --------------------------------------------
      LOOP:  cpu time   29.6775: real time   29.7560

 eigenvalue-minimisations  : 11760
 total energy-change (2. order) :-0.3775072E+00  (-0.3764381E+00)
 number of electron     159.0000110 magnetization 
 augmentation part       -9.8626234 magnetization 

 Broyden mixing:
  rms(total) = 0.27778E+01    rms(broyden)= 0.27774E+01
  rms(prec ) = 0.29674E+01
  weight for this iteration     100.00

 Free energy of the ion-electron system (eV)
  ---------------------------------------------------
  alpha Z        PSCENC =        81.65567618
  Ewald energy   TEWEN  =     41891.12778375
  -Hartree energ DENC   =    -47723.77488915
  -exchange      EXHF   =         0.00000000
  -V(xc)+E(xc)   XCENC  =      -242.92498268
  PAW double counting   =      3467.42045192    -2871.19716117
  entropy T*S    EENTRO =        -0.25209362
  eigenvalues    EBANDS =     -1572.90563166
  atomic energy  EATOM  =      6761.44252427
  Solvation  Ediel_sol  =         0.00000000
  ---------------------------------------------------
  free energy    TOTEN  =      -209.40832216 eV

  energy without entropy =     -209.15622854  energy(sigma->0) =     -209.28227535


--------------------------------------------------------------------------------------------------------




----------------------------------------- Iteration    1(   6)  ---------------------------------------


    POTLOK:  cpu time    0.0337: real time    0.0341
    SETDIJ:  cpu time    0.0025: real time    0.0025
     EDDAV:  cpu time   30.8468: real time   30.9205
       DOS:  cpu time    0.0010: real time    0.0010
    CHARGE:  cpu time    0.4622: real time    0.4633
    MIXING:  cpu time    0.0020: real time    0.0018
    --------------------------------------------
      LOOP:  cpu time   31.3495: real time   31.4327

 eigenvalue-minimisations  : 12600
 total energy-change (2. order) :-0.3229415E+02  (-0.1123339E+02)
 number of electron     159.0000107 magnetization 
 augmentation part        7.2940113 magnetization 

 Broyden mixing:
  rms(total) = 0.60828E+01    rms(broyden)= 0.60822E+01
  rms(prec ) = 0.67126E+01
  weight for this iteration     100.00

 eigenvalues of (default mixing * dielectric matrix)
  average eigenvalue GAMMA=   0.2915
  0.2915

 Free energy of the ion-electron system (eV)
  ---------------------------------------------------
  alpha Z        PSCENC =        81.65567618
  Ewald energy   TEWEN  =     41891.12778375
  -Hartree energ DENC   =    -47702.06330310
  -exchange      EXHF   =         0.00000000
  -V(xc)+E(xc)   XCENC  =      -233.57651362
  PAW double counting   =      3677.11613558    -3083.11834689
  entropy T*S    EENTRO =        -0.26760470
  eigenvalues    EBANDS =     -1634.01882550
  atomic energy  EATOM  =      6761.44252427
  Solvation  Ediel_sol  =         0.00000000
  ---------------------------------------------------
  free energy    TOTEN  =      -241.70247403 eV

  energy without entropy =     -241.43486932  energy(sigma->0) =     -241.56867167


--------------------------------------------------------------------------------------------------------




----------------------------------------- Iteration    1(   7)  ---------------------------------------


    POTLOK:  cpu time    0.0305: real time    0.0306
    SETDIJ:  cpu time    0.0024: real time    0.0024
     EDDAV:  cpu time   31.5961: real time   31.6728
       DOS:  cpu time    0.0010: real time    0.0010
    CHARGE:  cpu time    0.4687: real time    0.4698
    MIXING:  cpu time    0.0011: real time    0.0011
    --------------------------------------------
      LOOP:  cpu time   32.1006: real time   32.1868

 eigenvalue-minimisations  : 12960
 total energy-change (2. order) : 0.4566199E+02  (-0.1797426E+02)
 number of electron     159.0000088 magnetization 
 augmentation part       -6.2625383 magnetization 

 Broyden mixing:
  rms(total) = 0.19747E+01    rms(broyden)= 0.19727E+01
  rms(prec ) = 0.21952E+01
  weight for this iteration     100.00

 eigenvalues of (default mixing * dielectric matrix)
  average eigenvalue GAMMA=   0.5558
  0.9000  0.2116

 Free energy of the ion-electron system (eV)
  ---------------------------------------------------
  alpha Z        PSCENC =        81.65567618
  Ewald energy   TEWEN  =     41891.12778375
  -Hartree energ DENC   =    -47739.10377538
  -exchange      EXHF   =         0.00000000
  -V(xc)+E(xc)   XCENC  =      -234.97051662
  PAW double counting   =      3763.71754978    -3177.76616462
  entropy T*S    EENTRO =        -0.34232117
  eigenvalues    EBANDS =     -1541.80123762
  atomic energy  EATOM  =      6761.44252427
  Solvation  Ediel_sol  =         0.00000000
  ---------------------------------------------------
  free energy    TOTEN  =      -196.04048141 eV

  energy without entropy =     -195.69816024  energy(sigma->0) =     -195.86932083


--------------------------------------------------------------------------------------------------------




----------------------------------------- Iteration    1(   8)  ---------------------------------------


    POTLOK:  cpu time    0.0307: real time    0.0308
    SETDIJ:  cpu time    0.0024: real time    0.0024
     EDDAV:  cpu time   29.9693: real time   30.0409
       DOS:  cpu time    0.0010: real time    0.0010
    CHARGE:  cpu time    0.4878: real time    0.4889
    MIXING:  cpu time    0.0011: real time    0.0011
    --------------------------------------------
      LOOP:  cpu time   30.4933: real time   30.5738

 eigenvalue-minimisations  : 12120
 total energy-change (2. order) : 0.6759215E+01  (-0.1917309E+01)
 number of electron     159.0000095 magnetization 
 augmentation part       -6.3200714 magnetization 

 Broyden mixing:
  rms(total) = 0.12149E+01    rms(broyden)= 0.12147E+01
  rms(prec ) = 0.13103E+01
  weight for this iteration     100.00

 eigenvalues of (default mixing * dielectric matrix)
  average eigenvalue GAMMA=   0.5838
  1.1320  0.2302  0.3891

 Free energy of the ion-electron system (eV)
  ---------------------------------------------------
  alpha Z        PSCENC =        81.65567618
  Ewald energy   TEWEN  =     41891.12778375
  -Hartree energ DENC   =    -47762.04141838
  -exchange      EXHF   =         0.00000000
  -V(xc)+E(xc)   XCENC  =      -234.96491346
  PAW double counting   =      3908.46546959    -3324.20640769
  entropy T*S    EENTRO =        -0.32609089
  eigenvalues    EBANDS =     -1510.43389018
  atomic energy  EATOM  =      6761.44252427
  Solvation  Ediel_sol  =         0.00000000
  ---------------------------------------------------
  free energy    TOTEN  =      -189.28126681 eV

  energy without entropy =     -188.95517592  energy(sigma->0) =     -189.11822136


--------------------------------------------------------------------------------------------------------




----------------------------------------- Iteration    1(   9)  ---------------------------------------


    POTLOK:  cpu time    0.0311: real time    0.0311
    SETDIJ:  cpu time    0.0023: real time    0.0023
     EDDAV:  cpu time   32.1046: real time   32.1820
       DOS:  cpu time    0.0010: real time    0.0010
    CHARGE:  cpu time    0.4845: real time    0.4856
    MIXING:  cpu time    0.0012: real time    0.0012
    --------------------------------------------
      LOOP:  cpu time   32.6256: real time   32.7122

 eigenvalue-minimisations  : 13160
 total energy-change (2. order) : 0.1227958E+01  (-0.2885387E+00)
 number of electron     159.0000092 magnetization 
 augmentation part       -5.5046380 magnetization 

 Broyden mixing:
  rms(total) = 0.88380E+00    rms(broyden)= 0.88351E+00
  rms(prec ) = 0.95682E+00
  weight for this iteration     100.00

 eigenvalues of (default mixing * dielectric matrix)
  average eigenvalue GAMMA=   0.7428
  1.8127  0.6289  0.2196  0.3101

 Free energy of the ion-electron system (eV)
  ---------------------------------------------------
  alpha Z        PSCENC =        81.65567618
  Ewald energy   TEWEN  =     41891.12778375
  -Hartree energ DENC   =    -47766.55552618
  -exchange      EXHF   =         0.00000000
  -V(xc)+E(xc)   XCENC  =      -234.09270557
  PAW double counting   =      3976.45358222    -3393.03058148
  entropy T*S    EENTRO =        -0.32963477
  eigenvalues    EBANDS =     -1504.72442752
  atomic energy  EATOM  =      6761.44252427
  Solvation  Ediel_sol  =         0.00000000
  ---------------------------------------------------
  free energy    TOTEN  =      -188.05330911 eV

  energy without entropy =     -187.72367433  energy(sigma->0) =     -187.88849172


--------------------------------------------------------------------------------------------------------




----------------------------------------- Iteration    1(  10)  ---------------------------------------


    POTLOK:  cpu time    0.0309: real time    0.0311
    SETDIJ:  cpu time    0.0024: real time    0.0024
     EDDAV:  cpu time   32.8835: real time   32.9638
       DOS:  cpu time    0.0002: real time    0.0010
    CHARGE:  cpu time    0.5011: real time    0.5023
    MIXING:  cpu time    0.0013: real time    0.0013
    --------------------------------------------
      LOOP:  cpu time   33.4225: real time   33.5112

 eigenvalue-minimisations  : 13520
 total energy-change (2. order) : 0.1124293E+01  (-0.1554112E+00)
 number of electron     159.0000092 magnetization 
 augmentation part       -4.2681749 magnetization 

 Broyden mixing:
  rms(total) = 0.20206E+00    rms(broyden)= 0.20144E+00
  rms(prec ) = 0.21017E+00
  weight for this iteration     100.00

 eigenvalues of (default mixing * dielectric matrix)
  average eigenvalue GAMMA=   0.9685
  1.8442  1.8442  0.6428  0.2201  0.2916

 Free energy of the ion-electron system (eV)
  ---------------------------------------------------
  alpha Z        PSCENC =        81.65567618
  Ewald energy   TEWEN  =     41891.12778375
  -Hartree energ DENC   =    -47779.98606862
  -exchange      EXHF   =         0.00000000
  -V(xc)+E(xc)   XCENC  =      -232.57424343
  PAW double counting   =      4104.44029682    -3522.61190785
  entropy T*S    EENTRO =        -0.35440327
  eigenvalues    EBANDS =     -1490.06867371
  atomic energy  EATOM  =      6761.44252427
  Solvation  Ediel_sol  =         0.00000000
  ---------------------------------------------------
  free energy    TOTEN  =      -186.92901585 eV

  energy without entropy =     -186.57461258  energy(sigma->0) =     -186.75181422


--------------------------------------------------------------------------------------------------------




----------------------------------------- Iteration    1(  11)  ---------------------------------------


    POTLOK:  cpu time    0.0298: real time    0.0299
    SETDIJ:  cpu time    0.0023: real time    0.0023
     EDDAV:  cpu time   32.4972: real time   32.5749
       DOS:  cpu time    0.0010: real time    0.0011
    CHARGE:  cpu time    0.5026: real time    0.5038
    MIXING:  cpu time    0.0013: real time    0.0013
    --------------------------------------------
      LOOP:  cpu time   33.0351: real time   33.1219

 eigenvalue-minimisations  : 13360
 total energy-change (2. order) : 0.1521199E-01  (-0.3683981E-01)
 number of electron     159.0000088 magnetization 
 augmentation part       -4.6020923 magnetization 

 Broyden mixing:
  rms(total) = 0.26768E+00    rms(broyden)= 0.26764E+00
  rms(prec ) = 0.29728E+00
  weight for this iteration     100.00

 eigenvalues of (default mixing * dielectric matrix)
  average eigenvalue GAMMA=   0.9808
  2.2340  1.6656  0.8234  0.6475  0.2198  0.2944

 Free energy of the ion-electron system (eV)
  ---------------------------------------------------
  alpha Z        PSCENC =        81.65567618
  Ewald energy   TEWEN  =     41891.12778375
  -Hartree energ DENC   =    -47795.76932963
  -exchange      EXHF   =         0.00000000
  -V(xc)+E(xc)   XCENC  =      -232.08223970
  PAW double counting   =      4175.86675243    -3594.13559917
  entropy T*S    EENTRO =        -0.33995821
  eigenvalues    EBANDS =     -1474.67941378
  atomic energy  EATOM  =      6761.44252427
  Solvation  Ediel_sol  =         0.00000000
  ---------------------------------------------------
  free energy    TOTEN  =      -186.91380386 eV

  energy without entropy =     -186.57384565  energy(sigma->0) =     -186.74382476


--------------------------------------------------------------------------------------------------------




----------------------------------------- Iteration    1(  12)  ---------------------------------------


    POTLOK:  cpu time    0.0306: real time    0.0306
    SETDIJ:  cpu time    0.0024: real time    0.0025
     EDDAV:  cpu time   32.7909: real time   32.8699
       DOS:  cpu time    0.0011: real time    0.0011
    CHARGE:  cpu time    0.5013: real time    0.5025
    MIXING:  cpu time    0.0014: real time    0.0014
    --------------------------------------------
      LOOP:  cpu time   33.3285: real time   33.4170

 eigenvalue-minimisations  : 13480
 total energy-change (2. order) : 0.7347976E-01  (-0.2152971E-01)
 number of electron     159.0000089 magnetization 
 augmentation part       -4.0476963 magnetization 

 Broyden mixing:
  rms(total) = 0.11032E+00    rms(broyden)= 0.11007E+00
  rms(prec ) = 0.12293E+00
  weight for this iteration     100.00

 eigenvalues of (default mixing * dielectric matrix)
  average eigenvalue GAMMA=   0.9129
  2.2308  1.7141  0.9036  0.6324  0.2198  0.2946  0.3948

 Free energy of the ion-electron system (eV)
  ---------------------------------------------------
  alpha Z        PSCENC =        81.65567618
  Ewald energy   TEWEN  =     41891.12778375
  -Hartree energ DENC   =    -47802.11552334
  -exchange      EXHF   =         0.00000000
  -V(xc)+E(xc)   XCENC  =      -231.88865846
  PAW double counting   =      4190.38013465    -3608.55881049
  entropy T*S    EENTRO =        -0.34806751
  eigenvalues    EBANDS =     -1468.53538315
  atomic energy  EATOM  =      6761.44252427
  Solvation  Ediel_sol  =         0.00000000
  ---------------------------------------------------
  free energy    TOTEN  =      -186.84032410 eV

  energy without entropy =     -186.49225659  energy(sigma->0) =     -186.66629034


--------------------------------------------------------------------------------------------------------




----------------------------------------- Iteration    1(  13)  ---------------------------------------


    POTLOK:  cpu time    0.0307: real time    0.0311
    SETDIJ:  cpu time    0.0023: real time    0.0023
     EDDAV:  cpu time   32.4061: real time   32.4835
       DOS:  cpu time    0.0011: real time    0.0011
    CHARGE:  cpu time    0.4972: real time    0.4984
    MIXING:  cpu time    0.0013: real time    0.0013
    --------------------------------------------
      LOOP:  cpu time   32.9400: real time   33.0267

 eigenvalue-minimisations  : 13320
 total energy-change (2. order) : 0.4630655E-02  (-0.2719540E-02)
 number of electron     159.0000089 magnetization 
 augmentation part       -4.1225359 magnetization 

 Broyden mixing:
  rms(total) = 0.96502E-01    rms(broyden)= 0.96475E-01
  rms(prec ) = 0.10727E+00
  weight for this iteration     100.00

 eigenvalues of (default mixing * dielectric matrix)
  average eigenvalue GAMMA=   0.8816
  2.2159  1.8450  1.0885  0.6291  0.6291  0.2945  0.2198  0.1304

 Free energy of the ion-electron system (eV)
  ---------------------------------------------------
  alpha Z        PSCENC =        81.65567618
  Ewald energy   TEWEN  =     41891.12778375
  -Hartree energ DENC   =    -47804.47039731
  -exchange      EXHF   =         0.00000000
  -V(xc)+E(xc)   XCENC  =      -231.85767766
  PAW double counting   =      4191.43808181    -3609.58316410
  entropy T*S    EENTRO =        -0.34699599
  eigenvalues    EBANDS =     -1466.24152439
  atomic energy  EATOM  =      6761.44252427
  Solvation  Ediel_sol  =         0.00000000
  ---------------------------------------------------
  free energy    TOTEN  =      -186.83569344 eV

  energy without entropy =     -186.48869745  energy(sigma->0) =     -186.66219545


--------------------------------------------------------------------------------------------------------




----------------------------------------- Iteration    1(  14)  ---------------------------------------


    POTLOK:  cpu time    0.0302: real time    0.0302
    SETDIJ:  cpu time    0.0023: real time    0.0023
     EDDAV:  cpu time   32.0445: real time   32.1218
       DOS:  cpu time    0.0011: real time    0.0011
    CHARGE:  cpu time    0.5018: real time    0.5029
    MIXING:  cpu time    0.0015: real time    0.0015
    --------------------------------------------
      LOOP:  cpu time   32.5822: real time   32.6689

 eigenvalue-minimisations  : 13120
 total energy-change (2. order) : 0.8510072E-02  (-0.1846408E-02)
 number of electron     159.0000089 magnetization 
 augmentation part       -4.1994249 magnetization 

 Broyden mixing:
  rms(total) = 0.20681E-01    rms(broyden)= 0.20571E-01
  rms(prec ) = 0.24283E-01
  weight for this iteration     100.00

 eigenvalues of (default mixing * dielectric matrix)
  average eigenvalue GAMMA=   0.9696
  2.2654  2.2654  1.3388  0.9565  0.6333  0.6333  0.2198  0.2945  0.1189

 Free energy of the ion-electron system (eV)
  ---------------------------------------------------
  alpha Z        PSCENC =        81.65567618
  Ewald energy   TEWEN  =     41891.12778375
  -Hartree energ DENC   =    -47807.61455782
  -exchange      EXHF   =         0.00000000
  -V(xc)+E(xc)   XCENC  =      -231.81753548
  PAW double counting   =      4192.68803770    -3610.79194046
  entropy T*S    EENTRO =        -0.34586808
  eigenvalues    EBANDS =     -1463.17130344
  atomic energy  EATOM  =      6761.44252427
  Solvation  Ediel_sol  =         0.00000000
  ---------------------------------------------------
  free energy    TOTEN  =      -186.82718337 eV

  energy without entropy =     -186.48131529  energy(sigma->0) =     -186.65424933


--------------------------------------------------------------------------------------------------------




----------------------------------------- Iteration    1(  15)  ---------------------------------------


    POTLOK:  cpu time    0.0312: real time    0.0313
    SETDIJ:  cpu time    0.0024: real time    0.0024
     EDDAV:  cpu time   31.3346: real time   31.4101
       DOS:  cpu time    0.0012: real time    0.0012
    CHARGE:  cpu time    0.5002: real time    0.5014
    MIXING:  cpu time    0.0016: real time    0.0016
    --------------------------------------------
      LOOP:  cpu time   31.8722: real time   31.9577

 eigenvalue-minimisations  : 12840
 total energy-change (2. order) : 0.1284669E-03  (-0.4245780E-03)
 number of electron     159.0000089 magnetization 
 augmentation part       -4.1981895 magnetization 

 Broyden mixing:
  rms(total) = 0.31382E-01    rms(broyden)= 0.31370E-01
  rms(prec ) = 0.35601E-01
  weight for this iteration     100.00

 eigenvalues of (default mixing * dielectric matrix)
  average eigenvalue GAMMA=   0.9014
  2.2988  2.2988  1.3667  0.9754  0.6340  0.6340  0.2945  0.2198  0.1730  0.1187

 Free energy of the ion-electron system (eV)
  ---------------------------------------------------
  alpha Z        PSCENC =        81.65567618
  Ewald energy   TEWEN  =     41891.12778375
  -Hartree energ DENC   =    -47813.78591039
  -exchange      EXHF   =         0.00000000
  -V(xc)+E(xc)   XCENC  =      -231.73920351
  PAW double counting   =      4194.46835041    -3612.50825944
  entropy T*S    EENTRO =        -0.34582204
  eigenvalues    EBANDS =     -1457.14219414
  atomic energy  EATOM  =      6761.44252427
  Solvation  Ediel_sol  =         0.00000000
  ---------------------------------------------------
  free energy    TOTEN  =      -186.82705490 eV

  energy without entropy =     -186.48123286  energy(sigma->0) =     -186.65414388


--------------------------------------------------------------------------------------------------------




----------------------------------------- Iteration    1(  16)  ---------------------------------------


    POTLOK:  cpu time    0.0309: real time    0.0313
    SETDIJ:  cpu time    0.0024: real time    0.0024
     EDDAV:  cpu time   30.2531: real time   30.3254
       DOS:  cpu time    0.0011: real time    0.0011
    CHARGE:  cpu time    0.5003: real time    0.5015
    MIXING:  cpu time    0.0016: real time    0.0016
    --------------------------------------------
      LOOP:  cpu time   30.7906: real time   30.8715

 eigenvalue-minimisations  : 12240
 total energy-change (2. order) : 0.8806990E-03  (-0.2956897E-03)
 number of electron     159.0000089 magnetization 
 augmentation part       -4.1970657 magnetization 

 Broyden mixing:
  rms(total) = 0.16085E-01    rms(broyden)= 0.16064E-01
  rms(prec ) = 0.19010E-01
  weight for this iteration     100.00

 eigenvalues of (default mixing * dielectric matrix)
  average eigenvalue GAMMA=   0.8763
  2.3295  2.3295  1.3941  0.9956  0.6348  0.6348  0.5612  0.2945  0.2198  0.1187
  0.1266

 Free energy of the ion-electron system (eV)
  ---------------------------------------------------
  alpha Z        PSCENC =        81.65567618
  Ewald energy   TEWEN  =     41891.12778375
  -Hartree energ DENC   =    -47814.81783770
  -exchange      EXHF   =         0.00000000
  -V(xc)+E(xc)   XCENC  =      -231.72807886
  PAW double counting   =      4194.53638303    -3612.56927048
  entropy T*S    EENTRO =        -0.34583736
  eigenvalues    EBANDS =     -1456.12751704
  atomic energy  EATOM  =      6761.44252427
  Solvation  Ediel_sol  =         0.00000000
  ---------------------------------------------------
  free energy    TOTEN  =      -186.82617421 eV

  energy without entropy =     -186.48033684  energy(sigma->0) =     -186.65325552


--------------------------------------------------------------------------------------------------------




----------------------------------------- Iteration    1(  17)  ---------------------------------------


    POTLOK:  cpu time    0.0303: real time    0.0307
    SETDIJ:  cpu time    0.0024: real time    0.0024
     EDDAV:  cpu time   27.4860: real time   27.5522
       DOS:  cpu time    0.0012: real time    0.0012
    CHARGE:  cpu time    0.4981: real time    0.4993
    MIXING:  cpu time    0.0018: real time    0.0018
    --------------------------------------------
      LOOP:  cpu time   28.0210: real time   28.0966

 eigenvalue-minimisations  : 10960
 total energy-change (2. order) :-0.1207402E-04  (-0.1187311E-03)
 number of electron     159.0000089 magnetization 
 augmentation part       -4.1955028 magnetization 

 Broyden mixing:
  rms(total) = 0.11635E-01    rms(broyden)= 0.11621E-01
  rms(prec ) = 0.14511E-01
  weight for this iteration     100.00

 eigenvalues of (default mixing * dielectric matrix)
  average eigenvalue GAMMA=   0.9122
  2.4599  2.4599  1.5597  1.2329  0.9536  0.6337  0.6337  0.2945  0.2198  0.2583
  0.1182  0.1229

 Free energy of the ion-electron system (eV)
  ---------------------------------------------------
  alpha Z        PSCENC =        81.65567618
  Ewald energy   TEWEN  =     41891.12778375
  -Hartree energ DENC   =    -47816.64618245
  -exchange      EXHF   =         0.00000000
  -V(xc)+E(xc)   XCENC  =      -231.71147116
  PAW double counting   =      4194.34826481    -3612.37331982
  entropy T*S    EENTRO =        -0.34579563
  eigenvalues    EBANDS =     -1454.32366623
  atomic energy  EATOM  =      6761.44252427
  Solvation  Ediel_sol  =         0.00000000
  ---------------------------------------------------
  free energy    TOTEN  =      -186.82618628 eV

  energy without entropy =     -186.48039065  energy(sigma->0) =     -186.65328846


--------------------------------------------------------------------------------------------------------




----------------------------------------- Iteration    1(  18)  ---------------------------------------


    POTLOK:  cpu time    0.0303: real time    0.0304
    SETDIJ:  cpu time    0.0023: real time    0.0023
     EDDAV:  cpu time   25.7049: real time   25.7673
       DOS:  cpu time    0.0011: real time    0.0011
    CHARGE:  cpu time    0.5008: real time    0.5020
    MIXING:  cpu time    0.0018: real time    0.0018
    --------------------------------------------
      LOOP:  cpu time   26.2422: real time   26.3139

 eigenvalue-minimisations  : 10120
 total energy-change (2. order) :-0.1020193E-03  (-0.8119390E-04)
 number of electron     159.0000089 magnetization 
 augmentation part       -4.1955262 magnetization 

 Broyden mixing:
  rms(total) = 0.47976E-02    rms(broyden)= 0.47889E-02
  rms(prec ) = 0.69699E-02
  weight for this iteration     100.00

 eigenvalues of (default mixing * dielectric matrix)
  average eigenvalue GAMMA=   0.9698
  2.6680  2.6680  1.7230  1.4815  0.8922  0.8922  0.6370  0.6370  0.2945  0.2198
  0.2536  0.1182  0.1228

 Free energy of the ion-electron system (eV)
  ---------------------------------------------------
  alpha Z        PSCENC =        81.65567618
  Ewald energy   TEWEN  =     41891.12778375
  -Hartree energ DENC   =    -47821.04829168
  -exchange      EXHF   =         0.00000000
  -V(xc)+E(xc)   XCENC  =      -231.67384932
  PAW double counting   =      4193.71891378    -3611.72835649
  entropy T*S    EENTRO =        -0.34561501
  eigenvalues    EBANDS =     -1449.97507378
  atomic energy  EATOM  =      6761.44252427
  Solvation  Ediel_sol  =         0.00000000
  ---------------------------------------------------
  free energy    TOTEN  =      -186.82628830 eV

  energy without entropy =     -186.48067329  energy(sigma->0) =     -186.65348079


--------------------------------------------------------------------------------------------------------




----------------------------------------- Iteration    1(  19)  ---------------------------------------


    POTLOK:  cpu time    0.0298: real time    0.0311
    SETDIJ:  cpu time    0.0023: real time    0.0023
     EDDAV:  cpu time   23.9267: real time   23.9842
       DOS:  cpu time    0.0010: real time    0.0010
    CHARGE:  cpu time    0.4964: real time    0.4976
    MIXING:  cpu time    0.0018: real time    0.0018
    --------------------------------------------
      LOOP:  cpu time   24.4602: real time   24.5271

 eigenvalue-minimisations  :  9280
 total energy-change (2. order) :-0.8900479E-03  (-0.4510226E-04)
 number of electron     159.0000089 magnetization 
 augmentation part       -4.1924230 magnetization 

 Broyden mixing:
  rms(total) = 0.41450E-02    rms(broyden)= 0.41415E-02
  rms(prec ) = 0.55759E-02
  weight for this iteration     100.00

 eigenvalues of (default mixing * dielectric matrix)
  average eigenvalue GAMMA=   0.9860
  3.2301  2.4924  1.9078  1.5584  0.9540  0.9540  0.6372  0.6372  0.2945  0.2198
  0.4252  0.2531  0.1182  0.1228

 Free energy of the ion-electron system (eV)
  ---------------------------------------------------
  alpha Z        PSCENC =        81.65567618
  Ewald energy   TEWEN  =     41891.12778375
  -Hartree energ DENC   =    -47825.36821370
  -exchange      EXHF   =         0.00000000
  -V(xc)+E(xc)   XCENC  =      -231.64080833
  PAW double counting   =      4193.04486617    -3611.04612187
  entropy T*S    EENTRO =        -0.34552261
  eigenvalues    EBANDS =     -1445.69736220
  atomic energy  EATOM  =      6761.44252427
  Solvation  Ediel_sol  =         0.00000000
  ---------------------------------------------------
  free energy    TOTEN  =      -186.82717835 eV

  energy without entropy =     -186.48165573  energy(sigma->0) =     -186.65441704


--------------------------------------------------------------------------------------------------------




----------------------------------------- Iteration    1(  20)  ---------------------------------------


    POTLOK:  cpu time    0.0310: real time    0.0311
    SETDIJ:  cpu time    0.0025: real time    0.0025
     EDDAV:  cpu time   21.2741: real time   21.3250
       DOS:  cpu time    0.0011: real time    0.0011
    CHARGE:  cpu time    0.4997: real time    0.5009
    MIXING:  cpu time    0.0020: real time    0.0020
    --------------------------------------------
      LOOP:  cpu time   21.8116: real time   21.8714

 eigenvalue-minimisations  :  7920
 total energy-change (2. order) :-0.6790283E-03  (-0.1667019E-04)
 number of electron     159.0000089 magnetization 
 augmentation part       -4.1903836 magnetization 

 Broyden mixing:
  rms(total) = 0.20808E-02    rms(broyden)= 0.20767E-02
  rms(prec ) = 0.31021E-02
  weight for this iteration     100.00

 eigenvalues of (default mixing * dielectric matrix)
  average eigenvalue GAMMA=   1.1095
  4.1412  2.4126  2.4126  1.7325  1.3002  1.0659  0.9235  0.6352  0.6352  0.2198
  0.2945  0.3753  0.2532  0.1182  0.1228

 Free energy of the ion-electron system (eV)
  ---------------------------------------------------
  alpha Z        PSCENC =        81.65567618
  Ewald energy   TEWEN  =     41891.12778375
  -Hartree energ DENC   =    -47827.76605670
  -exchange      EXHF   =         0.00000000
  -V(xc)+E(xc)   XCENC  =      -231.62436035
  PAW double counting   =      4192.65134655    -3610.65059415
  entropy T*S    EENTRO =        -0.34550312
  eigenvalues    EBANDS =     -1443.31867380
  atomic energy  EATOM  =      6761.44252427
  Solvation  Ediel_sol  =         0.00000000
  ---------------------------------------------------
  free energy    TOTEN  =      -186.82785737 eV

  energy without entropy =     -186.48235425  energy(sigma->0) =     -186.65510581


--------------------------------------------------------------------------------------------------------




----------------------------------------- Iteration    1(  21)  ---------------------------------------


    POTLOK:  cpu time    0.0309: real time    0.0309
    SETDIJ:  cpu time    0.0023: real time    0.0023
     EDDAV:  cpu time   20.2462: real time   20.2950
       DOS:  cpu time    0.0011: real time    0.0011
    CHARGE:  cpu time    0.4986: real time    0.4998
    MIXING:  cpu time    0.0019: real time    0.0019
    --------------------------------------------
      LOOP:  cpu time   20.7819: real time   20.8387

 eigenvalue-minimisations  :  7440
 total energy-change (2. order) :-0.1418362E-02  (-0.1454711E-04)
 number of electron     159.0000089 magnetization 
 augmentation part       -4.1896965 magnetization 

 Broyden mixing:
  rms(total) = 0.12482E-02    rms(broyden)= 0.12479E-02
  rms(prec ) = 0.16980E-02
  weight for this iteration     100.00

 eigenvalues of (default mixing * dielectric matrix)
  average eigenvalue GAMMA=   1.2145
  5.3801  2.6310  2.5082  1.7872  1.4562  1.1260  0.9447  0.9447  0.6355  0.6355
  0.2945  0.2198  0.3752  0.2532  0.1182  0.1228

 Free energy of the ion-electron system (eV)
  ---------------------------------------------------
  alpha Z        PSCENC =        81.65567618
  Ewald energy   TEWEN  =     41891.12778375
  -Hartree energ DENC   =    -47831.02960064
  -exchange      EXHF   =         0.00000000
  -V(xc)+E(xc)   XCENC  =      -231.60750913
  PAW double counting   =      4192.11043747    -3610.11363926
  entropy T*S    EENTRO =        -0.34551337
  eigenvalues    EBANDS =     -1440.06943500
  atomic energy  EATOM  =      6761.44252427
  Solvation  Ediel_sol  =         0.00000000
  ---------------------------------------------------
  free energy    TOTEN  =      -186.82927574 eV

  energy without entropy =     -186.48376236  energy(sigma->0) =     -186.65651905


--------------------------------------------------------------------------------------------------------




----------------------------------------- Iteration    1(  22)  ---------------------------------------


    POTLOK:  cpu time    0.0303: real time    0.0303
    SETDIJ:  cpu time    0.0023: real time    0.0024
     EDDAV:  cpu time   19.8101: real time   19.8574
       DOS:  cpu time    0.0004: real time    0.0012
    CHARGE:  cpu time    0.5006: real time    0.5018
    MIXING:  cpu time    0.0020: real time    0.0020
    --------------------------------------------
      LOOP:  cpu time   20.3474: real time   20.4028

 eigenvalue-minimisations  :  7240
 total energy-change (2. order) :-0.8053724E-03  (-0.4624943E-05)
 number of electron     159.0000089 magnetization 
 augmentation part       -4.1911863 magnetization 

 Broyden mixing:
  rms(total) = 0.55521E-03    rms(broyden)= 0.55438E-03
  rms(prec ) = 0.82848E-03
  weight for this iteration     100.00

 eigenvalues of (default mixing * dielectric matrix)
  average eigenvalue GAMMA=   1.3112
  6.5065  2.9324  2.2912  2.0417  1.6005  1.3189  1.0694  0.9372  0.9372  0.6353
  0.6353  0.2945  0.2198  0.3756  0.2532  0.1182  0.1228

 Free energy of the ion-electron system (eV)
  ---------------------------------------------------
  alpha Z        PSCENC =        81.65567618
  Ewald energy   TEWEN  =     41891.12778375
  -Hartree energ DENC   =    -47832.44289239
[...]
    104      -0.6109      0.00000
    105      -0.2765      0.00000
    106      -0.2280      0.00000
    107      -0.0690      0.00000
    108      -0.0459      0.00000
    109       0.0557      0.00000
    110       0.1089      0.00000
    111       0.3691      0.00000
    112       0.7167      0.00000
    113       0.7879      0.00000
    114       0.8670      0.00000
    115       0.9125      0.00000
    116       1.1882      0.00000
    117       1.3960      0.00000
    118       2.1371      0.00000
    119       2.3196      0.00000
    120       2.3779      0.00000

 k-point    34 :       0.5000    0.5000    0.0000
  band No.  band energies     occupation 
      1     -17.5664      2.00000
      2     -17.2604      2.00000
      3     -16.7123      2.00000
      4     -16.7122      2.00000
      5     -16.6732      2.00000
      6     -16.3389      2.00000
      7     -16.3388      2.00000
      8     -16.3235      2.00000
      9     -16.0550      2.00000
     10     -16.0547      2.00000
     11     -15.7941      2.00000
     12     -15.7936      2.00000
     13     -15.7128      2.00000
     14     -15.7124      2.00000
     15     -15.6880      2.00000
     16     -15.5782      2.00000
     17     -15.2753      2.00000
     18     -15.2747      2.00000
     19      -9.8301      2.00000
     20      -9.2958      2.00000
     21      -9.2952      2.00000
     22      -9.0345      2.00000
     23      -8.9900      2.00000
     24      -8.9894      2.00000
     25      -8.5173      2.00000
     26      -8.3826      2.00000
     27      -8.3825      2.00000
     28      -8.2239      2.00000
     29      -8.2210      2.00000
     30      -8.1932      2.00000
     31      -8.1860      2.00000
     32      -8.1854      2.00000
     33      -7.8815      2.00000
     34      -7.8813      2.00000
     35      -7.8811      2.00000
     36      -7.4825      2.00000
     37      -7.4814      2.00000
     38      -7.4699      2.00000
     39      -7.3015      2.00000
     40      -7.3008      2.00000
     41      -7.1549      2.00000
     42      -7.1542      2.00000
     43      -7.0360      2.00000
     44      -7.0360      2.00000
     45      -6.9246      2.00000
     46      -6.6536      2.00000
     47      -6.6395      2.00000
     48      -6.5427      2.00000
     49      -6.5417      2.00000
     50      -6.4368      2.00000
     51      -6.4366      2.00000
     52      -6.3631      2.00000
     53      -6.2410      2.00000
     54      -6.2406      2.00000
     55      -6.1395      2.00000
     56      -6.1393      2.00000
     57      -5.9807      2.00000
     58      -5.8502      2.00000
     59      -5.8496      2.00000
     60      -5.7670      2.00000
     61      -5.7668      2.00000
     62      -5.5946      2.00000
     63      -5.5615      2.00000
     64      -5.5596      2.00000
     65      -5.3179      2.00000
     66      -5.1446      2.00000
     67      -4.9049      2.00000
     68      -4.7957      2.00000
     69      -4.6267      2.00000
     70      -4.6249      2.00000
     71      -4.4547      2.00000
     72      -4.4102      2.00000
     73      -4.4096      2.00000
     74      -4.1986      2.00000
     75      -4.1975      2.00000
     76      -4.1771      2.00000
     77      -4.1191      2.00000
     78      -3.9317      2.00000
     79      -3.4479      1.85551
     80      -3.0476      0.17041
     81      -2.9819      0.06647
     82      -2.6778      0.00007
     83      -2.6776      0.00007
     84      -2.5067      0.00000
     85      -2.5002      0.00000
     86      -2.1889      0.00000
     87      -2.1815      0.00000
     88      -2.0127      0.00000
     89      -2.0111      0.00000
     90      -1.9607      0.00000
     91      -1.9352      0.00000
     92      -1.5591      0.00000
     93      -1.5584      0.00000
     94      -1.5467      0.00000
     95      -1.1023      0.00000
     96      -1.1014      0.00000
     97      -1.0802      0.00000
     98      -1.0614      0.00000
     99      -1.0607      0.00000
    100      -0.8943      0.00000
    101      -0.8800      0.00000
    102      -0.8797      0.00000
    103      -0.6445      0.00000
    104      -0.6436      0.00000
    105      -0.2156      0.00000
    106      -0.2152      0.00000
    107      -0.1757      0.00000
    108      -0.0748      0.00000
    109       0.1100      0.00000
    110       0.2601      0.00000
    111       0.2620      0.00000
    112       0.7992      0.00000
    113       0.8459      0.00000
    114       0.8747      0.00000
    115       0.8748      0.00000
    116       1.2586      0.00000
    117       1.2588      0.00000
    118       2.1958      0.00000
    119       2.2429      0.00000
    120       2.3677      0.00000


--------------------------------------------------------------------------------------------------------


 soft charge-density along one line, spin component           1
         0         1         2         3         4         5         6         7         8         9
 total charge-density along one line
 
 pseudopotential strength for first ion, spin component:           1
 -7.256  -0.002   0.000  -0.000  -0.000   0.685  -0.000  -0.000
 -0.002  -7.177  -0.000  -0.000   0.000  -0.000   0.661   0.000
  0.000  -0.000  -7.123   0.006  -0.014  -0.000   0.000   0.647
 -0.000  -0.000   0.006  -7.155   0.013   0.000   0.000  -0.001
 -0.000   0.000  -0.014   0.013  -7.257   0.000  -0.000   0.004
  0.685  -0.000  -0.000   0.000   0.000   0.330   0.001   0.000
 -0.000   0.661   0.000   0.000  -0.000   0.001   0.337  -0.000
 -0.000   0.000   0.647  -0.001   0.004   0.000  -0.000   0.340
  0.000   0.000  -0.001   0.654  -0.003  -0.000  -0.000   0.000
  0.000  -0.000   0.004  -0.003   0.686  -0.000   0.000  -0.001
  0.000   0.000  -0.020  -0.002  -0.004  -0.000  -0.000   0.005
  0.000   0.000  -0.007  -0.001  -0.001  -0.000  -0.000   0.002
  0.007   0.003  -0.000   0.000  -0.000   0.001  -0.000  -0.000
  0.000   0.000  -0.000   0.011  -0.004  -0.000  -0.000   0.000
  0.000   0.000  -0.001  -0.005   0.006   0.000  -0.000  -0.001
  0.004   0.003   0.000   0.000  -0.000  -0.001  -0.001  -0.000
  0.000   0.000   0.000   0.008  -0.004  -0.000  -0.000  -0.000
  0.000   0.000   0.000  -0.004   0.004  -0.000  -0.000  -0.000
 total augmentation occupancy for first ion, spin component:           1
  0.838   0.163   0.000  -0.000  -0.000   0.444   0.210   0.000  -0.000  -0.000  -0.000  -0.000  -0.014   0.000  -0.000  -0.003
  0.163   1.093  -0.000   0.000   0.000   0.208   0.665   0.000  -0.000  -0.000   0.000  -0.000   0.069   0.000   0.000   0.002
  0.000  -0.000   0.833  -0.032  -0.032   0.000   0.000   0.336  -0.047  -0.004   0.153   0.005   0.000   0.005   0.083   0.000
 -0.000   0.000  -0.032   1.070  -0.153  -0.000  -0.000  -0.046   0.632  -0.219  -0.009  -0.003   0.000   0.089  -0.097   0.000
 -0.000   0.000  -0.032  -0.153   0.795  -0.000  -0.000  -0.005  -0.222   0.427   0.012  -0.002  -0.000  -0.084  -0.013   0.000
  0.444   0.208   0.000  -0.000  -0.000   0.359   0.213   0.000  -0.000  -0.000  -0.000  -0.000   0.030   0.000  -0.000  -0.001
  0.210   0.665   0.000  -0.000  -0.000   0.213   0.586   0.000  -0.000  -0.000   0.000  -0.000   0.072   0.000   0.000   0.006
  0.000   0.000   0.336  -0.046  -0.005   0.000   0.000   0.269  -0.029   0.006   0.043   0.010   0.000  -0.003   0.018   0.000
 -0.000  -0.000  -0.047   0.632  -0.222  -0.000  -0.000  -0.029   0.570  -0.223  -0.037  -0.005   0.000   0.103  -0.084   0.000
 -0.000  -0.000  -0.004  -0.219   0.427  -0.000  -0.000   0.006  -0.223   0.371  -0.022  -0.002  -0.000  -0.082   0.038   0.000
 -0.000   0.000   0.153  -0.009   0.012  -0.000   0.000   0.043  -0.037  -0.022   1.407   0.136   0.000  -0.015   0.051  -0.000
 -0.000  -0.000   0.005  -0.003  -0.002  -0.000  -0.000   0.010  -0.005  -0.002   0.136   0.026   0.000  -0.000   0.011   0.000
 -0.014   0.069   0.000   0.000  -0.000   0.030   0.072   0.000   0.000  -0.000   0.000   0.000   0.355  -0.000  -0.000   0.027
  0.000   0.000   0.005   0.089  -0.084   0.000   0.000  -0.003   0.103  -0.082  -0.015  -0.000  -0.000   0.424  -0.006  -0.000
 -0.000   0.000   0.083  -0.097  -0.013  -0.000   0.000   0.018  -0.084   0.038   0.051   0.011  -0.000  -0.006   0.358  -0.000
 -0.003   0.002   0.000   0.000   0.000  -0.001   0.006   0.000   0.000   0.000  -0.000   0.000   0.027  -0.000  -0.000   0.003
  0.000  -0.000  -0.000  -0.002  -0.003   0.000   0.000   0.000   0.006  -0.006  -0.000  -0.000  -0.000   0.028   0.000  -0.000
 -0.000   0.000   0.003  -0.003  -0.003  -0.000   0.000   0.004  -0.007  -0.000   0.003   0.001  -0.000   0.000   0.026  -0.000


------------------------ aborting loop because EDIFF is reached ----------------------------------------


    CHARGE:  cpu time    0.4541: real time    0.4552
    FORLOC:  cpu time    0.0063: real time    0.0063
    FORNL :  cpu time    5.3016: real time    5.3144
    STRESS:  cpu time   32.1652: real time   32.2420
    FORCOR:  cpu time    0.0335: real time    0.0335
    FORHAR:  cpu time    0.0123: real time    0.0123
    MIXING:  cpu time    0.0011: real time    0.0011
    OFIELD:  cpu time    0.0000: real time    0.0000

  FORCE on cell =-STRESS in cart. coord.  units (eV):
  Direction    XX          YY          ZZ          XY          YZ          ZX
  --------------------------------------------------------------------------------------
  Alpha Z    89.52074    89.52074    89.52074
  Ewald   49278.49107 49380.32689-54267.84961    -0.00202     0.00228   -22.34168
  Hartree 50012.30320 50075.58272-49689.26475    -0.00048     0.00043   -13.32058
  E(xc)    -611.26105  -609.16562  -617.75725    -0.00008    -0.00010     1.09080
  Local  ************************101395.19672     0.00187    -0.00280    45.87209
  n-local  1217.20385  1212.81050  1248.44752    -0.00018     0.00018     3.22886
  augment  -212.84036  -213.45115  -214.80276     0.00026     0.00007    -0.60096
  Kinetic  2018.74077  2005.06708  2054.51100     0.00079     0.00027   -13.65193
  Fock        0.00000     0.00000     0.00000     0.00000     0.00000     0.00000
  -------------------------------------------------------------------------------------
  Total      -0.01708    -0.03552    -1.99839     0.00017     0.00034     0.27660
  in kB      -0.01144    -0.02379    -1.33883     0.00011     0.00022     0.18531
  external pressure =       -0.46 kB  Pullay stress =        0.00 kB


 VOLUME and BASIS-vectors are now :
 -----------------------------------------------------------------------------
  energy-cutoff  :      280.00
  volume of cell :     2391.46
      direct lattice vectors                 reciprocal lattice vectors
     8.335716333  4.781567519  0.000000000     0.059982788  0.104568322  0.000000000
    -8.335707700  4.781553183  0.000000000    -0.059982968  0.104568430  0.000000000
     0.000000000  0.000000000 30.000000000     0.000000000  0.000000000  0.033333333

  length of vectors
     9.609763510  9.609748888 30.000000000     0.120550690  0.120550873  0.033333333


 FORCES acting on ions
    electron-ion (+dipol)            ewald-force                    non-local-force                 convergence-correction
 -----------------------------------------------------------------------------------------------
   0.238E+02 0.197E-01 -.105E+02   -.253E+02 -.206E-01 0.103E+02   0.154E+01 0.444E-03 0.188E+00   -.494E-02 0.422E-03 0.127E-01
   0.238E+02 -.124E-01 -.105E+02   -.253E+02 0.127E-02 0.103E+02   0.153E+01 -.328E-02 0.192E+00   -.883E-02 0.123E-01 0.139E-01
   0.237E+02 0.221E-02 -.105E+02   -.252E+02 0.991E-02 0.103E+02   0.153E+01 0.247E-02 0.193E+00   -.956E-02 -.128E-01 0.138E-01
   0.142E+02 -.764E-01 -.816E+01   -.139E+02 0.726E-01 0.824E+01   -.266E+00 0.196E-02 -.897E-01   0.104E-01 -.349E-03 0.257E-03
   0.142E+02 0.272E+00 -.816E+01   -.140E+02 -.263E+00 0.824E+01   -.266E+00 -.706E-02 -.896E-01   0.984E-02 0.232E-02 0.414E-03
   0.142E+02 -.196E+00 -.817E+01   -.139E+02 0.192E+00 0.825E+01   -.262E+00 0.520E-02 -.919E-01   -.120E-01 -.205E-02 0.386E-02
   -.355E+02 0.120E-01 0.201E+02   0.363E+02 0.513E-02 -.198E+02   -.816E+00 -.195E-02 -.338E+00   0.931E-02 -.162E-01 -.182E-02
   -.354E+02 -.127E-01 0.202E+02   0.362E+02 -.185E-02 -.199E+02   -.820E+00 0.695E-03 -.338E+00   0.114E-01 0.146E-01 -.210E-02
   -.355E+02 -.140E-03 0.200E+02   0.363E+02 -.234E-02 -.197E+02   -.812E+00 0.127E-02 -.337E+00   0.836E-02 0.157E-02 -.178E-02
   0.187E+02 -.102E-01 0.589E+03   -.207E+02 -.130E-02 -.592E+03   0.202E+01 0.176E-02 0.306E+01   -.241E-01 0.104E-01 -.197E-02
   -.739E+01 -.572E-02 -.623E+03   0.842E+01 -.999E-02 0.626E+03   -.103E+01 -.120E-04 -.360E+01   0.939E-02 0.163E-01 0.165E-01
   0.278E+01 0.512E-01 0.490E+03   -.189E+01 -.175E-01 -.495E+03   -.867E+00 -.154E-02 0.477E+01   -.948E-02 -.312E-01 -.470E-02
   0.241E+02 0.148E+00 -.586E+03   -.252E+02 -.123E+00 0.589E+03   0.114E+01 0.360E-02 -.317E+01   -.293E-02 -.281E-01 0.645E-02
   -.221E+02 -.566E-01 0.628E+03   0.226E+02 0.564E-01 -.632E+03   -.535E+00 0.558E-03 0.398E+01   0.204E-01 -.542E-03 -.100E-01
   -.193E+02 -.200E-01 -.498E+03   0.197E+02 0.182E-01 0.504E+03   -.374E+00 0.203E-02 -.511E+01   -.143E-01 -.177E-03 0.125E-01
   -.221E+02 0.860E-01 0.628E+03   0.226E+02 -.902E-01 -.632E+03   -.532E+00 -.123E-02 0.398E+01   0.102E-01 0.498E-02 0.528E-02
   -.194E+02 0.258E-01 -.498E+03   0.197E+02 -.315E-01 0.504E+03   -.379E+00 -.279E-02 -.511E+01   0.108E-01 0.809E-02 -.606E-02
   0.188E+02 0.114E-01 0.589E+03   -.209E+02 -.185E-01 -.592E+03   0.199E+01 0.447E-02 0.308E+01   0.195E-01 0.284E-02 -.117E-01
   -.752E+01 0.194E-01 -.623E+03   0.855E+01 -.266E-01 0.627E+03   -.102E+01 0.441E-02 -.360E+01   0.852E-02 0.298E-02 0.281E-03
   0.283E+01 -.351E-01 0.490E+03   -.194E+01 0.297E-02 -.495E+03   -.867E+00 0.366E-03 0.477E+01   -.895E-02 0.306E-01 -.490E-02
   0.241E+02 -.690E-01 -.586E+03   -.252E+02 0.442E-01 0.589E+03   0.114E+01 -.389E-02 -.317E+01   0.421E-03 0.283E-01 0.455E-02
   0.277E+01 -.230E-01 0.490E+03   -.189E+01 0.211E-01 -.495E+03   -.871E+00 0.156E-02 0.476E+01   0.515E-02 0.605E-03 0.158E-01
   0.241E+02 -.847E-01 -.586E+03   -.252E+02 0.843E-01 0.589E+03   0.114E+01 0.840E-03 -.316E+01   -.339E-01 -.230E-03 -.363E-02
   -.222E+02 -.291E-01 0.627E+03   0.227E+02 0.334E-01 -.631E+03   -.533E+00 0.722E-03 0.398E+01   0.743E-02 -.444E-02 0.752E-02
   -.194E+02 -.422E-02 -.498E+03   0.198E+02 0.117E-01 0.504E+03   -.381E+00 0.730E-03 -.512E+01   0.106E-01 -.791E-02 -.640E-02
   0.188E+02 0.175E-02 0.589E+03   -.208E+02 0.173E-01 -.592E+03   0.201E+01 -.676E-02 0.306E+01   -.220E-01 -.133E-01 0.294E-03
   -.749E+01 -.141E-01 -.623E+03   0.852E+01 0.370E-01 0.627E+03   -.102E+01 -.452E-02 -.360E+01   0.781E-02 -.193E-01 0.140E-01
 -----------------------------------------------------------------------------------------------
   -.236E+01 -.372E-03 0.867E+00   -.249E-13 0.173E-13 0.114E-12   0.235E+01 0.598E-04 -.927E+00   0.854E-02 -.217E-03 0.730E-01
 
 
 POSITION                                       TOTAL-FORCE (eV/Angst)
 -----------------------------------------------------------------------------------
     -2.48432      4.78112      0.04219         0.009114     -0.000038      0.028997
      5.85168      3.18697      0.04189         0.002230     -0.002070      0.035120
      5.85177      6.37481      0.04169         0.001760      0.001842      0.036078
      0.08042      6.37403      0.02403        -0.012016     -0.002218     -0.007547
      0.08039      3.18944      0.02400        -0.011828      0.003599     -0.007664
      0.08025     -0.00224      0.02405        -0.007094     -0.001268     -0.009707
     -5.87259      3.18715     -0.06308         0.002558     -0.001031     -0.030177
      2.46275      1.59320     -0.06334         0.002137      0.000763     -0.030502
      2.46324      4.78084     -0.06294         0.004412      0.000384     -0.029146
     -0.92941      1.59333     28.42743        -0.021753      0.000628      0.007368
      0.89197      1.59331      1.67981         0.016087      0.000594     -0.010976
     -3.69317      3.18714     28.70841         0.014297      0.000922      0.015457
     -1.85926      3.18741      1.59056         0.014628      0.000259      0.027358
     -6.52324      4.78075     28.27833        -0.014218     -0.000121     -0.023713
     -4.61826      4.78106      1.31220        -0.002911      0.000094     -0.013433
      1.81260      3.18736     28.27841        -0.013682     -0.000422     -0.024222
      3.71759      3.18688      1.31234        -0.004241     -0.000332     -0.013143
     -0.92974      4.78114     28.42611        -0.027203      0.000204      0.015566
      0.89292      4.78114      1.68145         0.014701      0.000271     -0.012673
     -3.69331      6.37477     28.70832         0.014211     -0.001189      0.015299
     -1.85925      6.37464      1.59070         0.014852     -0.000456      0.027229
      4.64263      4.78081     28.70844         0.013327      0.000288      0.014019
      6.47647      4.78072      1.59039         0.014285      0.000185      0.030579
      1.81298      6.37465     28.27857        -0.013667      0.000606     -0.024289
      3.71774      6.37482      1.31249        -0.003868      0.000338     -0.012953
     -0.92963      7.96835     28.42668        -0.022401     -0.000937      0.007626
      0.89258      7.96832      1.68085         0.016285     -0.000893     -0.010550
 -----------------------------------------------------------------------------------
    total drift:                                0.000871     -0.000530      0.012928


--------------------------------------------------------------------------------------------------------



  FREE ENERGIE OF THE ION-ELECTRON SYSTEM (eV)
  ---------------------------------------------------
  free  energy   TOTEN  =      -192.43793216 eV

  energy  without entropy=     -192.29590378  energy(sigma->0) =     -192.36691797
 
 d Force = 0.2810812E-03[ 0.189E-03, 0.373E-03]  d Energy = 0.1713187E-03 0.110E-03
 d Force =-0.1999547E+01[-0.200E+01,-0.200E+01]  d Ewald  =-0.1569013E+02 0.137E+02


--------------------------------------------------------------------------------------------------------


    POTLOK:  cpu time    0.0337: real time    0.0338


--------------------------------------------------------------------------------------------------------


 Quasi-Newton relaxation of ions (Broydens 2nd method)
  g(Force)  = 0.828E-03   g(Stress)= 0.277E-05

 retain information from N=  2 steps
 eigenvalues of (default step * inverse Hessian matrix)
  average eigenvalue of G=   3.7277
 eigenvalue spectrum of G is  0.2718  7.1835


--------------------------------------------------------------------------------------------------------


  
 reached required accuracy - stopping structural energy minimisation
     LOOP+:  cpu time  133.4389: real time  133.7777
    4ORBIT:  cpu time    0.0000: real time    0.0000

 total amount of memory used by VASP on root node   650782. kBytes
========================================================================

   base      :      30000. kBytes
   nonl-proj :     559647. kBytes
   fftplans  :       2414. kBytes
   grid      :      12150. kBytes
   one-center:        419. kBytes
   wavefun   :      46152. kBytes
 
  
  
 General timing and accounting informations for this job:
 ========================================================
  
                  Total CPU time used (sec):     5404.417
                            User time (sec):     5384.552
                          System time (sec):       19.864
                         Elapsed time (sec):     5418.832
  
                   Maximum memory used (kb):      747368.
                   Average memory used (kb):           0.
  
                          Minor page faults:       363654
                          Major page faults:            3
                 Voluntary context switches:         4326
