   27   27  100    1
  0.9710400E+02  0.1002848E-08  0.1002848E-08  0.3000000E-08  0.5000000E-15
  1.000000000000000E-004
  CAR 
 unknown system                          
    159     34    120
 
  0.0000000E+00  0.0000000E+00  0.0000000E+00  0.1562500E-01
    1      -17.797560   1.000000
    2      -16.703783   1.000000
    3      -16.628045   1.000000
    4      -16.575719   1.000000
    5      -16.530361   1.000000
    6      -16.495484   1.000000
    7      -16.419443   1.000000
    8      -16.274704   1.000000
    9      -16.159419   1.000000
   10      -16.086678   1.000000
   11      -16.031905   1.000000
   12      -15.988691   1.000000
   13      -15.863161   1.000000
   14      -15.704359   1.000000
   15      -15.616836   1.000000
   16      -15.491490   1.000000
   17      -15.439058   1.000000
   18      -15.262351   1.000000
   19       -9.262969   1.000000
   20       -8.981805   1.000000
   21       -8.942396   1.000000
   22       -8.847718   1.000000
   23       -8.772408   1.000000
   24       -8.694571   1.000000
   25       -8.591616   1.000000
   26       -8.564601   1.000000
   27       -8.512024   1.000000
   28       -8.503194   1.000000
   29       -8.410833   1.000000
   30       -8.325825   1.000000
   31       -8.293926   1.000000
   32       -8.139296   1.000000
   33       -8.031581   1.000000
   34       -7.899266   1.000000
   35       -7.869294   1.000000
   36       -7.790641   1.000000
   37       -7.758396   1.000000
   38       -7.519538   1.000000
   39       -7.489517   1.000000
   40       -7.397892   1.000000
   41       -7.389754   1.000000
   42       -7.353746   1.000000
   43       -7.053020   1.000000
   44       -6.915431   1.000000
   45       -6.809405   1.000000
   46       -6.798983   1.000000
   47       -6.727027   1.000000
   48       -6.594045   1.000000
   49       -6.535392   1.000000
   50       -6.474181   1.000000
   51       -6.413706   1.000000
   52       -6.394841   1.000000
   53       -6.333781   1.000000
   54       -6.291071   1.000000
   55       -6.253769   1.000000
   56       -6.158338   1.000000
   57       -5.976874   1.000000
   58       -5.868938   1.000000
   59       -5.725185   1.000000
   60       -5.631355   1.000000
   61       -5.520554   1.000000
   62       -5.438704   1.000000
   63       -5.233255   1.000000
   64       -5.163809   1.000000
   65       -5.080996   1.000000
   66       -4.984106   1.000000
   67       -4.958186   1.000000
   68       -4.821129   1.000000
   69       -4.798730   1.000000
   70       -4.728805   1.000000
   71       -4.668329   1.000000
   72       -4.607586   1.000000
   73       -4.560257   1.000000
   74       -4.232404   1.000000
   75       -3.946699   0.999990
   76       -3.931861   0.999984
   77       -3.805306   0.999447
   78       -3.702763   0.994413
   79       -3.560550   0.937192
   80       -3.420676   0.706284
   81       -3.296311   0.368121
   82       -2.801705   0.000063
   83       -2.657937   0.000001
   84       -2.553372   0.000000
   85       -2.442082   0.000000
   86       -2.386251   0.000000
   87       -2.257294   0.000000
   88       -2.203712   0.000000
   89       -2.122008   0.000000
   90       -2.069564   0.000000
   91       -1.831425   0.000000
   92       -1.659595   0.000000
   93       -1.482003   0.000000
   94       -1.396799   0.000000
   95       -1.202374   0.000000
   96       -1.025667   0.000000
   97       -0.932486   0.000000
   98       -0.846934   0.000000
   99       -0.769528   0.000000
  100       -0.625551   0.000000
  101       -0.542632   0.000000
  102       -0.501957   0.000000
  103       -0.485925   0.000000
  104       -0.414834   0.000000
  105       -0.324361   0.000000
  106       -0.134967   0.000000
  107       -0.079546   0.000000
  108        0.038318   0.000000
  109        0.123848   0.000000
  110        0.191158   0.000000
  111        0.339989   0.000000
  112        0.446712   0.000000
  113        0.666846   0.000000
  114        0.923658   0.000000
  115        0.988748   0.000000
  116        1.049734   0.000000
  117        1.169568   0.000000
  118        1.644816   0.000000
  119        1.832947   0.000000
  120        2.142516   0.000000
 
  0.1250000E+00  0.2775558E-16  0.0000000E+00  0.3125000E-01
    1      -17.772491   1.000000
    2      -16.776345   1.000000
    3      -16.689360   1.000000
    4      -16.613597   1.000000
    5      -16.548032   1.000000
    6      -16.424107   1.000000
    7      -16.385919   1.000000
    8      -16.273639   1.000000
    9      -16.156014   1.000000
   10      -16.080599   1.000000
   11      -16.013207   1.000000
   12      -15.932891   1.000000
   13      -15.852147   1.000000
   14      -15.700368   1.000000
   15      -15.632472   1.000000
   16      -15.492766   1.000000
   17      -15.438969   1.000000
   18      -15.274460   1.000000
   19       -9.257097   1.000000
   20       -9.172133   1.000000
   21       -9.028145   1.000000
   22       -8.925101   1.000000
   23       -8.784168   1.000000
   24       -8.681914   1.000000
   25       -8.640093   1.000000
   26       -8.580016   1.000000
   27       -8.512765   1.000000
   28       -8.432175   1.000000
   29       -8.367223   1.000000
   30       -8.294349   1.000000
   31       -8.169934   1.000000
   32       -8.029728   1.000000
   33       -7.992358   1.000000
   34       -7.909470   1.000000
   35       -7.823862   1.000000
   36       -7.724678   1.000000
   37       -7.692331   1.000000
   38       -7.548083   1.000000
   39       -7.507455   1.000000
   40       -7.437819   1.000000
   41       -7.346985   1.000000
   42       -7.284553   1.000000
   43       -7.058090   1.000000
   44       -6.935448   1.000000
   45       -6.897013   1.000000
   46       -6.845221   1.000000
   47       -6.719045   1.000000
   48       -6.652762   1.000000
   49       -6.522164   1.000000
   50       -6.466969   1.000000
   51       -6.421390   1.000000
   52       -6.365218   1.000000
   53       -6.292985   1.000000
   54       -6.277012   1.000000
   55       -6.206654   1.000000
   56       -6.143479   1.000000
   57       -6.014652   1.000000
   58       -5.859118   1.000000
   59       -5.717364   1.000000
   60       -5.598824   1.000000
   61       -5.556319   1.000000
   62       -5.489468   1.000000
   63       -5.350110   1.000000
   64       -5.174397   1.000000
   65       -5.105621   1.000000
   66       -5.005974   1.000000
   67       -4.926577   1.000000
   68       -4.881394   1.000000
   69       -4.803295   1.000000
   70       -4.677688   1.000000
   71       -4.656637   1.000000
   72       -4.578000   1.000000
   73       -4.497066   1.000000
   74       -4.219308   1.000000
   75       -3.976992   0.999996
   76       -3.923106   0.999979
   77       -3.802186   0.999403
   78       -3.717269   0.995852
   79       -3.628064   0.977732
   80       -3.489213   0.847834
   81       -3.164486   0.102226
   82       -2.802099   0.000064
   83       -2.656007   0.000001
   84       -2.530857   0.000000
   85       -2.451090   0.000000
   86       -2.365404   0.000000
   87       -2.275474   0.000000
   88       -2.178278   0.000000
   89       -2.114763   0.000000
   90       -2.036146   0.000000
   91       -1.830298   0.000000
   92       -1.675032   0.000000
   93       -1.484730   0.000000
   94       -1.381109   0.000000
   95       -1.200163   0.000000
   96       -1.033179   0.000000
   97       -0.940284   0.000000
   98       -0.839884   0.000000
   99       -0.782734   0.000000
  100       -0.736520   0.000000
  101       -0.595159   0.000000
  102       -0.569285   0.000000
  103       -0.499647   0.000000
  104       -0.391134   0.000000
  105       -0.329942   0.000000
  106       -0.218276   0.000000
  107       -0.163961   0.000000
  108        0.039029   0.000000
  109        0.145766   0.000000
  110        0.264749   0.000000
  111        0.365720   0.000000
  112        0.451523   0.000000
  113        0.660464   0.000000
  114        0.953311   0.000000
  115        0.985558   0.000000
  116        1.064021   0.000000
  117        1.167596   0.000000
  118        1.688796   0.000000
  119        1.871319   0.000000
  120        2.177649   0.000000
 
  0.2500000E+00  0.5551115E-16  0.0000000E+00  0.3125000E-01
    1      -17.698561   1.000000
    2      -16.983593   1.000000
    3      -16.712581   1.000000
    4      -16.651035   1.000000
    5      -16.585999   1.000000
    6      -16.390046   1.000000
    7      -16.340766   1.000000
    8      -16.234737   1.000000
    9      -16.144575   1.000000
   10      -16.061426   1.000000
   11      -15.962695   1.000000
   12      -15.841878   1.000000
   13      -15.829250   1.000000
   14      -15.691602   1.000000
   15      -15.653052   1.000000
   16      -15.516380   1.000000
   17      -15.430245   1.000000
   18      -15.300503   1.000000
   19       -9.498887   1.000000
   20       -9.229180   1.000000
   21       -9.123869   1.000000
   22       -9.036647   1.000000
   23       -8.856719   1.000000
   24       -8.765824   1.000000
   25       -8.663297   1.000000
   26       -8.525733   1.000000
   27       -8.486715   1.000000
   28       -8.401385   1.000000
   29       -8.254662   1.000000
   30       -8.151629   1.000000
   31       -8.066446   1.000000
   32       -8.012022   1.000000
   33       -7.938442   1.000000
   34       -7.885331   1.000000
   35       -7.770440   1.000000
   36       -7.667581   1.000000
   37       -7.576864   1.000000
   38       -7.546293   1.000000
   39       -7.412942   1.000000
   40       -7.362288   1.000000
   41       -7.304908   1.000000
   42       -7.153640   1.000000
   43       -7.115488   1.000000
   44       -6.978513   1.000000
   45       -6.926840   1.000000
   46       -6.839434   1.000000
   47       -6.776190   1.000000
   48       -6.674881   1.000000
   49       -6.566550   1.000000
   50       -6.507266   1.000000
   51       -6.375834   1.000000
   52       -6.316257   1.000000
   53       -6.263884   1.000000
   54       -6.239739   1.000000
   55       -6.175099   1.000000
   56       -6.098592   1.000000
   57       -6.005467   1.000000
   58       -5.876814   1.000000
   59       -5.764311   1.000000
   60       -5.693270   1.000000
   61       -5.620562   1.000000
   62       -5.536456   1.000000
   63       -5.500330   1.000000
   64       -5.327544   1.000000
   65       -5.127614   1.000000
   66       -5.014882   1.000000
   67       -4.947886   1.000000
   68       -4.876959   1.000000
   69       -4.744687   1.000000
   70       -4.664144   1.000000
   71       -4.576118   1.000000
   72       -4.502968   1.000000
   73       -4.365649   1.000000
   74       -4.313609   1.000000
   75       -4.113816   1.000000
   76       -4.017421   0.999999
   77       -3.813426   0.999549
   78       -3.721090   0.996171
   79       -3.542868   0.920225
   80       -3.460940   0.795959
   81       -3.050617   0.019033
   82       -2.825833   0.000124
   83       -2.655378   0.000001
   84       -2.516834   0.000000
   85       -2.433434   0.000000
   86       -2.341722   0.000000
   87       -2.265520   0.000000
   88       -2.180739   0.000000
   89       -2.041639   0.000000
   90       -1.971842   0.000000
   91       -1.826531   0.000000
   92       -1.698313   0.000000
   93       -1.503536   0.000000
   94       -1.343222   0.000000
   95       -1.194521   0.000000
   96       -1.066510   0.000000
   97       -0.979265   0.000000
   98       -0.917841   0.000000
   99       -0.845730   0.000000
  100       -0.805464   0.000000
  101       -0.710225   0.000000
  102       -0.629599   0.000000
  103       -0.579834   0.000000
  104       -0.455236   0.000000
  105       -0.385844   0.000000
  106       -0.288266   0.000000
  107       -0.191134   0.000000
  108       -0.020266   0.000000
  109        0.086325   0.000000
  110        0.206771   0.000000
  111        0.450660   0.000000
  112        0.528131   0.000000
  113        0.697551   0.000000
  114        0.969709   0.000000
  115        1.022499   0.000000
  116        1.089137   0.000000
  117        1.219896   0.000000
  118        1.810958   0.000000
  119        1.981632   0.000000
  120        2.281891   0.000000
 
  0.3750000E+00  0.0000000E+00  0.0000000E+00  0.3125000E-01
    1      -17.581199   1.000000
    2      -17.195900   1.000000
    3      -16.745375   1.000000
    4      -16.654433   1.000000
    5      -16.619222   1.000000
    6      -16.395508   1.000000
    7      -16.311495   1.000000
    8      -16.208160   1.000000
    9      -16.112868   1.000000
   10      -16.032637   1.000000
   11      -15.890369   1.000000
   12      -15.828981   1.000000
   13      -15.789112   1.000000
   14      -15.699350   1.000000
   15      -15.640890   1.000000
   16      -15.552126   1.000000
   17      -15.431436   1.000000
   18      -15.310661   1.000000
   19       -9.710970   1.000000
   20       -9.338426   1.000000
   21       -9.137090   1.000000
   22       -9.065120   1.000000
   23       -8.893512   1.000000
   24       -8.820857   1.000000
   25       -8.646053   1.000000
   26       -8.505404   1.000000
   27       -8.443564   1.000000
   28       -8.288911   1.000000
   29       -8.239568   1.000000
   30       -8.194052   1.000000
   31       -8.057517   1.000000
   32       -7.961587   1.000000
   33       -7.919009   1.000000
   34       -7.868702   1.000000
   35       -7.779132   1.000000
   36       -7.722531   1.000000
   37       -7.520301   1.000000
   38       -7.425972   1.000000
   39       -7.340525   1.000000
   40       -7.299613   1.000000
   41       -7.210923   1.000000
   42       -7.109786   1.000000
   43       -7.031493   1.000000
   44       -6.928081   1.000000
   45       -6.874780   1.000000
   46       -6.837537   1.000000
   47       -6.728156   1.000000
   48       -6.637112   1.000000
   49       -6.562816   1.000000
   50       -6.450371   1.000000
   51       -6.400436   1.000000
   52       -6.352650   1.000000
   53       -6.309278   1.000000
   54       -6.181179   1.000000
   55       -6.155164   1.000000
   56       -6.084896   1.000000
   57       -6.001517   1.000000
   58       -5.898479   1.000000
   59       -5.874444   1.000000
   60       -5.810857   1.000000
   61       -5.724274   1.000000
   62       -5.683859   1.000000
   63       -5.562507   1.000000
   64       -5.324897   1.000000
   65       -5.116414   1.000000
   66       -5.061763   1.000000
   67       -4.951152   1.000000
   68       -4.883002   1.000000
   69       -4.788767   1.000000
   70       -4.668921   1.000000
   71       -4.559903   1.000000
   72       -4.469069   1.000000
   73       -4.381359   1.000000
   74       -4.283963   1.000000
   75       -4.252329   1.000000
   76       -3.989624   0.999998
   77       -3.777009   0.998901
   78       -3.717937   0.995910
   79       -3.525549   0.900452
   80       -3.315476   0.420226
   81       -2.978558   0.004888
   82       -2.861376   0.000322
   83       -2.676807   0.000001
   84       -2.553658   0.000000
   85       -2.382388   0.000000
   86       -2.334810   0.000000
   87       -2.225972   0.000000
   88       -2.187684   0.000000
   89       -1.969036   0.000000
   90       -1.914098   0.000000
   91       -1.806797   0.000000
   92       -1.704909   0.000000
   93       -1.534895   0.000000
   94       -1.308388   0.000000
   95       -1.191918   0.000000
   96       -1.140939   0.000000
   97       -1.063852   0.000000
   98       -0.973693   0.000000
   99       -0.945878   0.000000
  100       -0.836253   0.000000
  101       -0.757518   0.000000
  102       -0.698420   0.000000
  103       -0.605563   0.000000
  104       -0.486112   0.000000
  105       -0.447612   0.000000
  106       -0.368523   0.000000
  107       -0.224990   0.000000
  108       -0.093856   0.000000
  109       -0.020464   0.000000
  110        0.208481   0.000000
  111        0.455100   0.000000
  112        0.537619   0.000000
  113        0.797698   0.000000
  114        0.950631   0.000000
  115        1.062650   0.000000
  116        1.169255   0.000000
  117        1.287454   0.000000
  118        1.993298   0.000000
  119        2.154870   0.000000
  120        2.451988   0.000000
 
  0.5000000E+00  0.1110223E-15  0.0000000E+00  0.1562500E-01
    1      -17.470315   1.000000
    2      -17.340269   1.000000
    3      -16.758547   1.000000
    4      -16.655623   1.000000
    5      -16.628743   1.000000
    6      -16.399388   1.000000
    7      -16.307316   1.000000
    8      -16.197554   1.000000
    9      -16.097836   1.000000
   10      -16.013234   1.000000
   11      -15.877719   1.000000
   12      -15.804649   1.000000
   13      -15.765773   1.000000
   14      -15.710694   1.000000
   15      -15.660506   1.000000
   16      -15.550022   1.000000
   17      -15.443630   1.000000
   18      -15.305607   1.000000
   19       -9.787531   1.000000
   20       -9.380119   1.000000
   21       -9.171318   1.000000
   22       -9.063041   1.000000
   23       -8.866749   1.000000
   24       -8.818869   1.000000
   25       -8.634053   1.000000
   26       -8.573964   1.000000
   27       -8.389868   1.000000
   28       -8.281119   1.000000
   29       -8.200769   1.000000
   30       -8.156935   1.000000
   31       -8.070561   1.000000
   32       -8.000090   1.000000
   33       -7.912835   1.000000
   34       -7.892022   1.000000
   35       -7.804144   1.000000
   36       -7.705347   1.000000
   37       -7.551337   1.000000
   38       -7.426442   1.000000
   39       -7.311542   1.000000
   40       -7.277819   1.000000
   41       -7.071814   1.000000
   42       -7.056980   1.000000
   43       -7.016877   1.000000
   44       -6.870801   1.000000
   45       -6.817587   1.000000
   46       -6.769679   1.000000
   47       -6.701349   1.000000
   48       -6.636205   1.000000
   49       -6.609136   1.000000
   50       -6.517639   1.000000
   51       -6.438897   1.000000
   52       -6.364753   1.000000
   53       -6.284660   1.000000
   54       -6.210226   1.000000
   55       -6.045221   1.000000
   56       -6.029279   1.000000
   57       -6.022052   1.000000
   58       -6.002352   1.000000
   59       -5.922727   1.000000
   60       -5.840221   1.000000
   61       -5.770896   1.000000
   62       -5.704232   1.000000
   63       -5.492770   1.000000
   64       -5.292376   1.000000
   65       -5.261368   1.000000
   66       -5.101087   1.000000
   67       -5.020071   1.000000
   68       -4.935035   1.000000
   69       -4.799324   1.000000
   70       -4.591110   1.000000
   71       -4.544443   1.000000
   72       -4.456499   1.000000
   73       -4.376336   1.000000
   74       -4.311168   1.000000
   75       -4.275941   1.000000
   76       -3.920585   0.999977
   77       -3.796795   0.999318
   78       -3.694390   0.993394
   79       -3.540155   0.917342
   80       -3.238232   0.227377
   81       -2.918390   0.001310
   82       -2.912687   0.001146
   83       -2.689514   0.000002
   84       -2.576733   0.000000
   85       -2.368655   0.000000
   86       -2.328312   0.000000
   87       -2.215248   0.000000
   88       -2.176559   0.000000
   89       -1.946960   0.000000
   90       -1.895968   0.000000
   91       -1.777151   0.000000
   92       -1.712109   0.000000
   93       -1.550613   0.000000
   94       -1.296560   0.000000
   95       -1.200673   0.000000
   96       -1.181169   0.000000
   97       -1.075943   0.000000
   98       -1.023239   0.000000
   99       -0.964224   0.000000
  100       -0.854449   0.000000
  101       -0.793228   0.000000
  102       -0.709172   0.000000
  103       -0.598663   0.000000
  104       -0.512906   0.000000
  105       -0.451621   0.000000
  106       -0.413513   0.000000
  107       -0.249229   0.000000
  108       -0.124631   0.000000
  109       -0.054567   0.000000
  110        0.207881   0.000000
  111        0.456653   0.000000
  112        0.528481   0.000000
  113        0.843614   0.000000
  114        0.934076   0.000000
  115        1.084440   0.000000
  116        1.205599   0.000000
  117        1.315951   0.000000
  118        2.197201   0.000000
  119        2.260098   0.000000
  120        2.367823   0.000000
 
  0.0000000E+00  0.1250000E+00  0.0000000E+00  0.3125000E-01
    1      -17.773571   1.000000
    2      -16.748884   1.000000
    3      -16.690328   1.000000
    4      -16.644199   1.000000
    5      -16.549126   1.000000
    6      -16.441924   1.000000
    7      -16.377344   1.000000
    8      -16.258671   1.000000
    9      -16.154437   1.000000
   10      -16.049727   1.000000
   11      -16.012754   1.000000
   12      -15.968961   1.000000
   13      -15.849495   1.000000
   14      -15.702068   1.000000
   15      -15.626583   1.000000
   16      -15.501133   1.000000
   17      -15.437086   1.000000
   18      -15.271797   1.000000
   19       -9.274036   1.000000
   20       -9.087053   1.000000
   21       -9.022583   1.000000
   22       -8.941607   1.000000
   23       -8.823529   1.000000
   24       -8.692706   1.000000
   25       -8.650927   1.000000
   26       -8.579151   1.000000
   27       -8.518444   1.000000
   28       -8.497667   1.000000
   29       -8.384355   1.000000
   30       -8.210262   1.000000
   31       -8.152288   1.000000
   32       -8.060836   1.000000
   33       -7.983272   1.000000
   34       -7.880665   1.000000
   35       -7.793726   1.000000
   36       -7.753469   1.000000
   37       -7.669689   1.000000
   38       -7.573531   1.000000
   39       -7.516550   1.000000
   40       -7.447536   1.000000
   41       -7.349647   1.000000
   42       -7.267303   1.000000
   43       -7.103018   1.000000
   44       -6.964759   1.000000
   45       -6.839310   1.000000
   46       -6.818727   1.000000
   47       -6.708380   1.000000
   48       -6.666932   1.000000
   49       -6.531997   1.000000
   50       -6.485229   1.000000
   51       -6.426407   1.000000
   52       -6.335730   1.000000
   53       -6.308521   1.000000
   54       -6.288202   1.000000
   55       -6.237898   1.000000
   56       -6.137506   1.000000
   57       -5.982553   1.000000
   58       -5.870229   1.000000
   59       -5.687859   1.000000
   60       -5.611886   1.000000
   61       -5.521864   1.000000
   62       -5.465498   1.000000
   63       -5.338094   1.000000
   64       -5.228876   1.000000
   65       -5.107140   1.000000
   66       -5.053894   1.000000
   67       -4.962796   1.000000
   68       -4.918640   1.000000
   69       -4.772041   1.000000
   70       -4.672397   1.000000
   71       -4.635428   1.000000
   72       -4.554675   1.000000
   73       -4.479100   1.000000
   74       -4.184038   1.000000
   75       -3.990284   0.999998
   76       -3.918086   0.999975
   77       -3.790423   0.999203
   78       -3.720240   0.996102
   79       -3.615353   0.972517
   80       -3.514169   0.885639
   81       -3.143433   0.078119
   82       -2.803229   0.000066
   83       -2.658157   0.000001
   84       -2.538747   0.000000
   85       -2.447767   0.000000
   86       -2.385594   0.000000
   87       -2.281706   0.000000
   88       -2.186548   0.000000
   89       -2.114616   0.000000
   90       -2.039464   0.000000
   91       -1.829737   0.000000
   92       -1.662767   0.000000
   93       -1.476093   0.000000
   94       -1.389706   0.000000
   95       -1.199651   0.000000
   96       -1.021642   0.000000
   97       -0.949482   0.000000
   98       -0.849524   0.000000
   99       -0.793764   0.000000
  100       -0.657808   0.000000
  101       -0.608672   0.000000
  102       -0.582333   0.000000
  103       -0.546850   0.000000
  104       -0.433035   0.000000
  105       -0.327805   0.000000
  106       -0.238341   0.000000
  107       -0.152613   0.000000
  108        0.083608   0.000000
  109        0.178278   0.000000
  110        0.223484   0.000000
  111        0.331546   0.000000
  112        0.443090   0.000000
  113        0.632448   0.000000
  114        0.919191   0.000000
  115        1.041561   0.000000
  116        1.105679   0.000000
  117        1.201534   0.000000
  118        1.689496   0.000000
  119        1.872000   0.000000
  120        2.177591   0.000000
 
  0.1250000E+00  0.1250000E+00  0.0000000E+00  0.3125000E-01
    1      -17.725057   1.000000
    2      -16.873601   1.000000
    3      -16.782842   1.000000
    4      -16.670247   1.000000
    5      -16.498285   1.000000
    6      -16.414089   1.000000
    7      -16.363947   1.000000
    8      -16.242266   1.000000
    9      -16.122079   1.000000
   10      -16.062190   1.000000
   11      -16.011978   1.000000
   12      -15.879396   1.000000
   13      -15.819021   1.000000
   14      -15.691742   1.000000
   15      -15.644059   1.000000
   16      -15.509375   1.000000
   17      -15.431972   1.000000
   18      -15.295752   1.000000
   19       -9.358518   1.000000
   20       -9.270025   1.000000
   21       -9.129668   1.000000
   22       -9.019537   1.000000
   23       -8.826225   1.000000
   24       -8.745360   1.000000
   25       -8.624026   1.000000
   26       -8.518586   1.000000
   27       -8.477240   1.000000
   28       -8.448253   1.000000
   29       -8.336249   1.000000
   30       -8.232281   1.000000
   31       -8.087065   1.000000
   32       -8.046885   1.000000
   33       -7.915077   1.000000
   34       -7.819085   1.000000
   35       -7.737849   1.000000
   36       -7.693323   1.000000
   37       -7.576639   1.000000
   38       -7.547880   1.000000
   39       -7.443086   1.000000
   40       -7.408974   1.000000
   41       -7.304214   1.000000
   42       -7.225710   1.000000
   43       -7.141983   1.000000
   44       -6.990487   1.000000
   45       -6.903596   1.000000
   46       -6.842000   1.000000
   47       -6.778239   1.000000
   48       -6.668813   1.000000
   49       -6.542660   1.000000
   50       -6.494109   1.000000
   51       -6.437814   1.000000
   52       -6.337361   1.000000
   53       -6.283090   1.000000
   54       -6.198928   1.000000
   55       -6.183245   1.000000
   56       -6.096961   1.000000
   57       -5.996045   1.000000
   58       -5.854498   1.000000
   59       -5.689621   1.000000
   60       -5.669242   1.000000
   61       -5.583175   1.000000
   62       -5.503418   1.000000
   63       -5.453545   1.000000
   64       -5.311575   1.000000
   65       -5.199137   1.000000
   66       -5.094134   1.000000
   67       -4.973626   1.000000
   68       -4.842486   1.000000
   69       -4.763397   1.000000
   70       -4.654767   1.000000
   71       -4.594843   1.000000
   72       -4.496661   1.000000
   73       -4.387657   1.000000
   74       -4.187758   1.000000
   75       -4.102523   1.000000
   76       -4.022046   0.999999
   77       -3.840349   0.999776
   78       -3.694843   0.993453
   79       -3.526086   0.901114
   80       -3.498341   0.862526
   81       -3.020937   0.011185
   82       -2.829290   0.000137
   83       -2.680083   0.000001
   84       -2.534445   0.000000
   85       -2.435732   0.000000
   86       -2.374848   0.000000
   87       -2.302599   0.000000
   88       -2.177742   0.000000
   89       -2.060859   0.000000
   90       -2.005867   0.000000
   91       -1.822894   0.000000
   92       -1.694547   0.000000
   93       -1.478555   0.000000
   94       -1.361098   0.000000
   95       -1.188165   0.000000
   96       -1.030720   0.000000
   97       -0.986580   0.000000
   98       -0.883172   0.000000
   99       -0.825048   0.000000
  100       -0.763122   0.000000
  101       -0.691890   0.000000
  102       -0.652272   0.000000
  103       -0.537379   0.000000
  104       -0.480158   0.000000
  105       -0.371183   0.000000
  106       -0.294002   0.000000
  107       -0.210244   0.000000
  108        0.044575   0.000000
  109        0.116365   0.000000
  110        0.247263   0.000000
  111        0.380603   0.000000
  112        0.489456   0.000000
  113        0.654149   0.000000
  114        0.935791   0.000000
  115        1.064566   0.000000
  116        1.131058   0.000000
  117        1.241549   0.000000
  118        1.774139   0.000000
  119        1.945344   0.000000
  120        2.247440   0.000000
 
  0.2500000E+00  0.1250000E+00  0.0000000E+00  0.3125000E-01
    1      -17.630286   1.000000
    2      -17.073102   1.000000
    3      -16.871798   1.000000
    4      -16.655338   1.000000
    5      -16.477449   1.000000
    6      -16.389463   1.000000
    7      -16.344664   1.000000
    8      -16.219745   1.000000
    9      -16.098610   1.000000
   10      -16.071000   1.000000
   11      -15.946235   1.000000
   12      -15.844411   1.000000
   13      -15.778376   1.000000
   14      -15.702694   1.000000
   15      -15.628610   1.000000
   16      -15.530887   1.000000
   17      -15.434198   1.000000
   18      -15.311911   1.000000
   19       -9.591326   1.000000
   20       -9.400246   1.000000
   21       -9.203389   1.000000
   22       -9.039591   1.000000
   23       -8.836823   1.000000
   24       -8.735210   1.000000
   25       -8.614958   1.000000
   26       -8.459218   1.000000
   27       -8.450099   1.000000
   28       -8.360783   1.000000
   29       -8.251692   1.000000
   30       -8.214460   1.000000
   31       -8.098391   1.000000
   32       -8.031558   1.000000
   33       -7.945916   1.000000
   34       -7.892861   1.000000
   35       -7.770681   1.000000
   36       -7.655787   1.000000
   37       -7.487355   1.000000
   38       -7.431121   1.000000
   39       -7.345880   1.000000
   40       -7.298090   1.000000
   41       -7.253670   1.000000
   42       -7.198131   1.000000
   43       -7.052463   1.000000
   44       -6.962183   1.000000
   45       -6.899036   1.000000
   46       -6.838942   1.000000
   47       -6.723118   1.000000