   27   27  100    1
  0.9710400E+02  0.1002848E-08  0.1002848E-08  0.3000000E-08  0.5000000E-15
  1.000000000000000E-004
  CAR 
 unknown system                          
    159     34    120
 
  0.0000000E+00  0.0000000E+00  0.0000000E+00  0.1562500E-01
    1      -17.825218   1.000000
    2      -16.765697   1.000000
    3      -16.638781   1.000000
    4      -16.619514   1.000000
    5      -16.581842   1.000000
    6      -16.488953   1.000000
    7      -16.421194   1.000000
    8      -16.238491   1.000000
    9      -16.133576   1.000000
   10      -16.118627   1.000000
   11      -16.099756   1.000000
   12      -15.953539   1.000000
   13      -15.881707   1.000000
   14      -15.764409   1.000000
   15      -15.606961   1.000000
   16      -15.402074   1.000000
   17      -15.388597   1.000000
   18      -15.180800   1.000000
   19       -9.349959   1.000000
   20       -9.025711   1.000000
   21       -8.973526   1.000000
   22       -8.918127   1.000000
   23       -8.746324   1.000000
   24       -8.666318   1.000000
   25       -8.601173   1.000000
   26       -8.586525   1.000000
   27       -8.531005   1.000000
   28       -8.503249   1.000000
   29       -8.465576   1.000000
   30       -8.442896   1.000000
   31       -8.341434   1.000000
   32       -8.124397   1.000000
   33       -8.075123   1.000000
   34       -7.992977   1.000000
   35       -7.807506   1.000000
   36       -7.760722   1.000000
   37       -7.691746   1.000000
   38       -7.590396   1.000000
   39       -7.486584   1.000000
   40       -7.410306   1.000000
   41       -7.353428   1.000000
   42       -7.220084   1.000000
   43       -7.084582   1.000000
   44       -6.882041   1.000000
   45       -6.812426   1.000000
   46       -6.791161   1.000000
   47       -6.776407   1.000000
   48       -6.647010   1.000000
   49       -6.538360   1.000000
   50       -6.497492   1.000000
   51       -6.412917   1.000000
   52       -6.354153   1.000000
   53       -6.307222   1.000000
   54       -6.251631   1.000000
   55       -6.219185   1.000000
   56       -6.160214   1.000000
   57       -6.050649   1.000000
   58       -5.975262   1.000000
   59       -5.838934   1.000000
   60       -5.541147   1.000000
   61       -5.404778   1.000000
   62       -5.323409   1.000000
   63       -5.262382   1.000000
   64       -5.215264   1.000000
   65       -5.095908   1.000000
   66       -4.998453   1.000000
   67       -4.965789   1.000000
   68       -4.836686   1.000000
   69       -4.819005   1.000000
   70       -4.695552   1.000000
   71       -4.665190   1.000000
   72       -4.627523   1.000000
   73       -4.546919   1.000000
   74       -4.371833   1.000000
   75       -4.075740   1.000000
   76       -3.985186   0.999997
   77       -3.844091   0.999788
   78       -3.577772   0.949717
   79       -3.506131   0.871925
   80       -3.453379   0.777126
   81       -3.210056   0.169025
   82       -2.951482   0.002665
   83       -2.836972   0.000161
   84       -2.707600   0.000003
   85       -2.564575   0.000000
   86       -2.405642   0.000000
   87       -2.381219   0.000000
   88       -2.303586   0.000000
   89       -2.228640   0.000000
   90       -2.172371   0.000000
   91       -1.707901   0.000000
   92       -1.530413   0.000000
   93       -1.453832   0.000000
   94       -1.269072   0.000000
   95       -1.136403   0.000000
   96       -1.049592   0.000000
   97       -0.959155   0.000000
   98       -0.901454   0.000000
   99       -0.716617   0.000000
  100       -0.671258   0.000000
  101       -0.588076   0.000000
  102       -0.523337   0.000000
  103       -0.505009   0.000000
  104       -0.351932   0.000000
  105       -0.231375   0.000000
  106       -0.174745   0.000000
  107       -0.111423   0.000000
  108       -0.029952   0.000000
  109        0.032438   0.000000
  110        0.207772   0.000000
  111        0.344962   0.000000
  112        0.642117   0.000000
  113        0.769786   0.000000
  114        0.860470   0.000000
  115        0.911041   0.000000
  116        0.956313   0.000000
  117        1.268529   0.000000
  118        1.644731   0.000000
  119        1.833659   0.000000
  120        2.152163   0.000000
 
  0.1250000E+00  0.2775558E-16  0.0000000E+00  0.3125000E-01
    1      -17.801215   1.000000
    2      -16.794112   1.000000
    3      -16.759900   1.000000
    4      -16.616949   1.000000
    5      -16.558067   1.000000
    6      -16.502432   1.000000
    7      -16.377367   1.000000
    8      -16.256532   1.000000
    9      -16.136857   1.000000
   10      -16.082503   1.000000
   11      -16.033859   1.000000
   12      -15.943445   1.000000
   13      -15.867938   1.000000
   14      -15.757912   1.000000
   15      -15.616654   1.000000
   16      -15.412232   1.000000
   17      -15.397211   1.000000
   18      -15.183929   1.000000
   19       -9.341855   1.000000
   20       -9.152277   1.000000
   21       -9.067139   1.000000
   22       -9.013729   1.000000
   23       -8.787645   1.000000
   24       -8.714173   1.000000
   25       -8.644087   1.000000
   26       -8.558031   1.000000
   27       -8.536626   1.000000
   28       -8.502686   1.000000
   29       -8.402725   1.000000
   30       -8.284709   1.000000
   31       -8.243221   1.000000
   32       -8.073010   1.000000
   33       -8.023080   1.000000
   34       -7.914894   1.000000
   35       -7.781885   1.000000
   36       -7.750593   1.000000
   37       -7.623822   1.000000
   38       -7.598193   1.000000
   39       -7.513762   1.000000
   40       -7.449271   1.000000
   41       -7.331086   1.000000
   42       -7.175364   1.000000
   43       -7.136404   1.000000
   44       -6.959738   1.000000
   45       -6.858159   1.000000
   46       -6.780161   1.000000
   47       -6.723470   1.000000
   48       -6.661858   1.000000
   49       -6.518043   1.000000
   50       -6.458733   1.000000
   51       -6.427029   1.000000
   52       -6.398804   1.000000
   53       -6.300517   1.000000
   54       -6.254012   1.000000
   55       -6.245720   1.000000
   56       -6.123086   1.000000
   57       -6.043159   1.000000
   58       -5.956389   1.000000
   59       -5.797968   1.000000
   60       -5.518697   1.000000
   61       -5.435625   1.000000
   62       -5.423444   1.000000
   63       -5.324919   1.000000
   64       -5.236593   1.000000
   65       -5.086858   1.000000
   66       -5.036949   1.000000
   67       -4.951209   1.000000
   68       -4.906174   1.000000
   69       -4.808420   1.000000
   70       -4.730738   1.000000
   71       -4.646588   1.000000
   72       -4.589744   1.000000
   73       -4.473782   1.000000
   74       -4.283475   1.000000
   75       -4.067327   1.000000
   76       -3.943754   0.999988
   77       -3.880230   0.999922
   78       -3.691392   0.992768
   79       -3.585012   0.954802
   80       -3.444460   0.757868
   81       -3.118208   0.053973
   82       -2.931441   0.001705
   83       -2.808797   0.000074
   84       -2.686773   0.000002
   85       -2.560202   0.000000
   86       -2.410428   0.000000
   87       -2.355276   0.000000
   88       -2.291708   0.000000
   89       -2.224202   0.000000
   90       -2.145756   0.000000
   91       -1.707424   0.000000
   92       -1.537868   0.000000
   93       -1.450739   0.000000
   94       -1.273183   0.000000
   95       -1.125162   0.000000
   96       -1.042839   0.000000
   97       -0.989485   0.000000
   98       -0.901031   0.000000
   99       -0.788095   0.000000
  100       -0.730476   0.000000
  101       -0.639393   0.000000
  102       -0.572063   0.000000
  103       -0.535898   0.000000
  104       -0.406572   0.000000
  105       -0.310107   0.000000
  106       -0.190757   0.000000
  107       -0.128811   0.000000
  108       -0.023545   0.000000
  109        0.143606   0.000000
  110        0.171327   0.000000
  111        0.395316   0.000000
  112        0.547481   0.000000
  113        0.711609   0.000000
  114        0.900455   0.000000
  115        0.947878   0.000000
  116        1.002781   0.000000
  117        1.314733   0.000000
  118        1.687586   0.000000
  119        1.873861   0.000000
  120        2.187049   0.000000
 
  0.2500000E+00  0.5551115E-16  0.0000000E+00  0.3125000E-01
    1      -17.731243   1.000000
    2      -16.995578   1.000000
    3      -16.752932   1.000000
    4      -16.670376   1.000000
    5      -16.611702   1.000000
    6      -16.464901   1.000000
    7      -16.353500   1.000000
    8      -16.205914   1.000000
    9      -16.137458   1.000000
   10      -16.020011   1.000000
   11      -15.996247   1.000000
   12      -15.897016   1.000000
   13      -15.801768   1.000000
   14      -15.753980   1.000000
   15      -15.631620   1.000000
   16      -15.446327   1.000000
   17      -15.409670   1.000000
   18      -15.192973   1.000000
   19       -9.492259   1.000000
   20       -9.268982   1.000000
   21       -9.179399   1.000000
   22       -9.111432   1.000000
   23       -8.899802   1.000000
   24       -8.781610   1.000000
   25       -8.590724   1.000000
   26       -8.552787   1.000000
   27       -8.508487   1.000000
   28       -8.423011   1.000000
   29       -8.309894   1.000000
   30       -8.232342   1.000000
   31       -8.115674   1.000000
   32       -8.064862   1.000000
   33       -7.906700   1.000000
   34       -7.875705   1.000000
   35       -7.720587   1.000000
   36       -7.650397   1.000000
   37       -7.590392   1.000000
   38       -7.558527   1.000000
   39       -7.457927   1.000000
   40       -7.385973   1.000000
   41       -7.317900   1.000000
   42       -7.201820   1.000000
   43       -7.113244   1.000000
   44       -7.005635   1.000000
   45       -6.873747   1.000000
   46       -6.769156   1.000000
   47       -6.725548   1.000000
   48       -6.665899   1.000000
   49       -6.570752   1.000000
   50       -6.474555   1.000000
   51       -6.417839   1.000000
   52       -6.372385   1.000000
   53       -6.317683   1.000000
   54       -6.257769   1.000000
   55       -6.177931   1.000000
   56       -6.114465   1.000000
   57       -5.974442   1.000000
   58       -5.920310   1.000000
   59       -5.755779   1.000000
   60       -5.663997   1.000000
   61       -5.614038   1.000000
   62       -5.501685   1.000000
   63       -5.423328   1.000000
   64       -5.301963   1.000000
   65       -5.183095   1.000000
   66       -5.018763   1.000000
   67       -4.940839   1.000000
   68       -4.897507   1.000000
   69       -4.797313   1.000000
   70       -4.756498   1.000000
   71       -4.592792   1.000000
   72       -4.486915   1.000000
   73       -4.351315   1.000000
   74       -4.271840   1.000000
   75       -4.119281   1.000000
   76       -3.962862   0.999994
   77       -3.884784   0.999931
   78       -3.792958   0.999221
   79       -3.638292   0.980777
   80       -3.422746   0.707439
   81       -3.024778   0.011660
   82       -2.891867   0.000668
   83       -2.754740   0.000015
   84       -2.622806   0.000000
   85       -2.550306   0.000000
   86       -2.422719   0.000000
   87       -2.315257   0.000000
   88       -2.248475   0.000000
   89       -2.188686   0.000000
   90       -2.076798   0.000000
   91       -1.699341   0.000000
   92       -1.560305   0.000000
   93       -1.453537   0.000000
   94       -1.281723   0.000000
   95       -1.121021   0.000000
   96       -1.095567   0.000000
   97       -1.021754   0.000000
   98       -0.953571   0.000000
   99       -0.907768   0.000000
  100       -0.861976   0.000000
  101       -0.748951   0.000000
  102       -0.667504   0.000000
  103       -0.563043   0.000000
  104       -0.472089   0.000000
  105       -0.426413   0.000000
  106       -0.254411   0.000000
  107       -0.152211   0.000000
  108       -0.064825   0.000000
  109        0.094238   0.000000
  110        0.228927   0.000000
  111        0.406721   0.000000
  112        0.537217   0.000000
  113        0.609318   0.000000
  114        0.943720   0.000000
  115        1.001055   0.000000
  116        1.115139   0.000000
  117        1.421877   0.000000
  118        1.807788   0.000000
  119        1.988436   0.000000
  120        2.290542   0.000000
 
  0.3750000E+00  0.0000000E+00  0.0000000E+00  0.3125000E-01
    1      -17.625247   1.000000
    2      -17.194365   1.000000
    3      -16.742654   1.000000
    4      -16.710526   1.000000
    5      -16.655265   1.000000
    6      -16.454514   1.000000
    7      -16.346440   1.000000
    8      -16.169739   1.000000
    9      -16.090336   1.000000
   10      -16.002223   1.000000
   11      -15.941719   1.000000
   12      -15.873686   1.000000
   13      -15.784642   1.000000
   14      -15.722972   1.000000
   15      -15.633149   1.000000
   16      -15.470294   1.000000
   17      -15.424546   1.000000
   18      -15.204367   1.000000
   19       -9.697941   1.000000
   20       -9.343973   1.000000
   21       -9.224538   1.000000
   22       -9.106611   1.000000
   23       -8.987863   1.000000
   24       -8.819929   1.000000
   25       -8.557606   1.000000
   26       -8.508957   1.000000
   27       -8.433424   1.000000
   28       -8.337893   1.000000
   29       -8.289927   1.000000
   30       -8.225343   1.000000
   31       -8.143404   1.000000
   32       -8.046651   1.000000
   33       -7.934959   1.000000
   34       -7.830110   1.000000
   35       -7.776318   1.000000
   36       -7.659500   1.000000
   37       -7.579517   1.000000
   38       -7.457489   1.000000
   39       -7.361052   1.000000
   40       -7.278902   1.000000
   41       -7.205632   1.000000
   42       -7.143564   1.000000
   43       -7.050891   1.000000
   44       -6.959415   1.000000
   45       -6.842422   1.000000
   46       -6.820479   1.000000
   47       -6.721170   1.000000
   48       -6.670538   1.000000
   49       -6.548790   1.000000
   50       -6.471670   1.000000
   51       -6.411881   1.000000
   52       -6.383618   1.000000
   53       -6.321833   1.000000
   54       -6.209283   1.000000
   55       -6.117437   1.000000
   56       -6.058701   1.000000
   57       -5.967148   1.000000
   58       -5.913505   1.000000
   59       -5.868600   1.000000
   60       -5.803755   1.000000
   61       -5.762259   1.000000
   62       -5.584655   1.000000
   63       -5.535066   1.000000
   64       -5.344796   1.000000
   65       -5.196605   1.000000
   66       -5.014695   1.000000
   67       -4.933235   1.000000
   68       -4.875338   1.000000
   69       -4.800043   1.000000
   70       -4.749010   1.000000
   71       -4.609628   1.000000
   72       -4.529224   1.000000
   73       -4.405748   1.000000
   74       -4.190135   1.000000
   75       -4.081891   1.000000
   76       -4.025893   0.999999
   77       -3.889584   0.999940
   78       -3.731819   0.996847
   79       -3.596704   0.962133
   80       -3.444928   0.758899
   81       -2.974080   0.004312
   82       -2.856087   0.000269
   83       -2.714558   0.000004
   84       -2.564906   0.000000
   85       -2.536061   0.000000
   86       -2.420880   0.000000
   87       -2.282853   0.000000
   88       -2.194843   0.000000
   89       -2.140573   0.000000
   90       -1.986971   0.000000
   91       -1.672088   0.000000
   92       -1.595386   0.000000
   93       -1.481497   0.000000
   94       -1.327527   0.000000
   95       -1.207715   0.000000
   96       -1.121850   0.000000
   97       -1.100227   0.000000
   98       -1.040468   0.000000
   99       -0.959469   0.000000
  100       -0.927083   0.000000
  101       -0.834369   0.000000
  102       -0.713992   0.000000
  103       -0.594456   0.000000
  104       -0.535576   0.000000
  105       -0.458554   0.000000
  106       -0.339808   0.000000
  107       -0.190598   0.000000
  108       -0.134456   0.000000
  109       -0.020665   0.000000
  110        0.253793   0.000000
  111        0.378126   0.000000
  112        0.508923   0.000000
  113        0.654116   0.000000
  114        0.968319   0.000000
  115        1.065691   0.000000
  116        1.200895   0.000000
  117        1.521253   0.000000
  118        1.988445   0.000000
  119        2.164219   0.000000
  120        2.457258   0.000000
 
  0.5000000E+00  0.1110223E-15  0.0000000E+00  0.1562500E-01
    1      -17.544984   1.000000
    2      -17.307461   1.000000
    3      -16.737654   1.000000
    4      -16.724284   1.000000
    5      -16.671857   1.000000
    6      -16.454412   1.000000
    7      -16.342985   1.000000
    8      -16.171030   1.000000
    9      -16.042569   1.000000
   10      -15.993873   1.000000
   11      -15.940894   1.000000
   12      -15.851251   1.000000
   13      -15.776981   1.000000
   14      -15.737959   1.000000
   15      -15.625042   1.000000
   16      -15.469774   1.000000
   17      -15.432559   1.000000
   18      -15.209965   1.000000
   19       -9.773560   1.000000
   20       -9.381532   1.000000
   21       -9.246977   1.000000
   22       -9.083053   1.000000
   23       -9.007316   1.000000
   24       -8.831519   1.000000
   25       -8.546948   1.000000
   26       -8.501667   1.000000
   27       -8.406966   1.000000
   28       -8.336976   1.000000
   29       -8.253042   1.000000
   30       -8.174793   1.000000
   31       -8.151927   1.000000
   32       -8.037914   1.000000
   33       -7.970051   1.000000
   34       -7.910824   1.000000
   35       -7.782397   1.000000
   36       -7.718202   1.000000
   37       -7.549345   1.000000
   38       -7.400528   1.000000
   39       -7.331553   1.000000
   40       -7.255194   1.000000
   41       -7.115017   1.000000
   42       -7.065431   1.000000
   43       -7.007966   1.000000
   44       -6.951895   1.000000
   45       -6.867018   1.000000
   46       -6.760509   1.000000
   47       -6.713403   1.000000
   48       -6.655180   1.000000
   49       -6.566460   1.000000
   50       -6.500002   1.000000
   51       -6.414465   1.000000
   52       -6.367470   1.000000
   53       -6.290700   1.000000
   54       -6.256074   1.000000
   55       -6.120918   1.000000
   56       -6.086700   1.000000
   57       -5.973141   1.000000
   58       -5.919831   1.000000
   59       -5.864990   1.000000
   60       -5.822545   1.000000
   61       -5.781409   1.000000
   62       -5.604975   1.000000
   63       -5.486365   1.000000
   64       -5.358177   1.000000
   65       -5.309059   1.000000
   66       -5.120859   1.000000
   67       -4.919267   1.000000
   68       -4.892141   1.000000
   69       -4.804411   1.000000
   70       -4.750982   1.000000
   71       -4.615107   1.000000
   72       -4.512852   1.000000
   73       -4.383483   1.000000
   74       -4.198808   1.000000
   75       -4.071748   1.000000
   76       -4.034627   0.999999
   77       -3.845440   0.999796
   78       -3.714333   0.995443
   79       -3.563291   0.938186
   80       -3.471069   0.812626
   81       -2.957854   0.003059
   82       -2.840092   0.000176
   83       -2.699897   0.000002
   84       -2.565390   0.000000
   85       -2.518183   0.000000
   86       -2.401969   0.000000
   87       -2.270346   0.000000
   88       -2.171944   0.000000
   89       -2.117714   0.000000
   90       -1.941278   0.000000
   91       -1.659851   0.000000
   92       -1.601707   0.000000
   93       -1.518517   0.000000
   94       -1.363188   0.000000
   95       -1.218911   0.000000
   96       -1.186794   0.000000
   97       -1.135506   0.000000
   98       -1.052672   0.000000
   99       -0.979865   0.000000
  100       -0.946375   0.000000
  101       -0.855449   0.000000
  102       -0.727348   0.000000
  103       -0.604828   0.000000
  104       -0.559924   0.000000
  105       -0.467598   0.000000
  106       -0.369708   0.000000
  107       -0.215039   0.000000
  108       -0.156113   0.000000
  109       -0.081488   0.000000
  110        0.254355   0.000000
  111        0.373027   0.000000
  112        0.490112   0.000000
  113        0.686939   0.000000
  114        0.973246   0.000000
  115        1.093871   0.000000
  116        1.233534   0.000000
  117        1.559780   0.000000
  118        2.188139   0.000000
  119        2.256263   0.000000
  120        2.377096   0.000000
 
  0.0000000E+00  0.1250000E+00  0.0000000E+00  0.3125000E-01
    1      -17.801525   1.000000
    2      -16.785280   1.000000
    3      -16.747726   1.000000
    4      -16.646355   1.000000
    5      -16.587444   1.000000
    6      -16.429376   1.000000
    7      -16.410235   1.000000
    8      -16.263113   1.000000
    9      -16.138503   1.000000
   10      -16.094647   1.000000
   11      -16.002882   1.000000
   12      -15.956519   1.000000
   13      -15.868974   1.000000
   14      -15.757061   1.000000
   15      -15.614096   1.000000
   16      -15.417763   1.000000
   17      -15.391407   1.000000
   18      -15.186100   1.000000
   19       -9.347641   1.000000
   20       -9.174380   1.000000
   21       -9.027265   1.000000
   22       -9.003987   1.000000
   23       -8.788716   1.000000
   24       -8.721748   1.000000
   25       -8.648061   1.000000
   26       -8.582424   1.000000
   27       -8.544963   1.000000
   28       -8.504808   1.000000
   29       -8.405742   1.000000
   30       -8.273297   1.000000
   31       -8.237179   1.000000
   32       -8.074736   1.000000
   33       -8.006225   1.000000
   34       -7.893843   1.000000
   35       -7.798006   1.000000
   36       -7.749105   1.000000
   37       -7.664827   1.000000
   38       -7.579483   1.000000
   39       -7.482718   1.000000
   40       -7.460982   1.000000
   41       -7.304588   1.000000
   42       -7.220409   1.000000
   43       -7.138403   1.000000
   44       -6.944854   1.000000
   45       -6.839162   1.000000
   46       -6.788770   1.000000
   47       -6.732304   1.000000
   48       -6.681745   1.000000
   49       -6.504890   1.000000
   50       -6.452524   1.000000
   51       -6.424734   1.000000
   52       -6.399455   1.000000
   53       -6.334022   1.000000
   54       -6.256154   1.000000
   55       -6.218748   1.000000
   56       -6.109653   1.000000
   57       -6.044524   1.000000
   58       -5.963162   1.000000
   59       -5.797464   1.000000
   60       -5.515968   1.000000
   61       -5.446436   1.000000
   62       -5.408130   1.000000
   63       -5.323561   1.000000
   64       -5.254588   1.000000
   65       -5.078969   1.000000
   66       -5.030947   1.000000
   67       -4.941346   1.000000
   68       -4.886428   1.000000
   69       -4.815910   1.000000
   70       -4.730979   1.000000
   71       -4.675070   1.000000
   72       -4.605740   1.000000
   73       -4.454619   1.000000
   74       -4.280682   1.000000
   75       -4.073609   1.000000
   76       -3.948098   0.999990
   77       -3.861029   0.999866
   78       -3.696708   0.993488
   79       -3.631721   0.978494
   80       -3.407038   0.668163
   81       -3.114699   0.051308
   82       -2.939007   0.002022
   83       -2.795391   0.000050
   84       -2.710749   0.000004
   85       -2.553463   0.000000
   86       -2.393997   0.000000
   87       -2.367517   0.000000
   88       -2.299420   0.000000
   89       -2.221677   0.000000
   90       -2.139562   0.000000
   91       -1.712902   0.000000
   92       -1.532250   0.000000
   93       -1.444809   0.000000
   94       -1.274781   0.000000
   95       -1.127397   0.000000
   96       -1.052526   0.000000
   97       -0.962685   0.000000
   98       -0.912522   0.000000
   99       -0.777025   0.000000
  100       -0.726815   0.000000
  101       -0.623700   0.000000
  102       -0.610323   0.000000
  103       -0.537011   0.000000
  104       -0.410107   0.000000
  105       -0.374221   0.000000
  106       -0.143852   0.000000
  107       -0.091551   0.000000
  108       -0.008519   0.000000
  109        0.095303   0.000000
  110        0.200877   0.000000
  111        0.408201   0.000000
  112        0.521881   0.000000
  113        0.745032   0.000000
  114        0.877140   0.000000
  115        0.936459   0.000000
  116        1.047151   0.000000
  117        1.277968   0.000000
  118        1.687605   0.000000
  119        1.873910   0.000000
  120        2.187178   0.000000
 
  0.1250000E+00  0.1250000E+00  0.0000000E+00  0.3125000E-01
    1      -17.755483   1.000000
    2      -16.896176   1.000000
    3      -16.794891   1.000000
    4      -16.738065   1.000000
    5      -16.501295   1.000000
    6      -16.441866   1.000000
    7      -16.382468   1.000000
    8      -16.269006   1.000000
    9      -16.111472   1.000000
   10      -16.040445   1.000000
   11      -15.971983   1.000000
   12      -15.928026   1.000000
   13      -15.834709   1.000000
   14      -15.758053   1.000000
   15      -15.629441   1.000000
   16      -15.436830   1.000000
   17      -15.402447   1.000000
   18      -15.188669   1.000000
   19       -9.390791   1.000000
   20       -9.288205   1.000000
   21       -9.192372   1.000000
   22       -9.116194   1.000000
   23       -8.827442   1.000000
   24       -8.698980   1.000000
   25       -8.619461   1.000000
   26       -8.566783   1.000000
   27       -8.513400   1.000000
   28       -8.454438   1.000000
   29       -8.315677   1.000000
   30       -8.257693   1.000000
   31       -8.121554   1.000000
   32       -8.044198   1.000000
   33       -8.038278   1.000000
   34       -7.833331   1.000000
   35       -7.761916   1.000000
   36       -7.700406   1.000000
   37       -7.581059   1.000000
   38       -7.563252   1.000000
   39       -7.470319   1.000000
   40       -7.364883   1.000000
   41       -7.334547   1.000000
   42       -7.234739   1.000000
   43       -7.109521   1.000000
   44       -6.995516   1.000000
   45       -6.856133   1.000000
   46       -6.818636   1.000000
   47       -6.695398   1.000000
   48       -6.673313   1.000000
   49       -6.529314   1.000000
   50       -6.493322   1.000000
   51       -6.393823   1.000000
   52       -6.366753   1.000000
   53       -6.324015   1.000000
   54       -6.259872   1.000000
   55       -6.232051   1.000000
   56       -6.089621   1.000000
   57       -6.047075   1.000000
   58       -5.926517   1.000000
   59       -5.784873   1.000000
   60       -5.593308   1.000000
   61       -5.577168   1.000000
   62       -5.442079   1.000000
   63       -5.346324   1.000000
   64       -5.305529   1.000000
   65       -5.110603   1.000000
   66       -5.041592   1.000000
   67       -4.993866   1.000000
   68       -4.933440   1.000000
   69       -4.796031   1.000000
   70       -4.688299   1.000000
   71       -4.632971   1.000000
   72       -4.556340   1.000000
   73       -4.378698   1.000000
   74       -4.189863   1.000000
   75       -4.119400   1.000000
   76       -4.010804   0.999999
   77       -3.868573   0.999892
   78       -3.765056   0.998494
   79       -3.637899   0.980646
   80       -3.454889   0.780299
   81       -3.025336   0.011781
   82       -2.875787   0.000447
   83       -2.776565   0.000029
   84       -2.653771   0.000001
   85       -2.537841   0.000000
   86       -2.388004   0.000000
   87       -2.344995   0.000000
   88       -2.281735   0.000000
   89       -2.201618   0.000000
   90       -2.104107   0.000000
   91       -1.704183   0.000000
   92       -1.544867   0.000000
   93       -1.428322   0.000000
   94       -1.299134   0.000000
   95       -1.115256   0.000000
   96       -1.060205   0.000000
   97       -1.007301   0.000000
   98       -0.933418   0.000000
   99       -0.897692   0.000000
  100       -0.823517   0.000000
  101       -0.732773   0.000000
  102       -0.652376   0.000000
  103       -0.598002   0.000000
  104       -0.455997   0.000000
  105       -0.399041   0.000000
  106       -0.186609   0.000000
  107       -0.126708   0.000000
  108       -0.038075   0.000000
  109        0.118357   0.000000
  110        0.196013   0.000000
  111        0.395553   0.000000
  112        0.517045   0.000000
  113        0.673733   0.000000
  114        0.917786   0.000000
  115        0.957038   0.000000
  116        1.153608   0.000000
  117        1.331228   0.000000
  118        1.767881   0.000000
  119        1.952749   0.000000
  120        2.256114   0.000000
 
  0.2500000E+00  0.1250000E+00  0.0000000E+00  0.3125000E-01
    1      -17.667377   1.000000
    2      -17.080846   1.000000
    3      -16.875139   1.000000
    4      -16.735897   1.000000
    5      -16.476409   1.000000
    6      -16.448798   1.000000
    7      -16.362376   1.000000
    8      -16.209189   1.000000
    9      -16.109812   1.000000
   10      -16.028052   1.000000
   11      -15.940390   1.000000
   12      -15.872874   1.000000
   13      -15.778347   1.000000
   14      -15.750396   1.000000
   15      -15.647954   1.000000
   16      -15.457800   1.000000
   17      -15.417001   1.000000
   18      -15.196115   1.000000
   19       -9.584311   1.000000
   20       -9.404368   1.000000
   21       -9.301079   1.000000
   22       -9.134262   1.000000
   23       -8.863337   1.000000
   24       -8.682912   1.000000
   25       -8.543356   1.000000
   26       -8.501189   1.000000
   27       -8.450923   1.000000
   28       -8.393862   1.000000
   29       -8.270699   1.000000
   30       -8.265344   1.000000
   31       -8.144197   1.000000
   32       -8.066450   1.000000
   33       -7.958384   1.000000
   34       -7.911618   1.000000
   35       -7.807426   1.000000
   36       -7.635199   1.000000
   37       -7.586100   1.000000
   38       -7.437712   1.000000
   39       -7.419305   1.000000
   40       -7.289038   1.000000
   41       -7.225421   1.000000
   42       -7.162508   1.000000
   43       -7.044482   1.000000
   44       -6.970971   1.000000
   45       -6.867647   1.000000
   46       -6.807454   1.000000
   47       -6.719502   1.000000