   27   27  100    1
  0.9710400E+02  0.1002848E-08  0.1002848E-08  0.3000000E-08  0.5000000E-15
  1.000000000000000E-004
  CAR 
 unknown system                          
    159     34    120
 
  0.0000000E+00  0.0000000E+00  0.0000000E+00  0.1562500E-01
    1      -17.797207   1.000000
    2      -16.750141   1.000000
    3      -16.654542   1.000000
    4      -16.571246   1.000000
    5      -16.511842   1.000000
    6      -16.462423   1.000000
    7      -16.392971   1.000000
    8      -16.312022   1.000000
    9      -16.217003   1.000000
   10      -16.161089   1.000000
   11      -16.064809   1.000000
   12      -16.015005   1.000000
   13      -15.869585   1.000000
   14      -15.604032   1.000000
   15      -15.566174   1.000000
   16      -15.456818   1.000000
   17      -15.371286   1.000000
   18      -15.240535   1.000000
   19       -9.305601   1.000000
   20       -9.082778   1.000000
   21       -8.962269   1.000000
   22       -8.901427   1.000000
   23       -8.813996   1.000000
   24       -8.740024   1.000000
   25       -8.626287   1.000000
   26       -8.602569   1.000000
   27       -8.507510   1.000000
   28       -8.403108   1.000000
   29       -8.337869   1.000000
   30       -8.290020   1.000000
   31       -8.234468   1.000000
   32       -8.113848   1.000000
   33       -8.021420   1.000000
   34       -7.944276   1.000000
   35       -7.904014   1.000000
   36       -7.804002   1.000000
   37       -7.678476   1.000000
   38       -7.516386   1.000000
   39       -7.482960   1.000000
   40       -7.449256   1.000000
   41       -7.279058   1.000000
   42       -7.166328   1.000000
   43       -7.131121   1.000000
   44       -6.998860   1.000000
   45       -6.840183   1.000000
   46       -6.810912   1.000000
   47       -6.644857   1.000000
   48       -6.610168   1.000000
   49       -6.571709   1.000000
   50       -6.537908   1.000000
   51       -6.493752   1.000000
   52       -6.414762   1.000000
   53       -6.316806   1.000000
   54       -6.255667   1.000000
   55       -6.200011   1.000000
   56       -6.192491   1.000000
   57       -6.077001   1.000000
   58       -5.920241   1.000000
   59       -5.722289   1.000000
   60       -5.559485   1.000000
   61       -5.522838   1.000000
   62       -5.436938   1.000000
   63       -5.217215   1.000000
   64       -5.120100   1.000000
   65       -5.039380   1.000000
   66       -4.980677   1.000000
   67       -4.885808   1.000000
   68       -4.864166   1.000000
   69       -4.813419   1.000000
   70       -4.736732   1.000000
   71       -4.644687   1.000000
   72       -4.605161   1.000000
   73       -4.503949   1.000000
   74       -4.337388   1.000000
   75       -4.284493   1.000000
   76       -4.117801   1.000000
   77       -3.806958   0.999408
   78       -3.590313   0.956449
   79       -3.513994   0.879246
   80       -3.398307   0.638029
   81       -3.293233   0.348346
   82       -2.862026   0.000292
   83       -2.729441   0.000006
   84       -2.618558   0.000000
   85       -2.515817   0.000000
   86       -2.479164   0.000000
   87       -2.360805   0.000000
   88       -2.260979   0.000000
   89       -2.216728   0.000000
   90       -2.070562   0.000000
   91       -2.044690   0.000000
   92       -1.395539   0.000000
   93       -1.334905   0.000000
   94       -1.267282   0.000000
   95       -1.106337   0.000000
   96       -1.068628   0.000000
   97       -0.991620   0.000000
   98       -0.859385   0.000000
   99       -0.714549   0.000000
  100       -0.698925   0.000000
  101       -0.625441   0.000000
  102       -0.520202   0.000000
  103       -0.488603   0.000000
  104       -0.337418   0.000000
  105       -0.212103   0.000000
  106       -0.122745   0.000000
  107       -0.073841   0.000000
  108       -0.002856   0.000000
  109        0.075423   0.000000
  110        0.278028   0.000000
  111        0.326941   0.000000
  112        0.600337   0.000000
  113        0.755376   0.000000
  114        0.781490   0.000000
  115        0.840998   0.000000
  116        1.037537   0.000000
  117        1.115038   0.000000
  118        1.639871   0.000000
  119        1.837166   0.000000
  120        2.147231   0.000000
 
  0.1250000E+00  0.2775558E-16  0.0000000E+00  0.3125000E-01
    1      -17.771848   1.000000
    2      -16.789135   1.000000
    3      -16.742631   1.000000
    4      -16.587825   1.000000
    5      -16.527407   1.000000
    6      -16.426101   1.000000
    7      -16.360293   1.000000
    8      -16.325908   1.000000
    9      -16.234979   1.000000
   10      -16.114213   1.000000
   11      -16.025194   1.000000
   12      -15.972990   1.000000
   13      -15.861214   1.000000
   14      -15.616182   1.000000
   15      -15.577879   1.000000
   16      -15.448357   1.000000
   17      -15.372700   1.000000
   18      -15.252505   1.000000
   19       -9.296959   1.000000
   20       -9.216087   1.000000
   21       -9.060316   1.000000
   22       -9.030293   1.000000
   23       -8.775928   1.000000
   24       -8.697264   1.000000
   25       -8.662805   1.000000
   26       -8.563698   1.000000
   27       -8.452527   1.000000
   28       -8.426815   1.000000
   29       -8.393044   1.000000
   30       -8.219077   1.000000
   31       -8.151322   1.000000
   32       -8.067957   1.000000
   33       -8.004500   1.000000
   34       -7.889019   1.000000
   35       -7.822414   1.000000
   36       -7.708123   1.000000
   37       -7.655474   1.000000
   38       -7.568206   1.000000
   39       -7.476193   1.000000
   40       -7.370111   1.000000
   41       -7.330641   1.000000
   42       -7.192618   1.000000
   43       -7.134806   1.000000
   44       -7.020668   1.000000
   45       -6.874714   1.000000
   46       -6.824726   1.000000
   47       -6.743207   1.000000
   48       -6.636264   1.000000
   49       -6.571915   1.000000
   50       -6.470333   1.000000
   51       -6.430652   1.000000
   52       -6.382165   1.000000
   53       -6.347150   1.000000
   54       -6.281140   1.000000
   55       -6.194285   1.000000
   56       -6.152896   1.000000
   57       -6.012663   1.000000
   58       -5.939674   1.000000
   59       -5.702904   1.000000
   60       -5.562320   1.000000
   61       -5.515465   1.000000
   62       -5.468158   1.000000
   63       -5.328462   1.000000
   64       -5.171666   1.000000
   65       -5.119950   1.000000
   66       -5.013448   1.000000
   67       -4.945829   1.000000
   68       -4.883352   1.000000
   69       -4.794278   1.000000
   70       -4.699940   1.000000
   71       -4.615338   1.000000
   72       -4.565609   1.000000
   73       -4.419115   1.000000
   74       -4.313579   1.000000
   75       -4.216334   1.000000
   76       -4.057272   1.000000
   77       -3.872563   0.999895
   78       -3.722875   0.995954
   79       -3.547600   0.920561
   80       -3.441047   0.743899
   81       -3.158285   0.089471
   82       -2.847080   0.000197
   83       -2.718535   0.000004
   84       -2.638090   0.000000
   85       -2.506268   0.000000
   86       -2.459417   0.000000
   87       -2.349433   0.000000
   88       -2.241224   0.000000
   89       -2.195978   0.000000
   90       -2.098301   0.000000
   91       -2.007408   0.000000
   92       -1.409018   0.000000
   93       -1.346886   0.000000
   94       -1.223470   0.000000
   95       -1.110937   0.000000
   96       -1.067296   0.000000
   97       -0.982550   0.000000
   98       -0.893779   0.000000
   99       -0.801135   0.000000
  100       -0.719216   0.000000
  101       -0.682910   0.000000
  102       -0.558292   0.000000
  103       -0.498430   0.000000
  104       -0.350398   0.000000
  105       -0.293622   0.000000
  106       -0.141622   0.000000
  107       -0.112637   0.000000
  108       -0.053362   0.000000
  109        0.108946   0.000000
  110        0.275691   0.000000
  111        0.358751   0.000000
  112        0.611398   0.000000
  113        0.738270   0.000000
  114        0.782016   0.000000
  115        0.915229   0.000000
  116        1.054789   0.000000
  117        1.127106   0.000000
  118        1.685145   0.000000
  119        1.875267   0.000000
  120        2.182719   0.000000
 
  0.2500000E+00  0.5551115E-16  0.0000000E+00  0.3125000E-01
    1      -17.696780   1.000000
    2      -16.994054   1.000000
    3      -16.738344   1.000000
    4      -16.634084   1.000000
    5      -16.605048   1.000000
    6      -16.404634   1.000000
    7      -16.309990   1.000000
    8      -16.275126   1.000000
    9      -16.218696   1.000000
   10      -16.101660   1.000000
   11      -15.970441   1.000000
   12      -15.891034   1.000000
   13      -15.795264   1.000000
   14      -15.648473   1.000000
   15      -15.599279   1.000000
   16      -15.452246   1.000000
   17      -15.367069   1.000000
   18      -15.277365   1.000000
   19       -9.514956   1.000000
   20       -9.327283   1.000000
   21       -9.153994   1.000000
   22       -9.040835   1.000000
   23       -8.864894   1.000000
   24       -8.717587   1.000000
   25       -8.650503   1.000000
   26       -8.536402   1.000000
   27       -8.443208   1.000000
   28       -8.372672   1.000000
   29       -8.300811   1.000000
   30       -8.240077   1.000000
   31       -8.114888   1.000000
   32       -7.994682   1.000000
   33       -7.885704   1.000000
   34       -7.860904   1.000000
   35       -7.727541   1.000000
   36       -7.635415   1.000000
   37       -7.593397   1.000000
   38       -7.497622   1.000000
   39       -7.455209   1.000000
   40       -7.394835   1.000000
   41       -7.290471   1.000000
   42       -7.114073   1.000000
   43       -7.102014   1.000000
   44       -7.002642   1.000000
   45       -6.905453   1.000000
   46       -6.866361   1.000000
   47       -6.819924   1.000000
   48       -6.658535   1.000000
   49       -6.583616   1.000000
   50       -6.491072   1.000000
   51       -6.407491   1.000000
   52       -6.396450   1.000000
   53       -6.289375   1.000000
   54       -6.211928   1.000000
   55       -6.149839   1.000000
   56       -6.082982   1.000000
   57       -5.967872   1.000000
   58       -5.907439   1.000000
   59       -5.757906   1.000000
   60       -5.712987   1.000000
   61       -5.633106   1.000000
   62       -5.558411   1.000000
   63       -5.401941   1.000000
   64       -5.324078   1.000000
   65       -5.139976   1.000000
   66       -5.077499   1.000000
   67       -5.006096   1.000000
   68       -4.885146   1.000000
   69       -4.824490   1.000000
   70       -4.598347   1.000000
   71       -4.539914   1.000000
   72       -4.447470   1.000000
   73       -4.317536   1.000000
   74       -4.266091   1.000000
   75       -4.150522   1.000000
   76       -4.065715   1.000000
   77       -4.022755   0.999999
   78       -3.862204   0.999860
   79       -3.567962   0.939769
   80       -3.406017   0.658259
   81       -3.037101   0.013871
   82       -2.819571   0.000092
   83       -2.696798   0.000002
   84       -2.639331   0.000000
   85       -2.514464   0.000000
   86       -2.418444   0.000000
   87       -2.330215   0.000000
   88       -2.249305   0.000000
   89       -2.145121   0.000000
   90       -2.105170   0.000000
   91       -1.901228   0.000000
   92       -1.438873   0.000000
   93       -1.345495   0.000000
   94       -1.175433   0.000000
   95       -1.141632   0.000000
   96       -1.104481   0.000000
   97       -1.016784   0.000000
   98       -0.935098   0.000000
   99       -0.898801   0.000000
  100       -0.818064   0.000000
  101       -0.739347   0.000000
  102       -0.658679   0.000000
  103       -0.568957   0.000000
  104       -0.462727   0.000000
  105       -0.374385   0.000000
  106       -0.183302   0.000000
  107       -0.164197   0.000000
  108       -0.072780   0.000000
  109        0.058276   0.000000
  110        0.270698   0.000000
  111        0.362460   0.000000
  112        0.576808   0.000000
  113        0.748368   0.000000
  114        0.818116   0.000000
  115        0.984415   0.000000
  116        1.136365   0.000000
  117        1.235032   0.000000
  118        1.809670   0.000000
  119        1.985110   0.000000
  120        2.287759   0.000000
 
  0.3750000E+00  0.0000000E+00  0.0000000E+00  0.3125000E-01
    1      -17.575577   1.000000
    2      -17.208276   1.000000
    3      -16.734099   1.000000
    4      -16.672745   1.000000
    5      -16.649371   1.000000
    6      -16.429948   1.000000
    7      -16.267577   1.000000
    8      -16.239529   1.000000
    9      -16.163002   1.000000
   10      -16.097069   1.000000
   11      -15.930476   1.000000
   12      -15.840449   1.000000
   13      -15.724287   1.000000
   14      -15.679400   1.000000
   15      -15.600575   1.000000
   16      -15.487786   1.000000
   17      -15.368806   1.000000
   18      -15.282076   1.000000
   19       -9.729567   1.000000
   20       -9.423334   1.000000
   21       -9.181700   1.000000
   22       -9.003447   1.000000
   23       -8.902376   1.000000
   24       -8.748374   1.000000
   25       -8.635127   1.000000
   26       -8.487100   1.000000
   27       -8.441974   1.000000
   28       -8.367007   1.000000
   29       -8.278497   1.000000
   30       -8.175978   1.000000
   31       -8.101382   1.000000
   32       -7.991482   1.000000
   33       -7.893531   1.000000
   34       -7.859270   1.000000
   35       -7.743349   1.000000
   36       -7.710897   1.000000
   37       -7.527797   1.000000
   38       -7.483807   1.000000
   39       -7.334860   1.000000
   40       -7.285506   1.000000
   41       -7.195591   1.000000
   42       -7.115592   1.000000
   43       -7.033757   1.000000
   44       -6.966127   1.000000
   45       -6.865678   1.000000
   46       -6.851562   1.000000
   47       -6.673258   1.000000
   48       -6.611750   1.000000
   49       -6.534504   1.000000
   50       -6.484440   1.000000
   51       -6.450533   1.000000
   52       -6.393935   1.000000
   53       -6.254548   1.000000
   54       -6.198652   1.000000
   55       -6.109760   1.000000
   56       -6.078611   1.000000
   57       -5.994053   1.000000
   58       -5.947492   1.000000
   59       -5.889221   1.000000
   60       -5.821940   1.000000
   61       -5.772099   1.000000
   62       -5.665562   1.000000
   63       -5.551467   1.000000
   64       -5.285499   1.000000
   65       -5.144389   1.000000
   66       -5.113229   1.000000
   67       -5.028073   1.000000
   68       -4.906892   1.000000
   69       -4.750465   1.000000
   70       -4.686641   1.000000
   71       -4.494545   1.000000
   72       -4.385987   1.000000
   73       -4.306929   1.000000
   74       -4.254534   1.000000
   75       -4.199989   1.000000
   76       -4.124911   1.000000
   77       -3.967626   0.999994
   78       -3.778144   0.998813
   79       -3.604715   0.965062
   80       -3.390391   0.616853
   81       -2.929406   0.001526
   82       -2.794147   0.000044
   83       -2.701031   0.000002
   84       -2.598675   0.000000
   85       -2.536064   0.000000
   86       -2.408894   0.000000
   87       -2.330782   0.000000
   88       -2.263228   0.000000
   89       -2.130658   0.000000
   90       -2.039710   0.000000
   91       -1.759569   0.000000
   92       -1.460922   0.000000
   93       -1.356351   0.000000
   94       -1.255583   0.000000
   95       -1.215907   0.000000
   96       -1.132134   0.000000
   97       -1.082058   0.000000
   98       -0.976080   0.000000
   99       -0.890047   0.000000
  100       -0.867589   0.000000
  101       -0.801101   0.000000
  102       -0.728813   0.000000
  103       -0.645234   0.000000
  104       -0.529923   0.000000
  105       -0.456629   0.000000
  106       -0.243904   0.000000
  107       -0.214951   0.000000
  108       -0.090212   0.000000
  109        0.028020   0.000000
  110        0.226855   0.000000
  111        0.336923   0.000000
  112        0.545597   0.000000
  113        0.734065   0.000000
  114        0.860797   0.000000
  115        1.042543   0.000000
  116        1.236795   0.000000
  117        1.369648   0.000000
  118        1.994631   0.000000
  119        2.157577   0.000000
  120        2.458664   0.000000
 
  0.5000000E+00  0.1110223E-15  0.0000000E+00  0.1562500E-01
    1      -17.440436   1.000000
    2      -17.376437   1.000000
    3      -16.733798   1.000000
    4      -16.688916   1.000000
    5      -16.659526   1.000000
    6      -16.440893   1.000000
    7      -16.263975   1.000000
    8      -16.218031   1.000000
    9      -16.136604   1.000000
   10      -16.097754   1.000000
   11      -15.913510   1.000000
   12      -15.793048   1.000000
   13      -15.754294   1.000000
   14      -15.678775   1.000000
   15      -15.566287   1.000000
   16      -15.524269   1.000000
   17      -15.378133   1.000000
   18      -15.274336   1.000000
   19       -9.806782   1.000000
   20       -9.463806   1.000000
   21       -9.192858   1.000000
   22       -9.014355   1.000000
   23       -8.845343   1.000000
   24       -8.759353   1.000000
   25       -8.611257   1.000000
   26       -8.571078   1.000000
   27       -8.427022   1.000000
   28       -8.357688   1.000000
   29       -8.215364   1.000000
   30       -8.129271   1.000000
   31       -8.077925   1.000000
   32       -8.039606   1.000000
   33       -7.914950   1.000000
   34       -7.875056   1.000000
   35       -7.821344   1.000000
   36       -7.716129   1.000000
   37       -7.518692   1.000000
   38       -7.450554   1.000000
   39       -7.346500   1.000000
   40       -7.299943   1.000000
   41       -7.085611   1.000000
   42       -7.013708   1.000000
   43       -6.979898   1.000000
   44       -6.953108   1.000000
   45       -6.881334   1.000000
   46       -6.731985   1.000000
   47       -6.624641   1.000000
   48       -6.607092   1.000000
   49       -6.567927   1.000000
   50       -6.471479   1.000000
   51       -6.433446   1.000000
   52       -6.384656   1.000000
   53       -6.300356   1.000000
   54       -6.220483   1.000000
   55       -6.145150   1.000000
   56       -6.062158   1.000000
   57       -5.999320   1.000000
   58       -5.984843   1.000000
   59       -5.933925   1.000000
   60       -5.845596   1.000000
   61       -5.782513   1.000000
   62       -5.706007   1.000000
   63       -5.486412   1.000000
   64       -5.358860   1.000000
   65       -5.251924   1.000000
   66       -5.112608   1.000000
   67       -5.051600   1.000000
   68       -4.930633   1.000000
   69       -4.758062   1.000000
   70       -4.631565   1.000000
   71       -4.481026   1.000000
   72       -4.416983   1.000000
   73       -4.338408   1.000000
   74       -4.242296   1.000000
   75       -4.196191   1.000000
   76       -4.112629   1.000000
   77       -3.886197   0.999929
   78       -3.759370   0.998171
   79       -3.628827   0.976329
   80       -3.391638   0.620212
   81       -2.863251   0.000302
   82       -2.791586   0.000041
   83       -2.706235   0.000003
   84       -2.591924   0.000000
   85       -2.535027   0.000000
   86       -2.428029   0.000000
   87       -2.332662   0.000000
   88       -2.257629   0.000000
   89       -2.112122   0.000000
   90       -2.018451   0.000000
   91       -1.683173   0.000000
   92       -1.469105   0.000000
   93       -1.375834   0.000000
   94       -1.309786   0.000000
   95       -1.261007   0.000000
   96       -1.146959   0.000000
   97       -1.116640   0.000000
   98       -0.957242   0.000000
   99       -0.919667   0.000000
  100       -0.853624   0.000000
  101       -0.844130   0.000000
  102       -0.745978   0.000000
  103       -0.654598   0.000000
  104       -0.556417   0.000000
  105       -0.495297   0.000000
  106       -0.271993   0.000000
  107       -0.234792   0.000000
  108       -0.109247   0.000000
  109        0.022552   0.000000
  110        0.206320   0.000000
  111        0.326933   0.000000
  112        0.534780   0.000000
  113        0.722275   0.000000
  114        0.882371   0.000000
  115        1.067117   0.000000
  116        1.274064   0.000000
  117        1.425972   0.000000
  118        2.205355   0.000000
  119        2.258691   0.000000
  120        2.378729   0.000000
 
  0.0000000E+00  0.1250000E+00  0.0000000E+00  0.3125000E-01
    1      -17.772030   1.000000
    2      -16.784402   1.000000
    3      -16.731543   1.000000
    4      -16.638404   1.000000
    5      -16.490029   1.000000
    6      -16.411232   1.000000
    7      -16.370966   1.000000
    8      -16.329462   1.000000
    9      -16.240362   1.000000
   10      -16.089136   1.000000
   11      -16.042039   1.000000
   12      -15.989941   1.000000
   13      -15.850642   1.000000
   14      -15.611356   1.000000
   15      -15.577624   1.000000
   16      -15.449754   1.000000
   17      -15.380577   1.000000
   18      -15.248241   1.000000
   19       -9.287535   1.000000
   20       -9.190212   1.000000
   21       -9.070840   1.000000
   22       -9.018046   1.000000
   23       -8.797594   1.000000
   24       -8.711174   1.000000
   25       -8.670248   1.000000
   26       -8.564922   1.000000
   27       -8.498291   1.000000
   28       -8.413759   1.000000
   29       -8.381311   1.000000
   30       -8.193203   1.000000
   31       -8.137228   1.000000
   32       -8.070099   1.000000
   33       -8.025422   1.000000
   34       -7.878904   1.000000
   35       -7.817316   1.000000
   36       -7.705440   1.000000
   37       -7.657966   1.000000
   38       -7.570581   1.000000
   39       -7.486666   1.000000
   40       -7.361114   1.000000
   41       -7.313905   1.000000
   42       -7.237560   1.000000
   43       -7.138196   1.000000
   44       -7.011548   1.000000
   45       -6.859328   1.000000
   46       -6.823287   1.000000
   47       -6.727612   1.000000
   48       -6.664269   1.000000
   49       -6.566536   1.000000
   50       -6.475951   1.000000
   51       -6.457226   1.000000
   52       -6.387268   1.000000
   53       -6.307336   1.000000
   54       -6.255086   1.000000
   55       -6.193694   1.000000
   56       -6.158291   1.000000
   57       -6.023256   1.000000
   58       -5.925428   1.000000
   59       -5.713853   1.000000
   60       -5.559324   1.000000
   61       -5.522604   1.000000
   62       -5.452154   1.000000
   63       -5.342427   1.000000
   64       -5.168147   1.000000
   65       -5.142445   1.000000
   66       -5.031827   1.000000
   67       -4.912735   1.000000
   68       -4.879338   1.000000
   69       -4.787810   1.000000
   70       -4.689278   1.000000
   71       -4.618116   1.000000
   72       -4.526284   1.000000
   73       -4.445143   1.000000
   74       -4.323800   1.000000
   75       -4.230513   1.000000
   76       -4.072168   1.000000
   77       -3.881860   0.999919
   78       -3.693772   0.992706
   79       -3.563426   0.935841
   80       -3.454978   0.774552
   81       -3.134219   0.064989
   82       -2.848819   0.000206
   83       -2.735989   0.000007
   84       -2.619344   0.000000
   85       -2.513949   0.000000
   86       -2.452552   0.000000
   87       -2.355782   0.000000
   88       -2.240581   0.000000
   89       -2.185572   0.000000
   90       -2.061981   0.000000
   91       -2.058636   0.000000
   92       -1.401588   0.000000
   93       -1.321867   0.000000
   94       -1.255631   0.000000
   95       -1.102303   0.000000
   96       -1.060907   0.000000
   97       -0.983429   0.000000
   98       -0.867378   0.000000
   99       -0.792195   0.000000
  100       -0.725239   0.000000
  101       -0.671055   0.000000
  102       -0.543536   0.000000
  103       -0.516526   0.000000
  104       -0.346305   0.000000
  105       -0.264242   0.000000
  106       -0.201254   0.000000
  107       -0.118868   0.000000
  108       -0.063778   0.000000
  109        0.119307   0.000000
  110        0.268911   0.000000
  111        0.300821   0.000000
  112        0.571241   0.000000
  113        0.737006   0.000000
  114        0.828196   0.000000
  115        0.917549   0.000000
  116        1.084867   0.000000
  117        1.146393   0.000000
  118        1.684094   0.000000
  119        1.875789   0.000000
  120        2.182410   0.000000
 
  0.1250000E+00  0.1250000E+00  0.0000000E+00  0.3125000E-01
    1      -17.720512   1.000000
    2      -16.928126   1.000000
    3      -16.744877   1.000000
    4      -16.691329   1.000000
    5      -16.492022   1.000000
    6      -16.403721   1.000000
    7      -16.365087   1.000000
    8      -16.271298   1.000000
    9      -16.235522   1.000000
   10      -16.087783   1.000000
   11      -15.993525   1.000000
   12      -15.942610   1.000000
   13      -15.800281   1.000000
   14      -15.625022   1.000000
   15      -15.589391   1.000000
   16      -15.445427   1.000000
   17      -15.377603   1.000000
   18      -15.273235   1.000000
   19       -9.419928   1.000000
   20       -9.317684   1.000000
   21       -9.157456   1.000000
   22       -9.002005   1.000000
   23       -8.895779   1.000000
   24       -8.685145   1.000000
   25       -8.668585   1.000000
   26       -8.502552   1.000000
   27       -8.448567   1.000000
   28       -8.382451   1.000000
   29       -8.322009   1.000000
   30       -8.223386   1.000000
   31       -8.147074   1.000000
   32       -8.111703   1.000000
   33       -7.910070   1.000000
   34       -7.805833   1.000000
   35       -7.739611   1.000000
   36       -7.693828   1.000000
   37       -7.597437   1.000000
   38       -7.474771   1.000000
   39       -7.420243   1.000000
   40       -7.356262   1.000000
   41       -7.288499   1.000000
   42       -7.242071   1.000000
   43       -7.148859   1.000000
   44       -7.046139   1.000000
   45       -6.894415   1.000000
   46       -6.851450   1.000000
   47       -6.772675   1.000000
   48       -6.654893   1.000000
   49       -6.614683   1.000000
   50       -6.486405   1.000000
   51       -6.423568   1.000000
   52       -6.325678   1.000000
   53       -6.269244   1.000000
   54       -6.223559   1.000000
   55       -6.183793   1.000000
   56       -6.118921   1.000000
   57       -5.969865   1.000000
   58       -5.929024   1.000000
   59       -5.745569   1.000000
   60       -5.666587   1.000000
   61       -5.520748   1.000000
   62       -5.458018   1.000000
   63       -5.428167   1.000000
   64       -5.344792   1.000000
   65       -5.156570   1.000000
   66       -5.111014   1.000000
   67       -4.953749   1.000000
   68       -4.899640   1.000000
   69       -4.779681   1.000000
   70       -4.651195   1.000000
   71       -4.585064   1.000000
   72       -4.439808   1.000000
   73       -4.307132   1.000000
   74       -4.283655   1.000000
   75       -4.183171   1.000000
   76       -4.047121   1.000000
   77       -3.965266   0.999994
   78       -3.879986   0.999915
   79       -3.596237   0.960180
   80       -3.400460   0.643719
   81       -3.019333   0.009994
   82       -2.856833   0.000255
   83       -2.717227   0.000004
   84       -2.652207   0.000000
   85       -2.505517   0.000000
   86       -2.428660   0.000000
   87       -2.363189   0.000000
   88       -2.236653   0.000000
   89       -2.123372   0.000000
   90       -2.103163   0.000000
   91       -1.989083   0.000000
   92       -1.405809   0.000000
   93       -1.326709   0.000000
   94       -1.183833   0.000000
   95       -1.108596   0.000000
   96       -1.070149   0.000000
   97       -0.964547   0.000000
   98       -0.920374   0.000000
   99       -0.861817   0.000000
  100       -0.792194   0.000000
  101       -0.724726   0.000000
  102       -0.606649   0.000000
  103       -0.557389   0.000000
  104       -0.487142   0.000000
  105       -0.335717   0.000000
  106       -0.199587   0.000000
  107       -0.151307   0.000000
  108       -0.096476   0.000000
  109        0.095241   0.000000
  110        0.266740   0.000000
  111        0.318567   0.000000
  112        0.530187   0.000000
  113        0.754284   0.000000
  114        0.828684   0.000000
  115        0.944868   0.000000
  116        1.132754   0.000000
  117        1.264945   0.000000
  118        1.771225   0.000000
  119        1.948099   0.000000
  120        2.253158   0.000000
 
  0.2500000E+00  0.1250000E+00  0.0000000E+00  0.3125000E-01
    1      -17.621021   1.000000
    2      -17.112300   1.000000
    3      -16.841021   1.000000
    4      -16.682069   1.000000
    5      -16.506502   1.000000
    6      -16.411442   1.000000
    7      -16.292780   1.000000
    8      -16.258341   1.000000
    9      -16.185830   1.000000
   10      -16.093008   1.000000
   11      -15.961144   1.000000
   12      -15.901330   1.000000
   13      -15.717139   1.000000
   14      -15.652463   1.000000
   15      -15.589887   1.000000
   16      -15.474061   1.000000
   17      -15.369485   1.000000
   18      -15.289109   1.000000
   19       -9.639272   1.000000
   20       -9.458488   1.000000
   21       -9.179477   1.000000
   22       -8.992776   1.000000
   23       -8.885408   1.000000
   24       -8.720553   1.000000
   25       -8.629842   1.000000
   26       -8.451099   1.000000
   27       -8.432047   1.000000
   28       -8.359888   1.000000
   29       -8.267201   1.000000
   30       -8.219830   1.000000
   31       -8.131928   1.000000
   32       -8.064214   1.000000
   33       -7.930893   1.000000
   34       -7.860939   1.000000
   35       -7.788351   1.000000
   36       -7.638546   1.000000
   37       -7.544469   1.000000
   38       -7.463330   1.000000
   39       -7.366915   1.000000
   40       -7.302157   1.000000
   41       -7.221281   1.000000
   42       -7.141981   1.000000
   43       -7.076717   1.000000
   44       -6.898641   1.000000
   45       -6.868191   1.000000
   46       -6.804987   1.000000
   47       -6.746791   1.000000