unknown system                          
           1
     8.859768    5.102607    0.000000
    -8.860048    5.103090    0.000000
     0.000000    0.000000   30.000000
   V    Mo   W    S 
   3   3   3  18
Direct configuration=     1
   0.33333334  0.66666669  0.00000000
   0.66666669  0.00000000  0.00000000
   1.00000000  0.33333334  0.00000000
   0.66666669  0.66666669  0.00000000
   0.66666669  0.33333334  0.00000000
   0.33333334  0.00000000  0.00000000
   0.00000000  0.00000000  0.00000000
   0.00000000  0.66666669  0.00000000
   0.33333334  0.33333334  0.00000000
   0.11068511  0.22244981  0.95539999
   0.22244981  0.11068511  0.04460000
   0.11068511  0.55578315  0.95539999
   0.22244981  0.44401845  0.04460000
   0.11068511  0.88911647  0.95539999
   0.22244981  0.77735180  0.04460000
   0.44401845  0.22244981  0.95539999
   0.55578315  0.11068511  0.04460000
   0.44401845  0.55578315  0.95539999
   0.55578315  0.44401845  0.04460000
   0.44401845  0.88911647  0.95539999
   0.55578315  0.77735180  0.04460000
   0.77735180  0.22244981  0.95539999
   0.88911647  0.11068511  0.04460000
   0.77735180  0.55578315  0.95539999
   0.88911647  0.44401845  0.04460000
   0.77735180  0.88911647  0.95539999
   0.88911647  0.77735180  0.04460000
unknown system                          
           1
     8.669755    4.996110    0.000000
    -8.670002    4.996536    0.000000
     0.000000    0.000000   30.000000
   V    Mo   W    S 
   3   3   3  18
Direct configuration=     2
   0.33463747  0.66789783  0.00004461
   0.66541847  0.00001852 -0.00002436
   0.99878394  0.33330918 -0.00001559
   0.66668506  0.66544226  0.00021424
   0.66535246  0.33312471 -0.00024566
   0.33471241  0.00127050 -0.00016986
  -0.00043051 -0.00133635  0.00021309
  -0.00119076  0.66631945 -0.00021780
   0.33612758  0.33368492  0.00026724
   0.10900500  0.22412570  0.95206109
   0.22156596  0.11159033  0.04925046
   0.11271414  0.55373030  0.95304911
   0.22036316  0.44606130  0.04690075
   0.11034356  0.88824682  0.95069534
   0.22361018  0.77483350  0.04793073
   0.44399519  0.22247180  0.95065048
   0.55791058  0.10860451  0.04800146
   0.44141897  0.55695957  0.95201300
   0.55433710  0.44397608  0.04930909
   0.44652395  0.88662349  0.95302629
   0.55324192  0.77981359  0.04693494
   0.77983612  0.21996381  0.95306710
   0.88707388  0.11275151  0.04694346
   0.77877849  0.55584625  0.95074400
   0.89167389  0.44289130  0.04796852
   0.77622263  0.89170578  0.95204363
   0.88950361  0.77828778  0.04934454
unknown system                          
           1
     8.489306    4.897833    0.000000
    -8.489032    4.897355    0.000000
     0.000000    0.000000   30.000000
   V    Mo   W    S 
   3   3   3  18
Direct configuration=     3
   0.33494264  0.66820372  0.00009554
   0.66507588  0.00005358 -0.00002724
   0.99847258  0.33334249 -0.00002345
   0.66696112  0.66486709  0.00018882
   0.66456944  0.33322573 -0.00026027
   0.33497583  0.00200565 -0.00014157
  -0.00045173 -0.00204490  0.00016728
  -0.00173054  0.66650628 -0.00022878
   0.33720667  0.33364403  0.00027441
   0.10912377  0.22404142  0.95221655
   0.22148055  0.11171450  0.04927536
   0.11261961  0.55383289  0.95313269
   0.22047436  0.44596638  0.04676571
   0.11010826  0.88814692  0.95068117
   0.22341014  0.77468017  0.04784311
   0.44386922  0.22262636  0.95050369
   0.55799069  0.10855983  0.04802908
   0.44125347  0.55674928  0.95204733
   0.55412391  0.44382589  0.04946759
   0.44658542  0.88659615  0.95302309
   0.55319748  0.77985448  0.04689017
   0.77984986  0.21991751  0.95310446
   0.88714400  0.11264534  0.04685882
   0.77900150  0.55596190  0.95064053
   0.89179919  0.44307610  0.04793154
   0.77641753  0.89185338  0.95212122
   0.88974361  0.77836229  0.04942309
unknown system                          
           1
     8.288143    4.770511    0.000000
    -8.286802    4.768185    0.000000
     0.000000    0.000000   30.000000
   V    Mo   W    S 
   3   3   3  18
Direct configuration=     4
   0.33577967  0.66906039  0.00026875
   0.66402318  0.00024374 -0.00002799
   0.99747101  0.33353327 -0.00004078
   0.66862084  0.66251447  0.00004291
   0.66118286  0.33398812 -0.00021222
   0.33542937  0.00513141  0.00001107
  -0.00025071 -0.00519445 -0.00006535
  -0.00402004  0.66782796 -0.00015517
   0.34126312  0.33302703  0.00018911
   0.10902356  0.22448246  0.95141426
   0.22145594  0.11184310  0.05099630
   0.11309895  0.55351504  0.95211152
   0.22017807  0.44630567  0.04756243
   0.11008996  0.88814968  0.94897904
   0.22371320  0.77417326  0.04889803
   0.44378832  0.22281892  0.94826791
   0.55874946  0.10815234  0.04954536
   0.44070544  0.55709611  0.95075724
   0.55431208  0.44373258  0.05174138
   0.44714808  0.88616704  0.95169993
   0.55283967  0.78036735  0.04800142
   0.78015973  0.21938461  0.95194198
   0.88662000  0.11292836  0.04786487
   0.77898799  0.55589383  0.94861067
   0.89209452  0.44260559  0.04919917
   0.77591112  0.89228708  0.95099066
   0.88983903  0.77817949  0.05140739
unknown system                          
           1
     8.313134    4.771417    0.000000
    -8.311297    4.768236    0.000000
     0.000000    0.000000   30.000000
   V    Mo   W    S 
   3   3   3  18
Direct configuration=     5
   0.33655099  0.66985857  0.00048815
   0.66241560  0.00120753 -0.00002878
   0.99566731  0.33449513 -0.00007140
   0.67258251  0.65800277 -0.00011497
   0.65451424  0.33544295 -0.00006329
   0.33626293  0.01167411  0.00018657
  -0.00016346 -0.01200250 -0.00034113
  -0.00873119  0.67045776  0.00002144
   0.34905806  0.33191842  0.00001065
   0.10968212  0.22479566  0.95076554
   0.22150306  0.11236499  0.05330801
   0.11346853  0.55362910  0.95074466
   0.22046396  0.44634175  0.04857355
   0.11100841  0.88793096  0.94655663
   0.22391533  0.77438647  0.05005867
   0.44419697  0.22279175  0.94493599
   0.55938814  0.10835438  0.05156344
   0.44086205  0.55732119  0.94921616
   0.55492655  0.44397269  0.05503932
   0.44749358  0.88630119  0.94989307
   0.55323053  0.78061149  0.04947713
   0.77958420  0.21905934  0.95029762
   0.88597819  0.11265729  0.04912214
   0.77870376  0.55495022  0.94567950
   0.89142277  0.44211512  0.05070686
   0.77497214  0.89187447  0.94963974
   0.88925719  0.77770166  0.05433462
unknown system                          
           1
     8.303696    4.763165    0.000000
    -8.302634    4.761335    0.000000
     0.000000    0.000000   30.000000
   V    Mo   W    S 
   3   3   3  18
Direct configuration=     6
   0.33638275  0.66949656  0.00055597
   0.66200698  0.00194069 -0.00002919
   0.99511096  0.33542042 -0.00013199
   0.67365262  0.65803409  0.00002802
   0.65419946  0.33506422 -0.00018075
   0.33642830  0.01269251  0.00004115
  -0.00040079 -0.01383275 -0.00025094
  -0.00958397  0.67067814 -0.00013527
   0.34990280  0.33201190  0.00008117
   0.11036597  0.22436093  0.95118437
   0.22137890  0.11276507  0.05334994
   0.11315462  0.55416422  0.95083277
   0.22104388  0.44581479  0.04838710
   0.11160496  0.88771260  0.94641678
   0.22358673  0.77519127  0.04981376
   0.44442602  0.22267412  0.94464359
   0.55900860  0.10902370  0.05156273
   0.44166208  0.55703566  0.94933242
   0.55513741  0.44436641  0.05528749
   0.44719461  0.88678405  0.95000361
   0.55386040  0.78028661  0.04928041
   0.77888175  0.21937691  0.95033721
   0.88617140  0.11212237  0.04890335
   0.77865769  0.55416351  0.94550890
   0.89058960  0.44236884  0.05066664
   0.77493421  0.89097674  0.94981726
   0.88885653  0.77752089  0.05469340
unknown system                          
           1
     8.313774    4.765616    0.000000
    -8.313029    4.764339    0.000000
     0.000000    0.000000   30.000000
   V    Mo   W    S 
   3   3   3  18
Direct configuration=     7
   0.33641372  0.66896649  0.00070283
   0.66121822  0.00302833  0.00001542
   0.99406884  0.33692778 -0.00017538
   0.67550430  0.65732721  0.00006184
   0.65284603  0.33488523 -0.00015069
   0.33685971  0.01498266 -0.00000018
  -0.00076204 -0.01717020 -0.00024020
  -0.01147232  0.67119428 -0.00014762
   0.35237798  0.33212530  0.00003210
   0.11080365  0.22392147  0.95166743
   0.22125144  0.11300773  0.05358603
   0.11295962  0.55463810  0.95075006
   0.22143487  0.44533503  0.04827832
   0.11211117  0.88755340  0.94602627
   0.22333631  0.77582236  0.04958888
   0.44455091  0.22277960  0.94404990
   0.55870028  0.10948555  0.05176365
   0.44244248  0.55695258  0.94932013
   0.55553754  0.44454855  0.05579272
   0.44696130  0.88714666  0.94993963
   0.55443405  0.78009752  0.04919178
   0.77831508  0.21954757  0.95013939
   0.88634927  0.11168964  0.04871592
   0.77849016  0.55347717  0.94504614
   0.88994341  0.44253657  0.05078976
   0.77484750  0.89025772  0.94990240
   0.88869099  0.77715015  0.05535337
unknown system                          
           1
     8.321779    4.765228    0.000000
    -8.321863    4.765399    0.000000
     0.000000    0.000000   30.000000
   V    Mo   W    S 
   3   3   3  18
Direct configuration=     8
   0.33652168  0.66859557  0.00078455
   0.66083742  0.00353028  0.00002025
   0.99357559  0.33771662 -0.00022401
   0.67599144  0.65731348  0.00010074
   0.65279903  0.33461086 -0.00018966
   0.33709615  0.01558175 -0.00004517
  -0.00095311 -0.01819909 -0.00020891
  -0.01198962  0.67109264 -0.00020146
   0.35296975  0.33237125  0.00004067
   0.11083899  0.22370933  0.95196589
   0.22116861  0.11308931  0.05354297
   0.11288117  0.55478703  0.95078943
   0.22148016  0.44513366  0.04816274
   0.11226050  0.88744110  0.94600137
   0.22323542  0.77601583  0.04940306
   0.44462046  0.22283562  0.94397605
   0.55853034  0.10959576  0.05177650
   0.44274340  0.55695077  0.94937262
   0.55567257  0.44462024  0.05583721
   0.44686750  0.88723525  0.95002220
   0.55461839  0.78006105  0.04906678
   0.77819270  0.21957399  0.95013052
   0.88648003  0.11159833  0.04853414
   0.77845339  0.55323012  0.94500405
   0.88979491  0.44264231  0.05081780
   0.77487430  0.89005879  0.95002027
   0.88865329  0.77702260  0.05549927
unknown system                          
           1
     8.323150    4.765301    0.000000
    -8.323491    4.765921    0.000000
     0.000000    0.000000   30.000000
   V    Mo   W    S 
   3   3   3  18
Direct configuration=     9
   0.33686130  0.66783726  0.00096000
   0.65997830  0.00456502  0.00003495
   0.99248886  0.33935448 -0.00031261
   0.67705447  0.65703012  0.00014982
   0.65238178  0.33412673 -0.00021933
   0.33765942  0.01710630 -0.00010351
  -0.00131841 -0.02051499 -0.00016395
  -0.01327878  0.67097494 -0.00025837
   0.35452947  0.33282646  0.00002679
   0.11092738  0.22334587  0.95252665
   0.22105455  0.11325157  0.05354044
   0.11277462  0.55509963  0.95079329
   0.22156623  0.44474139  0.04799029
   0.11258967  0.88723897  0.94586577
   0.22308629  0.77639158  0.04907173
   0.44473804  0.22295827  0.94371125
   0.55821546  0.10978576  0.05187890
   0.44332353  0.55697311  0.94940452
   0.55598469  0.44472921  0.05604068
   0.44668531  0.88740754  0.95010571
   0.55501629  0.78001821  0.04889588
   0.77791732  0.21958864  0.95001735
   0.88669564  0.11141554  0.04822718
   0.77833469  0.55275459  0.94480439
   0.88950287  0.44282313  0.05094168
   0.77486383  0.88966759  0.95020019
   0.88858165  0.77671756  0.05587024
unknown system                          
           1
     8.311109    4.760999    0.000000
    -8.310029    4.759139    0.000000
     0.000000    0.000000   30.000000
   V    Mo   W    S 
   3   3   3  18
Direct configuration=    10
   0.33699533  0.66760242  0.00100801
   0.65975712  0.00483410  0.00003624
   0.99219937  0.33977439 -0.00033715
   0.67725580  0.65696467  0.00015870
   0.65236461  0.33400403 -0.00022324
   0.33781687  0.01744678 -0.00011603
  -0.00140448 -0.02101314 -0.00015047
  -0.01358817  0.67088432 -0.00026738
   0.35486940  0.33298079  0.00002060
   0.11091326  0.22327046  0.95267422
   0.22103105  0.11328046  0.05352402
   0.11275889  0.55517022  0.95079717
   0.22155555  0.44464432  0.04794743
   0.11265054  0.88718623  0.94585097
   0.22305998  0.77645359  0.04897742
   0.44476414  0.22300064  0.94366803
   0.55814323  0.10981135  0.05190167
   0.44344337  0.55698757  0.94940860
   0.55605929  0.44473708  0.05606982
   0.44664047  0.88743227  0.95013278
   0.55511026  0.78002635  0.04885433
   0.77786554  0.21958053  0.94998711
   0.88675194  0.11139095  0.04814095
   0.77829938  0.55265514  0.94477080
   0.88945946  0.44286544  0.05097548
   0.77486342  0.88960283  0.95025150
   0.88857886  0.77664068  0.05593832
unknown system                          
           1
     8.331695    4.766572    0.000000
    -8.333331    4.769453    0.000000
     0.000000    0.000000   30.000000
   V    Mo   W    S 
   3   3   3  18
Direct configuration=    11
   0.33642768  0.66837059  0.00088002
   0.66027550  0.00428007  0.00005761
   0.99282162  0.33880047 -0.00025760
   0.67728527  0.65718024  0.00014633
   0.65224240  0.33432422 -0.00020938
   0.33741702  0.01675767 -0.00009525
  -0.00132809 -0.02037339 -0.00018554
  -0.01300856  0.67138484 -0.00024893
   0.35430541  0.33252181  0.00003658
   0.11103251  0.22336924  0.95230328
   0.22102755  0.11318976  0.05359116
   0.11281740  0.55501864  0.95077660
   0.22169778  0.44489398  0.04803524
   0.11253530  0.88735894  0.94584006
   0.22306822  0.77637322  0.04925916
   0.44465940  0.22287113  0.94372080
   0.55833428  0.10977033  0.05182597
   0.44317640  0.55690667  0.94945111
   0.55587367  0.44476698  0.05602485
   0.44679008  0.88739660  0.95005041
   0.55486689  0.77996217  0.04892771
   0.77795107  0.21957393  0.95008613
   0.88660479  0.11136859  0.04836597
   0.77837845  0.55284178  0.94483144
   0.88950353  0.44276455  0.05084640
   0.77486628  0.88969392  0.95011213
   0.88859262  0.77684750  0.05582763
unknown system                          
           1
     8.336055    4.767094    0.000000
    -8.338604    4.771571    0.000000
     0.000000    0.000000   30.000000
   V    Mo   W    S 
   3   3   3  18
Direct configuration=    12
   0.33767022  0.66646980  0.00123268
   0.65875183  0.00606566  0.00003368
   0.99087717  0.34167796 -0.00045715
   0.67808074  0.65663379  0.00020028
   0.65235471  0.33346366 -0.00024851
   0.33853302  0.01898137 -0.00017631
  -0.00176199 -0.02316658 -0.00008608
  -0.01498833  0.67040000 -0.00031360
   0.35637461  0.33371853 -0.00000565
   0.11082313  0.22294712  0.95334716
   0.22092688  0.11342218  0.05346593
   0.11268150  0.55549031  0.95080746
   0.22147340  0.44418852  0.04776600
   0.11292451  0.88692359  0.94577257
   0.22294680  0.77671423  0.04854503
   0.44490819  0.22320356  0.94345158
   0.55782358  0.10993584  0.05203440
   0.44398181  0.55706296  0.94939516
   0.55640396  0.44476696  0.05622815
   0.44642849  0.88753778  0.95024298
   0.55555123  0.78007991  0.04868653
   0.77763047  0.21955348  0.94982930
   0.88701132  0.11129732  0.04775271
   0.77813586  0.55218821  0.94459606
   0.88926252  0.44305150  0.05115713
   0.77485450  0.88932099  0.95047571
   0.88855431  0.77628579  0.05626670
unknown system                          
           1
     8.330685    4.764763    0.000000
    -8.332721    4.768342    0.000000
     0.000000    0.000000   30.000000
   V    Mo   W    S 
   3   3   3  18
Direct configuration=    13
   0.33820619  0.66572572  0.00137459
   0.65811570  0.00686470  0.00002177
   0.99007056  0.34271099 -0.00053857
   0.67849250  0.65639885  0.00022502
   0.65248407  0.33317437 -0.00026261
   0.33901953  0.01985415 -0.00021199
  -0.00195201 -0.02428748 -0.00003912
  -0.01586148  0.66999347 -0.00033987
   0.35721062  0.33423510 -0.00002429
   0.11071207  0.22278522  0.95374099
   0.22088111  0.11349484  0.05342309
   0.11268245  0.55569905  0.95080874
   0.22135403  0.44390721  0.04768186
   0.11306022  0.88675375  0.94574047
   0.22291133  0.77682799  0.04827515
   0.44501151  0.22334737  0.94334139
   0.55764802  0.10998000  0.05212299
   0.44426759  0.55712348  0.94936491
   0.55660754  0.44476630  0.05630741
   0.44630140  0.88756362  0.95030646
   0.55583498  0.78016793  0.04860579
   0.77748593  0.21951025  0.94972011
   0.88713987  0.11126340  0.04751948
   0.77801941  0.55191774  0.94449226
   0.88915832  0.44317361  0.05128612
   0.77481825  0.88920216  0.95060795
   0.88853477  0.77606066  0.05644981
unknown system                          
           1
     8.330658    4.764705    0.000000
    -8.332720    4.768329    0.000000
     0.000000    0.000000   30.000000
   V    Mo   W    S 
   3   3   3  18
Direct configuration=    14
   0.33784625  0.66611981  0.00130091
   0.65842118  0.00644280  0.00004237
   0.99040367  0.34240245 -0.00049636
   0.67838650  0.65654904  0.00021463
   0.65231635  0.33322905 -0.00026012
   0.33876886  0.01948700 -0.00019657
  -0.00189538 -0.02392157 -0.00006303
  -0.01542445  0.67029692 -0.00033354
   0.35689234  0.33394260 -0.00001336
   0.11080919  0.22284290  0.95355515
   0.22087762  0.11345269  0.05344454
   0.11266475  0.55558303  0.95080085
   0.22147743  0.44406205  0.04770108
   0.11301495  0.88685541  0.94574574
   0.22290638  0.77680130  0.04843534
   0.44493512  0.22324954  0.94339112
   0.55773817  0.10995539  0.05206418
   0.44412362  0.55707146  0.94939866
   0.55650820  0.44477752  0.05626769
   0.44637654  0.88756539  0.95027687
   0.55565131  0.78006781  0.04862962
   0.77757737  0.21952922  0.94979105
   0.88711180  0.11126740  0.04763632
   0.77809553  0.55205931  0.94456249
   0.88920762  0.44310440  0.05121355
   0.77486961  0.88923436  0.95053246
   0.88855394  0.77618718  0.05635826
unknown system                          
           1
     8.333463    4.767883    0.000000
    -8.335330    4.771163    0.000000
     0.000000    0.000000   30.000000
   V    Mo   W    S 
   3   3   3  18
Direct configuration=    15
   0.33787308  0.66609193  0.00130565
   0.65840113  0.00646893  0.00004089
   0.99038148  0.34242463 -0.00049918
   0.67839161  0.65653851  0.00021524
   0.65232456  0.33322461 -0.00026024
   0.33878633  0.01951454 -0.00019748
  -0.00189895 -0.02394906 -0.00006150
  -0.01545589  0.67027799 -0.00033383
   0.35691501  0.33396126 -0.00001385
   0.11080459  0.22284005  0.95356671
   0.22087869  0.11345553  0.05344195
   0.11266552  0.55558879  0.95080248
   0.22147091  0.44405348  0.04769932
   0.11301615  0.88684959  0.94574735
   0.22290665  0.77680223  0.04842433
   0.44493865  0.22325560  0.94339004
   0.55773268  0.10995681  0.05206644
   0.44413123  0.55707353  0.94939686
   0.55651278  0.44477593  0.05626849
   0.44637185  0.88756540  0.95027978
   0.55566223  0.78007392  0.04862756
   0.77757223  0.21952815  0.94978765
   0.88711280  0.11126721  0.04762880
   0.77809161  0.55205300  0.94456011
   0.88920604  0.44310825  0.05121704
   0.77486746  0.88923270  0.95053817
   0.88855403  0.77618097  0.05636114
unknown system                          
           1
     8.336197    4.765023    0.000000
    -8.340433    4.772440    0.000000
     0.000000    0.000000   30.000000
   V    Mo   W    S 
   3   3   3  18
Direct configuration=    16
   0.33542107  0.66685434  0.00099189
   0.65961767  0.00525722  0.00023281
   0.99106239  0.34338860 -0.00032630
   0.67854186  0.65695098  0.00020423
   0.65231275  0.33348221 -0.00030757
   0.33747406  0.01878190 -0.00025783
  -0.00149261 -0.02347172 -0.00008071
  -0.01428857  0.67043685 -0.00033540
   0.35651716  0.33299319 -0.00003549
   0.11081695  0.22276066  0.95326374
   0.22083980  0.11338217  0.05350980
   0.11254816  0.55554564  0.95070527
   0.22180662  0.44433392  0.04766676
   0.11316073  0.88706574  0.94569686
   0.22279942  0.77696961  0.04899184
   0.44488585  0.22294368  0.94346201
   0.55791778  0.11023132  0.05195815
   0.44407619  0.55711708  0.94961300
   0.55665393  0.44484256  0.05618346
   0.44616889  0.88723217  0.95011784
   0.55506241  0.77952897  0.04862302
   0.77800769  0.21995469  0.95002988
   0.88737807  0.11132599  0.04788164
   0.77829239  0.55201266  0.94478908
   0.88912976  0.44301889  0.05096134
   0.77497515  0.88909070  0.95022987
   0.88852886  0.77618444  0.05623070
unknown system                          
           1
     8.341536    4.767636    0.000000
    -8.345891    4.775259    0.000000
     0.000000    0.000000   30.000000
   V    Mo   W    S 
   3   3   3  18
Direct configuration=    17
   0.33622234  0.66611749  0.00133139
   0.65844432  0.00636039  0.00018958
   0.98986242  0.34458131 -0.00051286
   0.67929410  0.65668473  0.00023905
   0.65221746  0.33285779 -0.00029307
   0.33856042  0.01985519 -0.00022055
  -0.00204390 -0.02503279 -0.00005988
  -0.01516521  0.67021773 -0.00034003
   0.35760570  0.33389564 -0.00004200
   0.11056979  0.22261547  0.95405608
   0.22079470  0.11353347  0.05342787
   0.11250892  0.55583794  0.95058655
   0.22148911  0.44380912  0.04746737
   0.11319594  0.88661210  0.94565904
   0.22290614  0.77725642  0.04845085
   0.44518412  0.22323240  0.94322921
   0.55744571  0.11003997  0.05201511
   0.44452737  0.55712100  0.94959756
   0.55690571  0.44477190  0.05628513
   0.44621493  0.88751142  0.95034923
   0.55540427  0.77960534  0.04839344
   0.77774788  0.21967441  0.94983368
   0.88768223  0.11137550  0.04737470
   0.77810082  0.55168971  0.94452632
   0.88885096  0.44327033  0.05137297
   0.77511516  0.88893729  0.95056590
   0.88857302  0.77578319  0.05651728
unknown system                          
           1
     8.347610    4.769195    0.000000
    -8.353226    4.779021    0.000000
     0.000000    0.000000   30.000000
   V    Mo   W    S 
   3   3   3  18
Direct configuration=    18
   0.33680572  0.66545311  0.00145574
   0.65786052  0.00708093  0.00014633
   0.98917189  0.34524861 -0.00058326
   0.67952208  0.65635243  0.00024879
   0.65239024  0.33267760 -0.00030789
   0.33910679  0.02059115 -0.00027862
  -0.00220806 -0.02585108  0.00000408
  -0.01595838  0.66974472 -0.00036646
   0.35831169  0.33444046 -0.00007082
   0.11041631  0.22257930  0.95439886
   0.22080568  0.11359959  0.05338104
   0.11253845  0.55600577  0.95057730
   0.22126487  0.44354718  0.04741327
   0.11326930  0.88645152  0.94566586
   0.22294951  0.77734108  0.04820021
   0.44524548  0.22336237  0.94318257
   0.55731128  0.11000989  0.05212027
   0.44473406  0.55718958  0.94955226
   0.55703748  0.44472777  0.05633933
   0.44614570  0.88755635  0.95041993
   0.55570152  0.77972928  0.04834026
   0.77757070  0.21956361  0.94970884
   0.88776625  0.11141032  0.04715395
   0.77800999  0.55152410  0.94445691
   0.88880072  0.44337623  0.05151034
   0.77503089  0.88886865  0.95069168
   0.88861377  0.77563393  0.05663914
unknown system                          
           1
     8.349353    4.769900    0.000000
    -8.355220    4.780165    0.000000
     0.000000    0.000000   30.000000
   V    Mo   W    S 
   3   3   3  18
Direct configuration=    19
   0.33815837  0.66398851  0.00173203
   0.65665693  0.00856404  0.00005592
   0.98782942  0.34651308 -0.00074006
   0.67984640  0.65570146  0.00028921
   0.65277819  0.33229464 -0.00030869
   0.34020465  0.02208662 -0.00033441
  -0.00245725 -0.02737364  0.00010273
  -0.01758196  0.66870983 -0.00039213
   0.35963079  0.33558055 -0.00010335
   0.11011874  0.22249784  0.95509960
   0.22088650  0.11375733  0.05324460
   0.11259249  0.55635786  0.95059408
   0.22080473  0.44302509  0.04730376
   0.11337384  0.88612090  0.94572272
   0.22302835  0.77748371  0.04762597
   0.44542098  0.22368503  0.94307955
   0.55702061  0.10998406  0.05229656
   0.44516963  0.55733097  0.94944086
   0.55730463  0.44462258  0.05642119
   0.44596062  0.88761738  0.95056739
   0.55632297  0.78001459  0.04822164
   0.77720946  0.21939018  0.94946925
   0.88788752  0.11146240  0.04670212
   0.77781321  0.55116185  0.94430773
   0.88868817  0.44361470  0.05176470
   0.77489461  0.88875096  0.95098765
   0.88865185  0.77527194  0.05684926
unknown system                          
           1
     8.341842    4.765913    0.000000
    -8.346253    4.773630    0.000000
     0.000000    0.000000   30.000000
   V    Mo   W    S 
   3   3   3  18
Direct configuration=    20
   0.33844889  0.66367423  0.00177675
   0.65649106  0.00881915  0.00003392
   0.98761924  0.34670133 -0.00077051
   0.67983240  0.65557981  0.00029435
   0.65290118  0.33227962 -0.00030846
   0.34037336  0.02234072 -0.00034358
  -0.00247738 -0.02756977  0.00011849
  -0.01787753  0.66846106 -0.00039176
   0.35981861  0.33578399 -0.00011044
   0.11006125  0.22249457  0.95520871
   0.22090990  0.11379352  0.05322582
   0.11260447  0.55641013  0.95060901
   0.22071078  0.44293378  0.04729537
   0.11339189  0.88606529  0.94573781
   0.22304742  0.77748579  0.04751472
   0.44545885  0.22375393  0.94306360
   0.55697421  0.11000119  0.05233179
   0.44523887  0.55736246  0.94941005
   0.55735288  0.44460399  0.05643885
   0.44590064  0.88760396  0.95059045
   0.55644166  0.78008359  0.04821185
   0.77715657  0.21938794  0.94942855
   0.88789122  0.11147810  0.04663089
   0.77776583  0.55109148  0.94428025
   0.88867172  0.44364669  0.05180270
   0.77486004  0.88874179  0.95103969
   0.88864645  0.77520610  0.05688102
unknown system                          
           1
     8.341844    4.765952    0.000000
    -8.346244    4.773650    0.000000
     0.000000    0.000000   30.000000
   V    Mo   W    S 
   3   3   3  18
Direct configuration=    21
   0.33675248  0.66480951  0.00163613
   0.65708401  0.00776400  0.00014862
   0.98829381  0.34663917 -0.00065104
   0.68008569  0.65607715  0.00025875
   0.65260222  0.33229931 -0.00032985
   0.33956789  0.02119748 -0.00035087
  -0.00252638 -0.02707147  0.00006021
  -0.01659612  0.66941371 -0.00042314
   0.35937425  0.33536073 -0.00011061
   0.11019519  0.22247537  0.95491054
   0.22074894  0.11354991  0.05330561
   0.11263052  0.55621524  0.95050324
   0.22109105  0.44338607  0.04723514
   0.11343798  0.88635278  0.94560462
   0.22303223  0.77752427  0.04801979
   0.44523291  0.22341521  0.94305730
   0.55708593  0.10992050  0.05232985
   0.44498580  0.55729662  0.94959233
   0.55720777  0.44466295  0.05643762
   0.44607953  0.88753757  0.95045508
   0.55576234  0.77960039  0.04818346
   0.77747127  0.21940035  0.94953470
   0.88810186  0.11148445  0.04685589
   0.77794466  0.55122611  0.94433494
   0.88876667  0.44352821  0.05170792
   0.77505111  0.88865282  0.95081020
   0.88875084  0.77549602  0.05688348
unknown system                          
           1
     8.347962    4.767657    0.000000
    -8.354807    4.779633    0.000000
     0.000000    0.000000   30.000000
   V    Mo   W    S 
   3   3   3  18
Direct configuration=    22
   0.33672378  0.66483012  0.00163378
   0.65709115  0.00774981  0.00015068
   0.98830211  0.34663710 -0.00064931
   0.68009090  0.65608354  0.00025882
   0.65259691  0.33229708 -0.00032992
   0.33955879  0.02117984 -0.00035059
  -0.00252739 -0.02706457  0.00005966
  -0.01657553  0.66942809 -0.00042341
   0.35936823  0.33535362 -0.00011060
   0.11019675  0.22247583  0.95490647
   0.22074767  0.11354687  0.05330652
   0.11263065  0.55621337  0.95050084
   0.22109523  0.44339123  0.04723454
   0.11343831  0.88635639  0.94560240
   0.22303165  0.77752554  0.04802780
   0.44523013  0.22341046  0.94305750
   0.55708764  0.10991823  0.05232894
   0.44498350  0.55729695  0.94959497
   0.55720661  0.44466380  0.05643729
   0.44608355  0.88753749  0.95045315
   0.55575313  0.77959350  0.04818273
   0.77747536  0.21939954  0.94953645
   0.88810485  0.11148514  0.04685887
   0.77794783  0.55122813  0.94433585
   0.88876751  0.44352717  0.05170685
   0.77505286  0.88865134  0.95080649
   0.88875227  0.77549884  0.05688312
unknown system                          
           1
     8.354681    4.768704    0.000000
    -8.362373    4.782157    0.000000
     0.000000    0.000000   30.000000
   V    Mo   W    S 
   3   3   3  18
Direct configuration=    23
   0.33787471  0.66362528  0.00184156
   0.65611533  0.00927305  0.00006261
   0.98703066  0.34737194 -0.00081249
   0.68042992  0.65542158  0.00033243
   0.65289371  0.33198226 -0.00030426
   0.34057332  0.02255311 -0.00035698
  -0.00263689 -0.02830661  0.00014393
  -0.01795473  0.66847321 -0.00041012
   0.36046909  0.33613718 -0.00014304
   0.10988258  0.22242681  0.95555596
   0.22095604  0.11383095  0.05314525
   0.11261040  0.55656746  0.95051752
   0.22049948  0.44269203  0.04721242
   0.11344126  0.88596585  0.94571131
   0.22304172  0.77765867  0.04747753
   0.44549109  0.22383746  0.94301116
   0.55684189  0.10990882  0.05240889
   0.44548903  0.55752461  0.94942324
   0.55751384  0.44452669  0.05648137
   0.44594639  0.88765240  0.95060282
   0.55659155  0.78002187  0.04810352
   0.77704688  0.21925381  0.94932722
   0.88810876  0.11152004  0.04641749
   0.77774159  0.55087389  0.94420785
   0.88861247  0.44377068  0.05193514
   0.77487299  0.88860945  0.95111946
   0.88873136  0.77504200  0.05698813
unknown system                          
           1
     8.364264    4.776104    0.000000
    -8.372187    4.789965    0.000000
     0.000000    0.000000   30.000000
   V    Mo   W    S 
   3   3   3  18
Direct configuration=    24
   0.33953488  0.66193817  0.00210512
   0.65516629  0.01079258 -0.00008709
   0.98584052  0.34811660 -0.00097643
   0.68038003  0.65465871  0.00034263
   0.65348720  0.33192882 -0.00030564
   0.34155486  0.02401230 -0.00042770
  -0.00269827 -0.02939508  0.00022569
  -0.01962297  0.66710308 -0.00042430
   0.36146836  0.33724814 -0.00017810
   0.10958514  0.22239514  0.95618479
   0.22113018  0.11412687  0.05302869
   0.11262667  0.55686935  0.95060050
   0.21995253  0.44211877  0.04716827
   0.11350405  0.88559583  0.94583892
   0.22314109  0.77772516  0.04684245
   0.44575227  0.22425052  0.94293508
   0.55659050  0.11001563  0.05258853
   0.44594631  0.55768539  0.94926402
   0.55778560  0.44439321  0.05656582
   0.44565345  0.88768275  0.95075092