   27   27  100    1
  0.9710400E+02  0.1002848E-08  0.1002848E-08  0.3000000E-08  0.5000000E-15
  1.000000000000000E-004
  CAR 
 unknown system                          
    159     34    120
 
  0.0000000E+00  0.0000000E+00  0.0000000E+00  0.1562500E-01
    1      -17.805947   1.000000
    2      -16.745522   1.000000
    3      -16.620636   1.000000
    4      -16.608304   1.000000
    5      -16.528518   1.000000
    6      -16.474764   1.000000
    7      -16.373639   1.000000
    8      -16.318970   1.000000
    9      -16.200511   1.000000
   10      -16.099855   1.000000
   11      -16.048358   1.000000
   12      -16.030678   1.000000
   13      -15.857457   1.000000
   14      -15.721726   1.000000
   15      -15.566624   1.000000
   16      -15.486876   1.000000
   17      -15.433411   1.000000
   18      -15.200747   1.000000
   19       -9.238603   1.000000
   20       -8.990509   1.000000
   21       -8.935635   1.000000
   22       -8.861361   1.000000
   23       -8.740753   1.000000
   24       -8.680918   1.000000
   25       -8.632102   1.000000
   26       -8.611247   1.000000
   27       -8.575627   1.000000
   28       -8.410054   1.000000
   29       -8.353644   1.000000
   30       -8.299133   1.000000
   31       -8.283919   1.000000
   32       -8.221350   1.000000
   33       -8.133760   1.000000
   34       -8.027672   1.000000
   35       -7.869467   1.000000
   36       -7.817083   1.000000
   37       -7.712790   1.000000
   38       -7.548319   1.000000
   39       -7.424006   1.000000
   40       -7.420130   1.000000
   41       -7.354456   1.000000
   42       -7.247376   1.000000
   43       -7.114922   1.000000
   44       -6.955268   1.000000
   45       -6.861252   1.000000
   46       -6.806746   1.000000
   47       -6.711759   1.000000
   48       -6.687619   1.000000
   49       -6.589761   1.000000
   50       -6.511067   1.000000
   51       -6.456484   1.000000
   52       -6.393084   1.000000
   53       -6.327416   1.000000
   54       -6.276971   1.000000
   55       -6.166490   1.000000
   56       -6.051510   1.000000
   57       -5.996442   1.000000
   58       -5.875871   1.000000
   59       -5.755041   1.000000
   60       -5.582318   1.000000
   61       -5.518649   1.000000
   62       -5.485613   1.000000
   63       -5.248930   1.000000
   64       -5.106593   1.000000
   65       -5.035409   1.000000
   66       -5.008181   1.000000
   67       -4.939097   1.000000
   68       -4.854899   1.000000
   69       -4.762910   1.000000
   70       -4.737661   1.000000
   71       -4.617299   1.000000
   72       -4.568854   1.000000
   73       -4.497369   1.000000
   74       -4.218742   1.000000
   75       -4.111028   1.000000
   76       -4.074873   1.000000
   77       -3.777006   0.998228
   78       -3.572162   0.928913
   79       -3.514423   0.855307
   80       -3.425712   0.667199
   81       -3.318595   0.372500
   82       -2.814310   0.000050
   83       -2.682765   0.000001
   84       -2.644594   0.000000
   85       -2.494657   0.000000
   86       -2.429696   0.000000
   87       -2.267523   0.000000
   88       -2.182783   0.000000
   89       -2.081050   0.000000
   90       -1.933656   0.000000
   91       -1.799927   0.000000
   92       -1.453205   0.000000
   93       -1.357548   0.000000
   94       -1.278069   0.000000
   95       -1.136458   0.000000
   96       -1.041011   0.000000
   97       -0.971225   0.000000
   98       -0.953137   0.000000
   99       -0.867672   0.000000
  100       -0.736365   0.000000
  101       -0.697417   0.000000
  102       -0.556650   0.000000
  103       -0.459804   0.000000
  104       -0.340830   0.000000
  105       -0.188574   0.000000
  106       -0.131286   0.000000
  107       -0.079619   0.000000
  108       -0.036602   0.000000
  109        0.139817   0.000000
  110        0.238640   0.000000
  111        0.318782   0.000000
  112        0.402578   0.000000
  113        0.449410   0.000000
  114        0.779640   0.000000
  115        1.027160   0.000000
  116        1.146164   0.000000
  117        1.388523   0.000000
  118        1.638079   0.000000
  119        1.831314   0.000000
  120        2.145248   0.000000
 
  0.1250000E+00  0.2775558E-16  0.0000000E+00  0.3125000E-01
    1      -17.780833   1.000000
    2      -16.806281   1.000000
    3      -16.695428   1.000000
    4      -16.649440   1.000000
    5      -16.520405   1.000000
    6      -16.397172   1.000000
    7      -16.378803   1.000000
    8      -16.295248   1.000000
    9      -16.208247   1.000000
   10      -16.096009   1.000000
   11      -16.047418   1.000000
   12      -15.944555   1.000000
   13      -15.844523   1.000000
   14      -15.735161   1.000000
   15      -15.580805   1.000000
   16      -15.487828   1.000000
   17      -15.437650   1.000000
   18      -15.205615   1.000000
   19       -9.259129   1.000000
   20       -9.147962   1.000000
   21       -9.012793   1.000000
   22       -8.891842   1.000000
   23       -8.807750   1.000000
   24       -8.743401   1.000000
   25       -8.693262   1.000000
   26       -8.539723   1.000000
   27       -8.497454   1.000000
   28       -8.411281   1.000000
   29       -8.324234   1.000000
   30       -8.270970   1.000000
   31       -8.206050   1.000000
   32       -8.118384   1.000000
   33       -8.039683   1.000000
   34       -7.991275   1.000000
   35       -7.822193   1.000000
   36       -7.768007   1.000000
   37       -7.664105   1.000000
   38       -7.556962   1.000000
   39       -7.471289   1.000000
   40       -7.448069   1.000000
   41       -7.304518   1.000000
   42       -7.257387   1.000000
   43       -7.103330   1.000000
   44       -6.998240   1.000000
   45       -6.940827   1.000000
   46       -6.796484   1.000000
   47       -6.695123   1.000000
   48       -6.632436   1.000000
   49       -6.606377   1.000000
   50       -6.513814   1.000000
   51       -6.457619   1.000000
   52       -6.393435   1.000000
   53       -6.313951   1.000000
   54       -6.295595   1.000000
   55       -6.126270   1.000000
   56       -6.063418   1.000000
   57       -5.969892   1.000000
   58       -5.888775   1.000000
   59       -5.744649   1.000000
   60       -5.598317   1.000000
   61       -5.549159   1.000000
   62       -5.491778   1.000000
   63       -5.334240   1.000000
   64       -5.257566   1.000000
   65       -5.038096   1.000000
   66       -4.967939   1.000000
   67       -4.925310   1.000000
   68       -4.895487   1.000000
   69       -4.759419   1.000000
   70       -4.688020   1.000000
   71       -4.583246   1.000000
   72       -4.534630   1.000000
   73       -4.462930   1.000000
   74       -4.199065   1.000000
   75       -4.088954   1.000000
   76       -4.039917   0.999999
   77       -3.877547   0.999857
   78       -3.692892   0.989868
   79       -3.556274   0.912355
   80       -3.324057   0.387201
   81       -3.301014   0.326515
   82       -2.781670   0.000019
   83       -2.663834   0.000000
   84       -2.611325   0.000000
   85       -2.491554   0.000000
   86       -2.412872   0.000000
   87       -2.247004   0.000000
   88       -2.152651   0.000000
   89       -2.071565   0.000000
   90       -1.938608   0.000000
   91       -1.784910   0.000000
   92       -1.464025   0.000000
   93       -1.361728   0.000000
   94       -1.281287   0.000000
   95       -1.140673   0.000000
   96       -1.045450   0.000000
   97       -1.009571   0.000000
   98       -0.947896   0.000000
   99       -0.853594   0.000000
  100       -0.791524   0.000000
  101       -0.732903   0.000000
  102       -0.621027   0.000000
  103       -0.517959   0.000000
  104       -0.419946   0.000000
  105       -0.324808   0.000000
  106       -0.206314   0.000000
  107       -0.109016   0.000000
  108        0.104959   0.000000
  109        0.155999   0.000000
  110        0.271530   0.000000
  111        0.303341   0.000000
  112        0.428443   0.000000
  113        0.555047   0.000000
  114        0.841531   0.000000
  115        1.010704   0.000000
  116        1.139563   0.000000
  117        1.329944   0.000000
  118        1.680337   0.000000
  119        1.870761   0.000000
  120        2.180103   0.000000
 
  0.2500000E+00  0.5551115E-16  0.0000000E+00  0.3125000E-01
    1      -17.706495   1.000000
    2      -17.005520   1.000000
    3      -16.723203   1.000000
    4      -16.685201   1.000000
    5      -16.569243   1.000000
    6      -16.373473   1.000000
    7      -16.306887   1.000000
    8      -16.263593   1.000000
    9      -16.185829   1.000000
   10      -16.065350   1.000000
   11      -16.030676   1.000000
   12      -15.834024   1.000000
   13      -15.808466   1.000000
   14      -15.753546   1.000000
   15      -15.613605   1.000000
   16      -15.489273   1.000000
   17      -15.451835   1.000000
   18      -15.218127   1.000000
   19       -9.501489   1.000000
   20       -9.204723   1.000000
   21       -9.113042   1.000000
   22       -8.985035   1.000000
   23       -8.928114   1.000000
   24       -8.781361   1.000000
   25       -8.665936   1.000000
   26       -8.504846   1.000000
   27       -8.456738   1.000000
   28       -8.406022   1.000000
   29       -8.253801   1.000000
   30       -8.182937   1.000000
   31       -8.149536   1.000000
   32       -8.049918   1.000000
   33       -7.948820   1.000000
   34       -7.843304   1.000000
   35       -7.790701   1.000000
   36       -7.644851   1.000000
   37       -7.625140   1.000000
   38       -7.562037   1.000000
   39       -7.436681   1.000000
   40       -7.377517   1.000000
   41       -7.300526   1.000000
   42       -7.200644   1.000000
   43       -7.089185   1.000000
   44       -7.030850   1.000000
   45       -6.969717   1.000000
   46       -6.840563   1.000000
   47       -6.683569   1.000000
   48       -6.643861   1.000000
   49       -6.573007   1.000000
   50       -6.508256   1.000000
   51       -6.442375   1.000000
   52       -6.387935   1.000000
   53       -6.301174   1.000000
   54       -6.206472   1.000000
   55       -6.159625   1.000000
   56       -6.061253   1.000000
   57       -5.955727   1.000000
   58       -5.869192   1.000000
   59       -5.758632   1.000000
   60       -5.702627   1.000000
   61       -5.617803   1.000000
   62       -5.565446   1.000000
   63       -5.524122   1.000000
   64       -5.401411   1.000000
   65       -5.141359   1.000000
   66       -4.997242   1.000000
   67       -4.852763   1.000000
   68       -4.813953   1.000000
   69       -4.746993   1.000000
   70       -4.649788   1.000000
   71       -4.536021   1.000000
   72       -4.489548   1.000000
   73       -4.382478   1.000000
   74       -4.249364   1.000000
   75       -4.073309   1.000000
   76       -3.994228   0.999996
   77       -3.950657   0.999983
   78       -3.872116   0.999834
   79       -3.571187   0.927972
   80       -3.313181   0.358106
   81       -3.215073   0.145198
   82       -2.726043   0.000003
   83       -2.619048   0.000000
   84       -2.531553   0.000000
   85       -2.470662   0.000000
   86       -2.377069   0.000000
   87       -2.190329   0.000000
   88       -2.107451   0.000000
   89       -2.033377   0.000000
   90       -1.917233   0.000000
   91       -1.743920   0.000000
   92       -1.484973   0.000000
   93       -1.370484   0.000000
   94       -1.315721   0.000000
   95       -1.177259   0.000000
   96       -1.089497   0.000000
   97       -1.066503   0.000000
   98       -0.980800   0.000000
   99       -0.894860   0.000000
  100       -0.831605   0.000000
  101       -0.799786   0.000000
  102       -0.744659   0.000000
  103       -0.659909   0.000000
  104       -0.545595   0.000000
  105       -0.434162   0.000000
  106       -0.323805   0.000000
  107       -0.163965   0.000000
  108        0.064384   0.000000
  109        0.175885   0.000000
  110        0.278023   0.000000
  111        0.421552   0.000000
  112        0.514591   0.000000
  113        0.730211   0.000000
  114        0.904505   0.000000
  115        1.034677   0.000000
  116        1.132762   0.000000
  117        1.225968   0.000000
  118        1.801748   0.000000
  119        1.983184   0.000000
  120        2.283643   0.000000
 
  0.3750000E+00  0.0000000E+00  0.0000000E+00  0.3125000E-01
    1      -17.586554   1.000000
    2      -17.219740   1.000000
    3      -16.753652   1.000000
    4      -16.690046   1.000000
    5      -16.607703   1.000000
    6      -16.376940   1.000000
    7      -16.292966   1.000000
    8      -16.237339   1.000000
    9      -16.097441   1.000000
   10      -16.020808   1.000000
   11      -16.007334   1.000000
   12      -15.860575   1.000000
   13      -15.786053   1.000000
   14      -15.716911   1.000000
   15      -15.605175   1.000000
   16      -15.494448   1.000000
   17      -15.470801   1.000000
   18      -15.232170   1.000000
   19       -9.706849   1.000000
   20       -9.317051   1.000000
   21       -9.103583   1.000000
   22       -9.078378   1.000000
   23       -8.935891   1.000000
   24       -8.827828   1.000000
   25       -8.599952   1.000000
   26       -8.481419   1.000000
   27       -8.414226   1.000000
   28       -8.332980   1.000000
   29       -8.273785   1.000000
   30       -8.232021   1.000000
   31       -8.127116   1.000000
   32       -8.030752   1.000000
   33       -7.855466   1.000000
   34       -7.841880   1.000000
   35       -7.753015   1.000000
   36       -7.711836   1.000000
   37       -7.605723   1.000000
   38       -7.467504   1.000000
   39       -7.332696   1.000000
   40       -7.289930   1.000000
   41       -7.235002   1.000000
   42       -7.134105   1.000000
   43       -7.069459   1.000000
   44       -6.964344   1.000000
   45       -6.896667   1.000000
   46       -6.839253   1.000000
   47       -6.696774   1.000000
   48       -6.608671   1.000000
   49       -6.515072   1.000000
   50       -6.492887   1.000000
   51       -6.440542   1.000000
   52       -6.392596   1.000000
   53       -6.278015   1.000000
   54       -6.161789   1.000000
   55       -6.131647   1.000000
   56       -6.081440   1.000000
   57       -6.000124   1.000000
   58       -5.916432   1.000000
   59       -5.853587   1.000000
   60       -5.802569   1.000000
   61       -5.722307   1.000000
   62       -5.694788   1.000000
   63       -5.592137   1.000000
   64       -5.448900   1.000000
   65       -5.200849   1.000000
   66       -4.965912   1.000000
   67       -4.858690   1.000000
   68       -4.801078   1.000000
   69       -4.736678   1.000000
   70       -4.690243   1.000000
   71       -4.594977   1.000000
   72       -4.460695   1.000000
   73       -4.335141   1.000000
   74       -4.225689   1.000000
   75       -4.111818   1.000000
   76       -4.015934   0.999998
   77       -3.927652   0.999966
   78       -3.842657   0.999638
   79       -3.579226   0.935454
   80       -3.328284   0.398693
   81       -3.165407   0.079499
   82       -2.681595   0.000001
   83       -2.594415   0.000000
   84       -2.485923   0.000000
   85       -2.403883   0.000000
   86       -2.326489   0.000000
   87       -2.139658   0.000000
   88       -2.099793   0.000000
   89       -1.972674   0.000000
   90       -1.831567   0.000000
   91       -1.697966   0.000000
   92       -1.490924   0.000000
   93       -1.427462   0.000000
   94       -1.369584   0.000000
   95       -1.256001   0.000000
   96       -1.147570   0.000000
   97       -1.118569   0.000000
   98       -1.013733   0.000000
   99       -0.975626   0.000000
  100       -0.925914   0.000000
  101       -0.857963   0.000000
  102       -0.794509   0.000000
  103       -0.708685   0.000000
  104       -0.602989   0.000000
  105       -0.523809   0.000000
  106       -0.420259   0.000000
  107       -0.213430   0.000000
  108       -0.021168   0.000000
  109        0.158386   0.000000
  110        0.297461   0.000000
  111        0.495252   0.000000
  112        0.575024   0.000000
  113        0.806568   0.000000
  114        0.960664   0.000000
  115        1.082534   0.000000
  116        1.119474   0.000000
  117        1.220452   0.000000
  118        1.984483   0.000000
  119        2.157209   0.000000
  120        2.452671   0.000000
 
  0.5000000E+00  0.1110223E-15  0.0000000E+00  0.1562500E-01
    1      -17.455192   1.000000
    2      -17.384490   1.000000
    3      -16.765740   1.000000
    4      -16.691806   1.000000
    5      -16.618211   1.000000
    6      -16.384200   1.000000
    7      -16.291753   1.000000
    8      -16.226321   1.000000
    9      -16.038398   1.000000
   10      -16.009557   1.000000
   11      -15.987537   1.000000
   12      -15.892067   1.000000
   13      -15.793608   1.000000
   14      -15.715383   1.000000
   15      -15.571913   1.000000
   16      -15.496539   1.000000
   17      -15.483660   1.000000
   18      -15.238664   1.000000
   19       -9.781231   1.000000
   20       -9.358228   1.000000
   21       -9.126073   1.000000
   22       -9.107665   1.000000
   23       -8.886272   1.000000
   24       -8.848217   1.000000
   25       -8.565087   1.000000
   26       -8.518112   1.000000
   27       -8.393286   1.000000
   28       -8.282377   1.000000
   29       -8.265960   1.000000
   30       -8.239966   1.000000
   31       -8.143987   1.000000
   32       -8.020859   1.000000
   33       -7.898898   1.000000
   34       -7.837958   1.000000
   35       -7.790012   1.000000
   36       -7.702698   1.000000
   37       -7.597601   1.000000
   38       -7.435333   1.000000
   39       -7.319348   1.000000
   40       -7.217857   1.000000
   41       -7.177537   1.000000
   42       -7.098634   1.000000
   43       -7.016766   1.000000
   44       -6.971969   1.000000
   45       -6.897437   1.000000
   46       -6.759302   1.000000
   47       -6.669176   1.000000
   48       -6.567371   1.000000
   49       -6.536717   1.000000
   50       -6.472512   1.000000
   51       -6.443142   1.000000
   52       -6.338417   1.000000
   53       -6.299755   1.000000
   54       -6.238962   1.000000
   55       -6.161901   1.000000
   56       -6.082956   1.000000
   57       -6.042679   1.000000
   58       -5.942009   1.000000
   59       -5.874118   1.000000
   60       -5.816419   1.000000
   61       -5.735289   1.000000
   62       -5.671044   1.000000
   63       -5.558390   1.000000
   64       -5.541435   1.000000
   65       -5.170524   1.000000
   66       -5.122678   1.000000
   67       -4.941220   1.000000
   68       -4.788518   1.000000
   69       -4.718355   1.000000
   70       -4.665618   1.000000
   71       -4.573394   1.000000
   72       -4.448170   1.000000
   73       -4.298032   1.000000
   74       -4.231273   1.000000
   75       -4.175658   1.000000
   76       -3.980571   0.999993
   77       -3.913724   0.999948
   78       -3.805606   0.999091
   79       -3.578298   0.934623
   80       -3.341282   0.434542
   81       -3.150452   0.064988
   82       -2.661894   0.000000
   83       -2.594383   0.000000
   84       -2.466851   0.000000
   85       -2.378022   0.000000
   86       -2.291467   0.000000
   87       -2.122040   0.000000
   88       -2.104059   0.000000
   89       -1.935479   0.000000
   90       -1.775262   0.000000
   91       -1.689682   0.000000
   92       -1.502496   0.000000
   93       -1.458365   0.000000
   94       -1.359184   0.000000
   95       -1.324152   0.000000
   96       -1.176398   0.000000
   97       -1.137999   0.000000
   98       -1.050201   0.000000
   99       -1.017270   0.000000
  100       -0.958110   0.000000
  101       -0.872909   0.000000
  102       -0.806217   0.000000
  103       -0.705048   0.000000
  104       -0.628850   0.000000
  105       -0.551678   0.000000
  106       -0.462678   0.000000
  107       -0.233612   0.000000
  108       -0.050280   0.000000
  109        0.145381   0.000000
  110        0.305728   0.000000
  111        0.517672   0.000000
  112        0.573266   0.000000
  113        0.823523   0.000000
  114        0.992387   0.000000
  115        1.091842   0.000000
  116        1.121468   0.000000
  117        1.244600   0.000000
  118        2.189339   0.000000
  119        2.243901   0.000000
  120        2.365876   0.000000
 
  0.0000000E+00  0.1250000E+00  0.0000000E+00  0.3125000E-01
    1      -17.781457   1.000000
    2      -16.766835   1.000000
    3      -16.729822   1.000000
    4      -16.637146   1.000000
    5      -16.535726   1.000000
    6      -16.460476   1.000000
    7      -16.330680   1.000000
    8      -16.288518   1.000000
    9      -16.213317   1.000000
   10      -16.062361   1.000000
   11      -16.029248   1.000000
   12      -15.995855   1.000000
   13      -15.839225   1.000000
   14      -15.728055   1.000000
   15      -15.581333   1.000000
   16      -15.483052   1.000000
   17      -15.438221   1.000000
   18      -15.210071   1.000000
   19       -9.252000   1.000000
   20       -9.096717   1.000000
   21       -9.018389   1.000000
   22       -8.932004   1.000000
   23       -8.764069   1.000000
   24       -8.748257   1.000000
   25       -8.716087   1.000000
   26       -8.583716   1.000000
   27       -8.521417   1.000000
   28       -8.457225   1.000000
   29       -8.326053   1.000000
   30       -8.266843   1.000000
   31       -8.205326   1.000000
   32       -8.089597   1.000000
   33       -8.003287   1.000000
   34       -7.967586   1.000000
   35       -7.815925   1.000000
   36       -7.761941   1.000000
   37       -7.671628   1.000000
   38       -7.550782   1.000000
   39       -7.501325   1.000000
   40       -7.415146   1.000000
   41       -7.299210   1.000000
   42       -7.236028   1.000000
   43       -7.124722   1.000000
   44       -7.015745   1.000000
   45       -6.898177   1.000000
   46       -6.835355   1.000000
   47       -6.765790   1.000000
   48       -6.670504   1.000000
   49       -6.602604   1.000000
   50       -6.475390   1.000000
   51       -6.436380   1.000000
   52       -6.378692   1.000000
   53       -6.324800   1.000000
   54       -6.251145   1.000000
   55       -6.160510   1.000000
   56       -6.063786   1.000000
   57       -5.971795   1.000000
   58       -5.873925   1.000000
   59       -5.717897   1.000000
   60       -5.591095   1.000000
   61       -5.533758   1.000000
   62       -5.475613   1.000000
   63       -5.328945   1.000000
   64       -5.185122   1.000000
   65       -5.131476   1.000000
   66       -5.063694   1.000000
   67       -4.941562   1.000000
   68       -4.881464   1.000000
   69       -4.801160   1.000000
   70       -4.669016   1.000000
   71       -4.573300   1.000000
   72       -4.507780   1.000000
   73       -4.405500   1.000000
   74       -4.214530   1.000000
   75       -4.091083   1.000000
   76       -3.998481   0.999996
   77       -3.861177   0.999777
   78       -3.730496   0.995164
   79       -3.546284   0.900562
   80       -3.429880   0.677837
   81       -3.173473   0.088282
   82       -2.801322   0.000034
   83       -2.686979   0.000001
   84       -2.633688   0.000000
   85       -2.508099   0.000000
   86       -2.399902   0.000000
   87       -2.274829   0.000000
   88       -2.132019   0.000000
   89       -2.065566   0.000000
   90       -1.934542   0.000000
   91       -1.803076   0.000000
   92       -1.467327   0.000000
   93       -1.346388   0.000000
   94       -1.279073   0.000000
   95       -1.147340   0.000000
   96       -1.043241   0.000000
   97       -0.971986   0.000000
   98       -0.948262   0.000000
   99       -0.855642   0.000000
  100       -0.801074   0.000000
  101       -0.740523   0.000000
  102       -0.628681   0.000000
  103       -0.541071   0.000000
  104       -0.335696   0.000000
  105       -0.213199   0.000000
  106       -0.198023   0.000000
  107       -0.139545   0.000000
  108       -0.017839   0.000000
  109        0.073560   0.000000
  110        0.232347   0.000000
  111        0.317975   0.000000
  112        0.451123   0.000000
  113        0.549893   0.000000
  114        0.861002   0.000000
  115        1.029048   0.000000
  116        1.152750   0.000000
  117        1.353063   0.000000
  118        1.683190   0.000000
  119        1.870044   0.000000
  120        2.180282   0.000000
 
  0.1250000E+00  0.1250000E+00  0.0000000E+00  0.3125000E-01
    1      -17.732916   1.000000
    2      -16.889411   1.000000
    3      -16.815904   1.000000
    4      -16.676106   1.000000
    5      -16.472268   1.000000
    6      -16.417085   1.000000
    7      -16.313703   1.000000
    8      -16.291684   1.000000
    9      -16.215390   1.000000
   10      -16.048936   1.000000
   11      -16.017724   1.000000
   12      -15.896499   1.000000
   13      -15.810849   1.000000
   14      -15.740046   1.000000
   15      -15.596092   1.000000
   16      -15.492706   1.000000
   17      -15.446173   1.000000
   18      -15.219145   1.000000
   19       -9.349236   1.000000
   20       -9.282765   1.000000
   21       -9.073122   1.000000
   22       -9.016102   1.000000
   23       -8.827270   1.000000
   24       -8.749896   1.000000
   25       -8.645933   1.000000
   26       -8.578805   1.000000
   27       -8.499671   1.000000
   28       -8.432319   1.000000
   29       -8.286239   1.000000
   30       -8.216544   1.000000
   31       -8.137532   1.000000
   32       -8.092306   1.000000
   33       -7.943136   1.000000
   34       -7.862051   1.000000
   35       -7.794798   1.000000
   36       -7.698663   1.000000
   37       -7.598565   1.000000
   38       -7.474794   1.000000
   39       -7.443391   1.000000
   40       -7.370750   1.000000
   41       -7.344916   1.000000
   42       -7.249029   1.000000
   43       -7.117604   1.000000
   44       -7.037348   1.000000
   45       -6.975975   1.000000
   46       -6.838240   1.000000
   47       -6.712244   1.000000
   48       -6.693852   1.000000
   49       -6.545036   1.000000
   50       -6.511699   1.000000
   51       -6.420142   1.000000
   52       -6.386608   1.000000
   53       -6.320411   1.000000
   54       -6.202265   1.000000
   55       -6.155038   1.000000
   56       -6.059160   1.000000
   57       -5.946542   1.000000
   58       -5.865947   1.000000
   59       -5.731476   1.000000
   60       -5.655175   1.000000
   61       -5.606555   1.000000
   62       -5.528295   1.000000
   63       -5.456357   1.000000
   64       -5.311527   1.000000
   65       -5.147272   1.000000
   66       -5.067834   1.000000
   67       -4.965139   1.000000
   68       -4.840918   1.000000
   69       -4.776333   1.000000
   70       -4.620144   1.000000
   71       -4.511998   1.000000
   72       -4.448051   1.000000
   73       -4.356162   1.000000
   74       -4.202676   1.000000
   75       -4.110352   1.000000
   76       -4.015331   0.999998
   77       -3.964966   0.999989
   78       -3.848475   0.999689
   79       -3.545917   0.900108
   80       -3.359726   0.486278
   81       -3.158399   0.072421
   82       -2.751522   0.000007
   83       -2.653486   0.000000
   84       -2.591631   0.000000
   85       -2.485846   0.000000
   86       -2.374836   0.000000
   87       -2.242152   0.000000
   88       -2.097964   0.000000
   89       -2.028707   0.000000
   90       -1.939776   0.000000
   91       -1.759018   0.000000
   92       -1.490691   0.000000
   93       -1.361561   0.000000
   94       -1.280596   0.000000
   95       -1.156690   0.000000
   96       -1.083721   0.000000
   97       -1.030082   0.000000
   98       -0.968943   0.000000
   99       -0.859684   0.000000
  100       -0.832337   0.000000
  101       -0.792305   0.000000
  102       -0.747827   0.000000
  103       -0.609068   0.000000
  104       -0.457411   0.000000
  105       -0.349042   0.000000
  106       -0.261095   0.000000
  107       -0.170689   0.000000
  108       -0.020523   0.000000
  109        0.114761   0.000000
  110        0.239652   0.000000
  111        0.364706   0.000000
  112        0.514094   0.000000
  113        0.704086   0.000000
  114        0.944776   0.000000
  115        1.064094   0.000000
  116        1.140018   0.000000
  117        1.219073   0.000000
  118        1.763249   0.000000
  119        1.945800   0.000000
  120        2.249008   0.000000
 
  0.2500000E+00  0.1250000E+00  0.0000000E+00  0.3125000E-01
    1      -17.637069   1.000000
    2      -17.093901   1.000000
    3      -16.888522   1.000000
    4      -16.672107   1.000000
    5      -16.474398   1.000000
    6      -16.361038   1.000000
    7      -16.311617   1.000000
    8      -16.265647   1.000000
    9      -16.176491   1.000000
   10      -16.017767   1.000000
   11      -16.000224   1.000000
   12      -15.877916   1.000000
   13      -15.774568   1.000000
   14      -15.713584   1.000000
   15      -15.604706   1.000000
   16      -15.515782   1.000000
   17      -15.450141   1.000000
   18      -15.229450   1.000000
   19       -9.595654   1.000000
   20       -9.380736   1.000000
   21       -9.186507   1.000000
   22       -9.011006   1.000000
   23       -8.878544   1.000000
   24       -8.719330   1.000000
   25       -8.601143   1.000000
   26       -8.476380   1.000000
   27       -8.445626   1.000000
   28       -8.388837   1.000000
   29       -8.279792   1.000000
   30       -8.199906   1.000000
   31       -8.147666   1.000000
   32       -8.060358   1.000000
   33       -7.981353   1.000000
   34       -7.882118   1.000000
   35       -7.779675   1.000000
   36       -7.643301   1.000000
   37       -7.519898   1.000000
   38       -7.436413   1.000000
   39       -7.377359   1.000000
   40       -7.299019   1.000000
   41       -7.248567   1.000000
   42       -7.161619   1.000000
   43       -7.096982   1.000000
   44       -7.023926   1.000000
   45       -6.931883   1.000000
   46       -6.871852   1.000000
   47       -6.718915   1.000000