unknown system                          
           1
     8.860416    5.104237    0.000000
    -8.861758    5.106545    0.000000
     0.000000    0.000000   30.000000
   V    Mo   W    S 
   3   3   3  18
Direct configuration=     1
   0.33333334  0.00000000  0.00000000
   0.33333334  0.66666669  0.00000000
   0.00000000  0.66666669  0.00000000
   0.33333334  0.33333334  0.00000000
   0.66666669  0.00000000  0.00000000
   0.00000000  0.00000000  0.00000000
   1.00000000  0.33333334  0.00000000
   0.66666669  0.33333334  0.00000000
   0.66666669  0.66666669  0.00000000
   0.11068511  0.22244981  0.95539999
   0.22244981  0.11068511  0.04460000
   0.11068511  0.55578315  0.95539999
   0.22244981  0.44401845  0.04460000
   0.11068511  0.88911647  0.95539999
   0.22244981  0.77735180  0.04460000
   0.44401845  0.22244981  0.95539999
   0.55578315  0.11068511  0.04460000
   0.44401845  0.55578315  0.95539999
   0.55578315  0.44401845  0.04460000
   0.44401845  0.88911647  0.95539999
   0.55578315  0.77735180  0.04460000
   0.77735180  0.22244981  0.95539999
   0.88911647  0.11068511  0.04460000
   0.77735180  0.55578315  0.95539999
   0.88911647  0.44401845  0.04460000
   0.77735180  0.88911647  0.95539999
   0.88911647  0.77735180  0.04460000
unknown system                          
           1
     8.670194    4.997256    0.000000
    -8.671504    4.999511    0.000000
     0.000000    0.000000   30.000000
   V    Mo   W    S 
   3   3   3  18
Direct configuration=     2
   0.33286629  0.00021904 -0.00001306
   0.33403462  0.66718726 -0.00001114
   0.00085413  0.66827031  0.00002014
   0.33191565  0.33185888 -0.00009800
   0.66779190 -0.00007927  0.00006022
   0.00014397  0.00127744  0.00014856
   1.00051180  0.33089445  0.00016744
   0.66494566  0.33156098 -0.00015442
   0.66659726  0.66827726 -0.00016922
   0.11076876  0.22268146  0.95069010
   0.22442659  0.10852188  0.04799045
   0.11256072  0.55905003  0.95317808
   0.22323779  0.44836493  0.04804095
   0.11323602  0.88660615  0.95308080
   0.22224040  0.77752509  0.04584818
   0.44320359  0.21824172  0.95188691
   0.55149428  0.10974701  0.04806947
   0.44300862  0.55832379  0.95199799
   0.55628670  0.44486353  0.04917082
   0.43989317  0.88678750  0.95316954
   0.55141940  0.77512134  0.04810345
   0.77807708  0.22311417  0.95076910
   0.88932069  0.11204838  0.04937105
   0.78123562  0.55715530  0.95190934
   0.89060560  0.44802171  0.04802014
   0.77717393  0.88763255  0.95077972
   0.89036422  0.77494156  0.04797332
unknown system                          
           1
     8.486370    4.897805    0.000000
    -8.487620    4.899958    0.000000
     0.000000    0.000000   30.000000
   V    Mo   W    S 
   3   3   3  18
Direct configuration=     3
   0.33285693  0.00046608 -0.00002194
   0.33433889  0.66730527 -0.00006497
   0.00093495  0.66862379  0.00001265
   0.33147877  0.33139036 -0.00006171
   0.66869703  0.00015955  0.00002916
  -0.00008517  0.00206156  0.00017196
   1.00041794  0.32967677  0.00019337
   0.66441509  0.33113560 -0.00011584
   0.66659868  0.66872275 -0.00018732
   0.11064973  0.22281362  0.95056996
   0.22446856  0.10843751  0.04803618
   0.11251584  0.55887971  0.95332250
   0.22305846  0.44834591  0.04801875
   0.11329716  0.88658928  0.95314077
   0.22224460  0.77756522  0.04576835
   0.44333667  0.21821781  0.95183347
   0.55149534  0.10988358  0.04804529
   0.44320141  0.55848034  0.95200285
   0.55653797  0.44497470  0.04908167
   0.43980099  0.88671065  0.95326132
   0.55144111  0.77495529  0.04812286
   0.77820223  0.22337965  0.95077961
   0.88946738  0.11228135  0.04954573
   0.78104955  0.55710047  0.95198706
   0.89055119  0.44783345  0.04786974
   0.77706664  0.88740315  0.95070352
   0.89017651  0.77482102  0.04795490
unknown system                          
           1
     8.280807    4.772669    0.000000
    -8.285813    4.781329    0.000000
     0.000000    0.000000   30.000000
   V    Mo   W    S 
   3   3   3  18
Direct configuration=     4
   0.33327700  0.00211136 -0.00006408
   0.33572866  0.66740554 -0.00026690
   0.00049666  0.66943884 -0.00003708
   0.33003780  0.32973379  0.00008061
   0.67299867  0.00145172 -0.00007995
  -0.00159397  0.00541121  0.00018631
   0.99953177  0.32448552  0.00019664
   0.66254100  0.32992017  0.00008489
   0.66664589  0.67008746 -0.00015988
   0.11062970  0.22283801  0.94845265
   0.22491209  0.10759865  0.04966101
   0.11296570  0.55952696  0.95257436
   0.22356888  0.44949197  0.04941549
   0.11383292  0.88629041  0.95206879
   0.22232198  0.77774683  0.04671012
   0.44250145  0.21686041  0.95010578
   0.55029887  0.10899693  0.04941582
   0.44266400  0.55891787  0.95055724
   0.55675468  0.44517067  0.05033861
   0.43882310  0.88616668  0.95231360
   0.55036927  0.77447678  0.04967983
   0.77846282  0.22373814  0.94919247
   0.88954959  0.11224976  0.05196066
   0.78182153  0.55759251  0.95078896
   0.89114336  0.44853327  0.04873328
   0.77727368  0.88745585  0.94876228
   0.89065735  0.77451715  0.04932839
unknown system                          
           1
     8.289538    4.772980    0.000000
    -8.295750    4.783724    0.000000
     0.000000    0.000000   30.000000
   V    Mo   W    S 
   3   3   3  18
Direct configuration=     5
   0.33413681  0.00550307 -0.00015429
   0.33816066  0.66752153 -0.00054422
  -0.00052230  0.67091833 -0.00016547
   0.32776591  0.32661759  0.00027385
   0.68201279  0.00400194 -0.00015301
  -0.00520552  0.01152885  0.00007804
   0.99772268  0.31468520  0.00010775
   0.65870184  0.32811338  0.00038980
   0.66707897  0.67263321  0.00000520
   0.11095850  0.22252316  0.94550105
   0.22450659  0.10635950  0.05183297
   0.11307731  0.55907238  0.95178449
   0.22367873  0.45014979  0.05115555
   0.11406942  0.88686298  0.95066133
   0.22263054  0.77820546  0.04815858
   0.44115257  0.21519703  0.94773838
   0.54906371  0.10718330  0.05106453
   0.44200980  0.55886596  0.94868163
   0.55631379  0.44547350  0.05186987
   0.43908254  0.88636576  0.95113122
   0.54957517  0.77481990  0.05165032
   0.77895085  0.22390070  0.94722248
   0.88939558  0.11172794  0.05574834
   0.78234905  0.55797308  0.94922470
   0.89194761  0.44865420  0.04960416
   0.77816278  0.88802433  0.94607933
   0.89143808  0.77533238  0.05105331
unknown system                          
           1
     8.279440    4.767347    0.000000
    -8.284561    4.776195    0.000000
     0.000000    0.000000   30.000000
   V    Mo   W    S 
   3   3   3  18
Direct configuration=     6
   0.33398787  0.00627649 -0.00010663
   0.33855802  0.66765586 -0.00056876
  -0.00041778  0.67177149 -0.00016629
   0.32789980  0.32591879  0.00024276
   0.68310433  0.00388233 -0.00004388
  -0.00571047  0.01143632  0.00006085
   0.99770737  0.31379308  0.00015543
   0.65727750  0.32808627  0.00040573
   0.66755521  0.67335873 -0.00002295
   0.11124963  0.22239978  0.94518772
   0.22348521  0.10603223  0.05187935
   0.11245342  0.55764244  0.95202275
   0.22309086  0.44939931  0.05111389
   0.11360898  0.88773570  0.95066641
   0.22278991  0.77839834  0.04815269
   0.44101132  0.21529064  0.94754238
   0.54943522  0.10671971  0.05095078
   0.44223777  0.55853608  0.94870193
   0.55581347  0.44559602  0.05191209
   0.44060841  0.88729194  0.95127107
   0.55008644  0.77545755  0.05169773
   0.77913343  0.22384321  0.94724729
   0.88932119  0.11158576  0.05625267
   0.78175350  0.55771914  0.94924448
   0.89197050  0.44775859  0.04929811
   0.77863607  0.88829673  0.94585931
   0.89156728  0.77633195  0.05104299
unknown system                          
           1
     8.288795    4.771527    0.000000
    -8.294099    4.780692    0.000000
     0.000000    0.000000   30.000000
   V    Mo   W    S 
   3   3   3  18
Direct configuration=     7
   0.33369192  0.00751193 -0.00005578
   0.33921629  0.66791951 -0.00066834
  -0.00005164  0.67327514 -0.00017595
   0.32784117  0.32461505  0.00018529
   0.68535321  0.00369206 -0.00000119
  -0.00673785  0.01216967  0.00003231
   0.99779264  0.31133608  0.00015830
   0.65482891  0.32794027  0.00046314
   0.66826359  0.67470910 -0.00008567
   0.11148670  0.22225903  0.94482636
   0.22265390  0.10565327  0.05207789
   0.11191316  0.55644760  0.95229323
   0.22278698  0.44877851  0.05115915
   0.11329054  0.88846589  0.95055070
   0.22293111  0.77861302  0.04817055
   0.44070320  0.21516084  0.94713832
   0.54962718  0.10622838  0.05087478
   0.44244917  0.55825764  0.94867444
   0.55535598  0.44583861  0.05205357
   0.44196620  0.88816050  0.95144609
   0.55047923  0.77590114  0.05188565
   0.77918212  0.22377970  0.94731258
   0.88941801  0.11143331  0.05688485
   0.78122904  0.55752300  0.94919781
   0.89186031  0.44695543  0.04892641
   0.77901836  0.88849264  0.94548812
   0.89166505  0.77709715  0.05118729
unknown system                          
           1
     8.293892    4.772486    0.000000
    -8.299126    4.781525    0.000000
     0.000000    0.000000   30.000000
   V    Mo   W    S 
   3   3   3  18
Direct configuration=     8
   0.33354048  0.00760300 -0.00004605
   0.33923689  0.66800207 -0.00068381
   0.00018853  0.67364812 -0.00017084
   0.32797129  0.32446607  0.00019090
   0.68520649  0.00334725  0.00002107
  -0.00669644  0.01189578  0.00003205
   0.99805625  0.31148769  0.00018788
   0.65437142  0.32804363  0.00047598
   0.66841598  0.67488666 -0.00009471
   0.11152901  0.22222232  0.94486245
   0.22259587  0.10563854  0.05203999
   0.11185436  0.55637296  0.95237799
   0.22279246  0.44870256  0.05109638
   0.11329006  0.88847771  0.95056308
   0.22292738  0.77863119  0.04811058
   0.44068546  0.21514428  0.94713831
   0.54965747  0.10624183  0.05078068
   0.44250615  0.55824901  0.94874630
   0.55530586  0.44590989  0.05201839
   0.44205910  0.88824431  0.95153338
   0.55051994  0.77589266  0.05184582
   0.77914979  0.22378223  0.94743363
   0.88943678  0.11142177  0.05682528
   0.78119137  0.55749567  0.94925202
   0.89176091  0.44686276  0.04879446
   0.77904630  0.88846327  0.94550839
   0.89161530  0.77708123  0.05116030
unknown system                          
           1
     8.280527    4.768962    0.000000
    -8.286560    4.779398    0.000000
     0.000000    0.000000   30.000000
   V    Mo   W    S 
   3   3   3  18
Direct configuration=     9
   0.33313559  0.00835018 -0.00001188
   0.33957727  0.66829783 -0.00076774
   0.00084139  0.67507998 -0.00016642
   0.32811027  0.32352290  0.00017144
   0.68610177  0.00259241  0.00006023
  -0.00716225  0.01185300  0.00001267
   0.99863527  0.31050441  0.00022814
   0.65233796  0.32818737  0.00051763
   0.66903854  0.67585182 -0.00014839
   0.11168502  0.22208188  0.94472895
   0.22219665  0.10542996  0.05211766
   0.11155169  0.55582111  0.95261635
   0.22273675  0.44837338  0.05105515
   0.11320571  0.88875145  0.95048189
   0.22299019  0.77877471  0.04805148
   0.44047196  0.21499616  0.94691339
   0.54972348  0.10603280  0.05061095
   0.44267115  0.55813187  0.94883211
   0.55502374  0.44617247  0.05207057
   0.44268513  0.88871260  0.95173096
   0.55069707  0.77601384  0.05190617
   0.77911374  0.22377083  0.94767476
   0.88951167  0.11130698  0.05704447
   0.78096321  0.55739695  0.94930033
   0.89153528  0.44639988  0.04840976
   0.77926322  0.88849297  0.94533514
   0.89157298  0.77731470  0.05122414
unknown system                          
           1
     8.277271    4.769030    0.000000
    -8.283796    4.780325    0.000000
     0.000000    0.000000   30.000000
   V    Mo   W    S 
   3   3   3  18
Direct configuration=    10
   0.33406469  0.00691454 -0.00007946
   0.33892631  0.66759297 -0.00057893
  -0.00086772  0.67178143 -0.00019258
   0.32787321  0.32550939  0.00019518
   0.68476685  0.00472700 -0.00003037
  -0.00632637  0.01230995  0.00005497
   0.99706889  0.31207274  0.00010534
   0.65661037  0.32762548  0.00044502
   0.66766717  0.67380140 -0.00002046
   0.11138771  0.22241126  0.94496078
   0.22286077  0.10580653  0.05194428
   0.11209221  0.55667787  0.95215494
   0.22269402  0.44890245  0.05112730
   0.11326807  0.88841785  0.95072502
   0.22287997  0.77847106  0.04814414
   0.44096385  0.21534294  0.94737222
   0.54960344  0.10632376  0.05100884
   0.44237402  0.55833951  0.94861067
   0.55561878  0.44558513  0.05193855
   0.44172304  0.88790334  0.95135891
   0.55041702  0.77592980  0.05178149
   0.77923347  0.22377340  0.94705191
   0.88937094  0.11156182  0.05673368
   0.78129032  0.55757138  0.94918361
   0.89209378  0.44726546  0.04925939
   0.77883288  0.88850519  0.94568144
   0.89172676  0.77709080  0.05106403
unknown system                          
           1
     8.271506    4.766724    0.000000
    -8.278034    4.778025    0.000000
     0.000000    0.000000   30.000000
   V    Mo   W    S 
   3   3   3  18
Direct configuration=    11
   0.33476720  0.00624344 -0.00012500
   0.33869314  0.66697341 -0.00046101
  -0.00245013  0.66928592 -0.00023342
   0.32768906  0.32679827  0.00020181
   0.68460072  0.00692147 -0.00003778
  -0.00593064  0.01306821  0.00008077
   0.99537425  0.31239796  0.00005443
   0.65964922  0.32678918  0.00042244
   0.66667275  0.67257443  0.00008099
   0.11133865  0.22266919  0.94498185
   0.22304001  0.10600603  0.05183168
   0.11224485  0.55675207  0.95195253
   0.22242457  0.44896644  0.05112820
   0.11308717  0.88849812  0.95099065
   0.22276874  0.77824613  0.04814072
   0.44136161  0.21559961  0.94761910
   0.54962346  0.10637724  0.05131902
   0.44227252  0.55841716  0.94841526
   0.55598145  0.44516977  0.05182650
   0.44165449  0.88766729  0.95120966
   0.55044298  0.77617910  0.05169821
   0.77934447  0.22379435  0.94646508
   0.88933271  0.11182688  0.05675729
   0.78121293  0.55750386  0.94910422
   0.89247409  0.44758737  0.04979715
   0.77863621  0.88861916  0.94585615
   0.89190797  0.77728241  0.05092340
unknown system                          
           1
     8.277995    4.769658    0.000000
    -8.284501    4.780921    0.000000
     0.000000    0.000000   30.000000
   V    Mo   W    S 
   3   3   3  18
Direct configuration=    12
   0.33489128  0.00655948 -0.00014647
   0.33908362  0.66678660 -0.00049516
  -0.00293817  0.66902623 -0.00028214
   0.32727959  0.32669767  0.00017348
   0.68533314  0.00787217  0.00000255
  -0.00603308  0.01367592  0.00007361
   0.99447895  0.31153171  0.00001664
   0.66030842  0.32598095  0.00040706
   0.66652004  0.67292351  0.00010644
   0.11141364  0.22280288  0.94492668
   0.22283661  0.10603248  0.05179490
   0.11202264  0.55626293  0.95211678
   0.22213313  0.44867269  0.05105151
   0.11282132  0.88875045  0.95115587
   0.22267925  0.77816227  0.04801831
   0.44156591  0.21570088  0.94765126
   0.54979772  0.10631302  0.05136477
   0.44242760  0.55839152  0.94839341
   0.55605745  0.44507777  0.05170076
   0.44225465  0.88798922  0.95136942
   0.55073013  0.77653487  0.05165835
   0.77936448  0.22377550  0.94629541
   0.88938910  0.11190827  0.05698111
   0.78077121  0.55717128  0.94915850
   0.89243002  0.44727761  0.04978071
   0.77868566  0.88879393  0.94588532
   0.89191015  0.77754265  0.05084083
unknown system                          
           1
     8.280378    4.770574    0.000000
    -8.287037    4.782100    0.000000
     0.000000    0.000000   30.000000
   V    Mo   W    S 
   3   3   3  18
Direct configuration=    13
   0.33457257  0.00715114 -0.00012176
   0.33948313  0.66688695 -0.00055665
  -0.00262913  0.67004339 -0.00029131
   0.32710959  0.32601971  0.00017088
   0.68586846  0.00744854  0.00006672
  -0.00621590  0.01364051  0.00009018
   0.99475079  0.31089231  0.00006387
   0.65928106  0.32578132  0.00043842
   0.66698565  0.67382640  0.00008559
   0.11152060  0.22274622  0.94480218
   0.22260450  0.10594272  0.05187047
   0.11180208  0.55589324  0.95229453
   0.22206974  0.44845678  0.05102185
   0.11274001  0.88890953  0.95107677
   0.22267449  0.77821059  0.04796265
   0.44144846  0.21561807  0.94749101
   0.54982375  0.10615993  0.05129604
   0.44255967  0.55828837  0.94842299
   0.55592754  0.44522975  0.05166238
   0.44267225  0.88832329  0.95150428
   0.55083979  0.77664170  0.05173467
   0.77932556  0.22374082  0.94638223
   0.88947144  0.11183905  0.05714917
   0.78053233  0.55703292  0.94920039
   0.89229310  0.44698020  0.04953891
   0.77884145  0.88886117  0.94574294
   0.89186145  0.77764986  0.05090050
unknown system                          
           1
     8.274953    4.767531    0.000000
    -8.281703    4.779215    0.000000
     0.000000    0.000000   30.000000
   V    Mo   W    S 
   3   3   3  18
Direct configuration=    14
   0.33436694  0.00753268 -0.00011057
   0.33979873  0.66693209 -0.00060065
  -0.00244657  0.67068697 -0.00030692
   0.32693821  0.32557711  0.00015272
   0.68622558  0.00730572  0.00009254
  -0.00631437  0.01364782  0.00009068
   0.99482861  0.31042521  0.00006868
   0.65867834  0.32542073  0.00044966
   0.66726773  0.67453923  0.00006435
   0.11155464  0.22270928  0.94475206
   0.22247358  0.10589711  0.05191431
   0.11168387  0.55564559  0.95243209
   0.22202597  0.44832486  0.05098926
   0.11270768  0.88903924  0.95103808
   0.22268087  0.77823867  0.04790370
   0.44138975  0.21556596  0.94741805
   0.54980798  0.10603817  0.05125539
   0.44266218  0.55823430  0.94845449
   0.55588680  0.44533235  0.05159983
   0.44292609  0.88851881  0.95161954
   0.55089908  0.77670407  0.05177335
   0.77931975  0.22370068  0.94643954
   0.88954208  0.11180481  0.05725159
   0.78033965  0.55694174  0.94925102
   0.89221720  0.44679078  0.04938891
   0.77893695  0.88893234  0.94568084
   0.89181710  0.77772815  0.05093736
unknown system                          
           1
     8.274474    4.765962    0.000000
    -8.281146    4.777507    0.000000
     0.000000    0.000000   30.000000
   V    Mo   W    S 
   3   3   3  18
Direct configuration=    15
   0.33464637  0.00730507 -0.00011807
   0.33968551  0.66686296 -0.00057325
  -0.00252355  0.67013718 -0.00029346
   0.32715843  0.32604036  0.00015579
   0.68606883  0.00737864  0.00005498
  -0.00631070  0.01379142  0.00007168
   0.99478721  0.31065873  0.00004417
   0.65899671  0.32581774  0.00042674
   0.66679602  0.67386489  0.00007321
   0.11152936  0.22275356  0.94479494
   0.22252711  0.10593168  0.05189191
   0.11181139  0.55577253  0.95233871
   0.22204933  0.44842780  0.05100804
   0.11269535  0.88899366  0.95105481
   0.22272516  0.77820420  0.04795237
   0.44147019  0.21565816  0.94746079
   0.54988900  0.10618283  0.05127371
   0.44257930  0.55828670  0.94843500
   0.55587776  0.44523440  0.05167603
   0.44280449  0.88836158  0.95154987
   0.55083647  0.77664394  0.05173740
   0.77931935  0.22374016  0.94643733
   0.88949449  0.11183219  0.05720690
   0.78040575  0.55693893  0.94919176
   0.89220249  0.44682083  0.04949946
   0.77886449  0.88886390  0.94572805
   0.89182813  0.77771039  0.05092104
unknown system                          
           1
     8.274657    4.766158    0.000000
    -8.281349    4.777740    0.000000
     0.000000    0.000000   30.000000
   V    Mo   W    S 
   3   3   3  18
Direct configuration=    16
   0.33488784  0.00772393 -0.00009956
   0.33999360  0.66691451 -0.00054436
  -0.00221832  0.67025070 -0.00027720
   0.32750069  0.32602023  0.00018414
   0.68628937  0.00706536  0.00008876
  -0.00639814  0.01392315  0.00010221
   0.99490565  0.31043816  0.00009262
   0.65822455  0.32597278  0.00042458
   0.66639405  0.67366522  0.00007855
   0.11160151  0.22275760  0.94468936
   0.22243853  0.10586048  0.05188386
   0.11189325  0.55561815  0.95232063
   0.22204056  0.44845171  0.05102680
   0.11274574  0.88922318  0.95103155
   0.22292553  0.77828257  0.04795811
   0.44137063  0.21558840  0.94735918
   0.54989895  0.10615487  0.05124258
   0.44253538  0.55826456  0.94833748
   0.55576363  0.44526779  0.05178311
   0.44293899  0.88846122  0.95157544
   0.55077630  0.77667048  0.05180289
   0.77926050  0.22373654  0.94646374
   0.88949325  0.11181273  0.05728573
   0.78025808  0.55685532  0.94913507
   0.89205506  0.44659607  0.04947990
   0.77889410  0.88880558  0.94565232
   0.89174518  0.77783315  0.05092241
unknown system                          
           1
     8.283448    4.770207    0.000000
    -8.289715    4.781048    0.000000
     0.000000    0.000000   30.000000
   V    Mo   W    S 
   3   3   3  18
Direct configuration=    17
   0.33484012  0.00770237 -0.00009996
   0.33998051  0.66691174 -0.00054900
  -0.00224919  0.67030049 -0.00028024
   0.32740251  0.32595878  0.00018605
   0.68628157  0.00710530  0.00009316
  -0.00638490  0.01389421  0.00010722
   0.99489008  0.31043094  0.00009498
   0.65829127  0.32587799  0.00042869
   0.66648674  0.67378627  0.00008149
   0.11159481  0.22275063  0.94469173
   0.22244293  0.10586706  0.05188490
   0.11187326  0.55562096  0.95233120
   0.22203810  0.44844201  0.05101999
   0.11274463  0.88921058  0.95102734
   0.22290237  0.77827679  0.04795362
   0.44138156  0.21558715  0.94737025
   0.54988846  0.10614284  0.05124361
   0.44255329  0.55826418  0.94835331
   0.55578212  0.44527363  0.05175433
   0.44293028  0.88846225  0.95158011
   0.55078563  0.77667233  0.05179456
   0.77926828  0.22373633  0.94645522
   0.88950029  0.11181422  0.05727739
   0.78026048  0.55685701  0.94914478
   0.89207772  0.44661535  0.04947374
   0.77889720  0.88882410  0.94565194
   0.89175433  0.77782895  0.05092951
unknown system                          
           1
     8.285178    4.771391    0.000000
    -8.291754    4.782767    0.000000
     0.000000    0.000000   30.000000
   V    Mo   W    S 
   3   3   3  18
Direct configuration=    18
   0.33449643  0.00835725 -0.00007819
   0.34021494  0.66718927 -0.00059853
  -0.00170249  0.67128869 -0.00027961
   0.32787160  0.32540106  0.00012395
   0.68673676  0.00653897  0.00010344
  -0.00659682  0.01376539  0.00006186
   0.99520781  0.30994476  0.00008629
   0.65682521  0.32598848  0.00043882
   0.66696082  0.67428331  0.00000297
   0.11167728  0.22269893  0.94464563
   0.22227873  0.10573690  0.05195261
   0.11168338  0.55529222  0.95251207
   0.22202476  0.44824337  0.05101485
   0.11273009  0.88928536  0.95102104
   0.22291435  0.77838193  0.04786824
   0.44112226  0.21542975  0.94718636
   0.54981332  0.10596020  0.05114094
   0.44260957  0.55816132  0.94833454
   0.55560239  0.44545883  0.05183896
   0.44334377  0.88881943  0.95172936
   0.55088260  0.77674468  0.05191382
   0.77922931  0.22363305  0.94664653
   0.88956250  0.11172171  0.05742456
   0.78014165  0.55686915  0.94923157
   0.89188496  0.44638518  0.04918724
   0.77903908  0.88880660  0.94558382
   0.89166022  0.77782864  0.05090675
unknown system                          
           1
     8.279700    4.768591    0.000000
    -8.286115    4.779690    0.000000
     0.000000    0.000000   30.000000
   V    Mo   W    S 
   3   3   3  18
Direct configuration=    19
   0.33401020  0.00864496 -0.00006188
   0.34047764  0.66726271 -0.00066242
  -0.00139386  0.67221838 -0.00028962
   0.32773794  0.32487430  0.00011259
   0.68702989  0.00612837  0.00014734
  -0.00671173  0.01359926  0.00006778
   0.99555273  0.30952560  0.00011573
   0.65596037  0.32571302  0.00047626
   0.66741750  0.67520044 -0.00001901
   0.11169908  0.22261192  0.94464753
   0.22218395  0.10571458  0.05199851
   0.11155446  0.55516380  0.95266715
   0.22205907  0.44808925  0.05095095
   0.11274577  0.88933234  0.95094488
   0.22286897  0.77842643  0.04780831
   0.44101879  0.21533011  0.94710124
   0.54976947  0.10583431  0.05106627
   0.44273724  0.55812552  0.94843966
   0.55558438  0.44562668  0.05174319
   0.44345624  0.88896939  0.95185038
   0.55096179  0.77671403  0.05191637
   0.77919374  0.22360663  0.94676984
   0.88965376  0.11167406  0.05744388
   0.78006547  0.55686087  0.94931573
   0.89180217  0.44626466  0.04897139
   0.77915699  0.88887992  0.94552968
   0.89162241  0.77782292  0.05094818
unknown system                          
           1
     8.284988    4.770037    0.000000
    -8.291370    4.781073    0.000000
     0.000000    0.000000   30.000000
   V    Mo   W    S 
   3   3   3  18
Direct configuration=    20
   0.33416497  0.00866286 -0.00005637
   0.34040898  0.66728389 -0.00063497
  -0.00145139  0.67192916 -0.00027741
   0.32801704  0.32507543  0.00011601
   0.68710402  0.00619477  0.00015732
  -0.00675938  0.01373801  0.00006862
   0.99546617  0.30950916  0.00012279
   0.65598305  0.32600884  0.00047788
   0.66721343  0.67476048 -0.00000767
   0.11170231  0.22265704  0.94465964
   0.22218992  0.10571721  0.05197618
   0.11156359  0.55515867  0.95263825
   0.22203410  0.44807660  0.05094620
   0.11271346  0.88931085  0.95098690
   0.22286686  0.77841311  0.04781262
   0.44103279  0.21536409  0.94709258
   0.54981839  0.10590429  0.05105645
   0.44269104  0.55813002  0.94840814
   0.55555093  0.44556554  0.05179765
   0.44350878  0.88898253  0.95182740
   0.55098017  0.77671703  0.05190177
   0.77917794  0.22361163  0.94676751
   0.88963834  0.11169438  0.05742376
   0.78008203  0.55685450  0.94929197
   0.89176679  0.44625004  0.04899374
   0.77912971  0.88883146  0.94555054
   0.89162042  0.77781288  0.05090240
unknown system                          
           1
     8.285403    4.770569    0.000000
    -8.291836    4.781696    0.000000
     0.000000    0.000000   30.000000
   V    Mo   W    S 
   3   3   3  18
Direct configuration=    21
   0.33378345  0.00931305 -0.00003793
   0.34055226  0.66749094 -0.00068350
  -0.00103301  0.67281488 -0.00026954
   0.32850331  0.32451886  0.00007464
   0.68751994  0.00558121  0.00015015
  -0.00691760  0.01353478  0.00003469
   0.99591068  0.30912329  0.00012172
   0.65442630  0.32619103  0.00047550
   0.66761210  0.67516865 -0.00007217
   0.11181698  0.22258595  0.94459675
   0.22205088  0.10564240  0.05207779
   0.11136511  0.55492029  0.95274261
   0.22209697  0.44790881  0.05095447
   0.11271113  0.88938090  0.95087701
   0.22285500  0.77852025  0.04780934
   0.44087177  0.21523523  0.94690091
   0.54975934  0.10575775  0.05097300
   0.44278958  0.55804393  0.94841654
   0.55540192  0.44577709  0.05190130
   0.44378297  0.88928981  0.95192540
   0.55105589  0.77671304  0.05200358
   0.77910419  0.22355606  0.94695757
   0.88971033  0.11159422  0.05757692
   0.78002360  0.55682043  0.94929495
   0.89158652  0.44605364  0.04877026
   0.77927311  0.88883630  0.94544964
   0.89160174  0.77784166  0.05097828
unknown system                          
           1
     8.293569    4.778982    0.000000
    -8.299388    4.789049    0.000000
     0.000000    0.000000   30.000000
   V    Mo   W    S 
   3   3   3  18
Direct configuration=    22
   0.33384774  0.00916320 -0.00004719
   0.34054701  0.66743655 -0.00067959
  -0.00113806  0.67266537 -0.00028029
   0.32828195  0.32457702  0.00007833
   0.68741178  0.00575437  0.00014218
  -0.00686583  0.01355510  0.00003854
   0.99578364  0.30920693  0.00011057
   0.65482994  0.32600016  0.00047009
   0.66758805  0.67522981 -0.00006263
   0.11178272  0.22259176  0.94460757
   0.22207912  0.10565369  0.05205816
   0.11140540  0.55496930  0.95272755
   0.22207996  0.44795108  0.05095693
   0.11272034  0.88938085  0.95089983
   0.22285599  0.77849349  0.04780867
   0.44090950  0.21525810  0.94695721
   0.54975380  0.10576004  0.05100663
   0.44278039  0.55805626  0.94841854
   0.55545543  0.44574353  0.05185339
   0.44371733  0.88922390  0.95190661
   0.55103246  0.77672315  0.05199206
   0.77913117  0.22356108  0.94690247
   0.88969407  0.11161154  0.05755933
   0.78002333  0.55683009  0.94930715
   0.89165378  0.44611501  0.04882542
   0.77924496  0.88885833  0.94547066
   0.89160848  0.77784474  0.05097173
unknown system                          
           1
     8.289108    4.776571    0.000000
    -8.295189    4.787096    0.000000
     0.000000    0.000000   30.000000
   V    Mo   W    S 
   3   3   3  18
Direct configuration=    23
   0.33403679  0.00812617 -0.00009253
   0.34086677  0.66715042 -0.00066176
  -0.00170133  0.67216765 -0.00037641
   0.32654368  0.32467823  0.00013369
   0.68681821  0.00677350  0.00017428
  -0.00678980  0.01339027  0.00012186
   0.99487654  0.30947545  0.00011131
   0.65725715  0.32414482  0.00049316
   0.66776392  0.67664621  0.00002019
   0.11160032  0.22256633  0.94464580
   0.22218248  0.10572056  0.05192058
   0.11171161  0.55527209  0.95271135
   0.22203498  0.44820791  0.05089325
   0.11283744  0.88952764  0.95102432
   0.22290428  0.77833265  0.04776065
   0.44110268  0.21531346  0.94729013
   0.54972341  0.10571448  0.05120977
   0.44279075  0.55813760  0.94851004
   0.55590607  0.44566620  0.05138253
   0.44329979  0.88884939  0.95184030
   0.55085548  0.77672963  0.05189193
   0.77925271  0.22357409  0.94651772
   0.88964340  0.11171988  0.05741510
   0.77989249  0.55687581  0.94947761
   0.89207009  0.44646945  0.04910795
   0.77913200  0.88908516  0.94553784
   0.89160253  0.77789943  0.05093924
unknown system                          
           1
     8.289871    4.774627    0.000000
    -8.296615    4.786297    0.000000
     0.000000    0.000000   30.000000
   V    Mo   W    S 
   3   3   3  18
Direct configuration=    24
   0.33411327  0.00787651 -0.00011192
   0.34095580  0.66704966 -0.00067274
  -0.00194619  0.67205819 -0.00042273
   0.32575149  0.32451659  0.00013449
   0.68662828  0.00722761  0.00016087
  -0.00669422  0.01340857  0.00012507
   0.99452990  0.30949823  0.00007404
   0.65815028  0.32325409  0.00048924
   0.66802949  0.67739064  0.00003225
   0.11149255  0.22255517  0.94467997
   0.22219857  0.10573871  0.05188532
   0.11173900  0.55529843  0.95274332
   0.22194724  0.44823120  0.05087637
   0.11285054  0.88955829  0.95106696
   0.22287480  0.77826510  0.04773859
   0.44120762  0.21537276  0.94742401
   0.54969335  0.10565261  0.05129549
   0.44285188  0.55813259  0.94854027
   0.55608925  0.44565804  0.05116957
   0.44323667  0.88877060  0.95182851