unknown system                          
           1
     8.859398    5.104192    0.000000
    -8.861607    5.107993    0.000000
     0.000000    0.000000   30.000000
   V    Mo   W    S 
   3   3   3  18
Direct configuration=     1
   0.33333334  0.33333334  0.00000000
   0.66666669  0.66666669  0.00000000
   1.00000000  0.33333334  0.00000000
   0.33333334  0.00000000  0.00000000
   0.00000000  0.66666669  0.00000000
   0.66666669  0.00000000  0.00000000
   0.00000000  0.00000000  0.00000000
   0.33333334  0.66666669  0.00000000
   0.66666669  0.33333334  0.00000000
   0.11068511  0.22244981  0.95539999
   0.22244981  0.11068511  0.04460000
   0.11068511  0.55578315  0.95539999
   0.22244981  0.44401845  0.04460000
   0.11068511  0.88911647  0.95539999
   0.22244981  0.77735180  0.04460000
   0.44401845  0.22244981  0.95539999
   0.55578315  0.11068511  0.04460000
   0.44401845  0.55578315  0.95539999
   0.55578315  0.44401845  0.04460000
   0.44401845  0.88911647  0.95539999
   0.55578315  0.77735180  0.04460000
   0.77735180  0.22244981  0.95539999
   0.88911647  0.11068511  0.04460000
   0.77735180  0.55578315  0.95539999
   0.88911647  0.44401845  0.04460000
   0.77735180  0.88911647  0.95539999
   0.88911647  0.77735180  0.04460000
unknown system                          
           1
     8.670448    4.997861    0.000000
    -8.672507    5.001403    0.000000
     0.000000    0.000000   30.000000
   V    Mo   W    S 
   3   3   3  18
Direct configuration=     2
   0.33331198  0.33250476  0.00000315
   0.66753825  0.66753312  0.00012032
   0.99924411  0.33341946 -0.00012229
   0.33338748 -0.00144718  0.00000484
   0.00136048  0.66801801  0.00012006
   0.66513823 -0.00005665 -0.00012644
   0.00005657 -0.00114205  0.00000681
   0.33325901  0.66885041 -0.00001155
   0.66661700  0.33217057  0.00000484
   0.11246316  0.22571155  0.95310747
   0.22337394  0.11497149  0.04803362
   0.10970891  0.55124974  0.95194661
   0.22058156  0.44080538  0.04682127
   0.11069607  0.88938715  0.95075280
   0.22248785  0.77723466  0.04933617
   0.44287802  0.22495150  0.95203297
   0.55581183  0.11201565  0.04923628
   0.44611298  0.55369120  0.95310015
   0.55375780  0.44622042  0.04696885
   0.44396982  0.88791421  0.95067348
   0.55698181  0.77465489  0.04799616
   0.78183504  0.22481521  0.95184807
   0.89147176  0.11505618  0.04798978
   0.77481278  0.55690526  0.95208824
   0.89027100  0.44159307  0.04797334
   0.77642323  0.88486124  0.95196405
   0.88466378  0.77632522  0.04813086
unknown system                          
           1
     8.485863    4.897114    0.000000
    -8.487795    4.900441    0.000000
     0.000000    0.000000   30.000000
   V    Mo   W    S 
   3   3   3  18
Direct configuration=     3
   0.33331857  0.33226696  0.00000332
   0.66788976  0.66781643  0.00008816
   0.99889012  0.33334863 -0.00009156
   0.33338620 -0.00227044  0.00000446
   0.00209177  0.66882043  0.00009486
   0.66441155  0.00001829 -0.00009976
   0.00008705 -0.00169080  0.00001418
   0.33326536  0.66994046 -0.00000886
   0.66657621  0.33158047 -0.00000498
   0.11238865  0.22552751  0.95317962
   0.22320347  0.11494003  0.04800452
   0.10988973  0.55126267  0.95196120
   0.22065323  0.44099945  0.04668451
   0.11058122  0.88954349  0.95068285
   0.22263024  0.77710730  0.04948090
   0.44308324  0.22509703  0.95205323
   0.55592999  0.11225750  0.04931181
   0.44600566  0.55379597  0.95325029
   0.55387045  0.44612698  0.04688487
   0.44383800  0.88768427  0.95052332
   0.55676074  0.77448385  0.04798605
   0.78182250  0.22501435  0.95180342
   0.89166163  0.11503201  0.04788929
   0.77465117  0.55669605  0.95217272
   0.89007873  0.44144875  0.04795227
   0.77658591  0.88488338  0.95199668
   0.88466330  0.77648346  0.04818253
unknown system                          
           1
     8.285116    4.774393    0.000000
    -8.292382    4.786959    0.000000
     0.000000    0.000000   30.000000
   V    Mo   W    S 
   3   3   3  18
Direct configuration=     4
   0.33331968  0.33128840  0.00000440
   0.66953911  0.66904797 -0.00008295
   0.99722446  0.33291599  0.00007504
   0.33337255 -0.00589499  0.00000252
   0.00517353  0.67233522 -0.00002735
   0.66131353  0.00043592  0.00002716
   0.00019831 -0.00407196  0.00005412
   0.33328871  0.67453283 -0.00000112
   0.66639976  0.32904555 -0.00005156
   0.11280098  0.22627170  0.95210878
   0.22375942  0.11582189  0.04933160
   0.10951275  0.55028405  0.95056505
   0.22029401  0.44043552  0.04746645
   0.11067102  0.88983680  0.94878778
   0.22275923  0.77706094  0.05171856
   0.44265128  0.22543771  0.95069541
   0.55585857  0.11237423  0.05122664
   0.44627098  0.55352752  0.95251762
   0.55359404  0.44654433  0.04791228
   0.44373940  0.88762757  0.94826701
   0.55701560  0.77387593  0.04939862
   0.78289427  0.22561857  0.95011893
   0.89226343  0.11591522  0.04890863
   0.77415655  0.55700032  0.95110163
   0.89054510  0.44110534  0.04928740
   0.77603547  0.88397728  0.95070236
   0.88356270  0.77586460  0.04988487
unknown system                          
           1
     8.282671    4.765932    0.000000
    -8.296697    4.790209    0.000000
     0.000000    0.000000   30.000000
   V    Mo   W    S 
   3   3   3  18
Direct configuration=     5
   0.33328276  0.32983014  0.00000681
   0.67274013  0.67099533 -0.00040051
   0.99403799  0.33169342  0.00039029
   0.33338963 -0.01263217  0.00000874
   0.01111791  0.67955355 -0.00015757
   0.65524971  0.00165200  0.00015076
   0.00093662 -0.00851429  0.00016382
   0.33328644  0.68256196 -0.00001847
   0.66558799  0.32382628 -0.00014335
   0.11295418  0.22657953  0.95071484
   0.22444588  0.11589891  0.05098022
   0.10952815  0.55004901  0.94883282
   0.22020713  0.44080936  0.04831996
   0.11161045  0.89040199  0.94612523
   0.22263963  0.77734521  0.05499777
   0.44207915  0.22476052  0.94901352
   0.55495438  0.11203517  0.05389496
   0.44628252  0.55384230  0.95170214
   0.55355481  0.44686466  0.04927719
   0.44387812  0.88800703  0.94498566
   0.55693986  0.77372775  0.05116131
   0.78376409  0.22554535  0.94774790
   0.89206869  0.11598650  0.05001149
   0.77445775  0.55718835  0.94995419
   0.89112701  0.44156053  0.05079844
   0.77537540  0.88370317  0.94921562
   0.88271808  0.77494291  0.05226610
unknown system                          
           1
     8.286487    4.766578    0.000000
    -8.301643    4.792814    0.000000
     0.000000    0.000000   30.000000
   V    Mo   W    S 
   3   3   3  18
Direct configuration=     6
   0.33325037  0.32966624  0.00000147
   0.67400511  0.67132085 -0.00040115
   0.99280342  0.33079719  0.00039662
   0.33338758 -0.01310955  0.00000327
   0.01227448  0.68171005 -0.00003505
   0.65407683  0.00261933  0.00003233
   0.00202447 -0.00975435  0.00012888
   0.33326180  0.68385311 -0.00000275
   0.66450023  0.32151638 -0.00012279
   0.11255480  0.22602382  0.95075388
   0.22448793  0.11497146  0.05103948
   0.10994027  0.55095191  0.94883985
   0.22051782  0.44185433  0.04813479
   0.11260467  0.89094792  0.94575064
   0.22243077  0.77743519  0.05547477
   0.44204526  0.22379261  0.94896481
   0.55396228  0.11159038  0.05427623
   0.44600373  0.55459003  0.95188230
   0.55395989  0.44672711  0.04924503
   0.44409030  0.88831352  0.94449993
   0.55653689  0.77422519  0.05114013
   0.78343261  0.22501888  0.94745634
   0.89113729  0.11470403  0.04983293
   0.77536745  0.55683228  0.95013651
   0.89105182  0.44231369  0.05064163
   0.77545926  0.88453864  0.94936923
   0.88304714  0.77476423  0.05256060
unknown system                          
           1
     8.288637    4.764952    0.000000
    -8.306409    4.795718    0.000000
     0.000000    0.000000   30.000000
   V    Mo   W    S 
   3   3   3  18
Direct configuration=     7
   0.33321346  0.32964305 -0.00000031
   0.67563179  0.67161721 -0.00043951
   0.99119890  0.32952348  0.00043787
   0.33338303 -0.01372178  0.00000686
   0.01367081  0.68460599  0.00001881
   0.65267282  0.00412689 -0.00002542
   0.00364693 -0.01135172  0.00007889
   0.33323582  0.68562572 -0.00001433
   0.66288915  0.31830570 -0.00006400
   0.11219786  0.22551431  0.95086895
   0.22455175  0.11434264  0.05111350
   0.11006622  0.55168754  0.94897569
   0.22062664  0.44258249  0.04784358
   0.11349989  0.89137268  0.94538662
   0.22233523  0.77758828  0.05582018
   0.44197769  0.22309033  0.94889188
   0.55307243  0.11114344  0.05463202
   0.44591213  0.55521090  0.95217666
   0.55430997  0.44658117  0.04913060
   0.44417066  0.88851437  0.94416300
   0.55642856  0.77484417  0.05100251
   0.78314241  0.22464670  0.94715186
   0.89037309  0.11343796  0.04950875
   0.77612797  0.55631995  0.95045686
   0.89091887  0.44293641  0.05034257
   0.77560314  0.88530239  0.94966466
   0.88335723  0.77472420  0.05287117
unknown system                          
           1
     8.298412    4.760872    0.000000
    -8.324524    4.806083    0.000000
     0.000000    0.000000   30.000000
   V    Mo   W    S 
   3   3   3  18
Direct configuration=     8
   0.33321152  0.32966338 -0.00000175
   0.67640763  0.67172692 -0.00046194
   0.99047085  0.32889601  0.00046084
   0.33338152 -0.01387005  0.00000599
   0.01414091  0.68581258  0.00005468
   0.65217660  0.00482187 -0.00006026
   0.00439305 -0.01199300  0.00007005
   0.33323608  0.68632919 -0.00001052
   0.66211198  0.31693251 -0.00005802
   0.11210268  0.22534438  0.95090646
   0.22456699  0.11419970  0.05117044
   0.11007080  0.55190887  0.94903492
   0.22060935  0.44276749  0.04772152
   0.11389449  0.89155545  0.94518573
   0.22227435  0.77762872  0.05596434
   0.44196799  0.22292877  0.94883656
   0.55267799  0.11093379  0.05483359
   0.44594571  0.55542031  0.95230331
   0.55441075  0.44652019  0.04909110
   0.44423383  0.88861858  0.94401629
   0.55642408  0.77505820  0.05093547
   0.78304135  0.22454502  0.94701191
   0.89013598  0.11294646  0.04937727
   0.77635847  0.55607015  0.95058860
   0.89082163  0.44313943  0.05020494
   0.77569756  0.88558779  0.94980717
   0.88345034  0.77472176  0.05301124
unknown system                          
           1
     8.314320    4.760430    0.000000
    -8.348819    4.820169    0.000000
     0.000000    0.000000   30.000000
   V    Mo   W    S 
   3   3   3  18
Direct configuration=     9
   0.33310737  0.32971664 -0.00000540
   0.67948351  0.67195642 -0.00052644
   0.98737154  0.32611561  0.00053735
   0.33337052 -0.01405640  0.00000801
   0.01572889  0.69032052  0.00015137
   0.65067287  0.00787389 -0.00016147
   0.00769176 -0.01408888 -0.00000069
   0.33314517  0.68886428 -0.00001570
   0.65891869  0.31152413  0.00001795
   0.11168724  0.22459917  0.95112084
   0.22461853  0.11379839  0.05137994
   0.10995992  0.55267836  0.94941250
   0.22044407  0.44338148  0.04716763
   0.11539939  0.89221445  0.94449680
   0.22204743  0.77780512  0.05637045
   0.44190879  0.22246242  0.94862902
   0.55117633  0.11010528  0.05551562
   0.44611857  0.55620517  0.95285885
   0.55480505  0.44618608  0.04888291
   0.44443888  0.88898102  0.94361243
   0.55652400  0.77594302  0.05055515
   0.78260529  0.22421647  0.94653838
   0.88934703  0.11100731  0.04878572
   0.77718118  0.55489433  0.95115374
   0.89034475  0.44384521  0.04951638
   0.77619117  0.88680494  0.95048637
   0.88392652  0.77486001  0.05351218
unknown system                          
           1
     8.324862    4.755973    0.000000
    -8.368399    4.831365    0.000000
     0.000000    0.000000   30.000000
   V    Mo   W    S 
   3   3   3  18
Direct configuration=    10
   0.33306169  0.32958668 -0.00001112
   0.68205362  0.67198308 -0.00054874
   0.98486936  0.32367458  0.00056266
   0.33335011 -0.01374325  0.00000035
   0.01627371  0.69299485  0.00023284
   0.65011745  0.00996456 -0.00024444
   0.00999324 -0.01516365 -0.00004102
   0.33313771  0.69065998 -0.00000919
   0.65656236  0.30819194  0.00005498
   0.11141460  0.22398112  0.95126289
   0.22467900  0.11375780  0.05158530
   0.10969622  0.55303976  0.94976858
   0.22022807  0.44371198  0.04672057
   0.11659600  0.89268073  0.94399131
   0.22180736  0.77794533  0.05655970
   0.44189179  0.22237048  0.94844005
   0.54997615  0.10938220  0.05603167
   0.44635256  0.55675792  0.95332222
   0.55506916  0.44585064  0.04872895
   0.44469642  0.88936676  0.94343174
   0.55677122  0.77656987  0.05016693
   0.78217653  0.22404180  0.94619762
   0.88887963  0.10950556  0.04838783
   0.77764826  0.55388627  0.95155581
   0.88996124  0.44439069  0.04891796
   0.77657092  0.88769657  0.95111120
   0.88438005  0.77513021  0.05382326
unknown system                          
           1
     8.328862    4.760310    0.000000
    -8.370722    4.832798    0.000000
     0.000000    0.000000   30.000000
   V    Mo   W    S 
   3   3   3  18
Direct configuration=    11
   0.33296603  0.32890782 -0.00001657
   0.68554586  0.67165727 -0.00053458
   0.98137247  0.31997157  0.00055471
   0.33335830 -0.01328715  0.00001798
   0.01699528  0.69612424  0.00022440
   0.64943172  0.01248445 -0.00024209
   0.01286282 -0.01595079 -0.00013489
   0.33307891  0.69326004 -0.00001871
   0.65373332  0.30452672  0.00016419
   0.11103405  0.22306313  0.95146646
   0.22473592  0.11384103  0.05183571
   0.10930127  0.55337305  0.95037945
   0.21989577  0.44418698  0.04600679
   0.11798127  0.89315663  0.94352226
   0.22148288  0.77828008  0.05666338
   0.44183292  0.22238342  0.94818305
   0.54859840  0.10849326  0.05647799
   0.44667076  0.55755759  0.95404683
   0.55541798  0.44530243  0.04852649
   0.44502432  0.88999450  0.94333053
   0.55717929  0.77731074  0.04954449
   0.78146707  0.22389486  0.94583884
   0.88837005  0.10764380  0.04790528
   0.77820108  0.55252399  0.95201677
   0.88948385  0.44500545  0.04800936
   0.77705838  0.88880840  0.95202775
   0.88513446  0.77570095  0.05420403
unknown system                          
           1
     8.332225    4.759915    0.000000
    -8.376056    4.835816    0.000000
     0.000000    0.000000   30.000000
   V    Mo   W    S 
   3   3   3  18
Direct configuration=    12
   0.33298228  0.32873802 -0.00001671
   0.68486325  0.67156410 -0.00050992
   0.98205501  0.32054948  0.00053024
   0.33335099 -0.01321445  0.00000711
   0.01670200  0.69507544  0.00022797
   0.64971993  0.01168993 -0.00024709
   0.01202003 -0.01548147 -0.00009942
   0.33309293  0.69271767 -0.00001388
   0.65456198  0.30586231  0.00011879
   0.11112452  0.22325032  0.95138385
   0.22474154  0.11390748  0.05180992
   0.10934222  0.55317995  0.95025361
   0.21995902  0.44410931  0.04612387
   0.11767520  0.89306280  0.94363687
   0.22150240  0.77827832  0.05663919
   0.44183590  0.22244763  0.94821437
   0.54890412  0.10870030  0.05637909
   0.44661668  0.55742271  0.95392858
   0.55533415  0.44540697  0.04860801
   0.44500755  0.88999110  0.94335568
   0.55713746  0.77707438  0.04966726
   0.78155671  0.22395009  0.94592505
   0.88847824  0.10806540  0.04807884
   0.77808144  0.55284382  0.95184851
   0.88965786  0.44487449  0.04818399
   0.77687645  0.88849149  0.95185771
   0.88503458  0.77565687  0.05410839
unknown system                          
           1
     8.336115    4.761094    0.000000
    -8.380837    4.838538    0.000000
     0.000000    0.000000   30.000000
   V    Mo   W    S 
   3   3   3  18
Direct configuration=    13
   0.33294006  0.32799275 -0.00001923
   0.68603274  0.67118527 -0.00047280
   0.98084600  0.31903313  0.00049948
   0.33334667 -0.01287676  0.00000845
   0.01688801  0.69591903  0.00021604
   0.64957210  0.01240195 -0.00023630
   0.01279370 -0.01549184 -0.00012824
   0.33307269  0.69364305 -0.00001406
   0.65381683  0.30509434  0.00015173
   0.11101899  0.22296541  0.95141064
   0.22475835  0.11401797  0.05190828
   0.10920406  0.55316793  0.95046148
   0.21986000  0.44430352  0.04582531
   0.11801625  0.89321563  0.94354865
   0.22137598  0.77849301  0.05665921
   0.44182515  0.22253944  0.94811777
   0.54857030  0.10852405  0.05646623
   0.44670980  0.55771332  0.95422933
   0.55542394  0.44522425  0.04858180
   0.44513561  0.89032694  0.94333719
   0.55727769  0.77720528  0.04945070
   0.78123113  0.22389582  0.94583651
   0.88828205  0.10752898  0.04800637
   0.77829728  0.55250072  0.95191074
   0.88960003  0.44504161  0.04786685
   0.77693419  0.88872065  0.95218094
   0.88538486  0.77592901  0.05419682
unknown system                          
           1
     8.340782    4.762552    0.000000
    -8.386596    4.841888    0.000000
     0.000000    0.000000   30.000000
   V    Mo   W    S 
   3   3   3  18
Direct configuration=    14
   0.33292216  0.32729655 -0.00002153
   0.68672768  0.67083609 -0.00044372
   0.98015774  0.31803879  0.00047173
   0.33334708 -0.01255476  0.00000936
   0.01694084  0.69629053  0.00020869
   0.64951032  0.01272648 -0.00023090
   0.01311992 -0.01540869 -0.00014334
   0.33306645  0.69418232 -0.00001549
   0.65347955  0.30486420  0.00016803
   0.11097982  0.22281803  0.95140145
   0.22476718  0.11412517  0.05199001
   0.10914832  0.55314011  0.95058031
   0.21982358  0.44444367  0.04562035
   0.11819335  0.89332468  0.94349523
   0.22131269  0.77867371  0.05667879
   0.44182553  0.22263797  0.94803734
   0.54839756  0.10846334  0.05651907
   0.44675333  0.55789379  0.95443930
   0.55545987  0.44512740  0.04858904
   0.44520720  0.89057231  0.94332014
   0.55734630  0.77723655  0.04932297
   0.78100645  0.22385574  0.94577556
   0.88812207  0.10723310  0.04801006
   0.77845999  0.55237718  0.95190549
   0.88962812  0.44513918  0.04768062
   0.77689836  0.88877468  0.95237721
   0.88561296  0.77610634  0.05425411
unknown system                          
           1
     8.344373    4.764250    0.000000
    -8.390521    4.844163    0.000000
     0.000000    0.000000   30.000000
   V    Mo   W    S 
   3   3   3  18
Direct configuration=    15
   0.33286182  0.32552765 -0.00002486
   0.68796824  0.67000428 -0.00037038
   0.97876944  0.31595319  0.00040753
   0.33333691 -0.01178187  0.00001032
   0.01718748  0.69706301  0.00019185
   0.64935650  0.01335740 -0.00021747
   0.01382640 -0.01512894 -0.00017426
   0.33304460  0.69530631 -0.00001419
   0.65284807  0.30446227  0.00020182
   0.11092326  0.22253678  0.95137735
   0.22474522  0.11436137  0.05215884
   0.10903046  0.55308341  0.95081934
   0.21978060  0.44471573  0.04517346
   0.11850146  0.89356057  0.94340886
   0.22120265  0.77909499  0.05670768
   0.44185257  0.22289528  0.94787141
   0.54810154  0.10841292  0.05660520
   0.44678242  0.55820108  0.95488405
   0.55548737  0.44488748  0.04861763
   0.44532301  0.89109934  0.94329281
   0.55746724  0.77730964  0.04907261
   0.78055099  0.22378178  0.94566954
   0.88774465  0.10666162  0.04803933
   0.77887055  0.55216035  0.95185779
   0.88973967  0.44532567  0.04729619
   0.77679313  0.88887023  0.95277088
   0.88611820  0.77649288  0.05436656
unknown system                          
           1
     8.345011    4.764907    0.000000
    -8.390933    4.844430    0.000000
     0.000000    0.000000   30.000000
   V    Mo   W    S 
   3   3   3  18
Direct configuration=    16
   0.33284738  0.32401023 -0.00002757
   0.68888594  0.66935051 -0.00031340
   0.97787154  0.31447200  0.00035010
   0.33333264 -0.01103664  0.00000959
   0.01723630  0.69752133  0.00017906
   0.64925887  0.01373883 -0.00020710
   0.01405583 -0.01500764 -0.00019407
   0.33304639  0.69601315 -0.00001741
   0.65257581  0.30438471  0.00022193
   0.11089531  0.22239016  0.95133007
   0.22470187  0.11452794  0.05231217
   0.10896401  0.55301459  0.95096015
   0.21974836  0.44488566  0.04485898
   0.11867109  0.89374987  0.94334997
   0.22118476  0.77946904  0.05674132
   0.44191802  0.22310875  0.94772285
   0.54794111  0.10844389  0.05666494
   0.44681942  0.55840482  0.95520232
   0.55551368  0.44478174  0.04866220
   0.44536173  0.89150106  0.94326504
   0.55755909  0.77732150  0.04891940
   0.78025079  0.22374108  0.94558862
   0.88743953  0.10629663  0.04810735
   0.77917825  0.55213314  0.95179530
   0.88989499  0.44544563  0.04705080
   0.77663219  0.88880820  0.95303614
   0.88642957  0.77674428  0.05443115
unknown system                          
           1
     8.338802    4.759603    0.000000
    -8.386180    4.841647    0.000000
     0.000000    0.000000   30.000000
   V    Mo   W    S 
   3   3   3  18
Direct configuration=    17
   0.33283844  0.32340226 -0.00002745
   0.68907322  0.66908445 -0.00028776
   0.97760883  0.31398177  0.00032877
   0.33332890 -0.01075836  0.00001135
   0.01731106  0.69764359  0.00017295
   0.64923494  0.01383286 -0.00020110
   0.01410809 -0.01490966 -0.00020378
   0.33304344  0.69621783 -0.00001542
   0.65255828  0.30443092  0.00023316
   0.11089458  0.22236313  0.95131649
   0.22465446  0.11458291  0.05236161
   0.10894638  0.55298707  0.95100497
   0.21973448  0.44490932  0.04474643
   0.11869044  0.89381942  0.94334403
   0.22120273  0.77962238  0.05673664
   0.44195924  0.22320729  0.94767197
   0.54792511  0.10850230  0.05666856
   0.44681952  0.55843576  0.95531031
   0.55550467  0.44474349  0.04868115
   0.44534309  0.89163638  0.94326654
   0.55757356  0.77731842  0.04887518
   0.78017283  0.22373732  0.94557064
   0.88732932  0.10622757  0.04813932
   0.77930243  0.55215093  0.95175286
   0.88998464  0.44546530  0.04697406
   0.77654831  0.88875737  0.95311122
   0.88652347  0.77682243  0.05445720
unknown system                          
           1
     8.339028    4.757518    0.000000
    -8.388385    4.842992    0.000000
     0.000000    0.000000   30.000000
   V    Mo   W    S 
   3   3   3  18
Direct configuration=    18
   0.33282494  0.32610716 -0.00002470
   0.68796381  0.67020752 -0.00039604
   0.97866375  0.31606056  0.00043514
   0.33333248 -0.01217478  0.00001288
   0.01731906  0.69715113  0.00019583
   0.64930721  0.01337923 -0.00021879
   0.01410947 -0.01514957 -0.00017451
   0.33303748  0.69544207 -0.00001038
   0.65262804  0.30413318  0.00020562
   0.11086809  0.22248466  0.95139055
   0.22486831  0.11435163  0.05214130
   0.10902369  0.55311266  0.95083010
   0.21978012  0.44482621  0.04521660
   0.11862091  0.89350590  0.94337737
   0.22111247  0.77893813  0.05671839
   0.44172987  0.22276775  0.94789082
   0.54798385  0.10824066  0.05663219
   0.44676327  0.55830370  0.95483824
   0.55552201  0.44485905  0.04860345
   0.44540861  0.89102064  0.94328190
   0.55744112  0.77734872  0.04906239
   0.78056021  0.22377228  0.94565764
   0.88783866  0.10661157  0.04797778
   0.77880263  0.55198805  0.95190751
   0.88961369  0.44535817  0.04729110
   0.77693907  0.88906702  0.95277276
   0.88615165  0.77650117  0.05438477
unknown system                          
           1
     8.337673    4.749723    0.000000
    -8.393369    4.846183    0.000000
     0.000000    0.000000   30.000000
   V    Mo   W    S 
   3   3   3  18
Direct configuration=    19
   0.33277365  0.32778121 -0.00002205
   0.68751344  0.67081179 -0.00045724
   0.97893651  0.31693427  0.00049598
   0.33331794 -0.01309719  0.00001337
   0.01745892  0.69701113  0.00020645
   0.64931144  0.01320362 -0.00022817
   0.01444161 -0.01521104 -0.00015622
   0.33302595  0.69526154 -0.00000547
   0.65241455  0.30370271  0.00018797
   0.11079015  0.22247516  0.95143302
   0.22509520  0.11427075  0.05203836
   0.10901555  0.55314585  0.95077800
   0.21976553  0.44489713  0.04542364
   0.11873110  0.89334300  0.94334921
   0.22096812  0.77854621  0.05674558
   0.44150411  0.22246922  0.94799775
   0.54787357  0.10796276  0.05665895
   0.44673043  0.55836622  0.95462191
   0.55556632  0.44486755  0.04856096
   0.44554402  0.89075555  0.94325631
   0.55739414  0.77739561  0.04912688
   0.78070792  0.22378065  0.94567918
   0.88811779  0.10668321  0.04786069
   0.77855980  0.55172687  0.95201062
   0.88935496  0.44533792  0.04739102
   0.77723698  0.88938439  0.95265683
   0.88606474  0.77640837  0.05437636
unknown system                          
           1
     8.347826    4.758631    0.000000
    -8.400841    4.850445    0.000000
     0.000000    0.000000   30.000000
   V    Mo   W    S 
   3   3   3  18
Direct configuration=    20
   0.33261767  0.33460136 -0.00001011
   0.68621587  0.67296325 -0.00067111
   0.97982901  0.31995373  0.00067522
   0.33325964 -0.01635416  0.00000078
   0.01747656  0.69655847  0.00025621
   0.64948818  0.01281864 -0.00027035
   0.01546936 -0.01570610 -0.00003331
   0.33304955  0.69432568 -0.00000550
   0.65160032  0.30211580  0.00005948
   0.11053210  0.22250006  0.95163371
   0.22597173  0.11386892  0.05154600
   0.10900583  0.55319520  0.95059477
   0.21953736  0.44501087  0.04620925
   0.11908868  0.89274820  0.94330775
   0.22043844  0.77716414  0.05686897
   0.44071529  0.22125870  0.94852498
   0.54752585  0.10697207  0.05670825
   0.44679656  0.55860360  0.95381010
   0.55575039  0.44497744  0.04833329
   0.44609679  0.88987002  0.94316968
   0.55728096  0.77748590  0.04935776
   0.78117355  0.22379659  0.94581516
   0.88918427  0.10691106  0.04740822
   0.77758044  0.55087233  0.95249666
   0.88831915  0.44516955  0.04772096
   0.77841556  0.89041215  0.95230069
   0.88579533  0.77612095  0.05419241
unknown system                          
           1
     8.348778    4.758590    0.000000
    -8.402037    4.850821    0.000000
     0.000000    0.000000   30.000000
   V    Mo   W    S 
   3   3   3  18
Direct configuration=    21
   0.33268651  0.33127760 -0.00001534
   0.68757778  0.67165189 -0.00053965
   0.97881715  0.31768297  0.00053774
   0.33326941 -0.01448305 -0.00000484
   0.01723275  0.69700899  0.00023122
   0.64943363  0.01329018 -0.00025448
   0.01514937 -0.01554209 -0.00006497
   0.33306733  0.69503054 -0.00001898
   0.65167858  0.30269815  0.00008408
   0.11061395  0.22240263  0.95152993
   0.22566758  0.11413097  0.05180996
   0.10892914  0.55304556  0.95076489
   0.21950303  0.44502628  0.04568886
   0.11908637  0.89312947  0.94327917
   0.22060433  0.77800708  0.05689844
   0.44105400  0.22181861  0.94826299
   0.54753570  0.10736544  0.05674736
   0.44690001  0.55868554  0.95434795
   0.55572250  0.44490588  0.04843104
   0.44597412  0.89059103  0.94314854
   0.55747468  0.77742174  0.04916303
   0.78073039  0.22375452  0.94571217
   0.88854919  0.10648109  0.04764023
   0.77814733  0.55120623  0.95230377
   0.88880227  0.44528742  0.04739530
   0.77786829  0.88989990  0.95266781
   0.88613906  0.77643987  0.05425368
unknown system                          
           1
     8.349747    4.759130    0.000000
    -8.402995    4.851342    0.000000
     0.000000    0.000000   30.000000
   V    Mo   W    S 
   3   3   3  18
Direct configuration=    22
   0.33266221  0.33157227 -0.00001312
   0.68815043  0.67125794 -0.00047727
   0.97833608  0.31679748  0.00048012
   0.33329517 -0.01447054  0.00002000
   0.01734985  0.69733294  0.00023324
   0.64928101  0.01348801 -0.00024094
   0.01532927 -0.01553156 -0.00009900
   0.33307058  0.69540386 -0.00000322
   0.65144207  0.30249520  0.00013559
   0.11061322  0.22234668  0.95154560
   0.22575550  0.11420861  0.05179022
   0.10892743  0.55299076  0.95089760
   0.21928304  0.44497357  0.04554985
   0.11912356  0.89322775  0.94329470
   0.22057016  0.77818323  0.05682557
   0.44095675  0.22179941  0.94826463
   0.54750778  0.10744415  0.05670498
   0.44714212  0.55885867  0.95448983
   0.55577120  0.44492593  0.04840807
   0.44603653  0.89083569  0.94318798
   0.55752660  0.77736894  0.04901984
   0.78051909  0.22370087  0.94566614
   0.88835779  0.10624440  0.04767021
   0.77830695  0.55117563  0.95227238
   0.88885932  0.44527029  0.04719615
   0.77777928  0.88976643  0.95287909
   0.88626149  0.77654784  0.05430167
unknown system                          
           1
     8.349462    4.758792    0.000000
    -8.402842    4.851231    0.000000
     0.000000    0.000000   30.000000
   V    Mo   W    S 
   3   3   3  18
Direct configuration=    23
   0.33265648  0.33112472 -0.00001487
   0.68839243  0.67096947 -0.00044860
   0.97809305  0.31628775  0.00045386
   0.33329984 -0.01423238  0.00001833
   0.01736404  0.69745016  0.00022772
   0.64927512  0.01360514 -0.00023932
   0.01533995 -0.01545655 -0.00010269
   0.33307070  0.69560114 -0.00000452
   0.65143473  0.30256817  0.00013721
   0.11060930  0.22231214  0.95152985
   0.22570380  0.11425464  0.05182360
   0.10892232  0.55296854  0.95094465
   0.21924446  0.44498185  0.04545613
   0.11913638  0.89329310  0.94329243
   0.22058478  0.77831670  0.05682025
   0.44100240  0.22189184  0.94823026
   0.54749592  0.10750198  0.05671010
   0.44718417  0.55890674  0.95458400
   0.55577637  0.44490532  0.04842719
   0.44601868  0.89095560  0.94319375
   0.55754227  0.77735263  0.04897149
   0.78042383  0.22368345  0.94565035
   0.88823776  0.10616572  0.04770415
   0.77842773  0.55120989  0.95223256
   0.88894669  0.44528823  0.04711761
   0.77768531  0.88969497  0.95295888
   0.88634595  0.77661348  0.05432554
unknown system                          
           1
     8.347543    4.756530    0.000000
    -8.401883    4.850632    0.000000
     0.000000    0.000000   30.000000
   V    Mo   W    S 
   3   3   3  18
Direct configuration=    24
   0.33265384  0.33128887 -0.00001443
   0.68832941  0.67103891 -0.00045449
   0.97813378  0.31639777  0.00045926
   0.33329659 -0.01432181  0.00001803
   0.01737921  0.69742894  0.00022906
   0.64927792  0.01358101 -0.00024115
   0.01535405 -0.01547047 -0.00010073
   0.33306886  0.69555966 -0.00000429
   0.65143563  0.30253861  0.00013455
   0.11061015  0.22232294  0.95153619
   0.22572009  0.11424004  0.05181184
   0.10892259  0.55297344  0.95093615
   0.21924508  0.44497288  0.04547977
   0.11913738  0.89327401  0.94329353
   0.22057570  0.77828426  0.05681935
   0.44098622  0.22186164  0.94824258
   0.54749462  0.10748187  0.05670955
   0.44717543  0.55889268  0.95455869
   0.55577190  0.44490722  0.04842180
   0.44602637  0.89093053  0.94319511