       N       E                     dE             d eps       ncg     rms          rms(c)
DAV:   1     0.112465731185E+04    0.11247E+04   -0.35864E+04  8160   0.577E+02
DAV:   2     0.158653183203E+01   -0.11231E+04   -0.10792E+04 10800   0.173E+02
DAV:   3    -0.199521857351E+03   -0.20111E+03   -0.19222E+03 10960   0.824E+01
DAV:   4    -0.208999799013E+03   -0.94779E+01   -0.91633E+01 12120   0.261E+01
DAV:   5    -0.209324715064E+03   -0.32492E+00   -0.32393E+00 11800   0.360E+00    0.275E+01
DAV:   6    -0.236780058658E+03   -0.27455E+02   -0.10621E+02 12680   0.604E+01    0.594E+01
DAV:   7    -0.196506760820E+03    0.40273E+02   -0.17663E+02 13200   0.152E+02    0.200E+01
DAV:   8    -0.189378348431E+03    0.71284E+01   -0.17364E+01 11960   0.127E+01    0.125E+01
DAV:   9    -0.188120496275E+03    0.12579E+01   -0.30177E+00 13320   0.651E+00    0.898E+00
DAV:  10    -0.187010087595E+03    0.11104E+01   -0.21615E+00 13520   0.712E+00    0.283E+00
DAV:  11    -0.186972036891E+03    0.38051E-01   -0.61860E-01 13280   0.261E+00    0.279E+00
DAV:  12    -0.187103563832E+03   -0.13153E+00   -0.85549E-01 12680   0.499E+00    0.510E+00
DAV:  13    -0.186888108472E+03    0.21546E+00   -0.57886E-01 12960   0.414E+00    0.218E+00
DAV:  14    -0.186863910521E+03    0.24198E-01   -0.14047E-01 13320   0.217E+00    0.179E+00
DAV:  15    -0.186839930166E+03    0.23980E-01   -0.75906E-02 12520   0.165E+00    0.819E-01
DAV:  16    -0.186833135686E+03    0.67945E-02   -0.11090E-02 12080   0.413E-01    0.462E-01
DAV:  17    -0.186831430176E+03    0.17055E-02   -0.79755E-03 12920   0.395E-01    0.240E-01
DAV:  18    -0.186830653452E+03    0.77672E-03   -0.29225E-03 12000   0.165E-01    0.201E-01
DAV:  19    -0.186830267748E+03    0.38570E-03   -0.10772E-03 11200   0.159E-01    0.471E-02
DAV:  20    -0.186831051928E+03   -0.78418E-03   -0.75229E-04  9160   0.603E-02    0.501E-02
DAV:  21    -0.186831662055E+03   -0.61013E-03   -0.21926E-04  8120   0.404E-02    0.402E-02
DAV:  22    -0.186832762839E+03   -0.11008E-02   -0.18038E-04  7400   0.517E-02    0.355E-02
DAV:  23    -0.186833991070E+03   -0.12282E-02   -0.13656E-04  7440   0.430E-02    0.124E-02
DAV:  24    -0.186834585121E+03   -0.59405E-03   -0.30526E-05  6760   0.142E-02    0.607E-03
DAV:  25    -0.186834940243E+03   -0.35512E-03   -0.15253E-05  5480   0.972E-03    0.471E-03
DAV:  26    -0.186835184655E+03   -0.24441E-03   -0.94780E-06  6800   0.743E-03    0.143E-03
DAV:  27    -0.186835282723E+03   -0.98068E-04   -0.36142E-06  7240   0.448E-03
   1 F= -.18683528E+03 E0= -.18666299E+03  d E =-.186835E+03
       N       E                     dE             d eps       ncg     rms          rms(c)
DAV:   1    -0.187450460305E+03   -0.61528E+00   -0.27134E+02  8160   0.350E+01    0.460E+00
DAV:   2    -0.189254764217E+03   -0.18043E+01   -0.20036E+01 12240   0.149E+01    0.793E+00
DAV:   3    -0.189356906345E+03   -0.10214E+00   -0.35842E+00 12480   0.116E+01    0.695E+00
DAV:   4    -0.188720793257E+03    0.63611E+00   -0.63890E-01 12760   0.490E+00    0.183E+00
DAV:   5    -0.188727980298E+03   -0.71870E-02   -0.30593E-01 10880   0.147E+00    0.234E+00
DAV:   6    -0.188649676292E+03    0.78304E-01   -0.29877E-01 11240   0.154E+00    0.118E+00
DAV:   7    -0.188657361769E+03   -0.76855E-02   -0.11996E-01 12360   0.182E+00    0.190E+00
DAV:   8    -0.188630082804E+03    0.27279E-01   -0.59035E-02 13320   0.142E+00    0.556E-01
DAV:   9    -0.188626692060E+03    0.33907E-02   -0.80167E-03 11600   0.377E-01    0.263E-01
DAV:  10    -0.188627785064E+03   -0.10930E-02   -0.51065E-03 13480   0.411E-01    0.463E-01
DAV:  11    -0.188626161948E+03    0.16231E-02   -0.38456E-03 12840   0.344E-01    0.125E-01
DAV:  12    -0.188626103227E+03    0.58721E-04   -0.96046E-04 11960   0.104E-01
   2 F= -.18862610E+03 E0= -.18848419E+03  d E =-.179082E+01
       N       E                     dE             d eps       ncg     rms          rms(c)
DAV:   1    -0.190541616799E+03   -0.19155E+01   -0.30738E+01  9280   0.141E+01    0.447E+00
DAV:   2    -0.190560938865E+03   -0.19322E-01   -0.28718E+00 11440   0.989E+00    0.762E+00
DAV:   3    -0.190007421814E+03    0.55352E+00   -0.13308E+00 12360   0.870E+00    0.407E+00
DAV:   4    -0.189807613559E+03    0.19981E+00   -0.67375E-01 12720   0.396E+00    0.249E+00
DAV:   5    -0.189731440654E+03    0.76173E-01   -0.30643E-01 11360   0.212E+00    0.148E+00
DAV:   6    -0.189711345510E+03    0.20095E-01   -0.81770E-02 11960   0.167E+00    0.924E-01
DAV:   7    -0.189703501865E+03    0.78436E-02   -0.16711E-02 12640   0.721E-01    0.193E-01
DAV:   8    -0.189703542511E+03   -0.40646E-04   -0.24951E-03 11080   0.170E-01    0.145E-01
DAV:   9    -0.189703799153E+03   -0.25664E-03   -0.11293E-03 10800   0.174E-01    0.183E-01
DAV:  10    -0.189704112708E+03   -0.31355E-03   -0.15252E-03 10600   0.271E-01    0.231E-01
DAV:  11    -0.189703577225E+03    0.53548E-03   -0.82805E-04  9680   0.177E-01    0.268E-02
DAV:  12    -0.189703601786E+03   -0.24561E-04   -0.81300E-05  6160   0.340E-02
   3 F= -.18970360E+03 E0= -.18958424E+03  d E =-.107750E+01
       N       E                     dE             d eps       ncg     rms          rms(c)
DAV:   1    -0.191208771286E+03   -0.15052E+01   -0.66292E+01  8160   0.187E+01    0.457E+00
DAV:   2    -0.191158237526E+03    0.50534E-01   -0.53347E+00 13520   0.881E+00    0.563E+00
DAV:   3    -0.191074560010E+03    0.83678E-01   -0.15369E+00 12040   0.918E+00    0.580E+00
DAV:   4    -0.190757817545E+03    0.31674E+00   -0.10804E+00 13080   0.642E+00    0.277E+00
DAV:   5    -0.190743147618E+03    0.14670E-01   -0.41471E-01 12200   0.411E+00    0.303E+00
DAV:   6    -0.190639193996E+03    0.10395E+00   -0.19016E-01 12240   0.314E+00    0.966E-01
DAV:   7    -0.190632856647E+03    0.63373E-02   -0.36211E-02 12520   0.102E+00    0.529E-01
DAV:   8    -0.190631621832E+03    0.12348E-02   -0.12823E-02 11480   0.753E-01    0.567E-01
DAV:   9    -0.190628574048E+03    0.30478E-02   -0.47896E-03 11640   0.499E-01    0.138E-01
DAV:  10    -0.190628935318E+03   -0.36127E-03   -0.12069E-03 10120   0.124E-01    0.124E-01
DAV:  11    -0.190628739046E+03    0.19627E-03   -0.76342E-04 10840   0.106E-01    0.457E-02
DAV:  12    -0.190628742780E+03   -0.37341E-05   -0.11298E-04  7120   0.431E-02
   4 F= -.19062874E+03 E0= -.19052891E+03  d E =-.925141E+00
       N       E                     dE             d eps       ncg     rms          rms(c)
DAV:   1    -0.192079911411E+03   -0.14512E+01   -0.14266E+02  8160   0.270E+01    0.591E+00
DAV:   2    -0.191884259954E+03    0.19565E+00   -0.99514E+00 12600   0.984E+00    0.529E+00
DAV:   3    -0.192169021512E+03   -0.28476E+00   -0.24622E+00 10920   0.114E+01    0.942E+00
DAV:   4    -0.191531382909E+03    0.63764E+00   -0.29803E+00 12120   0.118E+01    0.412E+00
DAV:   5    -0.191455400455E+03    0.75982E-01   -0.86022E-01 12240   0.624E+00    0.372E+00
DAV:   6    -0.191265112259E+03    0.19029E+00   -0.29159E-01 12280   0.401E+00    0.988E-01
DAV:   7    -0.191258436843E+03    0.66754E-02   -0.54266E-02 12160   0.113E+00    0.545E-01
DAV:   8    -0.191253442941E+03    0.49939E-02   -0.10785E-02 10560   0.490E-01    0.259E-01
DAV:   9    -0.191254408024E+03   -0.96508E-03   -0.43203E-03 12640   0.478E-01    0.373E-01
DAV:  10    -0.191253490929E+03    0.91710E-03   -0.33614E-03 11240   0.387E-01    0.108E-01
DAV:  11    -0.191253393572E+03    0.97356E-04   -0.70887E-04 10400   0.106E-01
   5 F= -.19125339E+03 E0= -.19116125E+03  d E =-.624651E+00
       N       E                     dE             d eps       ncg     rms          rms(c)
DAV:   1    -0.191313810632E+03   -0.60320E-01   -0.53274E+00  8160   0.488E+00    0.637E-01
DAV:   2    -0.191370398541E+03   -0.56588E-01   -0.23450E-01 13440   0.258E+00    0.220E+00
DAV:   3    -0.191323499943E+03    0.46899E-01   -0.11147E-01 11800   0.232E+00    0.527E-01
DAV:   4    -0.191323173017E+03    0.32693E-03   -0.13279E-02 11440   0.782E-01    0.536E-01
DAV:   5    -0.191320288312E+03    0.28847E-02   -0.64570E-03 11360   0.612E-01    0.220E-01
DAV:   6    -0.191319799977E+03    0.48834E-03   -0.17916E-03 11120   0.226E-01    0.121E-01
DAV:   7    -0.191320151559E+03   -0.35158E-03   -0.16846E-03 11640   0.273E-01    0.219E-01
DAV:   8    -0.191319665612E+03    0.48595E-03   -0.10248E-03  9560   0.246E-01    0.641E-02
DAV:   9    -0.191319627946E+03    0.37666E-04   -0.10808E-04  6160   0.625E-02
   6 F= -.19131963E+03 E0= -.19122420E+03  d E =-.662344E-01
       N       E                     dE             d eps       ncg     rms          rms(c)
DAV:   1    -0.191360337901E+03   -0.40672E-01   -0.22502E+00  8160   0.317E+00    0.406E-01
DAV:   2    -0.191382457951E+03   -0.22120E-01   -0.90958E-02 13600   0.167E+00    0.137E+00
DAV:   3    -0.191363539985E+03    0.18918E-01   -0.42102E-02 11880   0.144E+00    0.324E-01
DAV:   4    -0.191363675753E+03   -0.13577E-03   -0.54937E-03 11320   0.505E-01    0.357E-01
DAV:   5    -0.191362418155E+03    0.12576E-02   -0.27871E-03 11200   0.398E-01    0.139E-01
DAV:   6    -0.191362240969E+03    0.17719E-03   -0.76710E-04 10560   0.143E-01    0.772E-02
DAV:   7    -0.191362344217E+03   -0.10325E-03   -0.58598E-04  9640   0.154E-01    0.122E-01
DAV:   8    -0.191362195023E+03    0.14919E-03   -0.34706E-04  8520   0.145E-01    0.415E-02
DAV:   9    -0.191362182711E+03    0.12312E-04   -0.47225E-05  6400   0.434E-02
   7 F= -.19136218E+03 E0= -.19126482E+03  d E =-.425548E-01
       N       E                     dE             d eps       ncg     rms          rms(c)
DAV:   1    -0.191313697070E+03    0.48498E-01   -0.28325E+00  8160   0.357E+00    0.444E-01
DAV:   2    -0.191335145655E+03   -0.21449E-01   -0.10290E-01 13600   0.171E+00    0.125E+00
DAV:   3    -0.191316819297E+03    0.18326E-01   -0.33056E-02 11960   0.139E+00    0.319E-01
DAV:   4    -0.191317048987E+03   -0.22969E-03   -0.60128E-03 11160   0.495E-01    0.374E-01
DAV:   5    -0.191315771591E+03    0.12774E-02   -0.36169E-03 11280   0.451E-01    0.190E-01
DAV:   6    -0.191315412068E+03    0.35952E-03   -0.12476E-03 10440   0.205E-01    0.856E-02
DAV:   7    -0.191315373765E+03    0.38303E-04   -0.52781E-04 10240   0.104E-01
   8 F= -.19131537E+03 E0= -.19122024E+03  d E =0.468089E-01
       N       E                     dE             d eps       ncg     rms          rms(c)
DAV:   1    -0.191239855829E+03    0.75556E-01   -0.86049E+00  8160   0.622E+00    0.695E-01
DAV:   2    -0.191279275489E+03   -0.39420E-01   -0.25749E-01 13600   0.210E+00    0.152E+00
DAV:   3    -0.191252723859E+03    0.26552E-01   -0.69957E-02 12200   0.196E+00    0.698E-01
DAV:   4    -0.191250267612E+03    0.24562E-02   -0.18143E-02 12640   0.836E-01    0.504E-01
DAV:   5    -0.191248143993E+03    0.21236E-02   -0.86122E-03 11760   0.669E-01    0.381E-01
DAV:   6    -0.191246891532E+03    0.12525E-02   -0.43707E-03 11400   0.465E-01    0.192E-01
DAV:   7    -0.191246805605E+03    0.85927E-04   -0.18609E-03 11920   0.251E-01    0.159E-01
DAV:   8    -0.191246560979E+03    0.24463E-03   -0.84013E-04  9760   0.219E-01    0.100E-01
DAV:   9    -0.191246450184E+03    0.11079E-03   -0.21332E-04  7240   0.107E-01    0.234E-02
DAV:  10    -0.191246453570E+03   -0.33854E-05   -0.62694E-05  7480   0.318E-02
   9 F= -.19124645E+03 E0= -.19115518E+03  d E =0.689202E-01
       N       E                     dE             d eps       ncg     rms          rms(c)
DAV:   1    -0.191290133867E+03   -0.43684E-01   -0.35161E+00  8160   0.397E+00    0.485E-01
DAV:   2    -0.191317368233E+03   -0.27234E-01   -0.13014E-01 13520   0.166E+00    0.151E+00
DAV:   3    -0.191295744420E+03    0.21624E-01   -0.58229E-02 12120   0.166E+00    0.454E-01
DAV:   4    -0.191294735293E+03    0.10091E-02   -0.74232E-03 11080   0.537E-01    0.372E-01
DAV:   5    -0.191293415890E+03    0.13194E-02   -0.35185E-03 11120   0.454E-01    0.195E-01
DAV:   6    -0.191293127034E+03    0.28886E-03   -0.15356E-03 10520   0.234E-01    0.128E-01
DAV:   7    -0.191293242636E+03   -0.11560E-03   -0.12044E-03 10720   0.235E-01    0.172E-01
DAV:   8    -0.191292946755E+03    0.29588E-03   -0.63904E-04  8880   0.196E-01    0.527E-02
DAV:   9    -0.191292922496E+03    0.24259E-04   -0.74808E-05  6320   0.510E-02
  10 F= -.19129292E+03 E0= -.19119844E+03  d E =-.464689E-01
       N       E                     dE             d eps       ncg     rms          rms(c)
DAV:   1    -0.191316028425E+03   -0.23082E-01   -0.80971E-01  8160   0.192E+00    0.280E-01
DAV:   2    -0.191325391640E+03   -0.93632E-02   -0.38292E-02 13600   0.115E+00    0.909E-01
DAV:   3    -0.191316675198E+03    0.87164E-02   -0.17290E-02 11760   0.955E-01    0.196E-01
DAV:   4    -0.191316909573E+03   -0.23438E-03   -0.26131E-03 11360   0.349E-01    0.261E-01
DAV:   5    -0.191316264746E+03    0.64483E-03   -0.16199E-03 10080   0.300E-01    0.115E-01
DAV:   6    -0.191316118966E+03    0.14578E-03   -0.48615E-04  9040   0.122E-01    0.559E-02
DAV:   7    -0.191316169204E+03   -0.50238E-04   -0.32927E-04  7920   0.126E-01
  11 F= -.19131617E+03 E0= -.19121994E+03  d E =-.232467E-01
       N       E                     dE             d eps       ncg     rms          rms(c)
DAV:   1    -0.191373758787E+03   -0.57640E-01   -0.54908E+00  8160   0.497E+00    0.644E-01
DAV:   2    -0.191429057416E+03   -0.55299E-01   -0.22637E-01 13600   0.262E+00    0.226E+00
DAV:   3    -0.191381455326E+03    0.47602E-01   -0.11986E-01 12120   0.233E+00    0.540E-01
DAV:   4    -0.191381407080E+03    0.48246E-04   -0.14588E-02 11640   0.827E-01    0.575E-01
DAV:   5    -0.191378135794E+03    0.32713E-02   -0.75439E-03 11520   0.648E-01    0.238E-01
DAV:   6    -0.191377551032E+03    0.58476E-03   -0.23585E-03 10680   0.265E-01    0.145E-01
DAV:   7    -0.191378076564E+03   -0.52553E-03   -0.22899E-03 11920   0.343E-01    0.267E-01
DAV:   8    -0.191377298279E+03    0.77829E-03   -0.12672E-03 10200   0.269E-01    0.481E-02
DAV:   9    -0.191377278897E+03    0.19382E-04   -0.90518E-05  6120   0.483E-02
  12 F= -.19137728E+03 E0= -.19127744E+03  d E =-.611097E-01
       N       E                     dE             d eps       ncg     rms          rms(c)
DAV:   1    -0.191306126471E+03    0.71172E-01   -0.66774E+00  8160   0.548E+00    0.690E-01
DAV:   2    -0.191359523952E+03   -0.53397E-01   -0.24833E-01 13600   0.266E+00    0.196E+00
DAV:   3    -0.191313513845E+03    0.46010E-01   -0.80828E-02 12280   0.218E+00    0.499E-01
DAV:   4    -0.191313903046E+03   -0.38920E-03   -0.14432E-02 11400   0.772E-01    0.573E-01
DAV:   5    -0.191310879442E+03    0.30236E-02   -0.85406E-03 11400   0.687E-01    0.284E-01
DAV:   6    -0.191310006621E+03    0.87282E-03   -0.27815E-03 12120   0.304E-01    0.125E-01
DAV:   7    -0.191309946441E+03    0.60180E-04   -0.11780E-03 11000   0.164E-01    0.110E-01
DAV:   8    -0.191309834997E+03    0.11144E-03   -0.49913E-04  9240   0.164E-01    0.857E-02
DAV:   9    -0.191309758458E+03    0.76539E-04   -0.14721E-04  6240   0.937E-02
  13 F= -.19130976E+03 E0= -.19121387E+03  d E =0.675204E-01
       N       E                     dE             d eps       ncg     rms          rms(c)
DAV:   1    -0.191233781859E+03    0.76053E-01   -0.87429E+00  8160   0.628E+00    0.726E-01
DAV:   2    -0.191282546130E+03   -0.48764E-01   -0.27963E-01 13600   0.234E+00    0.177E+00
DAV:   3    -0.191246468351E+03    0.36078E-01   -0.86447E-02 12320   0.217E+00    0.696E-01
DAV:   4    -0.191244064933E+03    0.24034E-02   -0.18992E-02 12360   0.847E-01    0.528E-01
DAV:   5    -0.191241755997E+03    0.23089E-02   -0.89026E-03 11840   0.692E-01    0.370E-01
DAV:   6    -0.191240411055E+03    0.13449E-02   -0.40840E-03 11200   0.440E-01    0.177E-01
DAV:   7    -0.191240505487E+03   -0.94432E-04   -0.20754E-03 11840   0.266E-01    0.189E-01
DAV:   8    -0.191240157909E+03    0.34758E-03   -0.11127E-03 10240   0.252E-01    0.111E-01
DAV:   9    -0.191240014578E+03    0.14333E-03   -0.27156E-04  8240   0.113E-01    0.243E-02
DAV:  10    -0.191240018051E+03   -0.34736E-05   -0.57984E-05  7200   0.308E-02
  14 F= -.19124002E+03 E0= -.19114882E+03  d E =0.697404E-01
       N       E                     dE             d eps       ncg     rms          rms(c)
DAV:   1    -0.191282600260E+03   -0.42586E-01   -0.36659E+00  8160   0.404E+00    0.493E-01
DAV:   2    -0.191312803367E+03   -0.30203E-01   -0.13316E-01 13520   0.180E+00    0.159E+00
DAV:   3    -0.191287863951E+03    0.24939E-01   -0.62121E-02 12280   0.174E+00    0.434E-01
DAV:   4    -0.191287327360E+03    0.53659E-03   -0.78748E-03 11400   0.567E-01    0.402E-01
DAV:   5    -0.191285797743E+03    0.15296E-02   -0.38739E-03 11400   0.471E-01    0.192E-01
DAV:   6    -0.191285474716E+03    0.32303E-03   -0.13862E-03 10360   0.223E-01    0.123E-01
DAV:   7    -0.191285759616E+03   -0.28490E-03   -0.13441E-03 10600   0.266E-01    0.204E-01
DAV:   8    -0.191285315071E+03    0.44454E-03   -0.74711E-04  8920   0.212E-01    0.426E-02
DAV:   9    -0.191285304982E+03    0.10090E-04   -0.67795E-05  6160   0.420E-02
  15 F= -.19128530E+03 E0= -.19119050E+03  d E =-.452869E-01
       N       E                     dE             d eps       ncg     rms          rms(c)
DAV:   1    -0.191302340289E+03   -0.17025E-01   -0.49934E-01  8160   0.151E+00    0.220E-01
DAV:   2    -0.191308433808E+03   -0.60935E-02   -0.24211E-02 13600   0.917E-01    0.732E-01
DAV:   3    -0.191302750005E+03    0.56838E-02   -0.11084E-02 11800   0.766E-01    0.154E-01
DAV:   4    -0.191302887991E+03   -0.13799E-03   -0.15769E-03 10120   0.270E-01    0.199E-01
DAV:   5    -0.191302514746E+03    0.37324E-03   -0.95499E-04 10040   0.229E-01    0.888E-02
DAV:   6    -0.191302431940E+03    0.82806E-04   -0.27135E-04  7360   0.956E-02
  16 F= -.19130243E+03 E0= -.19120612E+03  d E =-.171270E-01
       N       E                     dE             d eps       ncg     rms          rms(c)
DAV:   1    -0.191362324581E+03   -0.59810E-01   -0.66145E+00  8160   0.546E+00    0.746E-01
DAV:   2    -0.191438160408E+03   -0.75836E-01   -0.29559E-01 13520   0.308E+00    0.271E+00
DAV:   3    -0.191370772574E+03    0.67388E-01   -0.16911E-01 12200   0.274E+00    0.611E-01
DAV:   4    -0.191371250686E+03   -0.47811E-03   -0.20374E-02 11640   0.994E-01    0.694E-01
DAV:   5    -0.191366329890E+03    0.49208E-02   -0.10584E-02 11680   0.757E-01    0.261E-01
DAV:   6    -0.191365659977E+03    0.66991E-03   -0.32481E-03 11080   0.309E-01    0.181E-01
DAV:   7    -0.191366267617E+03   -0.60764E-03   -0.32655E-03 11880   0.413E-01    0.304E-01
DAV:   8    -0.191365258853E+03    0.10088E-02   -0.16487E-03 10120   0.301E-01    0.532E-02
DAV:   9    -0.191365229454E+03    0.29398E-04   -0.11713E-04  6080   0.523E-02
  17 F= -.19136523E+03 E0= -.19126427E+03  d E =-.627975E-01
       N       E                     dE             d eps       ncg     rms          rms(c)
DAV:   1    -0.191382920941E+03   -0.17662E-01   -0.51336E-01  8160   0.152E+00    0.187E-01
DAV:   2    -0.191386859219E+03   -0.39383E-02   -0.18717E-02 13600   0.687E-01    0.571E-01
DAV:   3    -0.191383596350E+03    0.32629E-02   -0.79234E-03 11720   0.622E-01    0.162E-01
DAV:   4    -0.191383594175E+03    0.21754E-05   -0.11898E-03  9920   0.223E-01    0.160E-01
DAV:   5    -0.191383353229E+03    0.24095E-03   -0.64026E-04  8960   0.190E-01    0.774E-02
DAV:   6    -0.191383310918E+03    0.42311E-04   -0.20291E-04  6440   0.942E-02
  18 F= -.19138331E+03 E0= -.19128146E+03  d E =-.180815E-01
       N       E                     dE             d eps       ncg     rms          rms(c)
DAV:   1    -0.191382827874E+03    0.52536E-03   -0.58274E-02  8160   0.583E-01    0.164E-01
DAV:   2    -0.191385197966E+03   -0.23701E-02   -0.80453E-03 11800   0.606E-01    0.518E-01
DAV:   3    -0.191382346060E+03    0.28519E-02   -0.51456E-03 11280   0.552E-01    0.116E-01
DAV:   4    -0.191382252796E+03    0.93264E-04   -0.55680E-04  8480   0.139E-01
  19 F= -.19138225E+03 E0= -.19128039E+03  d E =0.105812E-02
       N       E                     dE             d eps       ncg     rms          rms(c)
DAV:   1    -0.191433917226E+03   -0.51571E-01   -0.38724E+00  8160   0.422E+00    0.656E-01
DAV:   2    -0.191498372441E+03   -0.64455E-01   -0.22458E-01 12520   0.281E+00    0.256E+00
DAV:   3    -0.191437869745E+03    0.60503E-01   -0.14105E-01 12160   0.250E+00    0.483E-01
DAV:   4    -0.191438768105E+03   -0.89836E-03   -0.14417E-02 11560   0.838E-01    0.599E-01
DAV:   5    -0.191435056338E+03    0.37118E-02   -0.81214E-03 11400   0.659E-01    0.226E-01
DAV:   6    -0.191434832556E+03    0.22378E-03   -0.29382E-03 11640   0.326E-01    0.218E-01
DAV:   7    -0.191434800318E+03    0.32239E-04   -0.25968E-03 11840   0.369E-01    0.209E-01
DAV:   8    -0.191434283156E+03    0.51716E-03   -0.88396E-04  9480   0.204E-01    0.408E-02
DAV:   9    -0.191434261255E+03    0.21902E-04   -0.10435E-04  6360   0.443E-02
  20 F= -.19143426E+03 E0= -.19133078E+03  d E =-.520085E-01
       N       E                     dE             d eps       ncg     rms          rms(c)
DAV:   1    -0.191443134025E+03   -0.88509E-02   -0.11655E-01  8160   0.728E-01    0.898E-02
DAV:   2    -0.191443898205E+03   -0.76418E-03   -0.43872E-03 13520   0.320E-01    0.244E-01
DAV:   3    -0.191443308020E+03    0.59018E-03   -0.15675E-03 10240   0.276E-01    0.813E-02
DAV:   4    -0.191443312992E+03   -0.49721E-05   -0.28426E-04  6800   0.115E-01
  21 F= -.19144331E+03 E0= -.19133976E+03  d E =-.905174E-02
       N       E                     dE             d eps       ncg     rms          rms(c)
DAV:   1    -0.191366387177E+03    0.76921E-01   -0.76497E+00  8160   0.590E+00    0.712E-01
DAV:   2    -0.191410889617E+03   -0.44502E-01   -0.26935E-01 13600   0.250E+00    0.172E+00
DAV:   3    -0.191375937772E+03    0.34952E-01   -0.73650E-02 12280   0.205E+00    0.526E-01
DAV:   4    -0.191375083293E+03    0.85448E-03   -0.14481E-02 11480   0.723E-01    0.520E-01
DAV:   5    -0.191373194055E+03    0.18892E-02   -0.10207E-02 11760   0.719E-01    0.387E-01
DAV:   6    -0.191371876838E+03    0.13172E-02   -0.41793E-03 11880   0.409E-01    0.163E-01
DAV:   7    -0.191372085008E+03   -0.20817E-03   -0.23617E-03 11880   0.301E-01    0.232E-01
DAV:   8    -0.191371540223E+03    0.54478E-03   -0.12697E-03  9760   0.264E-01    0.810E-02
DAV:   9    -0.191371467769E+03    0.72454E-04   -0.16978E-04  6320   0.803E-02
  22 F= -.19137147E+03 E0= -.19127000E+03  d E =0.718452E-01
       N       E                     dE             d eps       ncg     rms          rms(c)
DAV:   1    -0.191356219048E+03    0.15321E-01   -0.47687E-01  8160   0.147E+00    0.167E-01
DAV:   2    -0.191357835912E+03   -0.16169E-02   -0.14120E-02 13400   0.411E-01    0.288E-01
DAV:   3    -0.191356999857E+03    0.83606E-03   -0.36209E-03 11480   0.419E-01    0.195E-01
DAV:   4    -0.191356738085E+03    0.26177E-03   -0.10791E-03  9840   0.221E-01    0.114E-01
DAV:   5    -0.191356662922E+03    0.75163E-04   -0.56081E-04  8880   0.159E-01
  23 F= -.19135666E+03 E0= -.19125598E+03  d E =0.148048E-01
       N       E                     dE             d eps       ncg     rms          rms(c)
DAV:   1    -0.191377377280E+03   -0.20639E-01   -0.15972E+00  8160   0.266E+00    0.340E-01
DAV:   2    -0.191395391539E+03   -0.18014E-01   -0.69158E-02 13600   0.145E+00    0.129E+00
DAV:   3    -0.191379604510E+03    0.15787E-01   -0.34496E-02 12320   0.127E+00    0.238E-01
DAV:   4    -0.191379830696E+03   -0.22619E-03   -0.32149E-03 11240   0.355E-01    0.288E-01
DAV:   5    -0.191379062640E+03    0.76806E-03   -0.20632E-03 10240   0.341E-01    0.135E-01
DAV:   6    -0.191378958574E+03    0.10407E-03   -0.75007E-04  9800   0.165E-01    0.858E-02
DAV:   7    -0.191379027876E+03   -0.69303E-04   -0.52612E-04  9440   0.170E-01
  24 F= -.19137903E+03 E0= -.19127712E+03  d E =-.223650E-01
       N       E                     dE             d eps       ncg     rms          rms(c)
DAV:   1    -0.191405483817E+03   -0.26525E-01   -0.15150E+00  8160   0.266E+00    0.337E-01
DAV:   2    -0.191413550014E+03   -0.80662E-02   -0.54040E-02 13520   0.109E+00    0.769E-01
DAV:   3    -0.191407247750E+03    0.63023E-02   -0.17272E-02 12160   0.961E-01    0.285E-01
DAV:   4    -0.191406756555E+03    0.49119E-03   -0.34450E-03 11280   0.360E-01    0.235E-01
DAV:   5    -0.191406464419E+03    0.29214E-03   -0.24913E-03 10880   0.350E-01    0.218E-01
DAV:   6    -0.191406039090E+03    0.42533E-03   -0.14102E-03  9640   0.249E-01    0.952E-02
DAV:   7    -0.191406043451E+03   -0.43607E-05   -0.56893E-04  8480   0.141E-01
  25 F= -.19140604E+03 E0= -.19130270E+03  d E =-.270156E-01
       N       E                     dE             d eps       ncg     rms          rms(c)
DAV:   1    -0.191412066325E+03   -0.60272E-02   -0.58281E-02  8160   0.534E-01    0.926E-02
DAV:   2    -0.191413550548E+03   -0.14842E-02   -0.45178E-03 13360   0.394E-01    0.371E-01
DAV:   3    -0.191412080457E+03    0.14701E-02   -0.26621E-03 10080   0.366E-01    0.621E-02
DAV:   4    -0.191412094225E+03   -0.13769E-04   -0.17763E-04  6120   0.753E-02
  26 F= -.19141209E+03 E0= -.19130870E+03  d E =-.605077E-02
       N       E                     dE             d eps       ncg     rms          rms(c)
DAV:   1    -0.191346377672E+03    0.65703E-01   -0.88169E+00  8160   0.633E+00    0.823E-01
DAV:   2    -0.191420149534E+03   -0.73772E-01   -0.32552E-01 13600   0.308E+00    0.237E+00
DAV:   3    -0.191353338346E+03    0.66811E-01   -0.12465E-01 12200   0.267E+00    0.627E-01
DAV:   4    -0.191353692936E+03   -0.35459E-03   -0.22788E-02 11320   0.965E-01    0.716E-01
DAV:   5    -0.191349231905E+03    0.44610E-02   -0.13847E-02 12160   0.855E-01    0.397E-01
DAV:   6    -0.191347811423E+03    0.14205E-02   -0.58877E-03 11720   0.492E-01    0.261E-01
DAV:   7    -0.191348279959E+03   -0.46854E-03   -0.45387E-03 11960   0.468E-01    0.334E-01
DAV:   8    -0.191347126026E+03    0.11539E-02   -0.22114E-03 10040   0.332E-01    0.703E-02
DAV:   9    -0.191347053299E+03    0.72727E-04   -0.24212E-04  7520   0.708E-02
  27 F= -.19134705E+03 E0= -.19124667E+03  d E =0.650409E-01
       N       E                     dE             d eps       ncg     rms          rms(c)
DAV:   1    -0.191410260804E+03   -0.63135E-01   -0.73925E+00  8160   0.579E+00    0.816E-01
DAV:   2    -0.191503105594E+03   -0.92845E-01   -0.32888E-01 13560   0.337E+00    0.305E+00
DAV:   3    -0.191415530045E+03    0.87576E-01   -0.20117E-01 12320   0.307E+00    0.588E-01
DAV:   4    -0.191415862483E+03   -0.33244E-03   -0.20873E-02 12280   0.918E-01    0.706E-01
DAV:   5    -0.191411753586E+03    0.41089E-02   -0.14289E-02 12280   0.862E-01    0.397E-01
DAV:   6    -0.191410268650E+03    0.14849E-02   -0.56898E-03 11640   0.469E-01    0.247E-01
DAV:   7    -0.191410496883E+03   -0.22823E-03   -0.40403E-03 11920   0.450E-01    0.282E-01
DAV:   8    -0.191409604792E+03    0.89209E-03   -0.16146E-03  9960   0.289E-01    0.611E-02
DAV:   9    -0.191409540589E+03    0.64203E-04   -0.19169E-04  6400   0.651E-02
  28 F= -.19140954E+03 E0= -.19130596E+03  d E =-.624873E-01
       N       E                     dE             d eps       ncg     rms          rms(c)
DAV:   1    -0.191432445702E+03   -0.22841E-01   -0.97043E-01  8160   0.209E+00    0.260E-01
DAV:   2    -0.191441091890E+03   -0.86462E-02   -0.37347E-02 13600   0.100E+00    0.889E-01
DAV:   3    -0.191433601936E+03    0.74900E-02   -0.17557E-02 12040   0.903E-01    0.202E-01
DAV:   4    -0.191433710707E+03   -0.10877E-03   -0.20576E-03 11160   0.289E-01    0.228E-01
DAV:   5    -0.191433222589E+03    0.48812E-03   -0.13306E-03 10120   0.269E-01    0.107E-01
DAV:   6    -0.191433187917E+03    0.34672E-04   -0.49987E-04  8680   0.142E-01
  29 F= -.19143319E+03 E0= -.19132906E+03  d E =-.236473E-01
       N       E                     dE             d eps       ncg     rms          rms(c)
DAV:   1    -0.191390576874E+03    0.42646E-01   -0.28999E+00  8160   0.364E+00    0.493E-01
DAV:   2    -0.191417310149E+03   -0.26733E-01   -0.12290E-01 13600   0.184E+00    0.152E+00
DAV:   3    -0.191393551149E+03    0.23759E-01   -0.53735E-02 12360   0.166E+00    0.388E-01
DAV:   4    -0.191392923105E+03    0.62804E-03   -0.69586E-03 11120   0.512E-01    0.342E-01
DAV:   5    -0.191391990164E+03    0.93294E-03   -0.44613E-03 11320   0.489E-01    0.255E-01
DAV:   6    -0.191391434093E+03    0.55607E-03   -0.21888E-03 11440   0.312E-01    0.148E-01
DAV:   7    -0.191391600005E+03   -0.16591E-03   -0.15620E-03  9920   0.275E-01    0.194E-01
DAV:   8    -0.191391201318E+03    0.39869E-03   -0.71569E-04  8320   0.192E-01    0.398E-02
DAV:   9    -0.191391188473E+03    0.12845E-04   -0.79768E-05  6280   0.448E-02
  30 F= -.19139119E+03 E0= -.19128841E+03  d E =0.419994E-01
       N       E                     dE             d eps       ncg     rms          rms(c)
DAV:   1    -0.191449967589E+03   -0.58766E-01   -0.56516E+00  8160   0.511E+00    0.731E-01
DAV:   2    -0.191509757360E+03   -0.59790E-01   -0.26022E-01 13520   0.278E+00    0.246E+00
DAV:   3    -0.191455174789E+03    0.54583E-01   -0.14206E-01 12280   0.252E+00    0.580E-01
DAV:   4    -0.191456253713E+03   -0.10789E-02   -0.20030E-02 12240   0.967E-01    0.734E-01
DAV:   5    -0.191451059209E+03    0.51945E-02   -0.13447E-02 11800   0.850E-01    0.326E-01
DAV:   6    -0.191450434675E+03    0.62453E-03   -0.51365E-03 11560   0.442E-01    0.271E-01
DAV:   7    -0.191450251626E+03    0.18305E-03   -0.37844E-03 11760   0.441E-01    0.239E-01
DAV:   8    -0.191449577802E+03    0.67382E-03   -0.12053E-03  9800   0.238E-01    0.507E-02
DAV:   9    -0.191449534078E+03    0.43724E-04   -0.14504E-04  6440   0.532E-02
  31 F= -.19144953E+03 E0= -.19134501E+03  d E =-.583456E-01
       N       E                     dE             d eps       ncg     rms          rms(c)
DAV:   1    -0.191469403694E+03   -0.19826E-01   -0.66412E-01  8160   0.173E+00    0.200E-01
DAV:   2    -0.191473004207E+03   -0.36005E-02   -0.21741E-02 13520   0.643E-01    0.537E-01
DAV:   3    -0.191470347741E+03    0.26565E-02   -0.81479E-03 12080   0.614E-01    0.199E-01
DAV:   4    -0.191470145347E+03    0.20239E-03   -0.12487E-03  9720   0.203E-01    0.136E-01
DAV:   5    -0.191470046499E+03    0.98848E-04   -0.84637E-04  9320   0.208E-01
  32 F= -.19147005E+03 E0= -.19136564E+03  d E =-.205124E-01
       N       E                     dE             d eps       ncg     rms          rms(c)
DAV:   1    -0.191499633466E+03   -0.29488E-01   -0.14539E+00  8160   0.257E+00    0.314E-01
DAV:   2    -0.191509036972E+03   -0.94035E-02   -0.48581E-02 13600   0.107E+00    0.896E-01
DAV:   3    -0.191501258959E+03    0.77780E-02   -0.20407E-02 12480   0.100E+00    0.257E-01
DAV:   4    -0.191501196031E+03    0.62928E-04   -0.27709E-03 11400   0.322E-01    0.267E-01
DAV:   5    -0.191500626808E+03    0.56922E-03   -0.20981E-03 10560   0.335E-01    0.147E-01
DAV:   6    -0.191500518723E+03    0.10809E-03   -0.83011E-04  9760   0.170E-01    0.785E-02
DAV:   7    -0.191500485904E+03    0.32818E-04   -0.36170E-04  9400   0.133E-01
  33 F= -.19150049E+03 E0= -.19139660E+03  d E =-.304394E-01
       N       E                     dE             d eps       ncg     rms          rms(c)
DAV:   1    -0.191509168047E+03   -0.86493E-02   -0.11088E-01  8160   0.763E-01    0.130E-01
DAV:   2    -0.191510178293E+03   -0.10102E-02   -0.59726E-03 11560   0.391E-01    0.350E-01
DAV:   3    -0.191509102352E+03    0.10759E-02   -0.29929E-03 10560   0.376E-01    0.115E-01
DAV:   4    -0.191508996515E+03    0.10584E-03   -0.49727E-04  8560   0.134E-01    0.755E-02
DAV:   5    -0.191508983818E+03    0.12697E-04   -0.32241E-04  8240   0.131E-01
  34 F= -.19150898E+03 E0= -.19140493E+03  d E =-.849791E-02
       N       E                     dE             d eps       ncg     rms          rms(c)
DAV:   1    -0.191516541415E+03   -0.75449E-02   -0.53508E-01  8160   0.169E+00    0.350E-01
DAV:   2    -0.191517677710E+03   -0.11363E-02   -0.32891E-02 11680   0.732E-01    0.570E-01
DAV:   3    -0.191516400197E+03    0.12775E-02   -0.15664E-02 11880   0.885E-01    0.485E-01
DAV:   4    -0.191513979018E+03    0.24212E-02   -0.58687E-03 10960   0.467E-01    0.161E-01
DAV:   5    -0.191514366718E+03   -0.38770E-03   -0.29123E-03 10600   0.372E-01    0.276E-01
DAV:   6    -0.191513517597E+03    0.84912E-03   -0.17125E-03  9720   0.299E-01    0.553E-02
DAV:   7    -0.191513581704E+03   -0.64107E-04   -0.30486E-04  7560   0.120E-01
  35 F= -.19151358E+03 E0= -.19141017E+03  d E =-.459789E-02
       N       E                     dE             d eps       ncg     rms          rms(c)
DAV:   1    -0.191573530374E+03   -0.60013E-01   -0.35416E+00  8160   0.426E+00    0.812E-01
DAV:   2    -0.191587231208E+03   -0.13701E-01   -0.18276E-01 12520   0.186E+00    0.169E+00
DAV:   3    -0.191569530969E+03    0.17700E-01   -0.10844E-01 11840   0.212E+00    0.887E-01
DAV:   4    -0.191560534899E+03    0.89961E-02   -0.23342E-02 12240   0.930E-01    0.444E-01
DAV:   5    -0.191561567600E+03   -0.10327E-02   -0.16244E-02 11120   0.905E-01    0.633E-01
DAV:   6    -0.191557320705E+03    0.42469E-02   -0.10536E-02 11080   0.705E-01    0.177E-01
DAV:   7    -0.191557225154E+03    0.95551E-04   -0.18106E-03 10920   0.265E-01    0.152E-01
DAV:   8    -0.191557001580E+03    0.22357E-03   -0.64241E-04  9720   0.196E-01    0.742E-02
DAV:   9    -0.191556916214E+03    0.85366E-04   -0.14963E-04  6320   0.786E-02
  36 F= -.19155692E+03 E0= -.19145407E+03  d E =-.433345E-01
       N       E                     dE             d eps       ncg     rms          rms(c)
DAV:   1    -0.191607105303E+03   -0.50104E-01   -0.40489E+00  8160   0.429E+00    0.461E-01
DAV:   2    -0.191615606316E+03   -0.85010E-02   -0.11714E-01 12040   0.110E+00    0.567E-01
DAV:   3    -0.191616183732E+03   -0.57742E-03   -0.25990E-02 12360   0.112E+00    0.671E-01
DAV:   4    -0.191611645382E+03    0.45384E-02   -0.92262E-03 11520   0.696E-01    0.217E-01
DAV:   5    -0.191611251200E+03    0.39418E-03   -0.28738E-03 10760   0.288E-01    0.212E-01
DAV:   6    -0.191611711664E+03   -0.46046E-03   -0.33443E-03 12240   0.416E-01    0.301E-01
DAV:   7    -0.191610775619E+03    0.93604E-03   -0.17231E-03  9800   0.285E-01    0.493E-02
DAV:   8    -0.191610757453E+03    0.18166E-04   -0.14775E-04  5680   0.633E-02
  37 F= -.19161076E+03 E0= -.19151057E+03  d E =-.538412E-01
       N       E                     dE             d eps       ncg     rms          rms(c)
DAV:   1    -0.191632676819E+03   -0.21901E-01   -0.65757E-01  8160   0.175E+00    0.230E-01
DAV:   2    -0.191634114785E+03   -0.14380E-02   -0.22188E-02 12680   0.523E-01    0.343E-01
DAV:   3    -0.191633781507E+03    0.33328E-03   -0.64891E-03 12080   0.561E-01    0.307E-01
DAV:   4    -0.191632874852E+03    0.90666E-03   -0.23364E-03 10520   0.323E-01    0.138E-01
DAV:   5    -0.191632810436E+03    0.64416E-04   -0.10193E-03 10040   0.227E-01    0.141E-01
DAV:   6    -0.191632656986E+03    0.15345E-03   -0.70095E-04  9440   0.192E-01    0.754E-02
DAV:   7    -0.191632617893E+03    0.39093E-04   -0.21047E-04  5960   0.105E-01
  38 F= -.19163262E+03 E0= -.19153358E+03  d E =-.218604E-01
       N       E                     dE             d eps       ncg     rms          rms(c)
DAV:   1    -0.191693339108E+03   -0.60682E-01   -0.57651E+00  8160   0.515E+00    0.546E-01
DAV:   2    -0.191704662323E+03   -0.11323E-01   -0.16841E-01 12080   0.115E+00    0.541E-01
DAV:   3    -0.191707416304E+03   -0.27540E-02   -0.30499E-02 12040   0.121E+00    0.811E-01
DAV:   4    -0.191700823137E+03    0.65932E-02   -0.14700E-02 11720   0.900E-01    0.283E-01
DAV:   5    -0.191699972612E+03    0.85053E-03   -0.39994E-03 10240   0.370E-01    0.227E-01
DAV:   6    -0.191700607196E+03   -0.63458E-03   -0.39293E-03 11800   0.473E-01    0.325E-01
DAV:   7    -0.191699474949E+03    0.11322E-02   -0.21814E-03 11240   0.344E-01    0.907E-02
DAV:   8    -0.191699428969E+03    0.45980E-04   -0.33536E-04  8400   0.139E-01
  39 F= -.19169943E+03 E0= -.19160409E+03  d E =-.668111E-01
       N       E                     dE             d eps       ncg     rms          rms(c)
DAV:   1    -0.191785711921E+03   -0.86237E-01   -0.17245E+01  8160   0.893E+00    0.936E-01
DAV:   2    -0.191821505673E+03   -0.35794E-01   -0.51651E-01 12000   0.200E+00    0.911E-01
DAV:   3    -0.191828862399E+03   -0.73567E-02   -0.81339E-02 12240   0.210E+00    0.132E+00
DAV:   4    -0.191809458895E+03    0.19404E-01   -0.35370E-02 12280   0.151E+00    0.410E-01
DAV:   5    -0.191807675200E+03    0.17837E-02   -0.96959E-03 11720   0.570E-01    0.329E-01
DAV:   6    -0.191809005293E+03   -0.13301E-02   -0.89322E-03 11880   0.735E-01    0.483E-01
DAV:   7    -0.191806323434E+03    0.26819E-02   -0.44368E-03 12000   0.539E-01    0.129E-01
DAV:   8    -0.191806273015E+03    0.50419E-04   -0.79144E-04 10120   0.209E-01
  40 F= -.19180627E+03 E0= -.19171681E+03  d E =-.106844E+00
       N       E                     dE             d eps       ncg     rms          rms(c)
DAV:   1    -0.191830851363E+03   -0.24528E-01   -0.33383E+00  8160   0.390E+00    0.458E-01
DAV:   2    -0.191844195001E+03   -0.13344E-01   -0.13969E-01 12760   0.120E+00    0.650E-01
DAV:   3    -0.191842201173E+03    0.19938E-02   -0.22748E-02 11120   0.115E+00    0.599E-01
DAV:   4    -0.191839063588E+03    0.31376E-02   -0.79939E-03 11960   0.667E-01    0.259E-01
DAV:   5    -0.191838639179E+03    0.42441E-03   -0.28238E-03 12080   0.430E-01    0.231E-01
DAV:   6    -0.191838366654E+03    0.27252E-03   -0.17773E-03 11960   0.326E-01    0.138E-01
DAV:   7    -0.191838226259E+03    0.14040E-03   -0.79932E-04 10120   0.183E-01    0.985E-02
DAV:   8    -0.191838123754E+03    0.10251E-03   -0.30989E-04  9560   0.136E-01    0.405E-02
DAV:   9    -0.191838109680E+03    0.14074E-04   -0.45318E-05  7120   0.465E-02
  41 F= -.19183811E+03 E0= -.19175001E+03  d E =-.318367E-01
       N       E                     dE             d eps       ncg     rms          rms(c)
DAV:   1    -0.191898464527E+03   -0.60341E-01   -0.13742E+01  8160   0.797E+00    0.863E-01
DAV:   2    -0.191934217640E+03   -0.35753E-01   -0.44269E-01 12240   0.200E+00    0.103E+00
DAV:   3    -0.191933437802E+03    0.77984E-03   -0.70766E-02 12240   0.208E+00    0.114E+00
DAV:   4    -0.191920213031E+03    0.13225E-01   -0.25709E-02 12240   0.132E+00    0.447E-01
DAV:   5    -0.191918809098E+03    0.14039E-02   -0.96928E-03 12520   0.759E-01    0.421E-01
DAV:   6    -0.191918314451E+03    0.49465E-03   -0.78304E-03 12560   0.693E-01    0.331E-01
DAV:   7    -0.191917061985E+03    0.12525E-02   -0.33824E-03 11680   0.414E-01    0.170E-01
DAV:   8    -0.191916803570E+03    0.25842E-03   -0.93462E-04 10520   0.252E-01    0.846E-02
DAV:   9    -0.191916713075E+03    0.90495E-04   -0.19336E-04  7160   0.951E-02
  42 F= -.19191671E+03 E0= -.19183229E+03  d E =-.786034E-01
       N       E                     dE             d eps       ncg     rms          rms(c)
DAV:   1    -0.191951821924E+03   -0.35018E-01   -0.26282E+01  8160   0.110E+01    0.116E+00
DAV:   2    -0.192026433932E+03   -0.74612E-01   -0.81753E-01 12040   0.297E+00    0.163E+00
DAV:   3    -0.192008167610E+03    0.18266E-01   -0.13183E-01 12240   0.289E+00    0.125E+00
DAV:   4    -0.191991599125E+03    0.16568E-01   -0.36322E-02 12360   0.158E+00    0.606E-01
DAV:   5    -0.191989158340E+03    0.24408E-02   -0.16533E-02 12520   0.107E+00    0.550E-01
DAV:   6    -0.191987893332E+03    0.12650E-02   -0.11659E-02 12760   0.878E-01    0.392E-01
DAV:   7    -0.191985747656E+03    0.21457E-02   -0.50841E-03 11720   0.491E-01    0.198E-01
DAV:   8    -0.191985411716E+03    0.33594E-03   -0.13303E-03 11200   0.293E-01    0.954E-02
DAV:   9    -0.191985305789E+03    0.10593E-03   -0.35039E-04  8800   0.114E-01    0.390E-02
DAV:  10    -0.191985267674E+03    0.38115E-04   -0.14171E-04  7440   0.442E-02
  43 F= -.19198527E+03 E0= -.19190296E+03  d E =-.685546E-01
       N       E                     dE             d eps       ncg     rms          rms(c)
DAV:   1    -0.191991692666E+03   -0.63869E-02   -0.54160E+00  8160   0.502E+00    0.586E-01
DAV:   2    -0.192006305187E+03   -0.14613E-01   -0.20288E-01 12240   0.135E+00    0.648E-01
DAV:   3    -0.192006948033E+03   -0.64285E-03   -0.32279E-02 12320   0.141E+00    0.746E-01
DAV:   4    -0.192000201412E+03    0.67466E-02   -0.10745E-02 12200   0.900E-01    0.238E-01
DAV:   5    -0.191999819874E+03    0.38154E-03   -0.37718E-03 12680   0.396E-01    0.229E-01
DAV:   6    -0.191999868251E+03   -0.48377E-04   -0.32289E-03 11800   0.465E-01    0.242E-01
DAV:   7    -0.191999143864E+03    0.72439E-03   -0.13579E-03 11400   0.295E-01    0.759E-02
DAV:   8    -0.191999116396E+03    0.27468E-04   -0.26045E-04  9120   0.133E-01
  44 F= -.19199912E+03 E0= -.19191648E+03  d E =-.138487E-01
       N       E                     dE             d eps       ncg     rms          rms(c)
DAV:   1    -0.191999651637E+03   -0.50777E-03   -0.14118E+00  8160   0.255E+00    0.277E-01
DAV:   2    -0.192002773933E+03   -0.31223E-02   -0.36540E-02 12400   0.686E-01    0.386E-01
DAV:   3    -0.192001712563E+03    0.10614E-02   -0.72738E-03 12400   0.693E-01    0.292E-01
DAV:   4    -0.192000864192E+03    0.84837E-03   -0.19423E-03 11720   0.359E-01    0.155E-01
DAV:   5    -0.192000719984E+03    0.14421E-03   -0.10721E-03 10360   0.286E-01    0.144E-01
DAV:   6    -0.192000601566E+03    0.11842E-03   -0.65508E-04 11080   0.207E-01    0.817E-02
DAV:   7    -0.192000505019E+03    0.96548E-04   -0.21427E-04  7680   0.987E-02
  45 F= -.19200051E+03 E0= -.19191762E+03  d E =-.138862E-02
       N       E                     dE             d eps       ncg     rms          rms(c)
DAV:   1    -0.192007051668E+03   -0.64501E-02   -0.13688E+00  8160   0.250E+00    0.281E-01
DAV:   2    -0.192010990265E+03   -0.39386E-02   -0.51910E-02 11240   0.683E-01    0.301E-01
DAV:   3    -0.192011240379E+03   -0.25011E-03   -0.68595E-03 12480   0.657E-01    0.361E-01
DAV:   4    -0.192009696882E+03    0.15435E-02   -0.24692E-03 12320   0.438E-01    0.124E-01
DAV:   5    -0.192009690840E+03    0.60424E-05   -0.93851E-04 10280   0.233E-01
  46 F= -.19200969E+03 E0= -.19192630E+03  d E =-.918582E-02
       N       E                     dE             d eps       ncg     rms          rms(c)
DAV:   1    -0.192014723178E+03   -0.50263E-02   -0.96085E-01  8160   0.212E+00    0.262E-01
DAV:   2    -0.192017392431E+03   -0.26693E-02   -0.38096E-02 10960   0.555E-01    0.256E-01
DAV:   3    -0.192017723869E+03   -0.33144E-03   -0.47940E-03 12280   0.569E-01    0.320E-01
DAV:   4    -0.192016451193E+03    0.12727E-02   -0.21371E-03 12240   0.393E-01    0.110E-01
DAV:   5    -0.192016594668E+03   -0.14347E-03   -0.90420E-04 10680   0.242E-01    0.158E-01
DAV:   6    -0.192016373996E+03    0.22067E-03   -0.61948E-04 10240   0.222E-01    0.723E-02
DAV:   7    -0.192016285717E+03    0.88279E-04   -0.16174E-04  6680   0.881E-02
  47 F= -.19201629E+03 E0= -.19193278E+03  d E =-.659488E-02
       N       E                     dE             d eps       ncg     rms          rms(c)
DAV:   1    -0.192019125022E+03   -0.27510E-02   -0.26423E-01  8160   0.109E+00    0.131E-01
DAV:   2    -0.192020171406E+03   -0.10464E-02   -0.11191E-02 10480   0.400E-01    0.192E-01
DAV:   3    -0.192019877507E+03    0.29390E-03   -0.16270E-03 12080   0.323E-01    0.125E-01
DAV:   4    -0.192019725800E+03    0.15171E-03   -0.40186E-04  8640   0.169E-01    0.751E-02
DAV:   5    -0.192019707626E+03    0.18173E-04   -0.22969E-04  7800   0.128E-01
  48 F= -.19201971E+03 E0= -.19193644E+03  d E =-.342191E-02
       N       E                     dE             d eps       ncg     rms          rms(c)
DAV:   1    -0.192022222277E+03   -0.24965E-02   -0.21866E-01  8160   0.100E+00    0.120E-01
DAV:   2    -0.192022804722E+03   -0.58245E-03   -0.76931E-03 10720   0.285E-01    0.136E-01
DAV:   3    -0.192022770048E+03    0.34674E-04   -0.92640E-04 11040   0.267E-01
  49 F= -.19202277E+03 E0= -.19193963E+03  d E =-.306242E-02
       N       E                     dE             d eps       ncg     rms          rms(c)
DAV:   1    -0.192022449893E+03    0.35483E-03   -0.16182E-03 11600   0.164E-01    0.500E-02
DAV:   2    -0.192022803944E+03   -0.35405E-03   -0.72006E-04 10040   0.225E-01    0.173E-01
DAV:   3    -0.192022433421E+03    0.37052E-03   -0.46917E-04  8720   0.195E-01    0.253E-02
DAV:   4    -0.192022437204E+03   -0.37829E-05   -0.35699E-05  5960   0.326E-02
  50 F= -.19202244E+03 E0= -.19193935E+03  d E =0.332844E-03
       N       E                     dE             d eps       ncg     rms          rms(c)
DAV:   1    -0.192024169395E+03   -0.17360E-02   -0.10751E-01  8160   0.698E-01    0.817E-02
DAV:   2    -0.192024504896E+03   -0.33550E-03   -0.43517E-03 10280   0.201E-01    0.843E-02
DAV:   3    -0.192024549563E+03   -0.44666E-04   -0.58193E-04 10800   0.197E-01
  51 F= -.19202455E+03 E0= -.19194147E+03  d E =-.211236E-02
       N       E                     dE             d eps       ncg     rms          rms(c)
DAV:   1    -0.192025213898E+03   -0.70900E-03   -0.22518E-02  8160   0.340E-01    0.535E-02
DAV:   2    -0.192025257821E+03   -0.43923E-04   -0.70224E-04 11320   0.101E-01
  52 F= -.19202526E+03 E0= -.19194257E+03  d E =-.708258E-03
       N       E                     dE             d eps       ncg     rms          rms(c)
DAV:   1    -0.192027871263E+03   -0.26574E-02   -0.28269E-01  8160   0.114E+00    0.153E-01
DAV:   2    -0.192028859086E+03   -0.98782E-03   -0.10282E-02 11800   0.372E-01    0.230E-01
DAV:   3    -0.192028466673E+03    0.39241E-03   -0.21715E-03 12040   0.389E-01    0.160E-01
DAV:   4    -0.192028189742E+03    0.27693E-03   -0.57893E-04  8640   0.168E-01    0.588E-02
DAV:   5    -0.192028198742E+03   -0.90008E-05   -0.28040E-04  8160   0.106E-01
  53 F= -.19202820E+03 E0= -.19194595E+03  d E =-.294092E-02
       N       E                     dE             d eps       ncg     rms          rms(c)
DAV:   1    -0.192031314897E+03   -0.31252E-02   -0.72398E-01  8160   0.182E+00    0.213E-01
DAV:   2    -0.192033428049E+03   -0.21132E-02   -0.26620E-02 11000   0.514E-01    0.248E-01
DAV:   3    -0.192033449048E+03   -0.21000E-04   -0.34374E-03 12160   0.515E-01    0.262E-01
DAV:   4    -0.192032607158E+03    0.84189E-03   -0.11094E-03  9840   0.289E-01    0.743E-02
DAV:   5    -0.192032805814E+03   -0.19866E-03   -0.63654E-04 10320   0.205E-01    0.138E-01
DAV:   6    -0.192032582932E+03    0.22288E-03   -0.39487E-04  8600   0.168E-01    0.275E-02
DAV:   7    -0.192032573357E+03    0.95745E-05   -0.48973E-05  6720   0.360E-02
  54 F= -.19203257E+03 E0= -.19195123E+03  d E =-.437461E-02
       N       E                     dE             d eps       ncg     rms          rms(c)
DAV:   1    -0.192028091458E+03    0.44915E-02   -0.55069E-01  8160   0.159E+00    0.200E-01
DAV:   2    -0.192030225281E+03   -0.21338E-02   -0.22891E-02 11000   0.580E-01    0.319E-01
DAV:   3    -0.192029445885E+03    0.77940E-03   -0.36486E-03 12480   0.513E-01    0.198E-01
DAV:   4    -0.192028998982E+03    0.44690E-03   -0.92608E-04 10280   0.244E-01    0.993E-02
DAV:   5    -0.192029014286E+03   -0.15305E-04   -0.61303E-04 10160   0.203E-01
  55 F= -.19202901E+03 E0= -.19194688E+03  d E =0.355907E-02
       N       E                     dE             d eps       ncg     rms          rms(c)
DAV:   1    -0.192029268764E+03   -0.26978E-03   -0.33131E-02  8160   0.417E-01    0.115E-01
DAV:   2    -0.192029364842E+03   -0.96078E-04   -0.24656E-03 11840   0.267E-01    0.178E-01
DAV:   3    -0.192028991324E+03    0.37352E-03   -0.10376E-03 10360   0.275E-01    0.953E-02
DAV:   4    -0.192028946003E+03    0.45321E-04   -0.53334E-04  9240   0.161E-01
  56 F= -.19202895E+03 E0= -.19194633E+03  d E =0.682833E-04
       N       E                     dE             d eps       ncg     rms          rms(c)
DAV:   1    -0.192030470719E+03   -0.14794E-02   -0.86738E-02  8160   0.641E-01    0.980E-02
DAV:   2    -0.192031395033E+03   -0.92431E-03   -0.43726E-03 11560   0.387E-01    0.255E-01
DAV:   3    -0.192030561269E+03    0.83376E-03   -0.11548E-03 10200   0.313E-01    0.500E-02
DAV:   4    -0.192030575034E+03   -0.13765E-04   -0.16590E-04  6080   0.956E-02
  57 F= -.19203058E+03 E0= -.19194840E+03  d E =-.162903E-02
       N       E                     dE             d eps       ncg     rms          rms(c)
DAV:   1    -0.192029480914E+03    0.10804E-02   -0.44157E-02  8160   0.464E-01    0.723E-02
DAV:   2    -0.192029844613E+03   -0.36370E-03   -0.22084E-03 11680   0.261E-01    0.166E-01
DAV:   3    -0.192029495126E+03    0.34949E-03   -0.54110E-04  9440   0.211E-01    0.372E-02
DAV:   4    -0.192029499420E+03   -0.42944E-05   -0.81874E-05  6120   0.723E-02
  58 F= -.19202950E+03 E0= -.19194679E+03  d E =0.107561E-02
       N       E                     dE             d eps       ncg     rms          rms(c)
DAV:   1    -0.192029629119E+03   -0.13399E-03   -0.37613E-02  8160   0.419E-01    0.678E-02
DAV:   2    -0.192030076384E+03   -0.44727E-03   -0.23104E-03 13240   0.281E-01    0.181E-01
DAV:   3    -0.192029678875E+03    0.39751E-03   -0.67101E-04  9240   0.227E-01    0.378E-02
DAV:   4    -0.192029662253E+03    0.16623E-04   -0.50388E-05  5960   0.461E-02
  59 F= -.19202966E+03 E0= -.19194672E+03  d E =-.162832E-03
       N       E                     dE             d eps       ncg     rms          rms(c)
DAV:   1    -0.192029339619E+03    0.33926E-03   -0.38064E-02  8160   0.441E-01    0.112E-01
DAV:   2    -0.192029766599E+03   -0.42698E-03   -0.33501E-03 11480   0.352E-01    0.232E-01
DAV:   3    -0.192029110123E+03    0.65648E-03   -0.12545E-03 10120   0.302E-01    0.644E-02
DAV:   4    -0.192029112169E+03   -0.20463E-05   -0.30670E-04  8800   0.133E-01
  60 F= -.19202911E+03 E0= -.19194569E+03  d E =0.550084E-03
       N       E                     dE             d eps       ncg     rms          rms(c)
DAV:   1    -0.192033274816E+03   -0.41647E-02   -0.30407E-01  8160   0.123E+00    0.265E-01
DAV:   2    -0.192036224620E+03   -0.29498E-02   -0.19774E-02 11600   0.873E-01    0.579E-01
DAV:   3    -0.192032190294E+03    0.40343E-02   -0.63950E-03 12160   0.720E-01    0.149E-01
DAV:   4    -0.192032360549E+03   -0.17026E-03   -0.19578E-03 11000   0.340E-01    0.228E-01
DAV:   5    -0.192031794320E+03    0.56623E-03   -0.13582E-03 10280   0.329E-01    0.987E-02
DAV:   6    -0.192031658102E+03    0.13622E-03   -0.32690E-04  7520   0.111E-01    0.209E-02
DAV:   7    -0.192031666369E+03   -0.82678E-05   -0.69009E-05  7280   0.318E-02
  61 F= -.19203167E+03 E0= -.19194981E+03  d E =-.255420E-02
       N       E                     dE             d eps       ncg     rms          rms(c)
DAV:   1    -0.192033146116E+03   -0.14880E-02   -0.97273E-02  8160   0.665E-01    0.747E-02
DAV:   2    -0.192033390016E+03   -0.24390E-03   -0.33254E-03 11000   0.180E-01    0.796E-02
DAV:   3    -0.192033425570E+03   -0.35554E-04   -0.46265E-04 10120   0.180E-01
  62 F= -.19203343E+03 E0= -.19195178E+03  d E =-.175920E-02
       N       E                     dE             d eps       ncg     rms          rms(c)
DAV:   1    -0.192032832525E+03    0.55749E-03   -0.87328E-03  9400   0.231E-01    0.310E-02
DAV:   2    -0.192033000082E+03   -0.16756E-03   -0.48742E-04  9200   0.146E-01    0.110E-01
DAV:   3    -0.192032850363E+03    0.14972E-03   -0.20776E-04  7160   0.129E-01    0.148E-02
DAV:   4    -0.192032853924E+03   -0.35615E-05   -0.23425E-05  6120   0.268E-02
  63 F= -.19203285E+03 E0= -.19195121E+03  d E =0.571646E-03
       N       E                     dE             d eps       ncg     rms          rms(c)
DAV:   1    -0.192033006531E+03   -0.15617E-03   -0.66462E-03  8240   0.177E-01    0.366E-02
DAV:   2    -0.192033132930E+03   -0.12640E-03   -0.56030E-04 11040   0.153E-01    0.105E-01
DAV:   3    -0.192032995340E+03    0.13759E-03   -0.22331E-04  8360   0.124E-01    0.201E-02
DAV:   4    -0.192032999208E+03   -0.38680E-05   -0.25092E-05  5720   0.415E-02
  64 F= -.19203300E+03 E0= -.19195140E+03  d E =-.145284E-03
       N       E                     dE             d eps       ncg     rms          rms(c)
DAV:   1    -0.192034699268E+03   -0.17039E-02   -0.12982E-01  8160   0.771E-01    0.963E-02
DAV:   2    -0.192035556070E+03   -0.85680E-03   -0.46940E-03 12480   0.370E-01    0.247E-01
DAV:   3    -0.192034850104E+03    0.70597E-03   -0.13490E-03 11280   0.310E-01    0.579E-02
DAV:   4    -0.192034813814E+03    0.36289E-04   -0.88216E-05  5720   0.611E-02
  65 F= -.19203481E+03 E0= -.19195381E+03  d E =-.181461E-02
       N       E                     dE             d eps       ncg     rms          rms(c)
DAV:   1    -0.192033546526E+03    0.13036E-02   -0.54735E-02  8160   0.506E-01    0.716E-02
DAV:   2    -0.192034323613E+03   -0.77709E-03   -0.26091E-03 13040   0.323E-01    0.241E-01
DAV:   3    -0.192033612854E+03    0.71076E-03   -0.93002E-04 10120   0.282E-01    0.321E-02
DAV:   4    -0.192033614287E+03   -0.14331E-05   -0.45720E-05  5760   0.376E-02
  66 F= -.19203361E+03 E0= -.19195224E+03  d E =0.119953E-02
       N       E                     dE             d eps       ncg     rms          rms(c)
DAV:   1    -0.192032036757E+03    0.15761E-02   -0.12036E-01  8160   0.754E-01    0.116E-01
DAV:   2    -0.192032329637E+03   -0.29288E-03   -0.45359E-03 11840   0.312E-01    0.174E-01
DAV:   3    -0.192032045904E+03    0.28373E-03   -0.94428E-04 10280   0.274E-01    0.926E-02
DAV:   4    -0.192031945344E+03    0.10056E-03   -0.31276E-04  7520   0.132E-01    0.655E-02
DAV:   5    -0.192031953805E+03   -0.84607E-05   -0.30678E-04  8560   0.140E-01
  67 F= -.19203195E+03 E0= -.19194993E+03  d E =0.166048E-02
       N       E                     dE             d eps       ncg     rms          rms(c)
DAV:   1    -0.192027271092E+03    0.46743E-02   -0.84745E-01  8160   0.196E+00    0.233E-01
DAV:   2    -0.192030446132E+03   -0.31750E-02   -0.27027E-02 12920   0.743E-01    0.447E-01
DAV:   3    -0.192028475227E+03    0.19709E-02   -0.59125E-03 12560   0.640E-01    0.187E-01
DAV:   4    -0.192028050489E+03    0.42474E-03   -0.99386E-04 10360   0.217E-01    0.955E-02
DAV:   5    -0.192028194572E+03   -0.14408E-03   -0.70989E-04 10680   0.237E-01    0.144E-01
DAV:   6    -0.192027991830E+03    0.20274E-03   -0.44045E-04  8720   0.182E-01    0.525E-02
DAV:   7    -0.192027971509E+03    0.20320E-04   -0.10386E-04  6560   0.901E-02
  68 F= -.19202797E+03 E0= -.19194419E+03  d E =0.398230E-02
       N       E                     dE             d eps       ncg     rms          rms(c)
DAV:   1    -0.192032709635E+03   -0.47178E-02   -0.19057E+00  8160   0.294E+00    0.342E-01
DAV:   2    -0.192038437566E+03   -0.57279E-02   -0.60638E-02 12440   0.990E-01    0.547E-01
DAV:   3    -0.192035897589E+03    0.25400E-02   -0.10492E-02 12440   0.873E-01    0.322E-01
DAV:   4    -0.192034680901E+03    0.12167E-02   -0.29611E-03 11560   0.396E-01    0.156E-01
DAV:   5    -0.192034815105E+03   -0.13420E-03   -0.18166E-03 11280   0.350E-01    0.197E-01
DAV:   6    -0.192034465025E+03    0.35008E-03   -0.10607E-03 10560   0.268E-01    0.837E-02
DAV:   7    -0.192034387826E+03    0.77199E-04   -0.27004E-04  8080   0.119E-01
  69 F= -.19203439E+03 E0= -.19195303E+03  d E =-.641632E-02
       N       E                     dE             d eps       ncg     rms          rms(c)
DAV:   1    -0.192035123917E+03   -0.65889E-03   -0.30144E-02  8160   0.381E-01    0.575E-02
DAV:   2    -0.192035445527E+03   -0.32161E-03   -0.16220E-03 12960   0.215E-01    0.153E-01
DAV:   3    -0.192035171521E+03    0.27401E-03   -0.50654E-04  9560   0.191E-01    0.333E-02
DAV:   4    -0.192035169564E+03    0.19574E-05   -0.36206E-05  6160   0.396E-02
  70 F= -.19203517E+03 E0= -.19195400E+03  d E =-.781738E-03
       N       E                     dE             d eps       ncg     rms          rms(c)
DAV:   1    -0.192036509816E+03   -0.13383E-02   -0.75069E-02  8160   0.584E-01    0.699E-02
DAV:   2    -0.192036816430E+03   -0.30661E-03   -0.23084E-03 12080   0.208E-01    0.140E-01
DAV:   3    -0.192036609946E+03    0.20648E-03   -0.46664E-04  9760   0.191E-01    0.558E-02
DAV:   4    -0.192036588308E+03    0.21639E-04   -0.68458E-05  6040   0.675E-02
  71 F= -.19203659E+03 E0= -.19195589E+03  d E =-.141874E-02
       N       E                     dE             d eps       ncg     rms          rms(c)
DAV:   1    -0.192031047121E+03    0.55628E-02   -0.82976E-01  8160   0.193E+00    0.196E-01
DAV:   2    -0.192033662597E+03   -0.26155E-02   -0.24091E-02 11840   0.595E-01    0.332E-01
DAV:   3    -0.192032673175E+03    0.98942E-03   -0.38434E-03 12600   0.527E-01    0.183E-01
DAV:   4    -0.192032341060E+03    0.33212E-03   -0.90547E-04 10000   0.223E-01    0.990E-02
DAV:   5    -0.192032323177E+03    0.17883E-04   -0.51540E-04  9560   0.189E-01
  72 F= -.19203232E+03 E0= -.19195033E+03  d E =0.426513E-02
       N       E                     dE             d eps       ncg     rms          rms(c)
DAV:   1    -0.192033893712E+03   -0.15527E-02   -0.17495E-01  8160   0.895E-01    0.109E-01
DAV:   2    -0.192034581769E+03   -0.68806E-03   -0.68245E-03 11560   0.261E-01    0.151E-01
DAV:   3    -0.192034280915E+03    0.30085E-03   -0.12597E-03 11920   0.251E-01    0.119E-01
DAV:   4    -0.192034154861E+03    0.12605E-03   -0.37132E-04  8440   0.160E-01    0.556E-02
DAV:   5    -0.192034106571E+03    0.48290E-04   -0.95054E-05  6440   0.670E-02
  73 F= -.19203411E+03 E0= -.19195242E+03  d E =-.178339E-02
       N       E                     dE             d eps       ncg     rms          rms(c)
DAV:   1    -0.192034330343E+03   -0.17548E-03   -0.22507E-03 10880   0.136E-01    0.473E-02
DAV:   2    -0.192034647763E+03   -0.31742E-03   -0.65432E-04 10960   0.226E-01    0.157E-01
DAV:   3    -0.192034295362E+03    0.35240E-03   -0.36830E-04  8840   0.184E-01    0.148E-02
DAV:   4    -0.192034305861E+03   -0.10498E-04   -0.22045E-05  5640   0.308E-02
  74 F= -.19203431E+03 E0= -.19195268E+03  d E =-.199290E-03
       N       E                     dE             d eps       ncg     rms          rms(c)
DAV:   1    -0.192035810095E+03   -0.15147E-02   -0.10493E-01  8160   0.695E-01    0.938E-02
DAV:   2    -0.192036375704E+03   -0.56561E-03   -0.41674E-03 11840   0.323E-01    0.201E-01
DAV:   3    -0.192035940233E+03    0.43547E-03   -0.99175E-04 11000   0.270E-01    0.675E-02
DAV:   4    -0.192035895258E+03    0.44975E-04   -0.15185E-04  6520   0.910E-02
  75 F= -.19203590E+03 E0= -.19195487E+03  d E =-.158940E-02
       N       E                     dE             d eps       ncg     rms          rms(c)
DAV:   1    -0.192036926751E+03   -0.98652E-03   -0.43381E-02  8160   0.460E-01    0.786E-02
DAV:   2    -0.192037448788E+03   -0.52204E-03   -0.19880E-03 13360   0.280E-01    0.205E-01
DAV:   3    -0.192036924116E+03    0.52467E-03   -0.80234E-04 10040   0.257E-01    0.486E-02
DAV:   4    -0.192036956763E+03   -0.32647E-04   -0.11357E-04  5600   0.900E-02
  76 F= -.19203696E+03 E0= -.19195629E+03  d E =-.106150E-02
       N       E                     dE             d eps       ncg     rms          rms(c)
DAV:   1    -0.192036773905E+03    0.15021E-03   -0.39073E-03  8200   0.173E-01    0.306E-02
DAV:   2    -0.192036894410E+03   -0.12051E-03   -0.35051E-04  9480   0.135E-01    0.953E-02
DAV:   3    -0.192036774686E+03    0.11972E-03   -0.13673E-04  6720   0.116E-01    0.161E-02
DAV:   4    -0.192036779447E+03   -0.47617E-05   -0.25206E-05  6000   0.335E-02
  77 F= -.19203678E+03 E0= -.19195604E+03  d E =0.177316E-03
       N       E                     dE             d eps       ncg     rms          rms(c)
DAV:   1    -0.192038508011E+03   -0.17333E-02   -0.14529E-01  8160   0.809E-01    0.884E-02
DAV:   2    -0.192039009230E+03   -0.50122E-03   -0.44534E-03 12560   0.267E-01    0.156E-01
DAV:   3    -0.192038762536E+03    0.24669E-03   -0.80555E-04 11120   0.237E-01    0.781E-02
DAV:   4    -0.192038710005E+03    0.52531E-04   -0.13857E-04  5760   0.990E-02
  78 F= -.19203871E+03 E0= -.19195850E+03  d E =-.193056E-02
       N       E                     dE             d eps       ncg     rms          rms(c)
DAV:   1    -0.192038483246E+03    0.27929E-03   -0.22080E-03  8200   0.150E-01    0.425E-02
DAV:   2    -0.192038742333E+03   -0.25909E-03   -0.50460E-04 10240   0.198E-01    0.145E-01
DAV:   3    -0.192038464851E+03    0.27748E-03   -0.28796E-04  8320   0.167E-01    0.186E-02
DAV:   4    -0.192038474605E+03   -0.97535E-05   -0.26107E-05  5720   0.408E-02
  79 F= -.19203847E+03 E0= -.19195815E+03  d E =0.235400E-03
       N       E                     dE             d eps       ncg     rms          rms(c)
DAV:   1    -0.192039690546E+03   -0.12257E-02   -0.81548E-02  8160   0.619E-01    0.885E-02
DAV:   2    -0.192039913216E+03   -0.22267E-03   -0.30264E-03 11560   0.216E-01    0.132E-01
DAV:   3    -0.192039789266E+03    0.12395E-03   -0.78838E-04 10560   0.228E-01    0.964E-02
DAV:   4    -0.192039670723E+03    0.11854E-03   -0.20750E-04  7160   0.110E-01    0.308E-02
DAV:   5    -0.192039667329E+03    0.33938E-05   -0.76117E-05  6360   0.533E-02
  80 F= -.19203967E+03 E0= -.19195951E+03  d E =-.119272E-02
       N       E                     dE             d eps       ncg     rms          rms(c)
DAV:   1    -0.192040335110E+03   -0.66439E-03   -0.23836E-02  8200   0.381E-01    0.965E-02
DAV:   2    -0.192040434308E+03   -0.99198E-04   -0.17901E-03 11480   0.238E-01    0.169E-01
DAV:   3    -0.192040167786E+03    0.26652E-03   -0.83892E-04 10080   0.262E-01    0.923E-02
DAV:   4    -0.192040058354E+03    0.10943E-03   -0.22693E-04  7560   0.110E-01    0.321E-02
DAV:   5    -0.192040053038E+03    0.53163E-05   -0.94851E-05  5800   0.641E-02
  81 F= -.19204005E+03 E0= -.19196031E+03  d E =-.385709E-03
       N       E                     dE             d eps       ncg     rms          rms(c)
DAV:   1    -0.192042983657E+03   -0.29253E-02   -0.27390E-01  8160   0.114E+00    0.172E-01
DAV:   2    -0.192042960762E+03    0.22894E-04   -0.89751E-03 11960   0.304E-01    0.151E-01
DAV:   3    -0.192043135682E+03   -0.17492E-03   -0.17930E-03 11040   0.363E-01    0.210E-01
DAV:   4    -0.192042639008E+03    0.49667E-03   -0.11052E-03 10440   0.284E-01    0.910E-02
DAV:   5    -0.192042614624E+03    0.24383E-04   -0.54172E-04  9000   0.166E-01
  82 F= -.19204261E+03 E0= -.19196401E+03  d E =-.256159E-02
       N       E                     dE             d eps       ncg     rms          rms(c)
DAV:   1    -0.192043164243E+03   -0.52524E-03   -0.28003E-02  8160   0.408E-01    0.789E-02
DAV:   2    -0.192043337680E+03   -0.17344E-03   -0.18643E-03 11840   0.190E-01    0.130E-01
DAV:   3    -0.192043157064E+03    0.18062E-03   -0.60440E-04  9080   0.212E-01    0.792E-02
DAV:   4    -0.192043099917E+03    0.57147E-04   -0.19198E-04  7360   0.110E-01
  83 F= -.19204310E+03 E0= -.19196443E+03  d E =-.485293E-03
       N       E                     dE             d eps       ncg     rms          rms(c)
DAV:   1    -0.192045562406E+03   -0.24053E-02   -0.21239E-01  8160   0.980E-01    0.123E-01
DAV:   2    -0.192047087334E+03   -0.15249E-02   -0.74758E-03 12520   0.463E-01    0.330E-01
DAV:   3    -0.192045781697E+03    0.13056E-02   -0.22650E-03 11400   0.407E-01    0.721E-02
DAV:   4    -0.192045794572E+03   -0.12875E-04   -0.22041E-04  7400   0.119E-01
  84 F= -.19204579E+03 E0= -.19196805E+03  d E =-.269466E-02
       N       E                     dE             d eps       ncg     rms          rms(c)
DAV:   1    -0.192047972631E+03   -0.21909E-02   -0.12260E-01  8160   0.762E-01    0.927E-02
DAV:   2    -0.192048202183E+03   -0.22955E-03   -0.34045E-03 11720   0.181E-01    0.101E-01
DAV:   3    -0.192048214897E+03   -0.12713E-04   -0.58909E-04 11280   0.209E-01
  85 F= -.19204821E+03 E0= -.19197074E+03  d E =-.242032E-02
       N       E                     dE             d eps       ncg     rms          rms(c)
DAV:   1    -0.192050031920E+03   -0.18297E-02   -0.81958E-02  8160   0.637E-01    0.918E-02
DAV:   2    -0.192050304257E+03   -0.27234E-03   -0.25276E-03 12960   0.257E-01    0.153E-01
DAV:   3    -0.192050035811E+03    0.26845E-03   -0.65137E-04 10080   0.224E-01    0.696E-02
DAV:   4    -0.192050032773E+03    0.30379E-05   -0.18491E-04  6680   0.107E-01
  86 F= -.19205003E+03 E0= -.19197327E+03  d E =-.181788E-02
       N       E                     dE             d eps       ncg     rms          rms(c)
DAV:   1    -0.192053720985E+03   -0.36852E-02   -0.28364E-01  8160   0.113E+00    0.128E-01
DAV:   2    -0.192054655117E+03   -0.93413E-03   -0.78457E-03 11960   0.397E-01    0.228E-01
DAV:   3    -0.192054099825E+03    0.55529E-03   -0.15730E-03 11400   0.332E-01    0.997E-02
DAV:   4    -0.192054043079E+03    0.56747E-04   -0.34772E-04  9080   0.139E-01
  87 F= -.19205404E+03 E0= -.19197807E+03  d E =-.401031E-02
       N       E                     dE             d eps       ncg     rms          rms(c)
DAV:   1    -0.192051592194E+03    0.25076E-02   -0.94519E-02  8160   0.658E-01    0.856E-02
DAV:   2    -0.192052559789E+03   -0.96760E-03   -0.35391E-03 12520   0.380E-01    0.259E-01
DAV:   3    -0.192051667142E+03    0.89265E-03   -0.98726E-04 10080   0.302E-01    0.324E-02
DAV:   4    -0.192051697961E+03   -0.30820E-04   -0.95495E-05  5680   0.826E-02
  88 F= -.19205170E+03 E0= -.19197543E+03  d E =0.234512E-02
       N       E                     dE             d eps       ncg     rms          rms(c)
DAV:   1    -0.192046079871E+03    0.55873E-02   -0.54425E-01  8160   0.156E+00    0.180E-01
DAV:   2    -0.192047947102E+03   -0.18672E-02   -0.15845E-02 11880   0.585E-01    0.339E-01
DAV:   3    -0.192046754917E+03    0.11922E-02   -0.30568E-03 12680   0.477E-01    0.138E-01
DAV:   4    -0.192046652688E+03    0.10223E-03   -0.71180E-04  9760   0.213E-01    0.123E-01
DAV:   5    -0.192046538507E+03    0.11418E-03   -0.44501E-04  9360   0.201E-01    0.806E-02
DAV:   6    -0.192046488649E+03    0.49858E-04   -0.23268E-04  7560   0.105E-01
  89 F= -.19204649E+03 E0= -.19196943E+03  d E =0.520931E-02
       N       E                     dE             d eps       ncg     rms          rms(c)
DAV:   1    -0.192046217485E+03    0.32102E-03   -0.26148E-03  8360   0.113E-01    0.202E-02
DAV:   2    -0.192046217052E+03    0.43301E-06   -0.92977E-05  7480   0.339E-02
  90 F= -.19204622E+03 E0= -.19196909E+03  d E =0.271596E-03
       N       E                     dE             d eps       ncg     rms          rms(c)
DAV:   1    -0.192047300243E+03   -0.10828E-02   -0.57502E-02  8160   0.514E-01    0.582E-02
DAV:   2    -0.192047533101E+03   -0.23286E-03   -0.14410E-03 12960   0.200E-01    0.137E-01
DAV:   3    -0.192047314839E+03    0.21826E-03   -0.44362E-04  9120   0.180E-01    0.392E-02
DAV:   4    -0.192047297490E+03    0.17349E-04   -0.52815E-05  5720   0.440E-02
  91 F= -.19204730E+03 E0= -.19197073E+03  d E =-.108044E-02
       N       E                     dE             d eps       ncg     rms          rms(c)
DAV:   1    -0.192053311003E+03   -0.59962E-02   -0.97691E-01  8160   0.209E+00    0.221E-01
DAV:   2    -0.192055784596E+03   -0.24736E-02   -0.21650E-02 11960   0.637E-01    0.403E-01
DAV:   3    -0.192054215074E+03    0.15695E-02   -0.43580E-03 11840   0.586E-01    0.189E-01
DAV:   4    -0.192053780671E+03    0.43440E-03   -0.92444E-04  9640   0.207E-01    0.733E-02
DAV:   5    -0.192053904681E+03   -0.12401E-03   -0.56403E-04 10440   0.181E-01    0.117E-01
DAV:   6    -0.192053756231E+03    0.14845E-03   -0.31539E-04  9400   0.167E-01    0.424E-02
DAV:   7    -0.192053734250E+03    0.21981E-04   -0.56541E-05  6560   0.535E-02
  92 F= -.19205373E+03 E0= -.19197913E+03  d E =-.643676E-02
       N       E                     dE             d eps       ncg     rms          rms(c)
DAV:   1    -0.192044878001E+03    0.88782E-02   -0.18183E+00  8160   0.285E+00    0.288E-01
DAV:   2    -0.192047870512E+03   -0.29925E-02   -0.37799E-02 11880   0.718E-01    0.412E-01
DAV:   3    -0.192046926046E+03    0.94447E-03   -0.70921E-03 12240   0.711E-01    0.305E-01
DAV:   4    -0.192045728497E+03    0.11975E-02   -0.21026E-03 11480   0.333E-01    0.965E-02
DAV:   5    -0.192045884967E+03   -0.15647E-03   -0.10399E-03 10560   0.224E-01    0.144E-01
DAV:   6    -0.192045694242E+03    0.19072E-03   -0.60539E-04 10440   0.226E-01    0.751E-02
DAV:   7    -0.192045619780E+03    0.74462E-04   -0.12068E-04  6240   0.898E-02
  93 F= -.19204562E+03 E0= -.19196809E+03  d E =0.811447E-02
       N       E                     dE             d eps       ncg     rms          rms(c)
DAV:   1    -0.192039162629E+03    0.65316E-02   -0.13054E+00  8160   0.241E+00    0.250E-01
DAV:   2    -0.192041957621E+03   -0.27950E-02   -0.30555E-02 11600   0.664E-01    0.386E-01
DAV:   3    -0.192040940380E+03    0.10172E-02   -0.61006E-03 12760   0.639E-01    0.252E-01
DAV:   4    -0.192040141662E+03    0.79872E-03   -0.13923E-03 10440   0.266E-01    0.778E-02
DAV:   5    -0.192040327904E+03   -0.18624E-03   -0.69719E-04 10640   0.192E-01    0.137E-01
DAV:   6    -0.192040155124E+03    0.17278E-03   -0.50835E-04  9120   0.211E-01    0.699E-02
DAV:   7    -0.192040090734E+03    0.64390E-04   -0.10791E-04  6200   0.801E-02
  94 F= -.19204009E+03 E0= -.19196037E+03  d E =0.552905E-02
       N       E                     dE             d eps       ncg     rms          rms(c)
DAV:   1    -0.192034833982E+03    0.53211E-02   -0.18995E+00  8160   0.291E+00    0.298E-01
DAV:   2    -0.192038043249E+03   -0.32093E-02   -0.42373E-02 11520   0.748E-01    0.401E-01
DAV:   3    -0.192037407515E+03    0.63573E-03   -0.78393E-03 12600   0.726E-01    0.325E-01
DAV:   4    -0.192036124118E+03    0.12834E-02   -0.24560E-03 11760   0.376E-01    0.116E-01
DAV:   5    -0.192036343220E+03   -0.21910E-03   -0.12886E-03 10480   0.287E-01    0.177E-01
DAV:   6    -0.192036044255E+03    0.29896E-03   -0.79425E-04 10480   0.252E-01    0.761E-02
DAV:   7    -0.192035977737E+03    0.66518E-04   -0.14388E-04  6320   0.100E-01
  95 F= -.19203598E+03 E0= -.19195358E+03  d E =0.411300E-02
       N       E                     dE             d eps       ncg     rms          rms(c)
DAV:   1    -0.192036250341E+03   -0.20609E-03   -0.19161E-02  8160   0.303E-01    0.526E-02
DAV:   2    -0.192036398616E+03   -0.14827E-03   -0.10099E-03 10600   0.165E-01    0.112E-01
DAV:   3    -0.192036243791E+03    0.15482E-03   -0.27992E-04  8600   0.149E-01    0.345E-02
DAV:   4    -0.192036247523E+03   -0.37315E-05   -0.57336E-05  5960   0.646E-02
  96 F= -.19203625E+03 E0= -.19195398E+03  d E =-.269786E-03
