   27   27  100    1
  0.9710400E+02  0.1002848E-08  0.1002848E-08  0.3000000E-08  0.5000000E-15
  1.000000000000000E-004
  CAR 
 unknown system                          
    159     34    120
 
  0.0000000E+00  0.0000000E+00  0.0000000E+00  0.1562500E-01
    1      -17.803754   1.000000
    2      -16.729040   1.000000
    3      -16.679025   1.000000
    4      -16.578138   1.000000
    5      -16.535624   1.000000
    6      -16.461856   1.000000
    7      -16.427727   1.000000
    8      -16.313451   1.000000
    9      -16.157253   1.000000
   10      -16.098233   1.000000
   11      -16.077222   1.000000
   12      -15.945458   1.000000
   13      -15.916581   1.000000
   14      -15.675006   1.000000
   15      -15.588737   1.000000
   16      -15.530322   1.000000
   17      -15.320362   1.000000
   18      -15.262431   1.000000
   19       -9.285375   1.000000
   20       -9.002899   1.000000
   21       -8.926926   1.000000
   22       -8.823070   1.000000
   23       -8.768998   1.000000
   24       -8.705794   1.000000
   25       -8.652428   1.000000
   26       -8.607139   1.000000
   27       -8.557578   1.000000
   28       -8.421669   1.000000
   29       -8.403721   1.000000
   30       -8.348844   1.000000
   31       -8.290934   1.000000
   32       -8.197650   1.000000
   33       -8.116713   1.000000
   34       -8.030778   1.000000
   35       -7.873944   1.000000
   36       -7.770692   1.000000
   37       -7.692039   1.000000
   38       -7.517678   1.000000
   39       -7.502095   1.000000
   40       -7.427883   1.000000
   41       -7.313713   1.000000
   42       -7.211269   1.000000
   43       -7.132318   1.000000
   44       -6.901932   1.000000
   45       -6.810688   1.000000
   46       -6.805949   1.000000
   47       -6.689644   1.000000
   48       -6.644902   1.000000
   49       -6.546028   1.000000
   50       -6.536370   1.000000
   51       -6.487057   1.000000
   52       -6.423627   1.000000
   53       -6.319222   1.000000
   54       -6.224979   1.000000
   55       -6.171340   1.000000
   56       -6.064979   1.000000
   57       -6.034958   1.000000
   58       -5.852396   1.000000
   59       -5.822250   1.000000
   60       -5.576650   1.000000
   61       -5.504583   1.000000
   62       -5.461389   1.000000
   63       -5.257542   1.000000
   64       -5.113798   1.000000
   65       -5.056880   1.000000
   66       -4.994195   1.000000
   67       -4.957050   1.000000
   68       -4.819262   1.000000
   69       -4.788700   1.000000
   70       -4.695106   1.000000
   71       -4.591042   1.000000
   72       -4.564440   1.000000
   73       -4.536350   1.000000
   74       -4.372654   1.000000
   75       -4.158412   1.000000
   76       -4.024157   1.000000
   77       -3.762181   0.999031
   78       -3.628262   0.984329
   79       -3.543227   0.939598
   80       -3.355324   0.588127
   81       -3.260649   0.327537
   82       -2.840593   0.000317
   83       -2.755925   0.000030
   84       -2.545766   0.000000
   85       -2.477155   0.000000
   86       -2.363108   0.000000
   87       -2.310892   0.000000
   88       -2.197306   0.000000
   89       -2.131441   0.000000
   90       -2.035544   0.000000
   91       -1.778362   0.000000
   92       -1.552124   0.000000
   93       -1.488944   0.000000
   94       -1.365728   0.000000
   95       -1.257977   0.000000
   96       -1.009520   0.000000
   97       -0.960398   0.000000
   98       -0.845054   0.000000
   99       -0.819010   0.000000
  100       -0.636969   0.000000
  101       -0.517238   0.000000
  102       -0.469295   0.000000
  103       -0.466597   0.000000
  104       -0.309817   0.000000
  105       -0.284118   0.000000
  106       -0.162569   0.000000
  107       -0.078448   0.000000
  108       -0.041173   0.000000
  109        0.076836   0.000000
  110        0.186199   0.000000
  111        0.369671   0.000000
  112        0.488419   0.000000
  113        0.682434   0.000000
  114        0.821241   0.000000
  115        0.835737   0.000000
  116        1.092898   0.000000
  117        1.307470   0.000000
  118        1.644462   0.000000
  119        1.835343   0.000000
  120        2.150058   0.000000
 
  0.1250000E+00  0.2775558E-16  0.0000000E+00  0.3125000E-01
    1      -17.778437   1.000000
    2      -16.811465   1.000000
    3      -16.707132   1.000000
    4      -16.592027   1.000000
    5      -16.565149   1.000000
    6      -16.451390   1.000000
    7      -16.402670   1.000000
    8      -16.270473   1.000000
    9      -16.174056   1.000000
   10      -16.087218   1.000000
   11      -16.023026   1.000000
   12      -15.947049   1.000000
   13      -15.878518   1.000000
   14      -15.668715   1.000000
   15      -15.599067   1.000000
   16      -15.531976   1.000000
   17      -15.332186   1.000000
   18      -15.268375   1.000000
   19       -9.258594   1.000000
   20       -9.157810   1.000000
   21       -9.018680   1.000000
   22       -8.972264   1.000000
   23       -8.823704   1.000000
   24       -8.706297   1.000000
   25       -8.633227   1.000000
   26       -8.575385   1.000000
   27       -8.494198   1.000000
   28       -8.421251   1.000000
   29       -8.379658   1.000000
   30       -8.318487   1.000000
   31       -8.250205   1.000000
   32       -8.106893   1.000000
   33       -8.041289   1.000000
   34       -7.901919   1.000000
   35       -7.870050   1.000000
   36       -7.727431   1.000000
   37       -7.663468   1.000000
   38       -7.559111   1.000000
   39       -7.447707   1.000000
   40       -7.407810   1.000000
   41       -7.318319   1.000000
   42       -7.254913   1.000000
   43       -7.139369   1.000000
   44       -6.914958   1.000000
   45       -6.880413   1.000000
   46       -6.847862   1.000000
   47       -6.707040   1.000000
   48       -6.648717   1.000000
   49       -6.564014   1.000000
   50       -6.497065   1.000000
   51       -6.472918   1.000000
   52       -6.366761   1.000000
   53       -6.293200   1.000000
   54       -6.235465   1.000000
   55       -6.165105   1.000000
   56       -6.058234   1.000000
   57       -5.999746   1.000000
   58       -5.876571   1.000000
   59       -5.778760   1.000000
   60       -5.585117   1.000000
   61       -5.546742   1.000000
   62       -5.449802   1.000000
   63       -5.382457   1.000000
   64       -5.142544   1.000000
   65       -5.107991   1.000000
   66       -5.020954   1.000000
   67       -4.952715   1.000000
   68       -4.852634   1.000000
   69       -4.746662   1.000000
   70       -4.702472   1.000000
   71       -4.658370   1.000000
   72       -4.510208   1.000000
   73       -4.424531   1.000000
   74       -4.346002   1.000000
   75       -4.120270   1.000000
   76       -4.009714   0.999999
   77       -3.785602   0.999453
   78       -3.702093   0.996261
   79       -3.580458   0.965212
   80       -3.461742   0.835273
   81       -3.095410   0.053140
   82       -2.840880   0.000319
   83       -2.737578   0.000017
   84       -2.551537   0.000000
   85       -2.462869   0.000000
   86       -2.349396   0.000000
   87       -2.298815   0.000000
   88       -2.171019   0.000000
   89       -2.129237   0.000000
   90       -2.021180   0.000000
   91       -1.803606   0.000000
   92       -1.556443   0.000000
   93       -1.478040   0.000000
   94       -1.340342   0.000000
   95       -1.256542   0.000000
   96       -1.011056   0.000000
   97       -0.971907   0.000000
   98       -0.862597   0.000000
   99       -0.808206   0.000000
  100       -0.686699   0.000000
  101       -0.652199   0.000000
  102       -0.540757   0.000000
  103       -0.485857   0.000000
  104       -0.355106   0.000000
  105       -0.310514   0.000000
  106       -0.184573   0.000000
  107       -0.136115   0.000000
  108        0.026359   0.000000
  109        0.115250   0.000000
  110        0.174300   0.000000
  111        0.400025   0.000000
  112        0.461898   0.000000
  113        0.669503   0.000000
  114        0.807917   0.000000
  115        0.880397   0.000000
  116        1.126573   0.000000
  117        1.332087   0.000000
  118        1.688082   0.000000
  119        1.874259   0.000000
  120        2.185233   0.000000
 
  0.2500000E+00  0.5551115E-16  0.0000000E+00  0.3125000E-01
    1      -17.703471   1.000000
    2      -17.007100   1.000000
    3      -16.722273   1.000000
    4      -16.657645   1.000000
    5      -16.589882   1.000000
    6      -16.450395   1.000000
    7      -16.328119   1.000000
    8      -16.217850   1.000000
    9      -16.187225   1.000000
   10      -16.061128   1.000000
   11      -15.980933   1.000000
   12      -15.894467   1.000000
   13      -15.804506   1.000000
   14      -15.658331   1.000000
   15      -15.618207   1.000000
   16      -15.536695   1.000000
   17      -15.361403   1.000000
   18      -15.281761   1.000000
   19       -9.457742   1.000000
   20       -9.211988   1.000000
   21       -9.163330   1.000000
   22       -9.082258   1.000000
   23       -8.860007   1.000000
   24       -8.789318   1.000000
   25       -8.688934   1.000000
   26       -8.514501   1.000000
   27       -8.442429   1.000000
   28       -8.367789   1.000000
   29       -8.333704   1.000000
   30       -8.185371   1.000000
   31       -8.156998   1.000000
   32       -8.088710   1.000000
   33       -7.985004   1.000000
   34       -7.871479   1.000000
   35       -7.766141   1.000000
   36       -7.666203   1.000000
   37       -7.549381   1.000000
   38       -7.475138   1.000000
   39       -7.418617   1.000000
   40       -7.374164   1.000000
   41       -7.314025   1.000000
   42       -7.245341   1.000000
   43       -7.138338   1.000000
   44       -6.949263   1.000000
   45       -6.924318   1.000000
   46       -6.826726   1.000000
   47       -6.730205   1.000000
   48       -6.686446   1.000000
   49       -6.584656   1.000000
   50       -6.501598   1.000000
   51       -6.449281   1.000000
   52       -6.307050   1.000000
   53       -6.241430   1.000000
   54       -6.186968   1.000000
   55       -6.125523   1.000000
   56       -6.045708   1.000000
   57       -5.953367   1.000000
   58       -5.880461   1.000000
   59       -5.792051   1.000000
   60       -5.707187   1.000000
   61       -5.605028   1.000000
   62       -5.589935   1.000000
   63       -5.467379   1.000000
   64       -5.298367   1.000000
   65       -5.165488   1.000000
   66       -5.035390   1.000000
   67       -4.922876   1.000000
   68       -4.856296   1.000000
   69       -4.770708   1.000000
   70       -4.659521   1.000000
   71       -4.626049   1.000000
   72       -4.438635   1.000000
   73       -4.331602   1.000000
   74       -4.269343   1.000000
   75       -4.166706   1.000000
   76       -4.048172   1.000000
   77       -3.936216   0.999993
   78       -3.753025   0.998797
   79       -3.560019   0.952555
   80       -3.409016   0.726542
   81       -2.975891   0.006942
   82       -2.838901   0.000303
   83       -2.694587   0.000004
   84       -2.575405   0.000000
   85       -2.416749   0.000000
   86       -2.335367   0.000000
   87       -2.290429   0.000000
   88       -2.144623   0.000000
   89       -2.052961   0.000000
   90       -1.986808   0.000000
   91       -1.836976   0.000000
   92       -1.576777   0.000000
   93       -1.449144   0.000000
   94       -1.291130   0.000000
   95       -1.257788   0.000000
   96       -1.068838   0.000000
   97       -0.992874   0.000000
   98       -0.907049   0.000000
   99       -0.847811   0.000000
  100       -0.815319   0.000000
  101       -0.738594   0.000000
  102       -0.703476   0.000000
  103       -0.576411   0.000000
  104       -0.404204   0.000000
  105       -0.369532   0.000000
  106       -0.256305   0.000000
  107       -0.176748   0.000000
  108        0.001983   0.000000
  109        0.090467   0.000000
  110        0.192594   0.000000
  111        0.338038   0.000000
  112        0.493846   0.000000
  113        0.713245   0.000000
  114        0.807608   0.000000
  115        0.949619   0.000000
  116        1.200533   0.000000
  117        1.415916   0.000000
  118        1.809913   0.000000
  119        1.985600   0.000000
  120        2.289662   0.000000
 
  0.3750000E+00  0.0000000E+00  0.0000000E+00  0.3125000E-01
    1      -17.582237   1.000000
    2      -17.218850   1.000000
    3      -16.752060   1.000000
    4      -16.680561   1.000000
    5      -16.609267   1.000000
    6      -16.460520   1.000000
    7      -16.266335   1.000000
    8      -16.215066   1.000000
    9      -16.155981   1.000000
   10      -16.063186   1.000000
   11      -15.921856   1.000000
   12      -15.831936   1.000000
   13      -15.771698   1.000000
   14      -15.662073   1.000000
   15      -15.627285   1.000000
   16      -15.529839   1.000000
   17      -15.394391   1.000000
   18      -15.289996   1.000000
   19       -9.674616   1.000000
   20       -9.288940   1.000000
   21       -9.258528   1.000000
   22       -9.014369   1.000000
   23       -8.889930   1.000000
   24       -8.849762   1.000000
   25       -8.673872   1.000000
   26       -8.552240   1.000000
   27       -8.396405   1.000000
   28       -8.309767   1.000000
   29       -8.280767   1.000000
   30       -8.185194   1.000000
   31       -8.093927   1.000000
   32       -8.052825   1.000000
   33       -7.957095   1.000000
   34       -7.891881   1.000000
   35       -7.764433   1.000000
   36       -7.686080   1.000000
   37       -7.536122   1.000000
   38       -7.457090   1.000000
   39       -7.412317   1.000000
   40       -7.302252   1.000000
   41       -7.176587   1.000000
   42       -7.137613   1.000000
   43       -7.028666   1.000000
   44       -6.976805   1.000000
   45       -6.877327   1.000000
   46       -6.802696   1.000000
   47       -6.703657   1.000000
   48       -6.637545   1.000000
   49       -6.551548   1.000000
   50       -6.505127   1.000000
   51       -6.361710   1.000000
   52       -6.342983   1.000000
   53       -6.250163   1.000000
   54       -6.160885   1.000000
   55       -6.078052   1.000000
   56       -6.042843   1.000000
   57       -6.008700   1.000000
   58       -5.928538   1.000000
   59       -5.841081   1.000000
   60       -5.813810   1.000000
   61       -5.717004   1.000000
   62       -5.689244   1.000000
   63       -5.538929   1.000000
   64       -5.324372   1.000000
   65       -5.195694   1.000000
   66       -5.059119   1.000000
   67       -4.964991   1.000000
   68       -4.830879   1.000000
   69       -4.744832   1.000000
   70       -4.710730   1.000000
   71       -4.594952   1.000000
   72       -4.465992   1.000000
   73       -4.371212   1.000000
   74       -4.252393   1.000000
   75       -4.183875   1.000000
   76       -4.055794   1.000000
   77       -3.909831   0.999983
   78       -3.731460   0.998027
   79       -3.574480   0.961836
   80       -3.280699   0.380202
   81       -2.950689   0.004164
   82       -2.800572   0.000108
   83       -2.673575   0.000002
   84       -2.603774   0.000000
   85       -2.378371   0.000000
   86       -2.341557   0.000000
   87       -2.285397   0.000000
   88       -2.095379   0.000000
   89       -2.013646   0.000000
   90       -1.906169   0.000000
   91       -1.823343   0.000000
   92       -1.611915   0.000000
   93       -1.432917   0.000000
   94       -1.266027   0.000000
   95       -1.257480   0.000000
   96       -1.158252   0.000000
   97       -1.088882   0.000000
   98       -0.997409   0.000000
   99       -0.914558   0.000000
  100       -0.851060   0.000000
  101       -0.781157   0.000000
  102       -0.729282   0.000000
  103       -0.629300   0.000000
  104       -0.534846   0.000000
  105       -0.436370   0.000000
  106       -0.275182   0.000000
  107       -0.210171   0.000000
  108       -0.051891   0.000000
  109        0.023883   0.000000
  110        0.123699   0.000000
  111        0.327907   0.000000
  112        0.492035   0.000000
  113        0.794905   0.000000
  114        0.828410   0.000000
  115        1.008469   0.000000
  116        1.265778   0.000000
  117        1.514893   0.000000
  118        1.993232   0.000000
  119        2.159076   0.000000
  120        2.460219   0.000000
 
  0.5000000E+00  0.1110223E-15  0.0000000E+00  0.1562500E-01
    1      -17.442557   1.000000
    2      -17.391001   1.000000
    3      -16.765846   1.000000
    4      -16.686336   1.000000
    5      -16.614120   1.000000
    6      -16.464730   1.000000
    7      -16.259839   1.000000
    8      -16.198003   1.000000
    9      -16.139993   1.000000
   10      -16.073500   1.000000
   11      -15.877073   1.000000
   12      -15.812433   1.000000
   13      -15.771204   1.000000
   14      -15.669119   1.000000
   15      -15.639004   1.000000
   16      -15.513323   1.000000
   17      -15.413141   1.000000
   18      -15.290020   1.000000
   19       -9.752454   1.000000
   20       -9.328229   1.000000
   21       -9.294339   1.000000
   22       -8.980109   1.000000
   23       -8.898139   1.000000
   24       -8.777652   1.000000
   25       -8.713650   1.000000
   26       -8.640766   1.000000
   27       -8.367090   1.000000
   28       -8.263767   1.000000
   29       -8.240935   1.000000
   30       -8.192833   1.000000
   31       -8.070190   1.000000
   32       -8.043290   1.000000
   33       -7.950985   1.000000
   34       -7.903855   1.000000
   35       -7.768045   1.000000
   36       -7.755033   1.000000
   37       -7.567774   1.000000
   38       -7.446074   1.000000
   39       -7.403895   1.000000
   40       -7.316279   1.000000
   41       -7.081040   1.000000
   42       -7.048802   1.000000
   43       -7.004187   1.000000
   44       -6.859427   1.000000
   45       -6.854215   1.000000
   46       -6.723292   1.000000
   47       -6.682215   1.000000
   48       -6.648204   1.000000
   49       -6.589128   1.000000
   50       -6.510120   1.000000
   51       -6.384719   1.000000
   52       -6.353207   1.000000
   53       -6.285241   1.000000
   54       -6.189820   1.000000
   55       -6.106731   1.000000
   56       -6.021524   1.000000
   57       -6.006636   1.000000
   58       -5.957069   1.000000
   59       -5.834277   1.000000
   60       -5.795098   1.000000
   61       -5.723226   1.000000
   62       -5.707106   1.000000
   63       -5.538628   1.000000
   64       -5.329085   1.000000
   65       -5.261586   1.000000
   66       -5.140528   1.000000
   67       -5.045993   1.000000
   68       -4.880170   1.000000
   69       -4.725859   1.000000
   70       -4.614601   1.000000
   71       -4.569174   1.000000
   72       -4.526866   1.000000
   73       -4.406005   1.000000
   74       -4.258734   1.000000
   75       -4.163120   1.000000
   76       -4.012655   0.999999
   77       -3.893925   0.999972
   78       -3.722409   0.997587
   79       -3.584826   0.967521
   80       -3.214217   0.219156
   81       -2.961950   0.005251
   82       -2.757314   0.000031
   83       -2.693101   0.000004
   84       -2.614976   0.000000
   85       -2.371495   0.000000
   86       -2.332410   0.000000
   87       -2.289285   0.000000
   88       -2.070038   0.000000
   89       -1.996767   0.000000
   90       -1.881501   0.000000
   91       -1.780494   0.000000
   92       -1.645254   0.000000
   93       -1.434599   0.000000
   94       -1.275457   0.000000
   95       -1.245604   0.000000
   96       -1.190094   0.000000
   97       -1.144616   0.000000
   98       -1.046590   0.000000
   99       -0.923552   0.000000
  100       -0.867880   0.000000
  101       -0.792139   0.000000
  102       -0.696275   0.000000
  103       -0.663581   0.000000
  104       -0.599055   0.000000
  105       -0.468098   0.000000
  106       -0.279201   0.000000
  107       -0.220164   0.000000
  108       -0.093199   0.000000
  109        0.012881   0.000000
  110        0.078280   0.000000
  111        0.330256   0.000000
  112        0.486801   0.000000
  113        0.826889   0.000000
  114        0.841248   0.000000
  115        1.030678   0.000000
  116        1.291351   0.000000
  117        1.556202   0.000000
  118        2.202885   0.000000
  119        2.256256   0.000000
  120        2.382701   0.000000
 
  0.0000000E+00  0.1250000E+00  0.0000000E+00  0.3125000E-01
    1      -17.778943   1.000000
    2      -16.783166   1.000000
    3      -16.724518   1.000000
    4      -16.625200   1.000000
    5      -16.543141   1.000000
    6      -16.472191   1.000000
    7      -16.387401   1.000000
    8      -16.267776   1.000000
    9      -16.182960   1.000000
   10      -16.070313   1.000000
   11      -16.014947   1.000000
   12      -15.939092   1.000000
   13      -15.893848   1.000000
   14      -15.676634   1.000000
   15      -15.604121   1.000000
   16      -15.526331   1.000000
   17      -15.331872   1.000000
   18      -15.266447   1.000000
   19       -9.278414   1.000000
   20       -9.155877   1.000000
   21       -9.026156   1.000000
   22       -8.944673   1.000000
   23       -8.802485   1.000000
   24       -8.722044   1.000000
   25       -8.647277   1.000000
   26       -8.577825   1.000000
   27       -8.518792   1.000000
   28       -8.408575   1.000000
   29       -8.373398   1.000000
   30       -8.328998   1.000000
   31       -8.227239   1.000000
   32       -8.106548   1.000000
   33       -8.004940   1.000000
   34       -7.940869   1.000000
   35       -7.826159   1.000000
   36       -7.757376   1.000000
   37       -7.619122   1.000000
   38       -7.587984   1.000000
   39       -7.494338   1.000000
   40       -7.430734   1.000000
   41       -7.274268   1.000000
   42       -7.218032   1.000000
   43       -7.149117   1.000000
   44       -6.957014   1.000000
   45       -6.887598   1.000000
   46       -6.783229   1.000000
   47       -6.695754   1.000000
   48       -6.635032   1.000000
   49       -6.582918   1.000000
   50       -6.538800   1.000000
   51       -6.468631   1.000000
   52       -6.392877   1.000000
   53       -6.281738   1.000000
   54       -6.232730   1.000000
   55       -6.189936   1.000000
   56       -6.091187   1.000000
   57       -5.985966   1.000000
   58       -5.852697   1.000000
   59       -5.770863   1.000000
   60       -5.560795   1.000000
   61       -5.538674   1.000000
   62       -5.463017   1.000000
   63       -5.322834   1.000000
   64       -5.196669   1.000000
   65       -5.144329   1.000000
   66       -5.063798   1.000000
   67       -4.926200   1.000000
   68       -4.867072   1.000000
   69       -4.787310   1.000000
   70       -4.670958   1.000000
   71       -4.608922   1.000000
   72       -4.520061   1.000000
   73       -4.413134   1.000000
   74       -4.301516   1.000000
   75       -4.135271   1.000000
   76       -4.011062   0.999999
   77       -3.787411   0.999477
   78       -3.740622   0.998397
   79       -3.523370   0.920877
   80       -3.457299   0.827364
   81       -3.118177   0.072952
   82       -2.841777   0.000326
   83       -2.735741   0.000016
   84       -2.569647   0.000000
   85       -2.449213   0.000000
   86       -2.379022   0.000000
   87       -2.292727   0.000000
   88       -2.162219   0.000000
   89       -2.131989   0.000000
   90       -2.006978   0.000000
   91       -1.794918   0.000000
   92       -1.544607   0.000000
   93       -1.491632   0.000000
   94       -1.359886   0.000000
   95       -1.257746   0.000000
   96       -1.012012   0.000000
   97       -0.962064   0.000000
   98       -0.878529   0.000000
   99       -0.822806   0.000000
  100       -0.716811   0.000000
  101       -0.610871   0.000000
  102       -0.528920   0.000000
  103       -0.458619   0.000000
  104       -0.337950   0.000000
  105       -0.309589   0.000000
  106       -0.209840   0.000000
  107       -0.125791   0.000000
  108       -0.050114   0.000000
  109        0.083454   0.000000
  110        0.140624   0.000000
  111        0.418452   0.000000
  112        0.555617   0.000000
  113        0.720475   0.000000
  114        0.824523   0.000000
  115        0.887543   0.000000
  116        1.110109   0.000000
  117        1.278456   0.000000
  118        1.689299   0.000000
  119        1.873928   0.000000
  120        2.185260   0.000000
 
  0.1250000E+00  0.1250000E+00  0.0000000E+00  0.3125000E-01
    1      -17.728967   1.000000
    2      -16.921830   1.000000
    3      -16.762526   1.000000
    4      -16.674960   1.000000
    5      -16.528080   1.000000
    6      -16.433255   1.000000
    7      -16.377122   1.000000
    8      -16.213406   1.000000
    9      -16.203275   1.000000
   10      -16.069716   1.000000
   11      -15.984118   1.000000
   12      -15.905140   1.000000
   13      -15.824031   1.000000
   14      -15.669340   1.000000
   15      -15.610750   1.000000
   16      -15.524507   1.000000
   17      -15.363428   1.000000
   18      -15.274739   1.000000
   19       -9.363959   1.000000
   20       -9.259635   1.000000
   21       -9.157990   1.000000
   22       -9.020105   1.000000
   23       -8.877783   1.000000
   24       -8.730172   1.000000
   25       -8.622089   1.000000
   26       -8.538780   1.000000
   27       -8.498405   1.000000
   28       -8.373448   1.000000
   29       -8.342722   1.000000
   30       -8.285488   1.000000
   31       -8.178140   1.000000
   32       -8.083288   1.000000
   33       -8.002948   1.000000
   34       -7.838787   1.000000
   35       -7.726364   1.000000
   36       -7.650725   1.000000
   37       -7.626169   1.000000
   38       -7.502313   1.000000
   39       -7.445647   1.000000
   40       -7.340945   1.000000
   41       -7.281228   1.000000
   42       -7.239743   1.000000
   43       -7.179956   1.000000
   44       -7.003297   1.000000
   45       -6.939617   1.000000
   46       -6.827762   1.000000
   47       -6.715437   1.000000
   48       -6.659402   1.000000
   49       -6.592795   1.000000
   50       -6.536721   1.000000
   51       -6.454228   1.000000
   52       -6.320309   1.000000
   53       -6.232478   1.000000
   54       -6.204179   1.000000
   55       -6.192534   1.000000
   56       -6.045015   1.000000
   57       -5.953573   1.000000
   58       -5.866109   1.000000
   59       -5.730086   1.000000
   60       -5.684473   1.000000
   61       -5.542897   1.000000
   62       -5.474231   1.000000
   63       -5.436002   1.000000
   64       -5.365680   1.000000
   65       -5.164865   1.000000
   66       -5.088960   1.000000
   67       -4.953063   1.000000
   68       -4.879926   1.000000
   69       -4.790418   1.000000
   70       -4.642266   1.000000
   71       -4.605690   1.000000
   72       -4.427395   1.000000
   73       -4.306385   1.000000
   74       -4.258445   1.000000
   75       -4.102174   1.000000
   76       -4.085889   1.000000
   77       -3.930088   0.999991
   78       -3.733372   0.998110
   79       -3.550681   0.945655
   80       -3.424417   0.761548
   81       -2.992328   0.009538
   82       -2.857083   0.000483
   83       -2.714606   0.000008
   84       -2.588043   0.000000
   85       -2.426045   0.000000
   86       -2.380643   0.000000
   87       -2.287504   0.000000
   88       -2.162660   0.000000
   89       -2.058053   0.000000
   90       -1.990920   0.000000
   91       -1.838252   0.000000
   92       -1.550200   0.000000
   93       -1.475237   0.000000
   94       -1.306688   0.000000
   95       -1.259149   0.000000
   96       -1.040324   0.000000
   97       -0.990994   0.000000
   98       -0.882076   0.000000
   99       -0.829967   0.000000
  100       -0.776597   0.000000
  101       -0.768248   0.000000
  102       -0.633486   0.000000
  103       -0.517385   0.000000
  104       -0.410744   0.000000
  105       -0.321437   0.000000
  106       -0.233381   0.000000
  107       -0.168096   0.000000
  108       -0.026821   0.000000
  109        0.029831   0.000000
  110        0.121274   0.000000
  111        0.476787   0.000000
  112        0.494083   0.000000
  113        0.722782   0.000000
  114        0.818101   0.000000
  115        0.958801   0.000000
  116        1.187503   0.000000
  117        1.346815   0.000000
  118        1.774396   0.000000
  119        1.946688   0.000000
  120        2.255394   0.000000
 
  0.2500000E+00  0.1250000E+00  0.0000000E+00  0.3125000E-01
    1      -17.631128   1.000000
    2      -17.107426   1.000000
    3      -16.866013   1.000000
    4      -16.665241   1.000000
    5      -16.504375   1.000000
    6      -16.439068   1.000000
    7      -16.303071   1.000000
    8      -16.224377   1.000000
    9      -16.172857   1.000000
   10      -16.057586   1.000000
   11      -15.973976   1.000000
   12      -15.866152   1.000000
   13      -15.738802   1.000000
   14      -15.678809   1.000000
   15      -15.594912   1.000000
   16      -15.531017   1.000000
   17      -15.406285   1.000000
   18      -15.279897   1.000000
   19       -9.570706   1.000000
   20       -9.409508   1.000000
   21       -9.212809   1.000000
   22       -9.045916   1.000000
   23       -8.838836   1.000000
   24       -8.758637   1.000000
   25       -8.635787   1.000000
   26       -8.515257   1.000000
   27       -8.426872   1.000000
   28       -8.335622   1.000000
   29       -8.298612   1.000000
   30       -8.195617   1.000000
   31       -8.159767   1.000000
   32       -8.083918   1.000000
   33       -7.996884   1.000000
   34       -7.901758   1.000000
   35       -7.789839   1.000000
   36       -7.619829   1.000000
   37       -7.503167   1.000000
   38       -7.435169   1.000000
   39       -7.377278   1.000000
   40       -7.305131   1.000000
   41       -7.221679   1.000000
   42       -7.181425   1.000000
   43       -7.122135   1.000000
   44       -7.007069   1.000000
   45       -6.876246   1.000000
   46       -6.744892   1.000000
   47       -6.722432   1.000000