<?xml version="1.0" encoding="ISO-8859-1"?>
<modeling>
 <generator>
  <i name="program" type="string">vasp </i>
  <i name="version" type="string">5.4.1  </i>
  <i name="subversion" type="string">05Feb16 (build Jul 05 2020 17:13:04) complex                          parallel </i>
  <i name="platform" type="string">IFC91_ompi </i>
  <i name="date" type="string">2024 08 29 </i>
  <i name="time" type="string">13:56:13 </i>
 </generator>
 <incar>
  <i type="int" name="ISTART">     0</i>
  <i type="string" name="PREC">normal</i>
  <i type="string" name="ALGO"> Normal</i>
  <i type="int" name="ISPIN">     1</i>
  <i type="int" name="ICHARG">     2</i>
  <i type="int" name="IBRION">     1</i>
  <i type="int" name="NSW">   100</i>
  <i type="int" name="ISIF">     3</i>
  <i type="int" name="ISYM">     0</i>
  <i name="SYMPREC">      0.00000001</i>
  <i name="POTIM">      0.50000000</i>
  <i type="logical" name="LREAL"> F  </i>
  <i type="logical" name="LPLANE"> F  </i>
  <i type="int" name="ISMEAR">     0</i>
  <i type="logical" name="LWAVE"> F  </i>
  <i type="logical" name="LCHARG"> F  </i>
  <v type="int" name="KPOINT_BSE">    -1     0     0     0</v>
 </incar>
 <kpoints>
  <generation param="Gamma">
   <v type="int" name="divisions">       8        8        1 </v>
   <v name="usershift">      0.00000000       0.00000000       0.00000000 </v>
   <v name="genvec1">      0.12500000       0.00000000       0.00000000 </v>
   <v name="genvec2">     -0.00000000       0.12500000       0.00000000 </v>
   <v name="genvec3">      0.00000000       0.00000000       1.00000000 </v>
   <v name="shift">      0.00000000       0.00000000       0.00000000 </v>
  </generation>
  <varray name="kpointlist" >
   <v>       0.00000000       0.00000000       0.00000000 </v>
   <v>       0.12500000       0.00000000       0.00000000 </v>
   <v>       0.25000000       0.00000000       0.00000000 </v>
   <v>       0.37500000       0.00000000       0.00000000 </v>
   <v>       0.50000000       0.00000000       0.00000000 </v>
   <v>       0.00000000       0.12500000       0.00000000 </v>
   <v>       0.12500000       0.12500000       0.00000000 </v>
   <v>       0.25000000       0.12500000       0.00000000 </v>
   <v>       0.37500000       0.12500000       0.00000000 </v>
   <v>       0.50000000       0.12500000       0.00000000 </v>
   <v>      -0.37500000       0.12500000       0.00000000 </v>
   <v>      -0.25000000       0.12500000       0.00000000 </v>
   <v>      -0.12500000       0.12500000       0.00000000 </v>
   <v>       0.00000000       0.25000000       0.00000000 </v>
   <v>       0.12500000       0.25000000       0.00000000 </v>
   <v>       0.25000000       0.25000000       0.00000000 </v>
   <v>       0.37500000       0.25000000       0.00000000 </v>
   <v>       0.50000000       0.25000000       0.00000000 </v>
   <v>      -0.37500000       0.25000000       0.00000000 </v>
   <v>      -0.25000000       0.25000000       0.00000000 </v>
   <v>      -0.12500000       0.25000000       0.00000000 </v>
   <v>      -0.00000000       0.37500000       0.00000000 </v>
   <v>       0.12500000       0.37500000       0.00000000 </v>
   <v>       0.25000000       0.37500000       0.00000000 </v>
   <v>       0.37500000       0.37500000       0.00000000 </v>
   <v>       0.50000000       0.37500000       0.00000000 </v>
   <v>      -0.37500000       0.37500000       0.00000000 </v>
   <v>      -0.25000000       0.37500000       0.00000000 </v>
   <v>      -0.12500000       0.37500000       0.00000000 </v>
   <v>       0.00000000       0.50000000       0.00000000 </v>
   <v>       0.12500000       0.50000000       0.00000000 </v>
   <v>       0.25000000       0.50000000       0.00000000 </v>
   <v>       0.37500000       0.50000000       0.00000000 </v>
   <v>       0.50000000       0.50000000       0.00000000 </v>
  </varray>
  <varray name="weights" >
   <v>       0.01562500 </v>
   <v>       0.03125000 </v>
   <v>       0.03125000 </v>
   <v>       0.03125000 </v>
   <v>       0.01562500 </v>
   <v>       0.03125000 </v>
   <v>       0.03125000 </v>
   <v>       0.03125000 </v>
   <v>       0.03125000 </v>
   <v>       0.03125000 </v>
   <v>       0.03125000 </v>
   <v>       0.03125000 </v>
   <v>       0.03125000 </v>
   <v>       0.03125000 </v>
   <v>       0.03125000 </v>
   <v>       0.03125000 </v>
   <v>       0.03125000 </v>
   <v>       0.03125000 </v>
   <v>       0.03125000 </v>
   <v>       0.03125000 </v>
   <v>       0.03125000 </v>
   <v>       0.03125000 </v>
   <v>       0.03125000 </v>
   <v>       0.03125000 </v>
   <v>       0.03125000 </v>
   <v>       0.03125000 </v>
   <v>       0.03125000 </v>
   <v>       0.03125000 </v>
   <v>       0.03125000 </v>
   <v>       0.01562500 </v>
   <v>       0.03125000 </v>
   <v>       0.03125000 </v>
   <v>       0.03125000 </v>
   <v>       0.01562500 </v>
  </varray>
 </kpoints>
 <parameters>
  <separator name="general" >
   <i type="string" name="SYSTEM">unknown system</i>
   <i type="logical" name="LCOMPAT"> F  </i>
  </separator>
  <separator name="electronic" >
   <i type="string" name="PREC">normal</i>
   <i name="ENMAX">    280.00000000</i>
   <i name="ENAUG">    373.43800000</i>
   <i name="EDIFF">      0.00010000</i>
   <i type="int" name="IALGO">    38</i>
   <i type="int" name="IWAVPR">    11</i>
   <i type="int" name="NBANDS">   120</i>
   <i name="NELECT">    159.00000000</i>
   <i type="int" name="TURBO">     0</i>
   <i type="int" name="IRESTART">     0</i>
   <i type="int" name="NREBOOT">     0</i>
   <i type="int" name="NMIN">     0</i>
   <i name="EREF">      0.00000000</i>
   <separator name="electronic smearing" >
    <i type="int" name="ISMEAR">     0</i>
    <i name="SIGMA">      0.20000000</i>
    <i name="KSPACING">      0.50000000</i>
    <i type="logical" name="KGAMMA"> T  </i>
   </separator>
   <separator name="electronic projectors" >
    <i type="logical" name="LREAL"> F  </i>
    <v name="ROPT">      0.00000000      0.00000000      0.00000000      0.00000000</v>
    <i type="int" name="LMAXPAW">  -100</i>
    <i type="int" name="LMAXMIX">     2</i>
    <i type="logical" name="NLSPLINE"> F  </i>
   </separator>
   <separator name="electronic startup" >
    <i type="int" name="ISTART">     0</i>
    <i type="int" name="ICHARG">     2</i>
    <i type="int" name="INIWAV">     1</i>
   </separator>
   <separator name="electronic spin" >
    <i type="int" name="ISPIN">     1</i>
    <i type="logical" name="LNONCOLLINEAR"> F  </i>
    <v name="MAGMOM">      1.00000000      1.00000000      1.00000000      1.00000000      1.00000000      1.00000000      1.00000000      1.00000000      1.00000000      1.00000000      1.00000000      1.00000000      1.00000000      1.00000000      1.00000000      1.00000000      1.00000000      1.00000000      1.00000000      1.00000000
      1.00000000      1.00000000      1.00000000      1.00000000      1.00000000      1.00000000      1.00000000</v>
    <i name="NUPDOWN">     -1.00000000</i>
    <i type="logical" name="LSORBIT"> F  </i>
    <v name="SAXIS">      0.00000000      0.00000000      1.00000000</v>
    <i type="logical" name="LSPIRAL"> F  </i>
    <v name="QSPIRAL">      0.00000000      0.00000000      0.00000000</v>
    <i type="logical" name="LZEROZ"> F  </i>
   </separator>
   <separator name="electronic exchange-correlation" >
    <i type="logical" name="LASPH"> F  </i>
    <i type="logical" name="LMETAGGA"> F  </i>
   </separator>
   <separator name="electronic convergence" >
    <i type="int" name="NELM">    60</i>
    <i type="int" name="NELMDL">    -5</i>
    <i type="int" name="NELMIN">     2</i>
    <i name="ENINI">    280.00000000</i>
    <separator name="electronic convergence detail" >
     <i type="logical" name="LDIAG"> T  </i>
     <i type="logical" name="LSUBROT"> F  </i>
     <i name="WEIMIN">      0.00100000</i>
     <i name="EBREAK">      0.00000021</i>
     <i name="DEPER">      0.30000000</i>
     <i type="int" name="NRMM">     4</i>
     <i name="TIME">      0.40000000</i>
    </separator>
   </separator>
   <separator name="electronic mixer" >
    <i name="AMIX">      0.40000000</i>
    <i name="BMIX">      1.00000000</i>
    <i name="AMIN">      0.10000000</i>
    <i name="AMIX_MAG">      1.60000000</i>
    <i name="BMIX_MAG">      1.00000000</i>
    <separator name="electronic mixer details" >
     <i type="int" name="IMIX">     4</i>
     <i type="logical" name="MIXFIRST"> F  </i>
     <i type="int" name="MAXMIX">   -45</i>
     <i name="WC">    100.00000000</i>
     <i type="int" name="INIMIX">     1</i>
     <i type="int" name="MIXPRE">     1</i>
     <i type="int" name="MREMOVE">     5</i>
    </separator>
   </separator>
   <separator name="electronic dipolcorrection" >
    <i type="logical" name="LDIPOL"> F  </i>
    <i type="logical" name="LMONO"> F  </i>
    <i type="int" name="IDIPOL">     0</i>
    <i name="EPSILON">      1.00000000</i>
    <v name="DIPOL">   -100.00000000   -100.00000000   -100.00000000</v>
    <i name="EFIELD">      0.00000000</i>
   </separator>
  </separator>
  <separator name="grids" >
   <i type="int" name="NGX">    42</i>
   <i type="int" name="NGY">    42</i>
   <i type="int" name="NGZ">   126</i>
   <i type="int" name="NGXF">    84</i>
   <i type="int" name="NGYF">    84</i>
   <i type="int" name="NGZF">   252</i>
   <i type="logical" name="ADDGRID"> F  </i>
  </separator>
  <separator name="ionic" >
   <i type="int" name="NSW">   100</i>
   <i type="int" name="IBRION">     1</i>
   <i type="int" name="ISIF">     3</i>
   <i name="PSTRESS">      0.00000000</i>
   <i name="EDIFFG">      0.00100000</i>
   <i type="int" name="NFREE">     0</i>
   <i name="POTIM">      0.50000000</i>
   <i name="SMASS">     -3.00000000</i>
   <i name="SCALEE">      1.00000000</i>
  </separator>
  <separator name="ionic md" >
   <i name="TEBEG">      0.00010000</i>
   <i name="TEEND">      0.00010000</i>
   <i type="int" name="NBLOCK">     1</i>
   <i type="int" name="KBLOCK">   100</i>
   <i type="int" name="NPACO">   256</i>
   <i name="APACO">     16.00000000</i>
  </separator>
  <separator name="symmetry" >
   <i type="int" name="ISYM">     0</i>
   <i name="SYMPREC">      0.00000001</i>
  </separator>
  <separator name="dos" >
   <i type="logical" name="LORBIT"> F  </i>
   <v name="RWIGS">     -1.00000000     -1.00000000     -1.00000000     -1.00000000</v>
   <i type="int" name="NEDOS">   301</i>
   <i name="EMIN">     10.00000000</i>
   <i name="EMAX">    -10.00000000</i>
   <i name="EFERMI">      0.00000000</i>
  </separator>
  <separator name="writing" >
   <i type="int" name="NWRITE">     2</i>
   <i type="logical" name="LWAVE"> F  </i>
   <i type="logical" name="LCHARG"> F  </i>
   <i type="logical" name="LPARD"> F  </i>
   <i type="logical" name="LVTOT"> F  </i>
   <i type="logical" name="LVHAR"> F  </i>
   <i type="logical" name="LELF"> F  </i>
   <i type="logical" name="LOPTICS"> F  </i>
   <v name="STM">      0.00000000      0.00000000      0.00000000      0.00000000      0.00000000      0.00000000      0.00000000</v>
  </separator>
  <separator name="performance" >
   <i type="int" name="NPAR">    40</i>
   <i type="int" name="NSIM">     4</i>
   <i type="int" name="NBLK">    -1</i>
   <i type="logical" name="LPLANE"> F  </i>
   <i type="logical" name="LSCALAPACK"> T  </i>
   <i type="logical" name="LSCAAWARE"> F  </i>
   <i type="logical" name="LSCALU"> F  </i>
   <i type="logical" name="LASYNC"> F  </i>
   <i type="logical" name="LORBITALREAL"> F  </i>
  </separator>
  <separator name="miscellaneous" >
   <i type="int" name="IDIOT">     3</i>
   <i type="logical" name="LMUSIC"> F  </i>
   <v name="POMASS">     50.94100000     95.94000000    183.85000000     32.06600000</v>
   <v name="DARWINR">      0.00000000      0.00000000      0.00000000      0.00000000</v>
   <v name="DARWINV">      1.00000000      1.00000000      1.00000000      1.00000000</v>
   <i type="logical" name="LCORR"> T  </i>
  </separator>
  <i type="logical" name="GGA_COMPAT"> T  </i>
  <i type="logical" name="LBERRY"> F  </i>
  <i type="int" name="ICORELEVEL">     0</i>
  <i type="logical" name="LDAU"> F  </i>
  <i type="int" name="I_CONSTRAINED_M">     0</i>
  <separator name="electronic exchange-correlation" >
   <i type="string" name="GGA">--</i>
   <i type="int" name="VOSKOWN">     0</i>
   <i type="logical" name="LHFCALC"> F  </i>
   <i type="string" name="PRECFOCK"></i>
   <i type="logical" name="LSYMGRAD"> F  </i>
   <i type="logical" name="LHFONE"> F  </i>
   <i type="logical" name="LRHFCALC"> F  </i>
   <i type="logical" name="LTHOMAS"> F  </i>
   <i type="logical" name="LMODELHF"> F  </i>
   <i name="ENCUT4O">     -1.00000000</i>
   <i type="int" name="EXXOEP">     0</i>
   <i type="int" name="FOURORBIT">     0</i>
   <i name="AEXX">      0.00000000</i>
   <i name="HFALPHA">      0.00000000</i>
   <i name="MCALPHA">      0.00000000</i>
   <i name="ALDAX">      1.00000000</i>
   <i name="AGGAX">      1.00000000</i>
   <i name="ALDAC">      1.00000000</i>
   <i name="AGGAC">      1.00000000</i>
   <i type="int" name="NKREDX">     1</i>
   <i type="int" name="NKREDY">     1</i>
   <i type="int" name="NKREDZ">     1</i>
   <i type="logical" name="SHIFTRED"> F  </i>
   <i type="logical" name="ODDONLY"> F  </i>
   <i type="logical" name="EVENONLY"> F  </i>
   <i type="int" name="LMAXFOCK">     0</i>
   <i type="int" name="NMAXFOCKAE">     0</i>
   <i type="logical" name="LFOCKAEDFT"> F  </i>
   <i name="HFSCREEN">      0.00000000</i>
   <i name="HFSCREENC">      0.00000000</i>
   <i type="int" name="NBANDSGWLOW">     0</i>
  </separator>
  <separator name="vdW DFT" >
   <i type="logical" name="LUSE_VDW"> F  </i>
   <i name="Zab_VDW">     -0.84910000</i>
   <i name="PARAM1">      0.12340000</i>
   <i name="PARAM2">      1.00000000</i>
   <i name="PARAM3">      0.00000000</i>
  </separator>
  <separator name="model GW" >
   <i type="int" name="MODEL_GW">     0</i>
   <i name="MODEL_EPS0">     58.26239943</i>
   <i name="MODEL_ALPHA">      1.00000000</i>
  </separator>
  <separator name="linear response parameters" >
   <i type="logical" name="LEPSILON"> F  </i>
   <i type="logical" name="LRPA"> F  </i>
   <i type="logical" name="LNABLA"> F  </i>
   <i type="logical" name="LVEL"> F  </i>
   <i type="int" name="KINTER">     0</i>
   <i name="CSHIFT">      0.10000000</i>
   <i name="OMEGAMAX">     -1.00000000</i>
   <i name="DEG_THRESHOLD">      0.00200000</i>
  </separator>
  <separator name="orbital magnetization" >
   <i type="logical" name="NUCIND"> F  </i>
   <v name="MAGPOS">      0.00000000      0.00000000      0.00000000</v>
   <i type="logical" name="LNICSALL"> T  </i>
   <i type="logical" name="ORBITALMAG"> F  </i>
   <i type="logical" name="LMAGBLOCH"> F  </i>
   <i type="logical" name="LCHIMAG"> F  </i>
   <i type="logical" name="LGAUGE"> T  </i>
   <i type="int" name="MAGATOM">     0</i>
   <v name="MAGDIPOL">      0.00000000      0.00000000      0.00000000</v>
   <v name="AVECCONST">      0.00000000      0.00000000      0.00000000</v>
  </separator>
  <separator name="response functions" >
   <i type="logical" name="LADDER"> F  </i>
   <i type="logical" name="LFXC"> F  </i>
   <i type="logical" name="LHARTREE"> T  </i>
   <i type="int" name="IBSE">     0</i>
   <v type="int" name="KPOINT">    -1     0     0     0</v>
   <i type="logical" name="LTCTE"> F  </i>
   <i type="logical" name="LTETE"> F  </i>
   <i type="logical" name="LTRIPLET"> F  </i>
   <i type="logical" name="LFXCEPS"> F  </i>
   <i type="logical" name="LFXHEG"> F  </i>
   <i type="int" name="NATURALO">     0</i>
   <i type="logical" name="L2ORDER"> F  </i>
   <i type="logical" name="LUSEW"> F  </i>
   <i name="ENCUTGW">     -2.00000000</i>
   <i name="ENCUTGWSOFT">     -2.00000000</i>
   <i name="ENCUTLF">     -1.00000000</i>
   <i type="int" name="LMAXMP2">    -1</i>
   <i name="SCISSOR">      0.00000000</i>
   <i type="int" name="NOMEGA">     0</i>
   <i type="int" name="NOMEGAR">     0</i>
   <i type="int" name="NBANDSGW">    -1</i>
   <i type="int" name="NBANDSO">    -1</i>
   <i type="int" name="NBANDSV">    -1</i>
   <i type="int" name="NELM">     1</i>
   <i type="int" name="NELMHF">     1</i>
   <i type="int" name="DIM">     3</i>
   <i type="int" name="ANTIRES">     0</i>
   <i name="OMEGAMAX">    -30.00000000</i>
   <i name="OMEGAMIN">    -30.00000000</i>
   <i name="OMEGATL">   -200.00000000</i>
   <i type="int" name="OMEGAGRID">     0</i>
   <i name="CSHIFT">     -0.10000000</i>
   <i type="logical" name="SELFENERGY"> F  </i>
   <i type="logical" name="LSPECTRAL"> F  </i>
   <i type="logical" name="LSPECTRALGW"> F  </i>
   <i type="logical" name="LSINGLES"> F  </i>
   <i type="logical" name="LFERMIGW"> F  </i>
   <i type="logical" name="ODDONLYGW"> F  </i>
   <i type="logical" name="EVENONLYGW"> F  </i>
   <i type="int" name="NKREDLFX">     1</i>
   <i type="int" name="NKREDLFY">     1</i>
   <i type="int" name="NKREDLFZ">     1</i>
   <i type="int" name="MAXMEM">  1800</i>
   <i type="int" name="TELESCOPE">     0</i>
   <i type="int" name="TAUPAR">     1</i>
   <i type="int" name="OMEGAPAR">    -1</i>
   <i name="LAMBDA">      1.00000000</i>
  </separator>
  <separator name="External order field" >
   <i name="OFIELD_KAPPA">      0.00000000</i>
   <v name="OFIELD_K">      0.00000000      0.00000000      0.00000000</v>
   <i name="OFIELD_Q6_NEAR">      0.00000000</i>
   <i name="OFIELD_Q6_FAR">      0.00000000</i>
   <i name="OFIELD_A">      0.00000000</i>
  </separator>
 </parameters>
 <atominfo>
  <atoms>      27 </atoms>
  <types>       4 </types>
  <array name="atoms" >
   <dimension dim="1">ion</dimension>
   <field type="string">element</field>
   <field type="int">atomtype</field>
   <set>
    <rc><c>V </c><c>   1</c></rc>
    <rc><c>V </c><c>   1</c></rc>
    <rc><c>V </c><c>   1</c></rc>
    <rc><c>Mo</c><c>   2</c></rc>
    <rc><c>Mo</c><c>   2</c></rc>
    <rc><c>Mo</c><c>   2</c></rc>
    <rc><c>W </c><c>   3</c></rc>
    <rc><c>W </c><c>   3</c></rc>
    <rc><c>W </c><c>   3</c></rc>
    <rc><c>S </c><c>   4</c></rc>
    <rc><c>S </c><c>   4</c></rc>
    <rc><c>S </c><c>   4</c></rc>
    <rc><c>S </c><c>   4</c></rc>
    <rc><c>S </c><c>   4</c></rc>
    <rc><c>S </c><c>   4</c></rc>
    <rc><c>S </c><c>   4</c></rc>
    <rc><c>S </c><c>   4</c></rc>
    <rc><c>S </c><c>   4</c></rc>
    <rc><c>S </c><c>   4</c></rc>
    <rc><c>S </c><c>   4</c></rc>
    <rc><c>S </c><c>   4</c></rc>
    <rc><c>S </c><c>   4</c></rc>
    <rc><c>S </c><c>   4</c></rc>
    <rc><c>S </c><c>   4</c></rc>
    <rc><c>S </c><c>   4</c></rc>
    <rc><c>S </c><c>   4</c></rc>
    <rc><c>S </c><c>   4</c></rc>
   </set>
  </array>
  <array name="atomtypes" >
   <dimension dim="1">type</dimension>
   <field type="int">atomspertype</field>
   <field type="string">element</field>
   <field>mass</field>
   <field>valence</field>
   <field type="string">pseudopotential</field>
   <set>
    <rc><c>   3</c><c>V </c><c>     50.94100000</c><c>      5.00000000</c><c> PAW_PBE V 08Apr2002                    </c></rc>
    <rc><c>   3</c><c>Mo</c><c>     95.94000000</c><c>      6.00000000</c><c> PAW_PBE Mo 08Apr2002                   </c></rc>
    <rc><c>   3</c><c>W </c><c>    183.85000000</c><c>      6.00000000</c><c> PAW_PBE W 08Apr2002                    </c></rc>
    <rc><c>  18</c><c>S </c><c>     32.06600000</c><c>      6.00000000</c><c>  PAW_PBE S 17Jan2003                   </c></rc>
   </set>
  </array>
 </atominfo>
 <structure name="initialpos" >
  <crystal>
   <varray name="basis" >
    <v>       8.66999996       5.03999989       0.00000000 </v>
    <v>      -8.66999982       5.04000013       0.00000000 </v>
    <v>       0.00000000       0.00000000      30.00000000 </v>
   </varray>
   <i name="volume">   2621.80797419 </i>
   <varray name="rec_basis" >
    <v>       0.05767013       0.09920635       0.00000000 </v>
    <v>      -0.05767013       0.09920635       0.00000000 </v>
    <v>       0.00000000       0.00000000       0.03333333 </v>
   </varray>
  </crystal>
  <varray name="positions" >
   <v>       1.00000000       0.33333334       0.00000000 </v>
   <v>       0.66666669       0.66666669       0.00000000 </v>
   <v>       0.33333334       0.66666669       0.00000000 </v>
   <v>       0.33333334       0.33333334       0.00000000 </v>
   <v>       0.00000000       0.00000000       0.00000000 </v>
   <v>       0.66666669       0.33333334       0.00000000 </v>
   <v>       0.00000000       0.66666669       0.00000000 </v>
   <v>       0.33333334       0.00000000       0.00000000 </v>
   <v>       0.66666669       0.00000000       0.00000000 </v>
   <v>       0.11068511       0.22244981       0.95539999 </v>
   <v>       0.22244981       0.11068511       0.04460000 </v>
   <v>       0.11068511       0.55578315       0.95539999 </v>
   <v>       0.22244981       0.44401845       0.04460000 </v>
   <v>       0.11068511       0.88911647       0.95539999 </v>
   <v>       0.22244981       0.77735180       0.04460000 </v>
   <v>       0.44401845       0.22244981       0.95539999 </v>
   <v>       0.55578315       0.11068511       0.04460000 </v>
   <v>       0.44401845       0.55578315       0.95539999 </v>
   <v>       0.55578315       0.44401845       0.04460000 </v>
   <v>       0.44401845       0.88911647       0.95539999 </v>
   <v>       0.55578315       0.77735180       0.04460000 </v>
   <v>       0.77735180       0.22244981       0.95539999 </v>
   <v>       0.88911647       0.11068511       0.04460000 </v>
   <v>       0.77735180       0.55578315       0.95539999 </v>
   <v>       0.88911647       0.44401845       0.04460000 </v>
   <v>       0.77735180       0.88911647       0.95539999 </v>
   <v>       0.88911647       0.77735180       0.04460000 </v>
  </varray>
 </structure>
 <calculation>
  <scstep>
   <time name="dav">   21.65   21.70</time>
   <time name="total">   21.69   21.75</time>
   <energy>
    <i name="alphaZ">     81.65567618 </i>
    <i name="ewald">  41890.23010355 </i>
    <i name="hartreedc"> -47722.86567387 </i>
    <i name="XCdc">   -242.92868369 </i>
    <i name="pawpsdc">   3467.42045192 </i>
    <i name="pawaedc">  -2871.19716117 </i>
    <i name="eentropy">     -0.53622358 </i>
    <i name="bandstr">   -238.77609433 </i>
    <i name="atom">   6761.44252427 </i>
    <i name="e_fr_energy">   1124.44491928 </i>
    <i name="e_wo_entrp">   1124.98114286 </i>
    <i name="e_0_energy">   1124.71303107 </i>
   </energy>
  </scstep>
  <scstep>
   <time name="dav">   28.25   28.32</time>
   <time name="total">   28.25   28.33</time>
   <energy>
    <i name="e_fr_energy">     -3.38479979 </i>
    <i name="e_wo_entrp">     -3.18016568 </i>
    <i name="e_0_energy">     -3.28248273 </i>
   </energy>
  </scstep>
  <scstep>
   <time name="dav">   27.42   27.49</time>
   <time name="total">   27.42   27.49</time>
   <energy>
    <i name="e_fr_energy">   -199.87393107 </i>
    <i name="e_wo_entrp">   -199.61079444 </i>
    <i name="e_0_energy">   -199.74236275 </i>
   </energy>
  </scstep>
  <scstep>
   <time name="dav">   30.08   30.15</time>
   <time name="total">   30.08   30.16</time>
   <energy>
    <i name="e_fr_energy">   -208.97099629 </i>
    <i name="e_wo_entrp">   -208.67419869 </i>
    <i name="e_0_energy">   -208.82259749 </i>
   </energy>
  </scstep>
  <scstep>
   <time name="dav">   28.27   28.34</time>
   <time name="total">   28.74   28.81</time>
   <energy>
    <i name="e_fr_energy">   -209.29200951 </i>
    <i name="e_wo_entrp">   -208.99852726 </i>
    <i name="e_0_energy">   -209.14526839 </i>
   </energy>
  </scstep>
  <scstep>
   <time name="dav">   30.91   30.98</time>
   <time name="total">   31.41   31.49</time>
   <energy>
    <i name="e_fr_energy">   -236.99915318 </i>
    <i name="e_wo_entrp">   -236.72135220 </i>
    <i name="e_0_energy">   -236.86025269 </i>
   </energy>
  </scstep>
  <scstep>
   <time name="dav">   32.49   32.56</time>
   <time name="total">   32.99   33.08</time>
   <energy>
    <i name="e_fr_energy">   -196.52387531 </i>
    <i name="e_wo_entrp">   -196.20906711 </i>
    <i name="e_0_energy">   -196.36647121 </i>
   </energy>
  </scstep>
  <scstep>
   <time name="dav">   29.59   29.66</time>
   <time name="total">   30.10   30.18</time>
   <energy>
    <i name="e_fr_energy">   -189.54520722 </i>
    <i name="e_wo_entrp">   -189.25740047 </i>
    <i name="e_0_energy">   -189.40130384 </i>
   </energy>
  </scstep>
  <scstep>
   <time name="dav">   30.93   31.00</time>
   <time name="total">   31.46   31.86</time>
   <energy>
    <i name="e_fr_energy">   -188.23976242 </i>
    <i name="e_wo_entrp">   -187.91226386 </i>
    <i name="e_0_energy">   -188.07601314 </i>
   </energy>
  </scstep>
  <scstep>
   <time name="dav">   32.77   32.85</time>
   <time name="total">   33.31   33.39</time>
   <energy>
    <i name="e_fr_energy">   -187.04901591 </i>
    <i name="e_wo_entrp">   -186.69840149 </i>
    <i name="e_0_energy">   -186.87370870 </i>
   </energy>
  </scstep>
  <scstep>
   <time name="dav">   32.97   33.05</time>
   <time name="total">   33.50   33.59</time>
   <energy>
    <i name="e_fr_energy">   -187.02273407 </i>
    <i name="e_wo_entrp">   -186.67749349 </i>
    <i name="e_0_energy">   -186.85011378 </i>
   </energy>
  </scstep>
  <scstep>
   <time name="dav">   30.44   30.51</time>
   <time name="total">   30.98   31.06</time>
   <energy>
    <i name="e_fr_energy">   -187.17790948 </i>
    <i name="e_wo_entrp">   -186.84130068 </i>
    <i name="e_0_energy">   -187.00960508 </i>
   </energy>
  </scstep>
  <scstep>
   <time name="dav">   31.45   31.53</time>
   <time name="total">   31.99   32.07</time>
   <energy>
    <i name="e_fr_energy">   -186.92760934 </i>
    <i name="e_wo_entrp">   -186.59072170 </i>
    <i name="e_0_energy">   -186.75916552 </i>
   </energy>
  </scstep>
  <scstep>
   <time name="dav">   32.05   32.13</time>
   <time name="total">   32.59   32.67</time>
   <energy>
    <i name="e_fr_energy">   -186.87892692 </i>
    <i name="e_wo_entrp">   -186.53563601 </i>
    <i name="e_0_energy">   -186.70728146 </i>
   </energy>
  </scstep>
  <scstep>
   <time name="dav">   29.11   29.18</time>
   <time name="total">   29.65   29.73</time>
   <energy>
    <i name="e_fr_energy">   -186.88005694 </i>
    <i name="e_wo_entrp">   -186.53434191 </i>
    <i name="e_0_energy">   -186.70719943 </i>
   </energy>
  </scstep>
  <scstep>
   <time name="dav">   30.95   31.03</time>
   <time name="total">   31.49   31.57</time>
   <energy>
    <i name="e_fr_energy">   -186.87092644 </i>
    <i name="e_wo_entrp">   -186.52477188 </i>
    <i name="e_0_energy">   -186.69784916 </i>
   </energy>
  </scstep>
  <scstep>
   <time name="dav">   30.54   30.62</time>
   <time name="total">   31.08   31.16</time>
   <energy>
    <i name="e_fr_energy">   -186.86766138 </i>
    <i name="e_wo_entrp">   -186.52359477 </i>
    <i name="e_0_energy">   -186.69562807 </i>
   </energy>
  </scstep>
  <scstep>
   <time name="dav">   30.76   30.83</time>
   <time name="total">   31.30   31.38</time>
   <energy>
    <i name="e_fr_energy">   -186.86711299 </i>
    <i name="e_wo_entrp">   -186.52254644 </i>
    <i name="e_0_energy">   -186.69482971 </i>
   </energy>
  </scstep>
  <scstep>
   <time name="dav">   26.73   26.80</time>
   <time name="total">   27.27   27.34</time>
   <energy>
    <i name="e_fr_energy">   -186.86766929 </i>
    <i name="e_wo_entrp">   -186.52331326 </i>
    <i name="e_0_energy">   -186.69549127 </i>
   </energy>
  </scstep>
  <scstep>
   <time name="dav">   21.59   21.64</time>
   <time name="total">   22.13   22.19</time>
   <energy>
    <i name="e_fr_energy">   -186.86800759 </i>
    <i name="e_wo_entrp">   -186.52374202 </i>
    <i name="e_0_energy">   -186.69587481 </i>
   </energy>
  </scstep>
  <scstep>
   <time name="dav">   20.38   20.43</time>
   <time name="total">   20.92   20.98</time>
   <energy>
    <i name="e_fr_energy">   -186.86884147 </i>
    <i name="e_wo_entrp">   -186.52454771 </i>
    <i name="e_0_energy">   -186.69669459 </i>
   </energy>
  </scstep>
  <scstep>
   <time name="dav">   20.26   20.31</time>
   <time name="total">   20.80   20.85</time>
   <energy>
    <i name="e_fr_energy">   -186.86962578 </i>
    <i name="e_wo_entrp">   -186.52531234 </i>
    <i name="e_0_energy">   -186.69746906 </i>
   </energy>
  </scstep>
  <scstep>
   <time name="dav">   20.33   20.38</time>
   <time name="total">   20.87   20.92</time>
   <energy>
    <i name="e_fr_energy">   -186.87086832 </i>
    <i name="e_wo_entrp">   -186.52660654 </i>
    <i name="e_0_energy">   -186.69873743 </i>
   </energy>
  </scstep>
  <scstep>
   <time name="dav">   18.88   18.92</time>
   <time name="total">   19.42   19.47</time>
   <energy>
    <i name="e_fr_energy">   -186.87144317 </i>
    <i name="e_wo_entrp">   -186.52717344 </i>
    <i name="e_0_energy">   -186.69930831 </i>
   </energy>
  </scstep>
  <scstep>
   <time name="dav">   16.27   16.31</time>
   <time name="total">   16.80   16.85</time>
   <energy>
    <i name="e_fr_energy">   -186.87187414 </i>
    <i name="e_wo_entrp">   -186.52756488 </i>
    <i name="e_0_energy">   -186.69971951 </i>
   </energy>
  </scstep>
  <scstep>
   <time name="dav">   19.04   19.09</time>
   <time name="total">   19.58   19.64</time>
   <energy>
    <i name="e_fr_energy">   -186.87206900 </i>
    <i name="e_wo_entrp">   -186.52777991 </i>
    <i name="e_0_energy">   -186.69992446 </i>
   </energy>
  </scstep>
  <scstep>
   <time name="dav">   19.56   19.61</time>
   <time name="total">   19.60   19.65</time>
   <energy>
    <i name="alphaZ">     81.65567618 </i>
    <i name="ewald">  41890.23010355 </i>
    <i name="hartreedc"> -47832.99582069 </i>
    <i name="XCdc">   -231.60041192 </i>
    <i name="pawpsdc">   4192.12273682 </i>
    <i name="pawaedc">  -3610.14175966 </i>
    <i name="eentropy">     -0.34428831 </i>
    <i name="bandstr">  -1437.24091364 </i>
    <i name="atom">   6761.44252427 </i>
    <i name="e_fr_energy">   -186.87215339 </i>
    <i name="e_wo_entrp">   -186.52786509 </i>
    <i name="e_0_energy">   -186.70000924 </i>
   </energy>
  </scstep>
  <structure>
   <crystal>
    <varray name="basis" >
     <v>       8.66999996       5.03999989       0.00000000 </v>
     <v>      -8.66999982       5.04000013       0.00000000 </v>
     <v>       0.00000000       0.00000000      30.00000000 </v>
    </varray>
    <i name="volume">   2621.80797419 </i>
    <varray name="rec_basis" >
     <v>       0.05767013       0.09920635       0.00000000 </v>
     <v>      -0.05767013       0.09920635       0.00000000 </v>
     <v>       0.00000000       0.00000000       0.03333333 </v>
    </varray>
   </crystal>
   <varray name="positions" >
    <v>       1.00000000       0.33333334       0.00000000 </v>
    <v>       0.66666669       0.66666669       0.00000000 </v>
    <v>       0.33333334       0.66666669       0.00000000 </v>
    <v>       0.33333334       0.33333334       0.00000000 </v>
    <v>       0.00000000       0.00000000       0.00000000 </v>
    <v>       0.66666669       0.33333334       0.00000000 </v>
    <v>       0.00000000       0.66666669       0.00000000 </v>
    <v>       0.33333334       0.00000000       0.00000000 </v>
    <v>       0.66666669       0.00000000       0.00000000 </v>
    <v>       0.11068511       0.22244981       0.95539999 </v>
    <v>       0.22244981       0.11068511       0.04460000 </v>
    <v>       0.11068511       0.55578315       0.95539999 </v>
    <v>       0.22244981       0.44401845       0.04460000 </v>
    <v>       0.11068511       0.88911647       0.95539999 </v>
    <v>       0.22244981       0.77735180       0.04460000 </v>
    <v>       0.44401845       0.22244981       0.95539999 </v>
    <v>       0.55578315       0.11068511       0.04460000 </v>
    <v>       0.44401845       0.55578315       0.95539999 </v>
    <v>       0.55578315       0.44401845       0.04460000 </v>
    <v>       0.44401845       0.88911647       0.95539999 </v>
    <v>       0.55578315       0.77735180       0.04460000 </v>
    <v>       0.77735180       0.22244981       0.95539999 </v>
    <v>       0.88911647       0.11068511       0.04460000 </v>
    <v>       0.77735180       0.55578315       0.95539999 </v>
    <v>       0.88911647       0.44401845       0.04460000 </v>
    <v>       0.77735180       0.88911647       0.95539999 </v>
    <v>       0.88911647       0.77735180       0.04460000 </v>
   </varray>
  </structure>
  <varray name="forces" >
   <v>       0.22617026      -0.05006486      -0.08379671 </v>
   <v>       0.14483481      -0.16672115       0.08522619 </v>
   <v>       0.28753624      -0.15311820      -0.00422801 </v>
   <v>       0.17595902      -0.09495366       0.00869886 </v>
   <v>       0.00159766       0.29023946       0.06074592 </v>
   <v>      -0.26349557      -0.15648689      -0.05475007 </v>
   <v>      -0.22019221      -0.20226566       0.00659409 </v>
   <v>      -0.56315917       0.29801706      -0.00303757 </v>
   <v>       0.08363201       0.29681377      -0.01468648 </v>
   <v>      -0.77691754       0.00830857      -2.12330480 </v>
   <v>       0.05371690      -0.02628507       2.95671073 </v>
   <v>       0.75888112      -0.02312803      -1.47693653 </v>
   <v>      -0.89392742      -0.00284751       1.45417709 </v>
   <v>       0.31024942       0.01192748      -2.88350818 </v>
   <v>       0.59513082       0.01110479       2.08164130 </v>
   <v>       0.23378754      -0.14448090      -2.95163478 </v>
   <v>      -0.04384228      -0.16402497       2.88793131 </v>
   <v>      -0.32367622       0.66446950      -1.41483594 </v>
   <v>      -0.54411106       0.71733685       2.16203449 </v>
   <v>       0.46174401      -0.56949142      -2.12398385 </v>
   <v>       0.26436124      -0.52954501       1.43086227 </v>
   <v>       0.61927634       0.56164043      -2.18334507 </v>
   <v>      -0.59907589       0.53853524       2.17321865 </v>
   <v>      -0.64307672       0.14358682      -2.13035242 </v>
   <v>       0.66309037       0.15914599       2.06729430 </v>
   <v>       0.36256962      -0.70555602      -2.11523753 </v>
   <v>      -0.37106330      -0.71215659       2.18850272 </v>
  </varray>
  <varray name="stress" >
   <v>       7.35623462      -0.03826622      -1.53298537 </v>
   <v>      -0.03826629       4.39889474       0.03602391 </v>
   <v>      -1.53298538       0.03602381      30.31831078 </v>
  </varray>
  <energy>
   <i name="e_fr_energy">   -186.87215339 </i>
   <i name="e_wo_entrp">   -186.70000924 </i>
   <i name="e_0_energy">     -0.34428831 </i>
  </energy>
  <time name="totalsc">  777.58  780.02</time>
 </calculation>
 <calculation>
  <scstep>
   <time name="dav">   21.63   21.68</time>
   <time name="total">   22.18   22.23</time>
   <energy>
    <i name="alphaZ">     78.92128489 </i>
    <i name="ewald">  39379.50145312 </i>
    <i name="hartreedc"> -45337.01795112 </i>
    <i name="XCdc">   -239.05842992 </i>
    <i name="pawpsdc">   4192.09434895 </i>
    <i name="pawaedc">  -3610.11406203 </i>
    <i name="eentropy">     -0.28106232 </i>
    <i name="bandstr">  -1412.99891344 </i>
    <i name="atom">   6761.44252427 </i>
    <i name="e_fr_energy">   -187.51080761 </i>
    <i name="e_wo_entrp">   -187.22974528 </i>
    <i name="e_0_energy">   -187.37027645 </i>
   </energy>
  </scstep>
  <scstep>
   <time name="dav">   30.21   30.28</time>
   <time name="total">   30.75   30.83</time>
   <energy>
    <i name="e_fr_energy">   -189.61136046 </i>
    <i name="e_wo_entrp">   -189.27143051 </i>
    <i name="e_0_energy">   -189.44139549 </i>
   </energy>
  </scstep>
  <scstep>
   <time name="dav">   30.18   30.25</time>
   <time name="total">   30.73   30.82</time>
   <energy>
    <i name="e_fr_energy">   -189.32827014 </i>
    <i name="e_wo_entrp">   -189.06293257 </i>
    <i name="e_0_energy">   -189.19560135 </i>
   </energy>
  </scstep>
  <scstep>
   <time name="dav">   28.71   28.78</time>
   <time name="total">   29.26   29.34</time>
   <energy>
    <i name="e_fr_energy">   -188.79610990 </i>
    <i name="e_wo_entrp">   -188.51159347 </i>
    <i name="e_0_energy">   -188.65385168 </i>
   </energy>
  </scstep>
  <scstep>
   <time name="dav">   30.46   30.54</time>
   <time name="total">   31.00   31.09</time>
   <energy>
    <i name="e_fr_energy">   -188.88878948 </i>
    <i name="e_wo_entrp">   -188.60310306 </i>
    <i name="e_0_energy">   -188.74594627 </i>
   </energy>
  </scstep>
  <scstep>
   <time name="dav">   30.97   31.04</time>
   <time name="total">   31.52   31.60</time>
   <energy>
    <i name="e_fr_energy">   -188.75831053 </i>
    <i name="e_wo_entrp">   -188.47312731 </i>
    <i name="e_0_energy">   -188.61571892 </i>
   </energy>
  </scstep>
  <scstep>
   <time name="dav">   28.43   28.50</time>
   <time name="total">   28.98   29.06</time>
   <energy>
    <i name="e_fr_energy">   -188.71862013 </i>
    <i name="e_wo_entrp">   -188.43433096 </i>
    <i name="e_0_energy">   -188.57647555 </i>
   </energy>
  </scstep>
  <scstep>
   <time name="dav">   31.54   31.61</time>
   <time name="total">   32.08   32.17</time>
   <energy>
    <i name="e_fr_energy">   -188.71129704 </i>
    <i name="e_wo_entrp">   -188.42897526 </i>
    <i name="e_0_energy">   -188.57013615 </i>
   </energy>
  </scstep>
  <scstep>
   <time name="dav">   28.60   28.67</time>
   <time name="total">   29.15   29.22</time>
   <energy>
    <i name="e_fr_energy">   -188.68394047 </i>
    <i name="e_wo_entrp">   -188.40161995 </i>
    <i name="e_0_energy">   -188.54278021 </i>
   </energy>
  </scstep>
  <scstep>
   <time name="dav">   27.43   27.50</time>
   <time name="total">   27.97   28.05</time>
   <energy>
    <i name="e_fr_energy">   -188.68211510 </i>
    <i name="e_wo_entrp">   -188.40072633 </i>
    <i name="e_0_energy">   -188.54142071 </i>
   </energy>
  </scstep>
  <scstep>
   <time name="dav">   31.03   31.11</time>
   <time name="total">   31.58   31.66</time>
   <energy>
    <i name="e_fr_energy">   -188.68162002 </i>
    <i name="e_wo_entrp">   -188.40131499 </i>
    <i name="e_0_energy">   -188.54146750 </i>
   </energy>
  </scstep>
  <scstep>
   <time name="dav">   27.96   28.03</time>
   <time name="total">   28.00   28.07</time>
   <energy>
    <i name="alphaZ">     78.92128489 </i>
    <i name="ewald">  39379.50145312 </i>
    <i name="hartreedc"> -45347.92166592 </i>
    <i name="XCdc">   -237.96803195 </i>
    <i name="pawpsdc">   3952.82072502 </i>
    <i name="pawaedc">  -3367.36198511 </i>
    <i name="eentropy">     -0.28033325 </i>
    <i name="bandstr">  -1407.83563252 </i>
    <i name="atom">   6761.44252427 </i>
    <i name="e_fr_energy">   -188.68166145 </i>
    <i name="e_wo_entrp">   -188.40132820 </i>
    <i name="e_0_energy">   -188.54149483 </i>
   </energy>
  </scstep>
  <structure>
   <crystal>
    <varray name="basis" >
     <v>       8.85591611       5.10385325       0.00000000 </v>
     <v>      -8.85704377       5.10579358       0.00000000 </v>
     <v>       0.00000000       0.00000000      30.00000000 </v>
    </varray>
    <i name="volume">   2712.64593880 </i>
    <varray name="rec_basis" >
     <v>       0.05646657       0.09795282       0.00000000 </v>
     <v>      -0.05644511       0.09794035       0.00000000 </v>
     <v>       0.00000000       0.00000000       0.03333333 </v>
    </varray>
   </crystal>
   <varray name="positions" >
    <v>       1.00038963       0.33246449      -0.00013475 </v>
    <v>       0.66627172       0.66546581       0.00013705 </v>
    <v>       0.33340049       0.66513389      -0.00000680 </v>
    <v>       0.33336844       0.33238935       0.00001399 </v>
    <v>       0.00139352       0.00138463       0.00009768 </v>
    <v>       0.66518466       0.33331749      -0.00008804 </v>
    <v>      -0.00158065       0.66631126       0.00001060 </v>
    <v>       0.33319285       0.00299310      -0.00000488 </v>
    <v>       0.66831991       0.00118787      -0.00002362 </v>
    <v>       0.10856337       0.22465108       0.95198553 </v>
    <v>       0.22247346       0.11040986       0.04935465 </v>
    <v>       0.11268575       0.55356113       0.95302495 </v>
    <v>       0.21994913       0.44649187       0.04693844 </v>
    <v>       0.11160536       0.88831039       0.95076305 </v>
    <v>       0.22415871       0.77574919       0.04794746 </v>
    <v>       0.44397741       0.22110789       0.95065350 </v>
    <v>       0.55487616       0.11002207       0.04924405 </v>
    <v>       0.44629807       0.55986381       0.95312481 </v>
    <v>       0.55770251       0.44896542       0.04807674 </v>
    <v>       0.44257753       0.88510625       0.95198444 </v>
    <v>       0.55398426       0.77408191       0.04690095 </v>
    <v>       0.78176272       0.22341488       0.95188898 </v>
    <v>       0.89002716       0.11492925       0.04809473 </v>
    <v>       0.77624986       0.55825950       0.95197419 </v>
    <v>       0.89172296       0.44293530       0.04792439 </v>
    <v>       0.77498375       0.88473096       0.95199850 </v>
    <v>       0.88467574       0.77497579       0.04811930 </v>
   </varray>
  </structure>
  <varray name="forces" >
   <v>       0.17006233      -0.08767366      -0.02879744 </v>
   <v>       0.16163624      -0.09598771       0.02969228 </v>
   <v>       0.20755368      -0.12410203      -0.00412180 </v>
   <v>       0.49114302      -0.28737958      -0.00168046 </v>
   <v>       0.17407772       0.32476904      -0.05881235 </v>
   <v>      -0.20280533      -0.31789094       0.06117873 </v>
   <v>      -0.26213423      -0.11414761       0.11366244 </v>
   <v>      -0.63483002       0.36002230       0.00444555 </v>
   <v>      -0.01720310       0.29171541      -0.11203943 </v>
   <v>      -0.06169319       0.01337238      -0.09886155 </v>
   <v>       0.12633409       0.00213979       0.27281191 </v>
   <v>      -0.09943162      -0.02217403       0.14281237 </v>
   <v>      -0.02526700      -0.00362783      -0.09011011 </v>
   <v>       0.11597241       0.00337211      -0.00419489 </v>
   <v>      -0.10585689       0.00004048      -0.24017112 </v>
   <v>       0.04333673      -0.09948141      -0.27742182 </v>
   <v>       0.07481025      -0.11503110      -0.01153821 </v>
   <v>       0.00445464       0.03546395       0.07239620 </v>
   <v>      -0.04585575       0.06994088       0.08996021 </v>
   <v>      -0.06181386       0.07349553       0.26303439 </v>
   <v>      -0.03792456       0.07686496      -0.11670242 </v>
   <v>       0.08358085      -0.04181295      -0.00384135 </v>
   <v>      -0.07611643      -0.03731157       0.05845471 </v>
   <v>       0.00592634       0.09602611      -0.07348176 </v>
   <v>      -0.02195124       0.11146868      -0.13857053 </v>
   <v>      -0.10787363      -0.05280641       0.15219294 </v>
   <v>       0.10186855      -0.05926479      -0.00029648 </v>
  </varray>
  <varray name="stress" >
   <v>     -20.01152739       0.00181647       0.06392057 </v>
   <v>       0.00181633     -19.56369339       0.03603290 </v>
   <v>       0.06392064       0.03603282      -1.76414660 </v>
  </varray>
  <energy>
   <i name="e_fr_energy">   -188.68166145 </i>
   <i name="e_wo_entrp">   -188.54149483 </i>
   <i name="e_0_energy">     -0.28033325 </i>
  </energy>
  <time name="totalsc">  394.81  395.85</time>
 </calculation>
 <calculation>
  <scstep>
   <time name="dav">   23.97   24.03</time>
   <time name="total">   24.51   24.57</time>
   <energy>
    <i name="alphaZ">     82.34955846 </i>
    <i name="ewald">  41304.95586811 </i>
    <i name="hartreedc"> -47303.94836950 </i>
    <i name="XCdc">   -233.84410308 </i>
    <i name="pawpsdc">   3950.39325999 </i>
    <i name="pawaedc">  -3364.90588093 </i>
    <i name="eentropy">     -0.23486762 </i>
    <i name="bandstr">  -1386.81698363 </i>
    <i name="atom">   6761.44252427 </i>
    <i name="e_fr_energy">   -190.60899393 </i>
    <i name="e_wo_entrp">   -190.37412632 </i>
    <i name="e_0_energy">   -190.49156012 </i>
   </energy>
  </scstep>
  <scstep>
   <time name="dav">   28.05   28.12</time>
   <time name="total">   28.58   28.66</time>
   <energy>
    <i name="e_fr_energy">   -190.56117549 </i>
    <i name="e_wo_entrp">   -190.32866519 </i>
    <i name="e_0_energy">   -190.44492034 </i>
   </energy>
  </scstep>
  <scstep>
   <time name="dav">   30.10   30.17</time>
   <time name="total">   30.63   30.71</time>
   <energy>
    <i name="e_fr_energy">   -190.08809697 </i>
    <i name="e_wo_entrp">   -189.83792837 </i>
    <i name="e_0_energy">   -189.96301267 </i>
   </energy>
  </scstep>
  <scstep>
   <time name="dav">   31.23   31.30</time>
   <time name="total">   31.76   31.84</time>
   <energy>
    <i name="e_fr_energy">   -189.87731277 </i>
    <i name="e_wo_entrp">   -189.64401970 </i>
    <i name="e_0_energy">   -189.76066624 </i>
   </energy>
  </scstep>
  <scstep>
   <time name="dav">   29.27   29.34</time>
   <time name="total">   29.81   29.89</time>
   <energy>
    <i name="e_fr_energy">   -189.78770459 </i>
    <i name="e_wo_entrp">   -189.55131666 </i>
    <i name="e_0_energy">   -189.66951063 </i>
   </energy>
  </scstep>
  <scstep>
   <time name="dav">   26.61   26.67</time>
   <time name="total">   27.14   27.21</time>
   <energy>
    <i name="e_fr_energy">   -189.77413719 </i>
    <i name="e_wo_entrp">   -189.53598339 </i>
    <i name="e_0_energy">   -189.65506029 </i>
   </energy>
  </scstep>
  <scstep>
   <time name="dav">   30.02   30.10</time>
   <time name="total">   30.56   30.64</time>
   <energy>
    <i name="e_fr_energy">   -189.77479893 </i>
    <i name="e_wo_entrp">   -189.53876571 </i>
    <i name="e_0_energy">   -189.65678232 </i>
   </energy>
  </scstep>
  <scstep>
   <time name="dav">   29.08   29.15</time>
   <time name="total">   29.61   29.69</time>
   <energy>
    <i name="e_fr_energy">   -189.77370333 </i>
    <i name="e_wo_entrp">   -189.53651777 </i>
    <i name="e_0_energy">   -189.65511055 </i>
   </energy>
  </scstep>
  <scstep>
   <time name="dav">   27.03   27.09</time>
   <time name="total">   27.56   27.64</time>
   <energy>
    <i name="e_fr_energy">   -189.77411450 </i>
    <i name="e_wo_entrp">   -189.53723852 </i>
    <i name="e_0_energy">   -189.65567651 </i>
   </energy>
  </scstep>
  <scstep>
   <time name="dav">   27.98   28.05</time>
   <time name="total">   28.52   28.71</time>
   <energy>
    <i name="e_fr_energy">   -189.77420477 </i>
    <i name="e_wo_entrp">   -189.53688839 </i>
    <i name="e_0_energy">   -189.65554658 </i>
   </energy>
  </scstep>
  <scstep>
   <time name="dav">   23.53   23.58</time>
   <time name="total">   24.06   24.13</time>
   <energy>
    <i name="e_fr_energy">   -189.77385072 </i>
    <i name="e_wo_entrp">   -189.53675536 </i>
    <i name="e_0_energy">   -189.65530304 </i>
   </energy>
  </scstep>
  <scstep>
   <time name="dav">   17.74   17.79</time>
   <time name="total">   17.78   17.83</time>
   <energy>
    <i name="alphaZ">     82.34955846 </i>
    <i name="ewald">  41304.95586811 </i>
    <i name="hartreedc"> -47277.18011018 </i>
    <i name="XCdc">   -235.23878640 </i>
    <i name="pawpsdc">   4038.68141294 </i>
    <i name="pawaedc">  -3454.39010985 </i>
    <i name="eentropy">     -0.23714315 </i>
    <i name="bandstr">  -1410.15706092 </i>
    <i name="atom">   6761.44252427 </i>
    <i name="e_fr_energy">   -189.77384672 </i>
    <i name="e_wo_entrp">   -189.53670357 </i>
    <i name="e_0_energy">   -189.65527515 </i>
   </energy>
  </scstep>
  <structure>
   <crystal>
    <varray name="basis" >
     <v>       8.66751932       4.99771753       0.00000000 </v>
     <v>      -8.66860328       4.99958331       0.00000000 </v>
     <v>       0.00000000       0.00000000      30.00000000 </v>
    </varray>
    <i name="volume">   2599.71646419 </i>
    <varray name="rec_basis" >
     <v>       0.05769379       0.10003325       0.00000000 </v>
     <v>      -0.05767226       0.10002075       0.00000000 </v>
     <v>       0.00000000       0.00000000       0.03333333 </v>
    </varray>
   </crystal>
   <varray name="positions" >
    <v>       1.00040684       0.33215617      -0.00015103 </v>
    <v>       0.66626705       0.66515175       0.00015383 </v>
    <v>       0.33339310       0.66472921      -0.00000913 </v>
    <v>       0.33336138       0.33144217       0.00001304 </v>
    <v>       0.00209950       0.00175731       0.00006445 </v>
    <v>       0.66446260       0.33298372      -0.00005347 </v>
    <v>      -0.00202115       0.66637257       0.00007484 </v>
    <v>       0.33318299       0.00419840      -0.00000237 </v>
    <v>       0.66878788       0.00168871      -0.00008693 </v>
    <v>       0.10852651       0.22473232       0.95192966 </v>
    <v>       0.22259795       0.11029252       0.04950882 </v>
    <v>       0.11255374       0.55361947       0.95310565 </v>
    <v>       0.21991892       0.44651003       0.04688752 </v>
    <v>       0.11172198       0.88820501       0.95076068 </v>
    <v>       0.22405743       0.77585056       0.04781174 </v>
    <v>       0.44385369       0.22090124       0.95049672 </v>
    <v>       0.55475675       0.10975947       0.04923753 </v>
    <v>       0.44636123       0.55991843       0.95316572 </v>
    <v>       0.55777476       0.44912543       0.04812758 </v>
    <v>       0.44264040       0.88528744       0.95213308 </v>
    <v>       0.55407560       0.77424583       0.04683500 </v>
    <v>       0.78177330       0.22326547       0.95188681 </v>
    <v>       0.88989233       0.11494014       0.04812776 </v>
    <v>       0.77641500       0.55841327       0.95193267 </v>
    <v>       0.89188706       0.44314139       0.04784608 </v>
    <v>       0.77479279       0.88474651       0.95208451 </v>
    <v>       0.88467484       0.77477990       0.04811914 </v>
   </varray>
  </structure>
  <varray name="forces" >
   <v>       0.14085242      -0.12397157      -0.00624214 </v>
   <v>       0.18002320      -0.06229515       0.00760937 </v>
   <v>       0.16997072      -0.10291441      -0.00200596 </v>
   <v>       0.57879860      -0.33273849      -0.00258241 </v>
   <v>       0.22166819       0.32582272      -0.06222583 </v>
   <v>      -0.18105152      -0.36473860       0.06194503 </v>
   <v>      -0.27264980      -0.07938255       0.10588017 </v>
   <v>      -0.63802489       0.36828707       0.00304506 </v>
   <v>      -0.06025578       0.28009241      -0.10405455 </v>
   <v>      -0.12745380       0.02941638      -0.59674380 </v>
   <v>       0.03164855       0.00983664       0.86353295 </v>
   <v>       0.04621043      -0.02022639      -0.31268452 </v>
   <v>      -0.08327183      -0.00342241       0.34902536 </v>
   <v>       0.05611269       0.00087161      -0.55919360 </v>
   <v>       0.03092403       0.01814783       0.23518802 </v>
   <v>      -0.00562729      -0.02160793      -0.86514287 </v>
   <v>       0.04363911      -0.05901093       0.54361728 </v>
   <v>      -0.02214086       0.08468071      -0.36606865 </v>
   <v>      -0.09191908       0.12065805       0.58641350 </v>
   <v>      -0.00663837      -0.05093612      -0.21308358 </v>
   <v>       0.03195618      -0.04441365       0.33457907 </v>
   <v>       0.06188927       0.10407275      -0.50969318 </v>
   <v>      -0.06757478       0.09955600       0.55999598 </v>
   <v>      -0.10709841       0.01654879      -0.57126558 </v>
   <v>       0.09067615       0.03233403       0.34546496 </v>
   <v>       0.01697567      -0.11129688      -0.33363277 </v>
   <v>      -0.03763879      -0.11336992       0.50832270 </v>
  </varray>
  <varray name="stress" >
   <v>     -10.16106698      -0.00809656       0.03517590 </v>
   <v>      -0.00809649      -9.84972398       0.02936875 </v>
   <v>       0.03517607       0.02936879       6.52102737 </v>
  </varray>
  <energy>
   <i name="e_fr_energy">   -189.77384672 </i>
   <i name="e_wo_entrp">   -189.65527515 </i>
   <i name="e_0_energy">     -0.23714315 </i>
  </energy>
  <time name="totalsc">  372.96  374.06</time>
 </calculation>
 <calculation>
  <scstep>
   <time name="dav">   21.64   21.69</time>
   <time name="total">   22.16   22.22</time>
   <energy>
    <i name="alphaZ">     85.81103820 </i>
    <i name="ewald">  42828.05374473 </i>
    <i name="hartreedc"> -48844.61322746 </i>
    <i name="XCdc">   -232.96794233 </i>
    <i name="pawpsdc">   4038.92539651 </i>
    <i name="pawaedc">  -3454.63296529 </i>
    <i name="eentropy">     -0.20004250 </i>
    <i name="bandstr">  -1373.15051056 </i>
    <i name="atom">   6761.44252427 </i>
    <i name="e_fr_energy">   -191.33198442 </i>
    <i name="e_wo_entrp">   -191.13194192 </i>
    <i name="e_0_energy">   -191.23196317 </i>
   </energy>
  </scstep>
  <scstep>
   <time name="dav">   32.07   32.15</time>
   <time name="total">   32.59   32.67</time>
   <energy>
    <i name="e_fr_energy">   -191.20076042 </i>
    <i name="e_wo_entrp">   -190.99369878 </i>
    <i name="e_0_energy">   -191.09722960 </i>
   </energy>
  </scstep>
  <scstep>
   <time name="dav">   29.00   29.08</time>
   <time name="total">   29.52   29.60</time>
   <energy>
    <i name="e_fr_energy">   -191.30422441 </i>
    <i name="e_wo_entrp">   -191.08604820 </i>
    <i name="e_0_energy">   -191.19513630 </i>
   </energy>
  </scstep>
  <scstep>
   <time name="dav">   29.89   29.97</time>
   <time name="total">   30.41   30.49</time>
   <energy>
    <i name="e_fr_energy">   -190.97476755 </i>
    <i name="e_wo_entrp">   -190.75173945 </i>
    <i name="e_0_energy">   -190.86325350 </i>
   </energy>
  </scstep>
  <scstep>
   <time name="dav">   27.81   27.88</time>
   <time name="total">   28.33   28.41</time>
   <energy>
    <i name="e_fr_energy">   -190.94357353 </i>
    <i name="e_wo_entrp">   -190.74990488 </i>
    <i name="e_0_energy">   -190.84673921 </i>
   </energy>
  </scstep>
  <scstep>
   <time name="dav">   29.21   29.28</time>
   <time name="total">   29.73   29.81</time>
   <energy>
    <i name="e_fr_energy">   -190.76051161 </i>
    <i name="e_wo_entrp">   -190.55445591 </i>
    <i name="e_0_energy">   -190.65748376 </i>
   </energy>
  </scstep>
  <scstep>
   <time name="dav">   27.89   27.96</time>
   <time name="total">   28.41   28.49</time>
   <energy>
    <i name="e_fr_energy">   -190.75565080 </i>
    <i name="e_wo_entrp">   -190.54968097 </i>
    <i name="e_0_energy">   -190.65266589 </i>
   </energy>
  </scstep>
  <scstep>
   <time name="dav">   25.91   25.97</time>
   <time name="total">   26.42   26.49</time>
   <energy>
    <i name="e_fr_energy">   -190.75279668 </i>
    <i name="e_wo_entrp">   -190.54643627 </i>
    <i name="e_0_energy">   -190.64961648 </i>
   </energy>
  </scstep>
  <scstep>
   <time name="dav">   29.30   29.37</time>
   <time name="total">   29.82   29.90</time>
   <energy>
    <i name="e_fr_energy">   -190.75303204 </i>
    <i name="e_wo_entrp">   -190.54676545 </i>
    <i name="e_0_energy">   -190.64989874 </i>
   </energy>
  </scstep>
  <scstep>
   <time name="dav">   26.22   26.28</time>
   <time name="total">   26.74   26.81</time>
   <energy>
    <i name="e_fr_energy">   -190.75294591 </i>
    <i name="e_wo_entrp">   -190.54677894 </i>
    <i name="e_0_energy">   -190.64986243 </i>
   </energy>
  </scstep>
  <scstep>
   <time name="dav">   26.32   26.38</time>
   <time name="total">   26.84   26.91</time>
   <energy>
    <i name="e_fr_energy">   -190.75277044 </i>
    <i name="e_wo_entrp">   -190.54658392 </i>
    <i name="e_0_energy">   -190.64967718 </i>
   </energy>
  </scstep>
  <scstep>
   <time name="dav">   18.77   18.81</time>
   <time name="total">   18.80   18.86</time>
   <energy>
    <i name="alphaZ">     85.81103820 </i>
    <i name="ewald">  42828.05374473 </i>
    <i name="hartreedc"> -48816.14605862 </i>
    <i name="XCdc">   -234.29066119 </i>
    <i name="pawpsdc">   4063.54343193 </i>
    <i name="pawaedc">  -3479.42967354 </i>
    <i name="eentropy">     -0.20629748 </i>
    <i name="bandstr">  -1399.53080826 </i>
    <i name="atom">   6761.44252427 </i>
    <i name="e_fr_energy">   -190.75275995 </i>
    <i name="e_wo_entrp">   -190.54646247 </i>
    <i name="e_0_energy">   -190.64961121 </i>
   </energy>
  </scstep>
  <structure>
   <crystal>
    <varray name="basis" >
     <v>       8.48681434       4.89771294       0.00000000 </v>
     <v>      -8.48833070       4.90033050       0.00000000 </v>
     <v>       0.00000000       0.00000000      30.00000000 </v>
    </varray>
    <i name="volume">   2494.84806881 </i>
    <varray name="rec_basis" >
     <v>       0.05892540       0.10207031       0.00000000 </v>
     <v>      -0.05889392       0.10205208       0.00000000 </v>
     <v>       0.00000000       0.00000000       0.03333333 </v>
    </varray>
   </crystal>
   <varray name="positions" >
    <v>       1.00000774       0.33082486      -0.00014486 </v>
    <v>       0.66663689       0.66417050       0.00015089 </v>
    <v>       0.33336149       0.66357930      -0.00001148 </v>
    <v>       0.33338139       0.32703672       0.00000694 </v>
    <v>       0.00500720       0.00292965      -0.00006700 </v>
    <v>       0.66144362       0.33120865       0.00007516 </v>
    <v>      -0.00342971       0.66696075       0.00028701 </v>
    <v>       0.33320043       0.00882666       0.00000274 </v>
    <v>       0.67023144       0.00368993      -0.00029517 </v>
    <v>       0.10819641       0.22550977       0.95027594 </v>
    <v>       0.22265717       0.11039453       0.05179222 </v>
    <v>       0.11280731       0.55312277       0.95207464 </v>
    <v>       0.21951461       0.44687242       0.04797979 </v>
    <v>       0.11183792       0.88808759       0.94913627 </v>
    <v>       0.22452327       0.77570172       0.04869943 </v>
    <v>       0.44382159       0.22104990       0.94821254 </v>
    <v>       0.55463967       0.10941691       0.05082989 </v>
    <v>       0.44689503       0.56068800       0.95203881 </v>
    <v>       0.55825768       0.45040313       0.04975875 </v>
    <v>       0.44206790       0.88460493       0.95129042 </v>
    <v>       0.55371198       0.77345172       0.04790769 </v>
    <v>       0.78297858       0.22408634       0.95040620 </v>
    <v>       0.89062327       0.11613391       0.04970865 </v>
    <v>       0.77577294       0.55886730       0.95033167 </v>
    <v>       0.89238103       0.44265888       0.04896894 </v>
    <v>       0.77419156       0.88366551       0.95098458 </v>
    <v>       0.88349605       0.77427211       0.04959925 </v>
   </varray>
  </structure>
  <varray name="forces" >
   <v>       0.12046903      -0.12555124       0.04300554 </v>
   <v>       0.16532313      -0.04213245      -0.04175975 </v>
   <v>       0.19900455      -0.12080950       0.00102248 </v>
   <v>       0.58379469      -0.33666742       0.00232207 </v>
   <v>       0.25668940       0.34274267      -0.02900083 </v>
   <v>      -0.17556120      -0.40415545       0.02718589 </v>
   <v>      -0.25597939      -0.05767032       0.05710486 </v>
   <v>      -0.62998997       0.35862743      -0.00405073 </v>
   <v>      -0.06466829       0.25609669      -0.05897820 </v>
   <v>       0.00918342       0.05244698      -0.42745578 </v>
   <v>      -0.03999070       0.01226895       0.69476477 </v>
   <v>       0.00013752      -0.03207978      -0.23618979 </v>
   <v>       0.06173058      -0.02535272       0.25144121 </v>
   <v>       0.02617629       0.03007399      -0.36818123 </v>
   <v>      -0.05524633       0.06504555       0.08859081 </v>
   <v>      -0.02668248       0.02586354      -0.69727125 </v>
   <v>      -0.01175725      -0.03782387       0.36777418 </v>
   <v>       0.06596624      -0.03820895      -0.25890189 </v>
   <v>      -0.04811389      -0.02160776       0.42542373 </v>
   <v>      -0.07934790       0.00750459      -0.07896876 </v>
   <v>       0.01860645       0.01645076       0.24145622 </v>
   <v>      -0.03729213       0.09238293      -0.37137706 </v>
   <v>       0.01290001       0.06411829       0.33934953 </v>
   <v>      -0.03658194      -0.04111088      -0.34332460 </v>
   <v>      -0.00231696      -0.04122043       0.17941198 </v>
   <v>       0.04228860       0.01294778      -0.17734647 </v>
   <v>      -0.09874145      -0.01217937       0.37395308 </v>
  </varray>
  <varray name="stress" >
   <v>      -5.71933116      -0.07784324      -0.12553546 </v>
   <v>      -0.07784331      -5.81295911      -0.09507675 </v>
   <v>      -0.12553556      -0.09507679       4.51427014 </v>
  </varray>
  <energy>
   <i name="e_fr_energy">   -190.75275995 </i>
   <i name="e_wo_entrp">   -190.64961121 </i>
   <i name="e_0_energy">     -0.20629748 </i>
  </energy>
  <time name="totalsc">  371.86  372.85</time>
 </calculation>
 <calculation>
  <scstep>
   <time name="dav">   21.61   21.67</time>
   <time name="total">   22.13   22.18</time>
   <energy>
    <i name="alphaZ">     90.15491661 </i>
    <i name="ewald">  44658.67047562 </i>
    <i name="hartreedc"> -50701.85584035 </i>
    <i name="XCdc">   -231.82983455 </i>
    <i name="pawpsdc">   4063.58945567 </i>
    <i name="pawaedc">  -3479.47123103 </i>
    <i name="eentropy">     -0.19313073 </i>
    <i name="bandstr">  -1352.61233431 </i>
    <i name="atom">   6761.44252427 </i>
    <i name="e_fr_energy">   -192.10499878 </i>
    <i name="e_wo_entrp">   -191.91186806 </i>
    <i name="e_0_energy">   -192.00843342 </i>
   </energy>
  </scstep>
  <scstep>
   <time name="dav">   29.34   29.41</time>
   <time name="total">   29.84   29.92</time>
   <energy>
    <i name="e_fr_energy">   -191.92427186 </i>
    <i name="e_wo_entrp">   -191.71570893 </i>
    <i name="e_0_energy">   -191.81999040 </i>
   </energy>
  </scstep>
  <scstep>
   <time name="dav">   30.00   30.07</time>
   <time name="total">   30.50   30.59</time>
   <energy>
    <i name="e_fr_energy">   -192.36860296 </i>
    <i name="e_wo_entrp">   -192.15971383 </i>
    <i name="e_0_energy">   -192.26415839 </i>
   </energy>
  </scstep>
  <scstep>
   <time name="dav">   29.90   29.97</time>
   <time name="total">   30.40   30.48</time>
   <energy>
    <i name="e_fr_energy">   -191.58925064 </i>
    <i name="e_wo_entrp">   -191.38189029 </i>
    <i name="e_0_energy">   -191.48557047 </i>
   </energy>
  </scstep>
  <scstep>
   <time name="dav">   29.66   29.74</time>
   <time name="total">   30.17   30.25</time>
   <energy>
    <i name="e_fr_energy">   -191.41365493 </i>
    <i name="e_wo_entrp">   -191.21617456 </i>
    <i name="e_0_energy">   -191.31491475 </i>
   </energy>
  </scstep>
  <scstep>
   <time name="dav">   30.60   30.68</time>
   <time name="total">   31.11   31.19</time>
   <energy>
    <i name="e_fr_energy">   -191.41611879 </i>
    <i name="e_wo_entrp">   -191.20622862 </i>
    <i name="e_0_energy">   -191.31117371 </i>
   </energy>
  </scstep>
  <scstep>
   <time name="dav">   29.82   29.89</time>
   <time name="total">   30.33   30.41</time>
   <energy>
    <i name="e_fr_energy">   -191.39502226 </i>
    <i name="e_wo_entrp">   -191.19507876 </i>
    <i name="e_0_energy">   -191.29505051 </i>
   </energy>
  </scstep>
  <scstep>
   <time name="dav">   28.68   28.75</time>
   <time name="total">   29.19   29.26</time>
   <energy>
    <i name="e_fr_energy">   -191.38560142 </i>
    <i name="e_wo_entrp">   -191.18365530 </i>
    <i name="e_0_energy">   -191.28462836 </i>
   </energy>
  </scstep>
  <scstep>
   <time name="dav">   29.76   29.83</time>
   <time name="total">   30.27   30.35</time>
   <energy>
    <i name="e_fr_energy">   -191.38622581 </i>
    <i name="e_wo_entrp">   -191.18432878 </i>
    <i name="e_0_energy">   -191.28527730 </i>
   </energy>
  </scstep>
  <scstep>
   <time name="dav">   28.53   28.60</time>
   <time name="total">   29.04   29.12</time>
   <energy>
    <i name="e_fr_energy">   -191.38623857 </i>
    <i name="e_wo_entrp">   -191.18421119 </i>
    <i name="e_0_energy">   -191.28522488 </i>
   </energy>
  </scstep>
  <scstep>
   <time name="dav">   25.49   25.55</time>
   <time name="total">   26.00   26.07</time>
   <energy>
    <i name="e_fr_energy">   -191.38585138 </i>
    <i name="e_wo_entrp">   -191.18366433 </i>
    <i name="e_0_energy">   -191.28475785 </i>
   </energy>
  </scstep>
  <scstep>
   <time name="dav">   17.71   17.76</time>
   <time name="total">   17.75   17.80</time>
   <energy>
    <i name="alphaZ">     90.15491661 </i>
    <i name="ewald">  44658.67047562 </i>
    <i name="hartreedc"> -50668.15902344 </i>
    <i name="XCdc">   -233.34756010 </i>
    <i name="pawpsdc">   4086.05051758 </i>
    <i name="pawaedc">  -3502.04415845 </i>
    <i name="eentropy">     -0.20219275 </i>
    <i name="bandstr">  -1383.95130680 </i>
    <i name="atom">   6761.44252427 </i>
    <i name="e_fr_energy">   -191.38580745 </i>
    <i name="e_wo_entrp">   -191.18361470 </i>
    <i name="e_0_energy">   -191.28471107 </i>
   </energy>
  </scstep>
  <structure>
   <crystal>
    <varray name="basis" >
     <v>       8.27990244       4.77266012       0.00000000 </v>
     <v>      -8.28620262       4.78356477       0.00000000 </v>
     <v>       0.00000000       0.00000000      30.00000000 </v>
    </varray>
    <i name="volume">   2374.64035215 </i>
    <varray name="rec_basis" >
     <v>       0.06043313       0.10468367       0.00000000 </v>
     <v>      -0.06029536       0.10460408       0.00000000 </v>
     <v>       0.00000000       0.00000000       0.03333333 </v>
    </varray>
   </crystal>
   <varray name="positions" >
    <v>       0.99919119       0.32836250       0.00002280 </v>
    <v>       0.66739777       0.66250454      -0.00001127 </v>
    <v>       0.33328938       0.66087218      -0.00000694 </v>
    <v>       0.33340226       0.31852134       0.00001274 </v>
    <v>       0.01104300       0.00524361      -0.00020366 </v>
    <v>       0.65521105       0.32739855       0.00020281 </v>
    <v>      -0.00591636       0.66816107       0.00053317 </v>
    <v>       0.33316509       0.01772664      -0.00001105 </v>
    <v>       0.67285121       0.00735764      -0.00054665 </v>
    <v>       0.10867353       0.22633386       0.94799443 </v>
    <v>       0.22245434       0.11093392       0.05523113 </v>
    <v>       0.11272473       0.55246958       0.95064706 </v>
    <v>       0.21944365       0.44639567       0.04946344 </v>
    <v>       0.11226587       0.88828612       0.94702420 </v>
    <v>       0.22521204       0.77655606       0.04959418 </v>
    <v>       0.44403388       0.22176124       0.94476702 </v>
    <v>       0.55421987       0.10916114       0.05293247 </v>
    <v>       0.44710921       0.56022456       0.95052097 </v>
    <v>       0.55791448       0.45097586       0.05202637 </v>
    <v>       0.44130600       0.88464483       0.95043993 </v>
    <v>       0.55372549       0.77294586       0.04936096 </v>
    <v>       0.78434256       0.22586064       0.94835716 </v>
    <v>       0.89188840       0.11734114       0.05166914 </v>
    <v>       0.77462385       0.55874315       0.94835512 </v>
    <v>       0.89202837       0.44179024       0.05024501 </v>
    <v>       0.77445931       0.88297082       0.94972017 </v>
    <v>       0.88215426       0.77467167       0.05165919 </v>
   </varray>
  </structure>
  <varray name="forces" >
   <v>       0.11193244      -0.05649067      -0.01919840 </v>
   <v>       0.10042358      -0.06647152       0.01522617 </v>
   <v>       0.29001976      -0.17440162      -0.00335431 </v>
   <v>       0.06085246      -0.03477747      -0.00204940 </v>
   <v>       0.12241935       0.13655167       0.06167169 </v>
   <v>      -0.05873099      -0.18147897      -0.05467273 </v>
   <v>      -0.19755959       0.01979807       0.03761858 </v>
   <v>      -0.16930897       0.09155497       0.00496376 </v>
   <v>      -0.09904813       0.16341033      -0.03330428 </v>
   <v>       0.15494451       0.07184567      -0.07094803 </v>
   <v>      -0.04468403      -0.01905430       0.32386296 </v>
   <v>      -0.05818093      -0.05121301       0.03300689 </v>
   <v>       0.20641828      -0.05416757       0.04214401 </v>
   <v>       0.04172951       0.09103613      -0.09650458 </v>
   <v>      -0.16650718       0.15110220      -0.19854404 </v>
   <v>      -0.00479972       0.04449499      -0.32994106 </v>
   <v>      -0.06003957      -0.08282214       0.08800629 </v>
   <v>       0.14844724      -0.15090273      -0.03300096 </v>
   <v>       0.01649514      -0.17172804       0.07454258 </v>
   <v>      -0.20999560       0.07156868       0.19928665 </v>
   <v>       0.01677187       0.08072410      -0.03648437 </v>
   <v>      -0.11441840       0.05051494      -0.06643285 </v>
   <v>       0.08311985       0.01593262       0.04948002 </v>
   <v>       0.03040673      -0.07791168      -0.04215831 </v>
   <v>      -0.13366954      -0.11695274      -0.09946423 </v>
   <v>       0.03644572       0.17286217       0.08885713 </v>
   <v>      -0.10348379       0.07697593       0.06739079 </v>
  </varray>
  <varray name="stress" >
   <v>       0.27906368      -0.23075062      -0.23295846 </v>
   <v>      -0.23075052       0.05852997      -0.38155888 </v>
   <v>      -0.23295873      -0.38155891      -0.48806590 </v>
  </varray>
  <energy>
   <i name="e_fr_energy">   -191.38580745 </i>
   <i name="e_wo_entrp">   -191.28471107 </i>
   <i name="e_0_energy">     -0.20219275 </i>
  </energy>
  <time name="totalsc">  378.66  379.66</time>
 </calculation>
 <calculation>
  <scstep>
   <time name="dav">   21.67   21.72</time>
   <time name="total">   22.18   22.23</time>
   <energy>
    <i name="alphaZ">     90.03722532 </i>
    <i name="ewald">  44586.60470535 </i>
    <i name="hartreedc"> -50595.55924306 </i>
    <i name="XCdc">   -233.50559285 </i>
    <i name="pawpsdc">   4085.96002136 </i>
    <i name="pawaedc">  -3501.94872916 </i>
    <i name="eentropy">     -0.20538411 </i>
    <i name="bandstr">  -1384.24819303 </i>
    <i name="atom">   6761.44252427 </i>
    <i name="e_fr_energy">   -191.42266590 </i>
    <i name="e_wo_entrp">   -191.21728179 </i>
    <i name="e_0_energy">   -191.31997385 </i>
   </energy>
  </scstep>
  <scstep>
   <time name="dav">   30.96   31.03</time>
   <time name="total">   31.46   31.54</time>
   <energy>
    <i name="e_fr_energy">   -191.44796355 </i>
    <i name="e_wo_entrp">   -191.23831796 </i>
    <i name="e_0_energy">   -191.34314076 </i>
   </energy>
  </scstep>
  <scstep>
   <time name="dav">   29.86   29.93</time>
   <time name="total">   30.37   30.45</time>
   <energy>
    <i name="e_fr_energy">   -191.43281608 </i>
    <i name="e_wo_entrp">   -191.22862509 </i>
    <i name="e_0_energy">   -191.33072058 </i>
   </energy>
  </scstep>
  <scstep>
   <time name="dav">   27.42   27.49</time>
   <time name="total">   27.93   28.00</time>
   <energy>
    <i name="e_fr_energy">   -191.43317795 </i>
    <i name="e_wo_entrp">   -191.22587013 </i>
    <i name="e_0_energy">   -191.32952404 </i>
   </energy>
  </scstep>
  <scstep>
   <time name="dav">   27.17   27.23</time>
   <time name="total">   27.67   27.75</time>
   <energy>
    <i name="e_fr_energy">   -191.43112742 </i>
    <i name="e_wo_entrp">   -191.22520886 </i>
    <i name="e_0_energy">   -191.32816814 </i>
   </energy>
  </scstep>
  <scstep>
   <time name="dav">   27.22   27.29</time>
   <time name="total">   27.73   27.80</time>
   <energy>
    <i name="e_fr_energy">   -191.43082923 </i>
    <i name="e_wo_entrp">   -191.22496575 </i>
    <i name="e_0_energy">   -191.32789749 </i>
   </energy>
  </scstep>
  <scstep>
   <time name="dav">   24.91   24.97</time>
   <time name="total">   25.42   25.49</time>
   <energy>
    <i name="e_fr_energy">   -191.43070702 </i>
    <i name="e_wo_entrp">   -191.22488972 </i>
    <i name="e_0_energy">   -191.32779837 </i>
   </energy>
  </scstep>
  <scstep>
   <time name="dav">   19.23   19.28</time>
   <time name="total">   19.27   19.32</time>
   <energy>
    <i name="alphaZ">     90.03722532 </i>
    <i name="ewald">  44586.60470535 </i>
    <i name="hartreedc"> -50597.37309073 </i>
    <i name="XCdc">   -233.44812142 </i>
    <i name="pawpsdc">   4081.99208918 </i>
    <i name="pawaedc">  -3497.92930607 </i>
    <i name="eentropy">     -0.20589201 </i>
    <i name="bandstr">  -1382.55083933 </i>
    <i name="atom">   6761.44252427 </i>
    <i name="e_fr_energy">   -191.43070544 </i>
    <i name="e_wo_entrp">   -191.22481343 </i>
    <i name="e_0_energy">   -191.32775944 </i>
   </energy>
  </scstep>
  <structure>
   <crystal>
    <varray name="basis" >
     <v>       8.28482733       4.76957138       0.00000000 </v>
     <v>      -8.29675444       4.79022441       0.00000000 </v>
     <v>       0.00000000       0.00000000      30.00000000 </v>
    </varray>
    <i name="volume">   2377.74434053 </i>
    <varray name="rec_basis" >
     <v>       0.06043826       0.10468015       0.00000000 </v>
     <v>      -0.06017768       0.10452967       0.00000000 </v>
     <v>       0.00000000       0.00000000       0.03333333 </v>
    </varray>
   </crystal>
   <varray name="positions" >
    <v>       0.99924497       0.32780567      -0.00000980 </v>
    <v>       0.66734325       0.66191817       0.00001501 </v>
    <v>       0.33325615       0.65923180      -0.00001227 </v>
    <v>       0.33340350       0.31831028       0.00000948 </v>
    <v>       0.01197067       0.00553358      -0.00010472 </v>
    <v>       0.65424640       0.32673164       0.00011499 </v>
    <v>      -0.00634264       0.66879917       0.00058819 </v>
    <v>       0.33313491       0.01852066      -0.00000309 </v>
    <v>       0.67333473       0.00838539      -0.00059485 </v>
    <v>       0.10946243       0.22623288       0.94792386 </v>
    <v>       0.22223742       0.11095758       0.05567951 </v>
    <v>       0.11230547       0.55239526       0.95072549 </v>
    <v>       0.21976663       0.44554865       0.04950198 </v>
    <v>       0.11282724       0.88861235       0.94691170 </v>
    <v>       0.22546924       0.77776154       0.04926387 </v>
    <v>       0.44423513       0.22198072       0.94430918 </v>
    <v>       0.55364677       0.10892666       0.05303188 </v>
    <v>       0.44678283       0.55906388       0.95049732 </v>
    <v>       0.55711873       0.45007076       0.05210284 </v>
    <v>       0.44107620       0.88559773       0.95077067 </v>
    <v>       0.55417350       0.77330891       0.04927665 </v>
    <v>       0.78424023       0.22640249       0.94829004 </v>
    <v>       0.89217971       0.11716023       0.05171063 </v>
    <v>       0.77434826       0.55827445       0.94832535 </v>
    <v>       0.89107665       0.44161113       0.05006398 </v>
    <v>       0.77541148       0.88373387       0.94988437 </v>
    <v>       0.88226459       0.77533901       0.05172764 </v>
   </varray>
  </structure>
  <varray name="forces" >
   <v>       0.15188645      -0.04895546      -0.02204037 </v>
   <v>       0.10906878      -0.10333259       0.02286539 </v>
   <v>       0.32958731      -0.20330443      -0.00158984 </v>
   <v>       0.12273455      -0.07456247       0.00043635 </v>
   <v>       0.15144089       0.15772920       0.03357913 </v>
   <v>      -0.05786429      -0.22264686      -0.03565286 </v>
   <v>      -0.22828784       0.04994776       0.02597714 </v>
   <v>      -0.28135238       0.15651924      -0.00521657 </v>
   <v>      -0.13858512       0.18849870      -0.02752203 </v>
   <v>       0.08685979       0.02645762      -0.04752041 </v>
   <v>      -0.01943739       0.01442740       0.18213181 </v>
   <v>      -0.03898905      -0.04160303       0.06635056 </v>
   <v>       0.11020119      -0.04397492       0.05107788 </v>
   <v>       0.01602328       0.04685732      -0.05459683 </v>
   <v>      -0.08293468       0.09502026      -0.18844906 </v>
   <v>      -0.01810677       0.00475013      -0.17932819 </v>
   <v>      -0.03259960      -0.03891011       0.05188123 </v>
   <v>       0.09330821      -0.07594937      -0.04990256 </v>
   <v>       0.02155052      -0.09129120       0.04943382 </v>
   <v>      -0.12041019       0.02718872       0.19558400 </v>
   <v>       0.01482211       0.05677898      -0.06696664 </v>
   <v>      -0.07074387       0.05348347      -0.05048094 </v>
   <v>       0.03822351       0.02351490       0.03203038 </v>
   <v>       0.00604305      -0.04409912      -0.02564300 </v>
   <v>      -0.08886122      -0.05985775      -0.13002356 </v>
   <v>       0.00946027       0.10836799       0.11845040 </v>
   <v>      -0.08303749       0.03894561       0.05513479 </v>
  </varray>
  <varray name="stress" >
   <v>      -0.22427129       0.03396121      -0.09028496 </v>
   <v>       0.03396129      -0.18283433      -0.12076553 </v>
   <v>      -0.09028481      -0.12076556      -1.16261973 </v>
  </varray>
  <energy>
   <i name="e_fr_energy">   -191.43070544 </i>
   <i name="e_wo_entrp">   -191.32775944 </i>
   <i name="e_0_energy">     -0.20589201 </i>
  </energy>
  <time name="totalsc">  254.14  254.81</time>
 </calculation>
 <calculation>
  <scstep>
   <time name="dav">   21.68   21.73</time>
   <time name="total">   22.19   22.24</time>
   <energy>
    <i name="alphaZ">     90.21710070 </i>
    <i name="ewald">  44663.05392153 </i>
    <i name="hartreedc"> -50675.90189780 </i>
    <i name="XCdc">   -233.34682602 </i>
    <i name="pawpsdc">   4081.93399864 </i>
    <i name="pawaedc">  -3497.87043051 </i>
    <i name="eentropy">     -0.20731938 </i>
    <i name="bandstr">  -1380.79807684 </i>
    <i name="atom">   6761.44252427 </i>
    <i name="e_fr_energy">   -191.47700542 </i>
    <i name="e_wo_entrp">   -191.26968604 </i>
    <i name="e_0_energy">   -191.37334573 </i>
   </energy>
  </scstep>
  <scstep>
   <time name="dav">   31.85   31.93</time>
   <time name="total">   32.35   32.44</time>
   <energy>
    <i name="e_fr_energy">   -191.49573170 </i>
    <i name="e_wo_entrp">   -191.28347157 </i>
    <i name="e_0_energy">   -191.38960164 </i>
   </energy>
  </scstep>
  <scstep>
   <time name="dav">   29.27   29.34</time>
   <time name="total">   29.78   29.86</time>
   <energy>
    <i name="e_fr_energy">   -191.48886107 </i>
    <i name="e_wo_entrp">   -191.28367536 </i>
    <i name="e_0_energy">   -191.38626821 </i>
   </energy>
  </scstep>
  <scstep>
   <time name="dav">   28.99   29.06</time>
   <time name="total">   29.51   29.70</time>
   <energy>
    <i name="e_fr_energy">   -191.48465397 </i>
    <i name="e_wo_entrp">   -191.27588750 </i>
    <i name="e_0_energy">   -191.38027074 </i>
   </energy>
  </scstep>
  <scstep>
   <time name="dav">   27.58   27.64</time>
   <time name="total">   28.08   28.16</time>
   <energy>
    <i name="e_fr_energy">   -191.48327581 </i>
    <i name="e_wo_entrp">   -191.27485240 </i>
    <i name="e_0_energy">   -191.37906411 </i>
   </energy>
  </scstep>
  <scstep>
   <time name="dav">   27.63   27.69</time>
   <time name="total">   28.13   28.20</time>
   <energy>
    <i name="e_fr_energy">   -191.48198945 </i>
    <i name="e_wo_entrp">   -191.27361189 </i>
    <i name="e_0_energy">   -191.37780067 </i>
   </energy>
  </scstep>
  <scstep>
   <time name="dav">   25.84   25.90</time>
   <time name="total">   26.35   26.42</time>
   <energy>
    <i name="e_fr_energy">   -191.48188814 </i>
    <i name="e_wo_entrp">   -191.27328053 </i>
    <i name="e_0_energy">   -191.37758433 </i>
   </energy>
  </scstep>
  <scstep>
   <time name="dav">   23.06   23.12</time>
   <time name="total">   23.10   23.16</time>
   <energy>
    <i name="alphaZ">     90.21710070 </i>
    <i name="ewald">  44663.05392153 </i>
    <i name="hartreedc"> -50674.94511983 </i>
    <i name="XCdc">   -233.38757396 </i>
    <i name="pawpsdc">   4083.87550475 </i>
    <i name="pawaedc">  -3499.83823060 </i>
    <i name="eentropy">     -0.20865155 </i>
    <i name="bandstr">  -1381.69137274 </i>
    <i name="atom">   6761.44252427 </i>
    <i name="e_fr_energy">   -191.48189743 </i>
    <i name="e_wo_entrp">   -191.27324588 </i>
[...]
      <set comment="kpoint 31">
       <r>  -17.4992    1.0000 </r>
       <r>  -17.2627    1.0000 </r>
       <r>  -16.9203    1.0000 </r>
       <r>  -16.5233    1.0000 </r>
       <r>  -16.4789    1.0000 </r>
       <r>  -16.4286    1.0000 </r>
       <r>  -16.2729    1.0000 </r>
       <r>  -16.1430    1.0000 </r>
       <r>  -16.1017    1.0000 </r>
       <r>  -16.0198    1.0000 </r>
       <r>  -15.9479    1.0000 </r>
       <r>  -15.8595    1.0000 </r>
       <r>  -15.8105    1.0000 </r>
       <r>  -15.6925    1.0000 </r>
       <r>  -15.6496    1.0000 </r>
       <r>  -15.5437    1.0000 </r>
       <r>  -15.4850    1.0000 </r>
       <r>  -15.3912    1.0000 </r>
       <r>   -9.7217    1.0000 </r>
       <r>   -9.4509    1.0000 </r>
       <r>   -9.2819    1.0000 </r>
       <r>   -8.9361    1.0000 </r>
       <r>   -8.8258    1.0000 </r>
       <r>   -8.7212    1.0000 </r>
       <r>   -8.5445    1.0000 </r>
       <r>   -8.4704    1.0000 </r>
       <r>   -8.4110    1.0000 </r>
       <r>   -8.3142    1.0000 </r>
       <r>   -8.2680    1.0000 </r>
       <r>   -8.2071    1.0000 </r>
       <r>   -8.1228    1.0000 </r>
       <r>   -8.1067    1.0000 </r>
       <r>   -7.9969    1.0000 </r>
       <r>   -7.8896    1.0000 </r>
       <r>   -7.7846    1.0000 </r>
       <r>   -7.6061    1.0000 </r>
       <r>   -7.5581    1.0000 </r>
       <r>   -7.4428    1.0000 </r>
       <r>   -7.2826    1.0000 </r>
       <r>   -7.2549    1.0000 </r>
       <r>   -7.1177    1.0000 </r>
       <r>   -7.0835    1.0000 </r>
       <r>   -6.9481    1.0000 </r>
       <r>   -6.9307    1.0000 </r>
       <r>   -6.8269    1.0000 </r>
       <r>   -6.7794    1.0000 </r>
       <r>   -6.7489    1.0000 </r>
       <r>   -6.6330    1.0000 </r>
       <r>   -6.5679    1.0000 </r>
       <r>   -6.5393    1.0000 </r>
       <r>   -6.4376    1.0000 </r>
       <r>   -6.3152    1.0000 </r>
       <r>   -6.2687    1.0000 </r>
       <r>   -6.2087    1.0000 </r>
       <r>   -6.1204    1.0000 </r>
       <r>   -6.0381    1.0000 </r>
       <r>   -5.9815    1.0000 </r>
       <r>   -5.8739    1.0000 </r>
       <r>   -5.8295    1.0000 </r>
       <r>   -5.7879    1.0000 </r>
       <r>   -5.7012    1.0000 </r>
       <r>   -5.6535    1.0000 </r>
       <r>   -5.6247    1.0000 </r>
       <r>   -5.4711    1.0000 </r>
       <r>   -5.3201    1.0000 </r>
       <r>   -5.1677    1.0000 </r>
       <r>   -5.0404    1.0000 </r>
       <r>   -4.9728    1.0000 </r>
       <r>   -4.8204    1.0000 </r>
       <r>   -4.7276    1.0000 </r>
       <r>   -4.4592    1.0000 </r>
       <r>   -4.4054    1.0000 </r>
       <r>   -4.3154    1.0000 </r>
       <r>   -4.2354    1.0000 </r>
       <r>   -3.8860    1.0000 </r>
       <r>   -3.7905    1.0000 </r>
       <r>   -3.6193    0.9981 </r>
       <r>   -3.5302    0.9883 </r>
       <r>   -3.4177    0.9295 </r>
       <r>   -3.1082    0.2367 </r>
       <r>   -3.0201    0.0902 </r>
       <r>   -2.8337    0.0039 </r>
       <r>   -2.7532    0.0006 </r>
       <r>   -2.5948    0.0000 </r>
       <r>   -2.4337    0.0000 </r>
       <r>   -2.3912    0.0000 </r>
       <r>   -2.2962    0.0000 </r>
       <r>   -2.1912    0.0000 </r>
       <r>   -2.0681    0.0000 </r>
       <r>   -1.9565    0.0000 </r>
       <r>   -1.6834    0.0000 </r>
       <r>   -1.6054    0.0000 </r>
       <r>   -1.5274    0.0000 </r>
       <r>   -1.4988    0.0000 </r>
       <r>   -1.3008    0.0000 </r>
       <r>   -1.1669    0.0000 </r>
       <r>   -1.0398    0.0000 </r>
       <r>   -0.9955    0.0000 </r>
       <r>   -0.9473    0.0000 </r>
       <r>   -0.8752    0.0000 </r>
       <r>   -0.8200    0.0000 </r>
       <r>   -0.7026    0.0000 </r>
       <r>   -0.6096    0.0000 </r>
       <r>   -0.5502    0.0000 </r>
       <r>   -0.4790    0.0000 </r>
       <r>   -0.3616    0.0000 </r>
       <r>   -0.1682    0.0000 </r>
       <r>   -0.1358    0.0000 </r>
       <r>   -0.0287    0.0000 </r>
       <r>    0.1747    0.0000 </r>
       <r>    0.5552    0.0000 </r>
       <r>    0.7154    0.0000 </r>
       <r>    0.8147    0.0000 </r>
       <r>    1.0786    0.0000 </r>
       <r>    1.1776    0.0000 </r>
       <r>    1.3080    0.0000 </r>
       <r>    1.5292    0.0000 </r>
       <r>    2.1494    0.0000 </r>
       <r>    2.2953    0.0000 </r>
       <r>    2.4124    0.0000 </r>
      </set>
      <set comment="kpoint 32">
       <r>  -17.5150    1.0000 </r>
       <r>  -17.1757    1.0000 </r>
       <r>  -17.0447    1.0000 </r>
       <r>  -16.5390    1.0000 </r>
       <r>  -16.4156    1.0000 </r>
       <r>  -16.3469    1.0000 </r>
       <r>  -16.2333    1.0000 </r>
       <r>  -16.1942    1.0000 </r>
       <r>  -16.1348    1.0000 </r>
       <r>  -16.0360    1.0000 </r>
       <r>  -15.9524    1.0000 </r>
       <r>  -15.8785    1.0000 </r>
       <r>  -15.8175    1.0000 </r>
       <r>  -15.6994    1.0000 </r>
       <r>  -15.6570    1.0000 </r>
       <r>  -15.5320    1.0000 </r>
       <r>  -15.4916    1.0000 </r>
       <r>  -15.3668    1.0000 </r>
       <r>   -9.6418    1.0000 </r>
       <r>   -9.5838    1.0000 </r>
       <r>   -9.3538    1.0000 </r>
       <r>   -8.8995    1.0000 </r>
       <r>   -8.7181    1.0000 </r>
       <r>   -8.5857    1.0000 </r>
       <r>   -8.4981    1.0000 </r>
       <r>   -8.4244    1.0000 </r>
       <r>   -8.3757    1.0000 </r>
       <r>   -8.3538    1.0000 </r>
       <r>   -8.2950    1.0000 </r>
       <r>   -8.2225    1.0000 </r>
       <r>   -8.2001    1.0000 </r>
       <r>   -8.1637    1.0000 </r>
       <r>   -8.1025    1.0000 </r>
       <r>   -7.9091    1.0000 </r>
       <r>   -7.8603    1.0000 </r>
       <r>   -7.5127    1.0000 </r>
       <r>   -7.4676    1.0000 </r>
       <r>   -7.3712    1.0000 </r>
       <r>   -7.3131    1.0000 </r>
       <r>   -7.2631    1.0000 </r>
       <r>   -7.1925    1.0000 </r>
       <r>   -7.0461    1.0000 </r>
       <r>   -7.0086    1.0000 </r>
       <r>   -6.9114    1.0000 </r>
       <r>   -6.8735    1.0000 </r>
       <r>   -6.8068    1.0000 </r>
       <r>   -6.7530    1.0000 </r>
       <r>   -6.6798    1.0000 </r>
       <r>   -6.5250    1.0000 </r>
       <r>   -6.4961    1.0000 </r>
       <r>   -6.4577    1.0000 </r>
       <r>   -6.3117    1.0000 </r>
       <r>   -6.2856    1.0000 </r>
       <r>   -6.2590    1.0000 </r>
       <r>   -6.1368    1.0000 </r>
       <r>   -6.0327    1.0000 </r>
       <r>   -5.9663    1.0000 </r>
       <r>   -5.8820    1.0000 </r>
       <r>   -5.8213    1.0000 </r>
       <r>   -5.6950    1.0000 </r>
       <r>   -5.6776    1.0000 </r>
       <r>   -5.5492    1.0000 </r>
       <r>   -5.4939    1.0000 </r>
       <r>   -5.4187    1.0000 </r>
       <r>   -5.3669    1.0000 </r>
       <r>   -5.2362    1.0000 </r>
       <r>   -5.2110    1.0000 </r>
       <r>   -5.0269    1.0000 </r>
       <r>   -4.8581    1.0000 </r>
       <r>   -4.6717    1.0000 </r>
       <r>   -4.4648    1.0000 </r>
       <r>   -4.3749    1.0000 </r>
       <r>   -4.3308    1.0000 </r>
       <r>   -4.1841    1.0000 </r>
       <r>   -4.0064    1.0000 </r>
       <r>   -3.7477    0.9999 </r>
       <r>   -3.6600    0.9993 </r>
       <r>   -3.5035    0.9812 </r>
       <r>   -3.4065    0.9181 </r>
       <r>   -3.0974    0.2139 </r>
       <r>   -2.9355    0.0263 </r>
       <r>   -2.8305    0.0037 </r>
       <r>   -2.8022    0.0020 </r>
       <r>   -2.5908    0.0000 </r>
       <r>   -2.4340    0.0000 </r>
       <r>   -2.4067    0.0000 </r>
       <r>   -2.2361    0.0000 </r>
       <r>   -2.2035    0.0000 </r>
       <r>   -2.0700    0.0000 </r>
       <r>   -1.9510    0.0000 </r>
       <r>   -1.7006    0.0000 </r>
       <r>   -1.5718    0.0000 </r>
       <r>   -1.5338    0.0000 </r>
       <r>   -1.4930    0.0000 </r>
       <r>   -1.3075    0.0000 </r>
       <r>   -1.2166    0.0000 </r>
       <r>   -1.0917    0.0000 </r>
       <r>   -0.9863    0.0000 </r>
       <r>   -0.9237    0.0000 </r>
       <r>   -0.8654    0.0000 </r>
       <r>   -0.8209    0.0000 </r>
       <r>   -0.6738    0.0000 </r>
       <r>   -0.6396    0.0000 </r>
       <r>   -0.5483    0.0000 </r>
       <r>   -0.4827    0.0000 </r>
       <r>   -0.3162    0.0000 </r>
       <r>   -0.1925    0.0000 </r>
       <r>   -0.1262    0.0000 </r>
       <r>   -0.0624    0.0000 </r>
       <r>    0.2027    0.0000 </r>
       <r>    0.5555    0.0000 </r>
       <r>    0.7949    0.0000 </r>
       <r>    0.8403    0.0000 </r>
       <r>    1.0737    0.0000 </r>
       <r>    1.1469    0.0000 </r>
       <r>    1.2934    0.0000 </r>
       <r>    1.4216    0.0000 </r>
       <r>    2.1157    0.0000 </r>
       <r>    2.2631    0.0000 </r>
       <r>    2.5867    0.0000 </r>
      </set>
      <set comment="kpoint 33">
       <r>  -17.4930    1.0000 </r>
       <r>  -17.2838    1.0000 </r>
       <r>  -16.9016    1.0000 </r>
       <r>  -16.5527    1.0000 </r>
       <r>  -16.4602    1.0000 </r>
       <r>  -16.3779    1.0000 </r>
       <r>  -16.2983    1.0000 </r>
       <r>  -16.1551    1.0000 </r>
       <r>  -16.1047    1.0000 </r>
       <r>  -16.0046    1.0000 </r>
       <r>  -15.9620    1.0000 </r>
       <r>  -15.8554    1.0000 </r>
       <r>  -15.8280    1.0000 </r>
       <r>  -15.6989    1.0000 </r>
       <r>  -15.6314    1.0000 </r>
       <r>  -15.5503    1.0000 </r>
       <r>  -15.4863    1.0000 </r>
       <r>  -15.3870    1.0000 </r>
       <r>   -9.7437    1.0000 </r>
       <r>   -9.4534    1.0000 </r>
       <r>   -9.2548    1.0000 </r>
       <r>   -8.9304    1.0000 </r>
       <r>   -8.8169    1.0000 </r>
       <r>   -8.7239    1.0000 </r>
       <r>   -8.5402    1.0000 </r>
       <r>   -8.4490    1.0000 </r>
       <r>   -8.4058    1.0000 </r>
       <r>   -8.3406    1.0000 </r>
       <r>   -8.2571    1.0000 </r>
       <r>   -8.2135    1.0000 </r>
       <r>   -8.1697    1.0000 </r>
       <r>   -8.0917    1.0000 </r>
       <r>   -7.9484    1.0000 </r>
       <r>   -7.9422    1.0000 </r>
       <r>   -7.8110    1.0000 </r>
       <r>   -7.5987    1.0000 </r>
       <r>   -7.4812    1.0000 </r>
       <r>   -7.3526    1.0000 </r>
       <r>   -7.3268    1.0000 </r>
       <r>   -7.1979    1.0000 </r>
       <r>   -7.1799    1.0000 </r>
       <r>   -7.0638    1.0000 </r>
       <r>   -6.9989    1.0000 </r>
       <r>   -6.9372    1.0000 </r>
       <r>   -6.8390    1.0000 </r>
       <r>   -6.7864    1.0000 </r>
       <r>   -6.7554    1.0000 </r>
       <r>   -6.6527    1.0000 </r>
       <r>   -6.5928    1.0000 </r>
       <r>   -6.5053    1.0000 </r>
       <r>   -6.4206    1.0000 </r>
       <r>   -6.3277    1.0000 </r>
       <r>   -6.2902    1.0000 </r>
       <r>   -6.2071    1.0000 </r>
       <r>   -6.1340    1.0000 </r>
       <r>   -6.0325    1.0000 </r>
       <r>   -5.9983    1.0000 </r>
       <r>   -5.9361    1.0000 </r>
       <r>   -5.8476    1.0000 </r>
       <r>   -5.8095    1.0000 </r>
       <r>   -5.6879    1.0000 </r>
       <r>   -5.6359    1.0000 </r>
       <r>   -5.6006    1.0000 </r>
       <r>   -5.4953    1.0000 </r>
       <r>   -5.2713    1.0000 </r>
       <r>   -5.1290    1.0000 </r>
       <r>   -5.0600    1.0000 </r>
       <r>   -4.9530    1.0000 </r>
       <r>   -4.8081    1.0000 </r>
       <r>   -4.7008    1.0000 </r>
       <r>   -4.4814    1.0000 </r>
       <r>   -4.3785    1.0000 </r>
       <r>   -4.2802    1.0000 </r>
       <r>   -4.1774    1.0000 </r>
       <r>   -4.0907    1.0000 </r>
       <r>   -3.7316    0.9999 </r>
       <r>   -3.6876    0.9996 </r>
       <r>   -3.5295    0.9882 </r>
       <r>   -3.4098    0.9216 </r>
       <r>   -3.1259    0.2770 </r>
       <r>   -2.9749    0.0485 </r>
       <r>   -2.7880    0.0014 </r>
       <r>   -2.7538    0.0006 </r>
       <r>   -2.6009    0.0000 </r>
       <r>   -2.4369    0.0000 </r>
       <r>   -2.4033    0.0000 </r>
       <r>   -2.2215    0.0000 </r>
       <r>   -2.1481    0.0000 </r>
       <r>   -2.0574    0.0000 </r>
       <r>   -1.9447    0.0000 </r>
       <r>   -1.7139    0.0000 </r>
       <r>   -1.5710    0.0000 </r>
       <r>   -1.5216    0.0000 </r>
       <r>   -1.4602    0.0000 </r>
       <r>   -1.3109    0.0000 </r>
       <r>   -1.2458    0.0000 </r>
       <r>   -1.1730    0.0000 </r>
       <r>   -1.0052    0.0000 </r>
       <r>   -0.9040    0.0000 </r>
       <r>   -0.8328    0.0000 </r>
       <r>   -0.8037    0.0000 </r>
       <r>   -0.7283    0.0000 </r>
       <r>   -0.6650    0.0000 </r>
       <r>   -0.5814    0.0000 </r>
       <r>   -0.4379    0.0000 </r>
       <r>   -0.3492    0.0000 </r>
       <r>   -0.2076    0.0000 </r>
       <r>   -0.1516    0.0000 </r>
       <r>    0.0167    0.0000 </r>
       <r>    0.1738    0.0000 </r>
       <r>    0.6276    0.0000 </r>
       <r>    0.7953    0.0000 </r>
       <r>    0.8919    0.0000 </r>
       <r>    1.0671    0.0000 </r>
       <r>    1.1735    0.0000 </r>
       <r>    1.2719    0.0000 </r>
       <r>    1.3814    0.0000 </r>
       <r>    2.1459    0.0000 </r>
       <r>    2.2933    0.0000 </r>
       <r>    2.4083    0.0000 </r>
      </set>
      <set comment="kpoint 34">
       <r>  -17.4572    1.0000 </r>
       <r>  -17.3607    1.0000 </r>
       <r>  -16.7372    1.0000 </r>
       <r>  -16.6404    1.0000 </r>
       <r>  -16.5379    1.0000 </r>
       <r>  -16.3858    1.0000 </r>
       <r>  -16.2874    1.0000 </r>
       <r>  -16.1681    1.0000 </r>
       <r>  -16.0872    1.0000 </r>
       <r>  -15.9935    1.0000 </r>
       <r>  -15.9429    1.0000 </r>
       <r>  -15.8601    1.0000 </r>
       <r>  -15.8001    1.0000 </r>
       <r>  -15.7084    1.0000 </r>
       <r>  -15.6033    1.0000 </r>
       <r>  -15.5641    1.0000 </r>
       <r>  -15.4861    1.0000 </r>
       <r>  -15.4118    1.0000 </r>
       <r>   -9.7857    1.0000 </r>
       <r>   -9.3459    1.0000 </r>
       <r>   -9.0990    1.0000 </r>
       <r>   -9.0412    1.0000 </r>
       <r>   -8.9361    1.0000 </r>
       <r>   -8.8147    1.0000 </r>
       <r>   -8.5830    1.0000 </r>
       <r>   -8.4532    1.0000 </r>
       <r>   -8.4181    1.0000 </r>
       <r>   -8.3553    1.0000 </r>
       <r>   -8.2346    1.0000 </r>
       <r>   -8.2090    1.0000 </r>
       <r>   -8.1353    1.0000 </r>
       <r>   -8.0035    1.0000 </r>
       <r>   -7.9382    1.0000 </r>
       <r>   -7.9086    1.0000 </r>
       <r>   -7.7269    1.0000 </r>
       <r>   -7.6009    1.0000 </r>
       <r>   -7.5254    1.0000 </r>
       <r>   -7.4233    1.0000 </r>
       <r>   -7.3169    1.0000 </r>
       <r>   -7.2097    1.0000 </r>
       <r>   -7.1695    1.0000 </r>
       <r>   -7.0713    1.0000 </r>
       <r>   -6.9654    1.0000 </r>
       <r>   -6.9191    1.0000 </r>
       <r>   -6.8168    1.0000 </r>
       <r>   -6.7636    1.0000 </r>
       <r>   -6.7121    1.0000 </r>
       <r>   -6.6497    1.0000 </r>
       <r>   -6.5894    1.0000 </r>
       <r>   -6.5233    1.0000 </r>
       <r>   -6.4115    1.0000 </r>
       <r>   -6.3787    1.0000 </r>
       <r>   -6.2622    1.0000 </r>
       <r>   -6.2072    1.0000 </r>
       <r>   -6.1412    1.0000 </r>
       <r>   -6.0898    1.0000 </r>
       <r>   -6.0207    1.0000 </r>
       <r>   -5.9469    1.0000 </r>
       <r>   -5.8732    1.0000 </r>
       <r>   -5.8478    1.0000 </r>
       <r>   -5.7189    1.0000 </r>
       <r>   -5.6438    1.0000 </r>
       <r>   -5.6093    1.0000 </r>
       <r>   -5.5930    1.0000 </r>
       <r>   -5.2849    1.0000 </r>
       <r>   -5.0947    1.0000 </r>
       <r>   -4.9033    1.0000 </r>
       <r>   -4.8800    1.0000 </r>
       <r>   -4.7092    1.0000 </r>
       <r>   -4.6970    1.0000 </r>
       <r>   -4.6114    1.0000 </r>
       <r>   -4.3314    1.0000 </r>
       <r>   -4.3080    1.0000 </r>
       <r>   -4.2106    1.0000 </r>
       <r>   -4.0480    1.0000 </r>
       <r>   -3.7506    0.9999 </r>
       <r>   -3.6826    0.9996 </r>
       <r>   -3.5704    0.9946 </r>
       <r>   -3.4093    0.9211 </r>
       <r>   -3.1510    0.3394 </r>
       <r>   -2.9965    0.0660 </r>
       <r>   -2.7771    0.0011 </r>
       <r>   -2.7235    0.0003 </r>
       <r>   -2.6035    0.0000 </r>
       <r>   -2.4215    0.0000 </r>
       <r>   -2.4067    0.0000 </r>
       <r>   -2.2196    0.0000 </r>
       <r>   -2.1050    0.0000 </r>
       <r>   -2.0663    0.0000 </r>
       <r>   -1.9391    0.0000 </r>
       <r>   -1.7144    0.0000 </r>
       <r>   -1.5814    0.0000 </r>
       <r>   -1.5026    0.0000 </r>
       <r>   -1.4410    0.0000 </r>
       <r>   -1.3232    0.0000 </r>
       <r>   -1.2456    0.0000 </r>
       <r>   -1.2131    0.0000 </r>
       <r>   -1.0058    0.0000 </r>
       <r>   -0.9214    0.0000 </r>
       <r>   -0.8102    0.0000 </r>
       <r>   -0.7934    0.0000 </r>
       <r>   -0.7426    0.0000 </r>
       <r>   -0.7020    0.0000 </r>
       <r>   -0.5722    0.0000 </r>
       <r>   -0.4455    0.0000 </r>
       <r>   -0.3961    0.0000 </r>
       <r>   -0.2196    0.0000 </r>
       <r>   -0.1063    0.0000 </r>
       <r>    0.0764    0.0000 </r>
       <r>    0.1186    0.0000 </r>
       <r>    0.6657    0.0000 </r>
       <r>    0.7792    0.0000 </r>
       <r>    0.9197    0.0000 </r>
       <r>    1.0618    0.0000 </r>
       <r>    1.2162    0.0000 </r>
       <r>    1.2350    0.0000 </r>
       <r>    1.3995    0.0000 </r>
       <r>    2.2237    0.0000 </r>
       <r>    2.2643    0.0000 </r>
       <r>    2.3609    0.0000 </r>
      </set>
     </set>
    </set>
   </array>
  </eigenvalues>
  <separator name="orbital magnetization" >
   <v name="MAGDIPOLOUT">      0.00000000      0.00000000      0.00000000</v>
  </separator>
 </calculation>
 <structure name="finalpos" >
  <crystal>
   <varray name="basis" >
    <v>       8.33981480       4.78097577       0.00000000 </v>
    <v>      -8.35868830       4.81357277       0.00000000 </v>
    <v>       0.00000000       0.00000000      30.00000000 </v>
   </varray>
   <i name="volume">   2403.20975111 </i>
   <varray name="rec_basis" >
    <v>       0.06008930       0.10434405       0.00000000 </v>
    <v>      -0.05968238       0.10410845       0.00000000 </v>
    <v>       0.00000000       0.00000000       0.03333333 </v>
   </varray>
  </crystal>
  <varray name="positions" >
   <v>       0.99546728       0.34024666      -0.00021941 </v>
   <v>       0.68187527       0.68260752       0.00017595 </v>
   <v>       0.33477737       0.63587559      -0.00020511 </v>
   <v>       0.32825456       0.31060785       0.00013604 </v>
   <v>       0.00826155      -0.00612932       0.00100022 </v>
   <v>       0.64711780       0.32705290      -0.00023100 </v>
   <v>      -0.01695962       0.67273136       0.00010689 </v>
   <v>       0.32638723       0.02350647      -0.00036322 </v>
   <v>       0.69391438       0.01074361      -0.00051586 </v>
   <v>       0.10668132       0.22267914       0.94990855 </v>
   <v>       0.22127316       0.10912208       0.05734036 </v>
   <v>       0.11248828       0.55504615       0.95176491 </v>
   <v>       0.21693755       0.43982564       0.05090297 </v>
   <v>       0.11294740       0.88816711       0.94609816 </v>
   <v>       0.22620358       0.77503693       0.04441853 </v>
   <v>       0.44136100       0.22042645       0.94305087 </v>
   <v>       0.55318283       0.10674938       0.05030619 </v>
   <v>       0.45041265       0.55375612       0.94997752 </v>
   <v>       0.55552830       0.45173333       0.05018495 </v>
   <v>       0.44247996       0.88540301       0.95690587 </v>
   <v>       0.55747588       0.77580430       0.04892907 </v>
   <v>       0.78385091       0.22835426       0.94841813 </v>
   <v>       0.89808017       0.12181130       0.05243960 </v>
   <v>       0.77125303       0.55974819       0.94767107 </v>
   <v>       0.88543447       0.44331000       0.04954938 </v>
   <v>       0.78202376       0.88800399       0.94771042 </v>
   <v>       0.88150442       0.77599444       0.05453884 </v>
  </varray>
 </structure>
</modeling>
