unknown system                          
           1
     8.855686    5.106260    0.000000
    -8.854600    5.104393    0.000000
     0.000000    0.000000   30.000000
   V    Mo   W    S 
   3   3   3  18
Direct configuration=     1
   0.33333334  0.33333334  0.00000000
   0.33333334  0.00000000  0.00000000
   1.00000000  0.33333334  0.00000000
   0.66666669  0.33333334  0.00000000
   0.33333334  0.66666669  0.00000000
   0.66666669  0.00000000  0.00000000
   0.00000000  0.00000000  0.00000000
   0.00000000  0.66666669  0.00000000
   0.66666669  0.66666669  0.00000000
   0.11068511  0.22244981  0.95539999
   0.22244981  0.11068511  0.04460000
   0.11068511  0.55578315  0.95539999
   0.22244981  0.44401845  0.04460000
   0.11068511  0.88911647  0.95539999
   0.22244981  0.77735180  0.04460000
   0.44401845  0.22244981  0.95539999
   0.55578315  0.11068511  0.04460000
   0.44401845  0.55578315  0.95539999
   0.55578315  0.44401845  0.04460000
   0.44401845  0.88911647  0.95539999
   0.55578315  0.77735180  0.04460000
   0.77735180  0.22244981  0.95539999
   0.88911647  0.11068511  0.04460000
   0.77735180  0.55578315  0.95539999
   0.88911647  0.44401845  0.04460000
   0.77735180  0.88911647  0.95539999
   0.88911647  0.77735180  0.04460000
unknown system                          
           1
     8.667367    4.999793    0.000000
    -8.666450    4.998217    0.000000
     0.000000    0.000000   30.000000
   V    Mo   W    S 
   3   3   3  18
Direct configuration=     2
   0.33403023  0.33408076  0.00004229
   0.33572417  0.00036778 -0.00018230
   0.99922032  0.33338373  0.00019349
   0.66645135  0.33167938 -0.00012799
   0.33443509  0.66769307  0.00010455
   0.66527520  0.00010866 -0.00021339
  -0.00086032  0.00066072  0.00003988
   0.00033335  0.66514744  0.00017814
   0.66487108  0.66652416  0.00000203
   0.11253937  0.22558937  0.95312106
   0.22558564  0.11252098  0.04683341
   0.10843956  0.55143041  0.95193082
   0.22008497  0.43990632  0.04685120
   0.11486970  0.89069119  0.95193160
   0.22328883  0.78165011  0.04803968
   0.43989699  0.22003680  0.95310682
   0.55099757  0.10889449  0.04810050
   0.44319460  0.55149476  0.95190106
   0.55154393  0.44317721  0.04804795
   0.44196358  0.89134982  0.95192179
   0.55595550  0.77718886  0.04925223
   0.78205382  0.22424732  0.95194489
   0.89162220  0.11521776  0.04807453
   0.77807848  0.55632676  0.95080391
   0.89185013  0.44292408  0.04808197
   0.77804084  0.88833985  0.95071249
   0.88872827  0.77758267  0.04930728
unknown system                          
           1
     8.486492    4.900140    0.000000
    -8.486097    4.899467    0.000000
     0.000000    0.000000   30.000000
   V    Mo   W    S 
   3   3   3  18
Direct configuration=     3
   0.33435973  0.33442552  0.00009334
   0.33648379  0.00044303 -0.00020634
   0.99890853  0.33346469  0.00021440
   0.66665468  0.33142525 -0.00017800
   0.33509731  0.66825101  0.00014741
   0.66481690 -0.00018358 -0.00023864
  -0.00151441  0.00035748  0.00004786
   0.00018937  0.66468844  0.00014785
   0.66456849  0.66678219  0.00000904
   0.11248019  0.22542579  0.95320085
   0.22540558  0.11245725  0.04670210
   0.10827091  0.55143077  0.95196839
   0.22003795  0.43983196  0.04678951
   0.11473482  0.89065187  0.95205794
   0.22313254  0.78167809  0.04802554
   0.43980296  0.21994805  0.95312529
   0.55084207  0.10881488  0.04816654
   0.44332128  0.55148293  0.95186799
   0.55153827  0.44330724  0.04801821
   0.44189770  0.89143101  0.95179764
   0.55611019  0.77710258  0.04932979
   0.78221083  0.22432940  0.95189744
   0.89180419  0.11523026  0.04806547
   0.77820721  0.55660242  0.95086661
   0.89202373  0.44307335  0.04815268
   0.77811920  0.88824012  0.95068211
   0.88871043  0.77752246  0.04924890
unknown system                          
           1
     8.270645    4.775685    0.000000
    -8.269594    4.773877    0.000000
     0.000000    0.000000   30.000000
   V    Mo   W    S 
   3   3   3  18
Direct configuration=     4
   0.33576613  0.33592957  0.00026460
   0.33910892  0.00039471 -0.00020269
   0.99742042  0.33386032  0.00021288
   0.66800665  0.33109435 -0.00027732
   0.33792150  0.67060295  0.00023859
   0.66325135 -0.00187449 -0.00023357
  -0.00465852 -0.00172764  0.00006297
  -0.00092808  0.66305813 -0.00002960
   0.66419751  0.66844457  0.00002492
   0.11302309  0.22639319  0.95218696
   0.22623221  0.11289635  0.04750707
   0.10788927  0.55029350  0.95068913
   0.21948857  0.43886804  0.04784094
   0.11567654  0.89123985  0.95109195
   0.22373707  0.78299368  0.04941721
   0.43869000  0.21929388  0.95187885
   0.54957744  0.10819408  0.04982048
   0.44251996  0.55028164  0.95026844
   0.55049821  0.44259489  0.04932447
   0.44125849  0.89204183  0.94984466
   0.55635337  0.77734672  0.05126252
   0.78364831  0.22494229  0.95028989
   0.89223762  0.11637501  0.04948779
   0.77825125  0.55689601  0.94952544
   0.89251488  0.44233390  0.04992214
   0.77795976  0.88823632  0.94890741
   0.88857255  0.77721080  0.05067378
unknown system                          
           1
     8.262053    4.774378    0.000000
    -8.261237    4.772974    0.000000
     0.000000    0.000000   30.000000
   V    Mo   W    S 
   3   3   3  18
Direct configuration=     5
   0.33853527  0.33890990  0.00047303
   0.34422068  0.00025158 -0.00000861
   0.99416672  0.33481928  0.00003107
   0.67131875  0.33083718 -0.00030855
   0.34419036  0.67553648  0.00022522
   0.66036476 -0.00621550 -0.00012044
  -0.01123013 -0.00602391  0.00010021
  -0.00390350  0.65952403 -0.00027912
   0.66406115  0.67296450  0.00003038
   0.11329969  0.22715196  0.95100434
   0.22676859  0.11302289  0.04836863
   0.10848137  0.54929105  0.94914167
   0.21923353  0.43871873  0.04934722
   0.11686040  0.89191254  0.94996995
   0.22457159  0.78432692  0.05114390
   0.43808380  0.21878623  0.95003479
   0.54868989  0.10776352  0.05205406
   0.44158213  0.54932901  0.94808638
   0.54986046  0.44191237  0.05098842
   0.44095289  0.89266683  0.94688969
   0.55641723  0.77806074  0.05417576
   0.78480929  0.22494224  0.94803174
   0.89181531  0.11733048  0.05142441
   0.77753191  0.55659752  0.94775205
   0.89273819  0.44121969  0.05253546
   0.77688999  0.88828550  0.94619144
   0.88790415  0.77629271  0.05271680
unknown system                          
           1
     8.263013    4.775491    0.000000
    -8.262103    4.773925    0.000000
     0.000000    0.000000   30.000000
   V    Mo   W    S 
   3   3   3  18
Direct configuration=     6
   0.33953038  0.33986149  0.00052979
   0.34627803  0.00070030 -0.00003005
   0.99288981  0.33519288 -0.00000946
   0.67256091  0.33091096 -0.00034001
   0.34613593  0.67671813  0.00017810
   0.66008592 -0.00769516 -0.00012881
  -0.01358017 -0.00731801  0.00012592
  -0.00572698  0.65802296 -0.00026299
   0.66437226  0.67496817  0.00008079
   0.11280702  0.22672881  0.95115623
   0.22616708  0.11244240  0.04808569
   0.10936408  0.54982059  0.94921405
   0.21953105  0.43968950  0.04928010
   0.11663578  0.89172949  0.95020755
   0.22452925  0.78391974  0.05102832
   0.43872077  0.21894146  0.94996266
   0.54936387  0.10790335  0.05226886
   0.44193281  0.54994936  0.94789885
   0.55074941  0.44253026  0.05094184
   0.44137703  0.89268442  0.94656459
   0.55636641  0.77821443  0.05465428
   0.78424806  0.22417161  0.94786598
   0.89114227  0.11686776  0.05152166
   0.77663889  0.55621200  0.94768096
   0.89262114  0.44114958  0.05287206
   0.77614056  0.88824689  0.94568791
   0.88733287  0.77565109  0.05296501
unknown system                          
           1
     8.257708    4.770211    0.000000
    -8.257816    4.770408    0.000000
     0.000000    0.000000   30.000000
   V    Mo   W    S 
   3   3   3  18
Direct configuration=     7
   0.34026763  0.34052443  0.00059458
   0.34791790  0.00131318 -0.00001871
   0.99206276  0.33546807 -0.00005015
   0.67336493  0.33082940 -0.00033888
   0.34756408  0.67743780  0.00017435
   0.65994971 -0.00860102 -0.00010135
  -0.01531225 -0.00822902  0.00011666
  -0.00723618  0.65682149 -0.00029156
   0.66458263  0.67635026  0.00010458
   0.11249386  0.22644917  0.95133513
   0.22578111  0.11207044  0.04780778
   0.10973446  0.55010907  0.94935015
   0.21963129  0.44016430  0.04914384
   0.11644061  0.89155600  0.95046226
   0.22441115  0.78370591  0.05083582
   0.43905472  0.21899353  0.94996780
   0.54975735  0.10796346  0.05231942
   0.44219542  0.55028617  0.94783171
   0.55128588  0.44293021  0.05083953
   0.44163499  0.89271594  0.94641920
   0.55636855  0.77830949  0.05488184
   0.78399539  0.22375051  0.94781082
   0.89082022  0.11664303  0.05155374
   0.77609993  0.55602360  0.94769537
   0.89253558  0.44108752  0.05305289
   0.77578814  0.88819362  0.94542367
   0.88702461  0.77534791  0.05307939
unknown system                          
           1
     8.252557    4.766602    0.000000
    -8.254468    4.769919    0.000000
     0.000000    0.000000   30.000000
   V    Mo   W    S 
   3   3   3  18
Direct configuration=     8
   0.33917958  0.33959560  0.00050591
   0.34571547  0.00020384  0.00000548
   0.99304085  0.33517142 -0.00001149
   0.67247834  0.33109942 -0.00031131
   0.34583552  0.67678635  0.00019692
   0.65999533 -0.00784368 -0.00009971
  -0.01326075 -0.00721771  0.00010581
  -0.00503553  0.65848904 -0.00028078
   0.66442020  0.67495340  0.00006986
   0.11277141  0.22669646  0.95108693
   0.22619832  0.11245576  0.04818439
   0.10946331  0.54982358  0.94914255
   0.21961786  0.43983526  0.04935051
   0.11664809  0.89174480  0.95009495
   0.22464461  0.78390252  0.05116764
   0.43880640  0.21897544  0.94994527
   0.54933261  0.10790686  0.05223239
   0.44194305  0.55002028  0.94788285
   0.55073973  0.44251321  0.05097984
   0.44140077  0.89270034  0.94651178
   0.55629901  0.77823296  0.05463633
   0.78414829  0.22410123  0.94785178
   0.89097126  0.11677497  0.05151541
   0.77681694  0.55628445  0.94767588
   0.89262104  0.44119502  0.05286112
   0.77613276  0.88825288  0.94571447
   0.88728996  0.77556074  0.05298513
unknown system                          
           1
     8.248927    4.765788    0.000000
    -8.250119    4.767861    0.000000
     0.000000    0.000000   30.000000
   V    Mo   W    S 
   3   3   3  18
Direct configuration=     9
   0.33735979  0.33818074  0.00036188
   0.34183412 -0.00230503  0.00001257
   0.99439211  0.33489835  0.00003117
   0.67151680  0.33198834 -0.00032402
   0.34339631  0.67627098  0.00012547
   0.65992613 -0.00755296 -0.00017806
  -0.01049364 -0.00600772  0.00017588
  -0.00099305  0.66120567 -0.00025188
   0.66405509  0.67327225  0.00002662
   0.11297600  0.22693049  0.95068076
   0.22665848  0.11287960  0.04875053
   0.10942964  0.54949015  0.94876986
   0.21970483  0.43971760  0.04967127
   0.11695831  0.89206689  0.94942481
   0.22512624  0.78404720  0.05188995
   0.43862946  0.21902839  0.94998043
   0.54889870  0.10786488  0.05212020
   0.44169321  0.54988785  0.94798588
   0.55007250  0.44217758  0.05114255
   0.44115692  0.89268609  0.94656663
   0.55609298  0.77800113  0.05445847
   0.78412214  0.22435887  0.94796013
   0.89090791  0.11680822  0.05145245
   0.77789366  0.55687495  0.94768817
   0.89295397  0.44149442  0.05262986
   0.77638880  0.88832733  0.94597867
   0.88755704  0.77562220  0.05286967
unknown system                          
           1
     8.252367    4.767954    0.000000
    -8.253783    4.770414    0.000000
     0.000000    0.000000   30.000000
   V    Mo   W    S 
   3   3   3  18
Direct configuration=    10
   0.33842776  0.33910082  0.00047695
   0.34382830 -0.00177155  0.00003585
   0.99329188  0.33531644 -0.00001565
   0.67266088  0.33192745 -0.00031940
   0.34519048  0.67742490  0.00016489
   0.65970932 -0.00881870 -0.00010658
  -0.01288282 -0.00729288  0.00017833
  -0.00268690  0.65966945 -0.00026800
   0.66417031  0.67510608  0.00006889
   0.11252411  0.22646260  0.95097577
   0.22606445  0.11232773  0.04829727
   0.10982254  0.54985185  0.94896995
   0.21975206  0.44024468  0.04941045
   0.11670469  0.89186086  0.94981641
   0.22495411  0.78382954  0.05159286
   0.43892845  0.21897276  0.95006343
   0.54937432  0.10792124  0.05209162
   0.44201538  0.55028210  0.94791908
   0.55070878  0.44270906  0.05096094
   0.44144133  0.89276830  0.94639220
   0.55608303  0.77807011  0.05473135
   0.78385731  0.22385800  0.94793875
   0.89058787  0.11652051  0.05144542
   0.77735673  0.55682907  0.94778117
   0.89297009  0.44153145  0.05281835
   0.77608226  0.88825614  0.94563594
   0.88727775  0.77525642  0.05294367
unknown system                          
           1
     8.259401    4.772791    0.000000
    -8.261074    4.775697    0.000000
     0.000000    0.000000   30.000000
   V    Mo   W    S 
   3   3   3  18
Direct configuration=    11
   0.33873078  0.33935770  0.00050028
   0.34440187 -0.00163663  0.00003313
   0.99296297  0.33545535 -0.00003389
   0.67301444  0.33193416 -0.00032752
   0.34569759  0.67775339  0.00015135
   0.65965991 -0.00922916 -0.00011184
  -0.01362069 -0.00767841  0.00017518
  -0.00311679  0.65921007 -0.00028057
   0.66419182  0.67567239  0.00007145
   0.11240782  0.22635807  0.95104509
   0.22591439  0.11216776  0.04818437
   0.10995378  0.54993144  0.94900316
   0.21974810  0.44038466  0.04935418
   0.11664819  0.89181775  0.94990595
   0.22492338  0.78378917  0.05155010
   0.43901118  0.21896277  0.95007918
   0.54950537  0.10793241  0.05210952
   0.44209032  0.55039043  0.94789311
   0.55089192  0.44285960  0.05092781
   0.44153045  0.89280201  0.94632943
   0.55606486  0.77808418  0.05485241
   0.78378598  0.22371154  0.94792167
   0.89048761  0.11646006  0.05146721
   0.77720060  0.55683298  0.94780000
   0.89297896  0.44152192  0.05290003
   0.77597611  0.88823823  0.94551458
   0.88717354  0.77513063  0.05298453
unknown system                          
           1
     8.259991    4.773350    0.000000
    -8.261453    4.775891    0.000000
     0.000000    0.000000   30.000000
   V    Mo   W    S 
   3   3   3  18
Direct configuration=    12
   0.34004597  0.34046724  0.00061245
   0.34694325 -0.00068423  0.00003000
   0.99166798  0.33599436 -0.00009088
   0.67435694  0.33182186 -0.00034991
   0.34769976  0.67877312  0.00013474
   0.65956623 -0.01056559 -0.00010117
  -0.01644219 -0.00904741  0.00017594
  -0.00516181  0.65715350 -0.00031778
   0.66422416  0.67772447  0.00011449
   0.11199492  0.22598846  0.95135823
   0.22533412  0.11159144  0.04769886
   0.11038643  0.55023009  0.94918577
   0.21974674  0.44086723  0.04908900
   0.11636436  0.89160576  0.95032682
   0.22474240  0.78360244  0.05126862
   0.43935144  0.21897886  0.95013581
   0.55003746  0.10798228  0.05217432
   0.44239826  0.55079354  0.94782155
   0.55161525  0.44344437  0.05075512
   0.44187650  0.89287274  0.94613627
   0.55602832  0.77814324  0.05521794
   0.78356426  0.22322295  0.94786127
   0.89017564  0.11624033  0.05152259
   0.77646819  0.55672816  0.94788292
   0.89294062  0.44142393  0.05317523
   0.77554630  0.88813586  0.94509201
   0.88674295  0.77472543  0.05308967
unknown system                          
           1
     8.248362    4.765256    0.000000
    -8.252670    4.772722    0.000000
     0.000000    0.000000   30.000000
   V    Mo   W    S 
   3   3   3  18
Direct configuration=    13
   0.34022670  0.34060588  0.00062320
   0.34730238 -0.00048538  0.00002441
   0.99153523  0.33601644 -0.00009754
   0.67444456  0.33173700 -0.00035563
   0.34792570  0.67885356  0.00013172
   0.65955843 -0.01062673 -0.00010363
  -0.01671718 -0.00916409  0.00017197
  -0.00547222  0.65690723 -0.00032284
   0.66422948  0.67789257  0.00011500
   0.11197739  0.22597141  0.95138699
   0.22529336  0.11154916  0.04765271
   0.11040440  0.55025582  0.94920560
   0.21973418  0.44087892  0.04907126
   0.11634574  0.89158313  0.95038106
   0.22470758  0.78359760  0.05122014
   0.43936602  0.21897067  0.95012869
   0.55007850  0.10798573  0.05219421
   0.44241037  0.55080218  0.94780468
   0.55168113  0.44347857  0.05075006
   0.44189558  0.89287866  0.94612747
   0.55603964  0.77816967  0.05525423
   0.78355799  0.22318711  0.94784641
   0.89017301  0.11624292  0.05153646
   0.77637240  0.55668507  0.94788266
   0.89291942  0.44140112  0.05321094
   0.77550627  0.88813098  0.94505613
   0.88671837  0.77470924  0.05310354
unknown system                          
           1
     8.263743    4.776204    0.000000
    -8.264892    4.778204    0.000000
     0.000000    0.000000   30.000000
   V    Mo   W    S 
   3   3   3  18
Direct configuration=    14
   0.33897666  0.33964869  0.00054438
   0.34559316 -0.00216104  0.00004530
   0.99194432  0.33624527 -0.00009986
   0.67455102  0.33222425 -0.00036721
   0.34701365  0.67925002  0.00008763
   0.65922272 -0.01112049 -0.00014529
  -0.01590589 -0.00887924  0.00018172
  -0.00343631  0.65794670 -0.00032626
   0.66417592  0.67788724  0.00008311
   0.11180593  0.22591978  0.95126391
   0.22544757  0.11151183  0.04784820
   0.11038079  0.55007972  0.94908647
   0.21960444  0.44088862  0.04915265
   0.11644861  0.89174242  0.95012989
   0.22500833  0.78372894  0.05152658
   0.43930848  0.21887200  0.95026058
   0.54987064  0.10792624  0.05201397
   0.44244293  0.55091335  0.94785735
   0.55153612  0.44343080  0.05076571
   0.44184954  0.89301667  0.94617104
   0.55591664  0.77802358  0.05523379
   0.78359628  0.22328744  0.94800002
   0.89011351  0.11623936  0.05142702
   0.77703254  0.55720295  0.94798002
   0.89317405  0.44158548  0.05311217
   0.77574699  0.88816935  0.94514323
   0.88679580  0.77463454  0.05302376
unknown system                          
           1
     8.267789    4.778986    0.000000
    -8.268594    4.780392    0.000000
     0.000000    0.000000   30.000000
   V    Mo   W    S 
   3   3   3  18
Direct configuration=    15
   0.34119916  0.34140951  0.00071718
   0.34922605  0.00027552  0.00002244
   0.99061986  0.33642960 -0.00012962
   0.67540076  0.33158200 -0.00037111
   0.34932428  0.67954786  0.00013654
   0.65950045 -0.01154251 -0.00007940
  -0.01873295 -0.01007141  0.00018359
  -0.00690228  0.65533364 -0.00034516
   0.66414764  0.67933860  0.00015828
   0.11169544  0.22572821  0.95161194
   0.22488399  0.11113533  0.04729143
   0.11069587  0.55044555  0.94931870
   0.21970474  0.44117437  0.04887683
   0.11614148  0.89142875  0.95070689
   0.22457030  0.78349212  0.05100141
   0.43958450  0.21896802  0.95016501
   0.55046090  0.10801596  0.05224191
   0.44260503  0.55106080  0.94774769
   0.55219815  0.44389146  0.05061748
   0.44212308  0.89292996  0.94599084
   0.55600306  0.77822968  0.05550137
   0.78342922  0.22284603  0.94778839
   0.88998271  0.11611708  0.05157105
   0.77583303  0.55661532  0.94795690
   0.89289570  0.44133134  0.05342079
   0.77519656  0.88805607  0.94474774
   0.88642772  0.77444563  0.05315077
unknown system                          
           1
     8.265749    4.778005    0.000000
    -8.266388    4.779122    0.000000
     0.000000    0.000000   30.000000
   V    Mo   W    S 
   3   3   3  18
Direct configuration=    16
   0.34195511  0.34203749  0.00077778
   0.35062013  0.00085520  0.00000488
   0.98993558  0.33669572 -0.00015717
   0.67608371  0.33140698 -0.00039483
   0.35020785  0.67996655  0.00013041
   0.65947159 -0.01202909 -0.00007423
  -0.02006669 -0.01060466  0.00018577
  -0.00790775  0.65413308 -0.00036584
   0.66399088  0.68020992  0.00017780
   0.11151231  0.22557792  0.95177050
   0.22460311  0.11085077  0.04704133
   0.11087991  0.55055506  0.94939281
   0.21965981  0.44134389  0.04874764
   0.11602492  0.89133159  0.95094659
   0.22447995  0.78345289  0.05084508
   0.43972514  0.21895740  0.95018778
   0.55073199  0.10804979  0.05229119
   0.44272804  0.55123160  0.94770290
   0.55256670  0.44417367  0.05053783
   0.44226890  0.89295468  0.94590969
   0.55597766  0.77828231  0.05567905
   0.78337409  0.22262891  0.94774999
   0.88987704  0.11607003  0.05160080
   0.77544195  0.55655773  0.94801625
   0.89287481  0.44125911  0.05357320
   0.77497308  0.88799660  0.94454631
   0.88622461  0.77426933  0.05317639
unknown system                          
           1
     8.265741    4.777998    0.000000
    -8.266384    4.779122    0.000000
     0.000000    0.000000   30.000000
   V    Mo   W    S 
   3   3   3  18
Direct configuration=    17
   0.34162926  0.34176502  0.00073857
   0.35004469  0.00085450  0.00001710
   0.99022009  0.33650882 -0.00015269
   0.67569615  0.33143663 -0.00038445
   0.34989778  0.67960770  0.00011707
   0.65961081 -0.01164193 -0.00009701
  -0.01941300 -0.01034059  0.00016448
  -0.00776478  0.65465926 -0.00036304
   0.66420254  0.67972090  0.00015278
   0.11164714  0.22570189  0.95169278
   0.22478554  0.11106417  0.04719433
   0.11072263  0.55047990  0.94939888
   0.21966896  0.44120036  0.04882474
   0.11606028  0.89137779  0.95080991
   0.22449106  0.78342184  0.05089162
   0.43963379  0.21900878  0.95014845
   0.55058874  0.10802557  0.05228539
   0.44267663  0.55109969  0.94773042
   0.55232479  0.44398501  0.05059337
   0.44219476  0.89291974  0.94598054
   0.55604575  0.77825791  0.05558173
   0.78343173  0.22279496  0.94779362
   0.88995801  0.11612138  0.05159295
   0.77557939  0.55650436  0.94794569
   0.89284713  0.44124321  0.05347017
   0.77509243  0.88803273  0.94467089
   0.88634217  0.77440484  0.05320163
unknown system                          
           1
     8.258575    4.775195    0.000000
    -8.259575    4.776937    0.000000
     0.000000    0.000000   30.000000
   V    Mo   W    S 
   3   3   3  18
Direct configuration=    18
   0.34162897  0.34176464  0.00073855
   0.35004395  0.00085250  0.00001704
   0.99022026  0.33650927 -0.00015273
   0.67569677  0.33143710 -0.00038453
   0.34989627  0.67960853  0.00011696
   0.65961033 -0.01164252 -0.00009712
  -0.01941332 -0.01034069  0.00016450
  -0.00776198  0.65465945 -0.00036308
   0.66420181  0.67972133  0.00015265
   0.11164690  0.22570153  0.95169275
   0.22478532  0.11106365  0.04719419
   0.11072299  0.55047995  0.94939857
   0.21966910  0.44120082  0.04882473
   0.11606047  0.89137786  0.95080995
   0.22449136  0.78342228  0.05089206
   0.43963399  0.21900848  0.95014867
   0.55058868  0.10802558  0.05228529
   0.44267651  0.55110018  0.94773051
   0.55232523  0.44398537  0.05059332
   0.44219482  0.89291984  0.94598037
   0.55604518  0.77825778  0.05558196
   0.78343148  0.22279474  0.94779363
   0.88995767  0.11612105  0.05159296
   0.77557997  0.55650512  0.94794611
   0.89284743  0.44124358  0.05347028
   0.77509239  0.88803265  0.94467091
   0.88634191  0.77440437  0.05320143
unknown system                          
           1
     8.268473    4.780366    0.000000
    -8.267885    4.779361    0.000000
     0.000000    0.000000   30.000000
   V    Mo   W    S 
   3   3   3  18
Direct configuration=    19
   0.34299517  0.34306949  0.00081102
   0.35258516  0.00186762 -0.00000758
   0.98967053  0.33658689 -0.00017585
   0.67590929  0.33059959 -0.00042095
   0.35184849  0.68054190  0.00011889
   0.65886099 -0.01277447 -0.00007809
  -0.02126369 -0.01093771  0.00016541
  -0.00939365  0.65318826 -0.00037594
   0.66348708  0.68083134  0.00020303
   0.11162044  0.22566224  0.95187509
   0.22463982  0.11094677  0.04687104
   0.11088665  0.55065813  0.94955131
   0.21960519  0.44122209  0.04868554
   0.11592581  0.89124870  0.95113520
   0.22426782  0.78335975  0.05057025
   0.43967385  0.21909682  0.95014803
   0.55086496  0.10812577  0.05238643
   0.44270523  0.55095900  0.94766647
   0.55265568  0.44413664  0.05053016
   0.44228232  0.89295263  0.94594341
   0.55615243  0.77840244  0.05575734
   0.78340426  0.22253559  0.94774497
   0.89003207  0.11631625  0.05162132
   0.77501315  0.55626146  0.94795224
   0.89268059  0.44110316  0.05363864
   0.77487523  0.88801580  0.94445702
   0.88622958  0.77423833  0.05322548
unknown system                          
           1
     8.275692    4.786567    0.000000
    -8.272738    4.781469    0.000000
     0.000000    0.000000   30.000000
   V    Mo   W    S 
   3   3   3  18
Direct configuration=    20
   0.34293860  0.34280930  0.00083561
   0.35228919  0.00204939 -0.00001130
   0.98921605  0.33674009 -0.00018419
   0.67650913  0.33109537 -0.00040147
   0.35131280  0.68010576  0.00015060
   0.65960923 -0.01211543 -0.00005622
  -0.02127441 -0.01114184  0.00016899
  -0.00967919  0.65291930 -0.00037591
   0.66409325  0.68083197  0.00021570
   0.11142520  0.22548067  0.95195659
   0.22433904  0.11069116  0.04680090
   0.11093968  0.55069736  0.94955027
   0.21965728  0.44142201  0.04861579
   0.11585699  0.89117693  0.95122432
   0.22427098  0.78332176  0.05054286
   0.43986693  0.21901105  0.95015535
   0.55098462  0.10809251  0.05236500
   0.44285445  0.55130941  0.94765820
   0.55286920  0.44436474  0.05047863
   0.44239840  0.89291510  0.94591083
   0.55607530  0.77837361  0.05574555
   0.78333931  0.22250648  0.94769165
   0.88986743  0.11603097  0.05164530
   0.77489759  0.55624892  0.94799140
   0.89273124  0.44111249  0.05368720
   0.77475610  0.88794137  0.94440874
   0.88607005  0.77422402  0.05322951
unknown system                          
           1
     8.275651    4.786526    0.000000
    -8.272717    4.781464    0.000000
     0.000000    0.000000   30.000000
   V    Mo   W    S 
   3   3   3  18
Direct configuration=    21
   0.34466270  0.34415544  0.00090885
   0.35496330  0.00353460 -0.00008297
   0.98786203  0.33682555 -0.00023044
   0.67746320  0.33061629 -0.00043993
   0.35294306  0.68062954  0.00013649
   0.65969324 -0.01235202 -0.00005515
  -0.02340948 -0.01203733  0.00014396
  -0.01216885  0.65081898 -0.00038776
   0.66397960  0.68191827  0.00022081
   0.11119917  0.22525153  0.95227261
   0.22382831  0.11026790  0.04635636
   0.11114317  0.55094640  0.94974054
   0.21962340  0.44164644  0.04839102
   0.11570886  0.89094716  0.95171692
   0.22399173  0.78326124  0.05012898
   0.44016661  0.21900236  0.95013342
   0.55146384  0.10821429  0.05250780
   0.44304176  0.55157292  0.94756458
   0.55356793  0.44479461  0.05041387
   0.44262593  0.89288243  0.94584263
   0.55615285  0.77856638  0.05597506
   0.78325172  0.22221273  0.94756043
   0.88980633  0.11597527  0.05174465
   0.77403014  0.55586249  0.94801028
   0.89256914  0.44090412  0.05395867
   0.77430252  0.88779794  0.94414646
   0.88575224  0.77399894  0.05332175
unknown system                          
           1
     8.266072    4.780335    0.000000
    -8.264817    4.778176    0.000000
     0.000000    0.000000   30.000000
   V    Mo   W    S 
   3   3   3  18
Direct configuration=    22
   0.34465052  0.34414568  0.00090835
   0.35494834  0.00352554 -0.00008255
   0.98787051  0.33682643 -0.00023030
   0.67745832  0.33061958 -0.00043979
   0.35293305  0.68062747  0.00013636
   0.65969209 -0.01235206 -0.00005544
  -0.02339795 -0.01203306  0.00014390
  -0.01215322  0.65083101 -0.00038786
   0.66398139  0.68191385  0.00022049
   0.11119995  0.22525260  0.95227059
   0.22383102  0.11026963  0.04635913
   0.11114244  0.55094491  0.94973918
   0.21962339  0.44164553  0.04839254
   0.11570963  0.89094869  0.95171390
   0.22399361  0.78326162  0.05013173
   0.44016489  0.21900196  0.95013367
   0.55146071  0.10821318  0.05250685
   0.44304108  0.55157200  0.94756531
   0.55356436  0.44479261  0.05041423
   0.44262464  0.89288279  0.94584316
   0.55615195  0.77856486  0.05597406
   0.78325202  0.22221444  0.94756130
   0.88980642  0.11597528  0.05174416
   0.77403555  0.55586532  0.94801037
   0.89257026  0.44090566  0.05395725
   0.77430543  0.88779881  0.94414795
   0.88575406  0.77400011  0.05332136
unknown system                          
           1
     8.283247    4.793655    0.000000
    -8.276811    4.782532    0.000000
     0.000000    0.000000   30.000000
   V    Mo   W    S 
   3   3   3  18
Direct configuration=    23
   0.34483503  0.34430125  0.00093066
   0.35520465  0.00346264 -0.00008067
   0.98785180  0.33676525 -0.00023895
   0.67710835  0.33050688 -0.00044353
   0.35301283  0.68069252  0.00014203
   0.65929566 -0.01260559 -0.00005778
  -0.02320663 -0.01207110  0.00015123
  -0.01200742  0.65108590 -0.00040062
   0.66378315  0.68181896  0.00021295
   0.11122181  0.22520880  0.95219800
   0.22391995  0.11029535  0.04640437
   0.11110573  0.55095427  0.94973279
   0.21961033  0.44163437  0.04844215
   0.11565847  0.89096314  0.95166755
   0.22402363  0.78328020  0.05015762
   0.44003239  0.21888639  0.95011027
   0.55136758  0.10826695  0.05252564
   0.44293388  0.55153483  0.94751198
   0.55353981  0.44464911  0.05046876
   0.44248940  0.89287038  0.94580271
   0.55609512  0.77853297  0.05602966
   0.78326838  0.22232039  0.94759322
   0.88984324  0.11598406  0.05174988
   0.77432959  0.55599010  0.94803697
   0.89252005  0.44099804  0.05389751
   0.77450066  0.88783949  0.94416610
   0.88587702  0.77404889  0.05328941
unknown system                          
           1
     8.293711    4.804186    0.000000
    -8.281235    4.782617    0.000000
     0.000000    0.000000   30.000000
   V    Mo   W    S 
   3   3   3  18
Direct configuration=    24
   0.34663666  0.34578061  0.00100459
   0.35745800  0.00507728 -0.00014652
   0.98655388  0.33668806 -0.00024742
   0.67831070  0.33000010 -0.00046874
   0.35464185  0.68098254  0.00015898
   0.65988528 -0.01233842 -0.00000493
  -0.02535521 -0.01266255  0.00016656
  -0.01482508  0.64871566 -0.00038339
   0.66366171  0.68267306  0.00027700
   0.11109529  0.22510449  0.95261082
   0.22337565  0.10999976  0.04587701
   0.11128097  0.55120028  0.94998083
   0.21964286  0.44179871  0.04812897
   0.11558088  0.89069689  0.95223887
   0.22366753  0.78318702  0.04965758
   0.44045382  0.21909924  0.95010211
   0.55198329  0.10837493  0.05266218
   0.44316119  0.55168931  0.94744932
   0.55412628  0.44512744  0.05032850
   0.44286525  0.89284161  0.94575873