       N       E                     dE             d eps       ncg     rms          rms(c)
DAV:   1     0.112626736027E+04    0.11263E+04   -0.35979E+04  8160   0.577E+02
DAV:   2     0.579887902761E+00   -0.11257E+04   -0.10826E+04 11120   0.173E+02
DAV:   3    -0.199541016128E+03   -0.20012E+03   -0.19163E+03 10880   0.823E+01
DAV:   4    -0.208995355649E+03   -0.94543E+01   -0.91752E+01 12160   0.265E+01
DAV:   5    -0.209324884351E+03   -0.32953E+00   -0.32856E+00 11600   0.356E+00    0.275E+01
DAV:   6    -0.236772909687E+03   -0.27448E+02   -0.10613E+02 12720   0.604E+01    0.594E+01
DAV:   7    -0.196510590909E+03    0.40262E+02   -0.17664E+02 13040   0.152E+02    0.200E+01
DAV:   8    -0.189377748831E+03    0.71328E+01   -0.17313E+01 11960   0.127E+01    0.125E+01
DAV:   9    -0.188120484787E+03    0.12573E+01   -0.30151E+00 13240   0.650E+00    0.898E+00
DAV:  10    -0.187010069948E+03    0.11104E+01   -0.21609E+00 13400   0.712E+00    0.283E+00
DAV:  11    -0.186972007956E+03    0.38062E-01   -0.61886E-01 13320   0.260E+00    0.279E+00
DAV:  12    -0.187102974214E+03   -0.13097E+00   -0.85364E-01 12520   0.499E+00    0.510E+00
DAV:  13    -0.186887786975E+03    0.21519E+00   -0.57793E-01 12800   0.414E+00    0.217E+00
DAV:  14    -0.186863694004E+03    0.24093E-01   -0.14018E-01 13360   0.217E+00    0.179E+00
DAV:  15    -0.186839806613E+03    0.23887E-01   -0.75797E-02 12480   0.165E+00    0.820E-01
DAV:  16    -0.186833004967E+03    0.68016E-02   -0.11101E-02 12000   0.414E-01    0.461E-01
DAV:  17    -0.186831303638E+03    0.17013E-02   -0.79766E-03 12720   0.395E-01    0.240E-01
DAV:  18    -0.186830525394E+03    0.77824E-03   -0.29205E-03 11880   0.165E-01    0.201E-01
DAV:  19    -0.186830140459E+03    0.38494E-03   -0.10769E-03 11200   0.159E-01    0.472E-02
DAV:  20    -0.186830924334E+03   -0.78388E-03   -0.75260E-04  9120   0.604E-02    0.501E-02
DAV:  21    -0.186831533933E+03   -0.60960E-03   -0.21949E-04  8160   0.404E-02    0.402E-02
DAV:  22    -0.186832634137E+03   -0.11002E-02   -0.18037E-04  7520   0.518E-02    0.355E-02
DAV:  23    -0.186833862853E+03   -0.12287E-02   -0.13665E-04  7440   0.430E-02    0.124E-02
DAV:  24    -0.186834457469E+03   -0.59462E-03   -0.30595E-05  6800   0.142E-02    0.607E-03
DAV:  25    -0.186834812508E+03   -0.35504E-03   -0.15266E-05  5520   0.974E-03    0.472E-03
DAV:  26    -0.186835057093E+03   -0.24459E-03   -0.94917E-06  6800   0.743E-03    0.143E-03
DAV:  27    -0.186835155175E+03   -0.98082E-04   -0.36184E-06  7280   0.449E-03
   1 F= -.18683516E+03 E0= -.18666286E+03  d E =-.186835E+03
       N       E                     dE             d eps       ncg     rms          rms(c)
DAV:   1    -0.187450475229E+03   -0.61542E+00   -0.27140E+02  8160   0.350E+01    0.460E+00
DAV:   2    -0.189255564319E+03   -0.18051E+01   -0.20040E+01 12240   0.149E+01    0.794E+00
DAV:   3    -0.189357053441E+03   -0.10149E+00   -0.35842E+00 12480   0.116E+01    0.695E+00
DAV:   4    -0.188721095245E+03    0.63596E+00   -0.63931E-01 12760   0.490E+00    0.184E+00
DAV:   5    -0.188728260304E+03   -0.71651E-02   -0.30596E-01 10880   0.147E+00    0.234E+00
DAV:   6    -0.188649403569E+03    0.78857E-01   -0.29858E-01 11240   0.151E+00    0.115E+00
DAV:   7    -0.188652971511E+03   -0.35679E-02   -0.10960E-01 12080   0.169E+00    0.172E+00
DAV:   8    -0.188630376628E+03    0.22595E-01   -0.51331E-02 13520   0.135E+00    0.580E-01
DAV:   9    -0.188626879366E+03    0.34973E-02   -0.80331E-03 11840   0.385E-01    0.241E-01
DAV:  10    -0.188627967167E+03   -0.10878E-02   -0.49446E-03 13360   0.390E-01    0.459E-01
DAV:  11    -0.188626432018E+03    0.15351E-02   -0.37972E-03 12680   0.351E-01    0.135E-01
DAV:  12    -0.188626358224E+03    0.73794E-04   -0.93045E-04 11800   0.111E-01
   2 F= -.18862636E+03 E0= -.18848444E+03  d E =-.179120E+01
       N       E                     dE             d eps       ncg     rms          rms(c)
DAV:   1    -0.190542132445E+03   -0.19157E+01   -0.30745E+01  9280   0.141E+01    0.447E+00
DAV:   2    -0.190561311970E+03   -0.19180E-01   -0.28725E+00 11440   0.989E+00    0.762E+00
DAV:   3    -0.190007855969E+03    0.55346E+00   -0.13316E+00 12360   0.870E+00    0.407E+00
DAV:   4    -0.189807997369E+03    0.19986E+00   -0.67415E-01 12720   0.396E+00    0.249E+00
DAV:   5    -0.189732156828E+03    0.75841E-01   -0.30698E-01 11400   0.213E+00    0.149E+00
DAV:   6    -0.189711718106E+03    0.20439E-01   -0.82371E-02 11960   0.168E+00    0.923E-01
DAV:   7    -0.189703849697E+03    0.78684E-02   -0.16712E-02 12640   0.720E-01    0.192E-01
DAV:   8    -0.189703899524E+03   -0.49828E-04   -0.25149E-03 11080   0.172E-01    0.147E-01
DAV:   9    -0.189704163271E+03   -0.26375E-03   -0.11632E-03 10800   0.185E-01    0.191E-01
DAV:  10    -0.189704440286E+03   -0.27701E-03   -0.15369E-03 10560   0.271E-01    0.223E-01
DAV:  11    -0.189703926898E+03    0.51339E-03   -0.80441E-04  9520   0.169E-01    0.263E-02
DAV:  12    -0.189703952750E+03   -0.25853E-04   -0.82804E-05  6200   0.339E-02
   3 F= -.18970395E+03 E0= -.18958458E+03  d E =-.107759E+01
       N       E                     dE             d eps       ncg     rms          rms(c)
DAV:   1    -0.191208778884E+03   -0.15049E+01   -0.66311E+01  8160   0.187E+01    0.457E+00
DAV:   2    -0.191158002369E+03    0.50777E-01   -0.53337E+00 13520   0.880E+00    0.563E+00
DAV:   3    -0.191075108176E+03    0.82894E-01   -0.15369E+00 12040   0.917E+00    0.580E+00
DAV:   4    -0.190758087014E+03    0.31702E+00   -0.10800E+00 13080   0.642E+00    0.276E+00
DAV:   5    -0.190743157539E+03    0.14929E-01   -0.41356E-01 12200   0.410E+00    0.303E+00
DAV:   6    -0.190639692292E+03    0.10347E+00   -0.19036E-01 12240   0.314E+00    0.970E-01
DAV:   7    -0.190633313355E+03    0.63789E-02   -0.36286E-02 12520   0.102E+00    0.533E-01
DAV:   8    -0.190632131448E+03    0.11819E-02   -0.13068E-02 11520   0.764E-01    0.574E-01
DAV:   9    -0.190628991243E+03    0.31402E-02   -0.48914E-03 11640   0.504E-01    0.138E-01
DAV:  10    -0.190629354850E+03   -0.36361E-03   -0.12101E-03 10080   0.124E-01    0.124E-01
DAV:  11    -0.190629159006E+03    0.19584E-03   -0.76422E-04 10840   0.106E-01    0.456E-02
DAV:  12    -0.190629162913E+03   -0.39067E-05   -0.11312E-04  7120   0.431E-02
   4 F= -.19062916E+03 E0= -.19052930E+03  d E =-.925210E+00
       N       E                     dE             d eps       ncg     rms          rms(c)
DAV:   1    -0.192081030798E+03   -0.14519E+01   -0.14287E+02  8160   0.270E+01    0.591E+00
DAV:   2    -0.191885027704E+03    0.19600E+00   -0.99614E+00 12640   0.984E+00    0.529E+00
DAV:   3    -0.192171013766E+03   -0.28599E+00   -0.24652E+00 10920   0.114E+01    0.943E+00
DAV:   4    -0.191532561619E+03    0.63845E+00   -0.29939E+00 12120   0.118E+01    0.412E+00
DAV:   5    -0.191455984243E+03    0.76577E-01   -0.85864E-01 12240   0.623E+00    0.372E+00
DAV:   6    -0.191266026154E+03    0.18996E+00   -0.29217E-01 12280   0.402E+00    0.992E-01
DAV:   7    -0.191259269346E+03    0.67568E-02   -0.54365E-02 12160   0.113E+00    0.546E-01
DAV:   8    -0.191254300649E+03    0.49687E-02   -0.10860E-02 10560   0.497E-01    0.266E-01
DAV:   9    -0.191255172606E+03   -0.87196E-03   -0.43252E-03 12640   0.479E-01    0.367E-01
DAV:  10    -0.191254309704E+03    0.86290E-03   -0.33152E-03 11240   0.379E-01    0.107E-01
DAV:  11    -0.191254213873E+03    0.95831E-04   -0.71075E-04 10520   0.105E-01
   5 F= -.19125421E+03 E0= -.19116201E+03  d E =-.625051E+00
       N       E                     dE             d eps       ncg     rms          rms(c)
DAV:   1    -0.191314641288E+03   -0.60332E-01   -0.53138E+00  8160   0.487E+00    0.637E-01
DAV:   2    -0.191371457398E+03   -0.56816E-01   -0.23482E-01 13440   0.259E+00    0.220E+00
DAV:   3    -0.191324320571E+03    0.47137E-01   -0.11184E-01 11800   0.232E+00    0.525E-01
DAV:   4    -0.191324009702E+03    0.31087E-03   -0.13266E-02 11440   0.782E-01    0.536E-01
DAV:   5    -0.191321121252E+03    0.28885E-02   -0.64447E-03 11360   0.611E-01    0.219E-01
DAV:   6    -0.191320637078E+03    0.48417E-03   -0.17821E-03 11080   0.224E-01    0.121E-01
DAV:   7    -0.191320988789E+03   -0.35171E-03   -0.16812E-03 11640   0.273E-01    0.219E-01
DAV:   8    -0.191320503216E+03    0.48557E-03   -0.10221E-03  9600   0.245E-01    0.639E-02
DAV:   9    -0.191320465984E+03    0.37232E-04   -0.10762E-04  6160   0.623E-02
   6 F= -.19132047E+03 E0= -.19122499E+03  d E =-.662521E-01
       N       E                     dE             d eps       ncg     rms          rms(c)
DAV:   1    -0.191360798198E+03   -0.40295E-01   -0.22001E+00  8160   0.313E+00    0.401E-01
DAV:   2    -0.191382421895E+03   -0.21624E-01   -0.88937E-02 13600   0.165E+00    0.136E+00
DAV:   3    -0.191363927249E+03    0.18495E-01   -0.41104E-02 11880   0.143E+00    0.320E-01
DAV:   4    -0.191364064297E+03   -0.13705E-03   -0.53685E-03 11320   0.499E-01    0.353E-01
DAV:   5    -0.191362833542E+03    0.12308E-02   -0.27247E-03 11120   0.393E-01    0.137E-01
DAV:   6    -0.191362661671E+03    0.17187E-03   -0.74913E-04 10560   0.141E-01    0.763E-02
DAV:   7    -0.191362760895E+03   -0.99224E-04   -0.56723E-04  9600   0.152E-01
   7 F= -.19136276E+03 E0= -.19126539E+03  d E =-.422949E-01
       N       E                     dE             d eps       ncg     rms          rms(c)
DAV:   1    -0.191309579992E+03    0.53082E-01   -0.32720E+00  8160   0.384E+00    0.476E-01
DAV:   2    -0.191335731404E+03   -0.26151E-01   -0.12144E-01 13600   0.186E+00    0.137E+00
DAV:   3    -0.191313322833E+03    0.22409E-01   -0.37338E-02 12040   0.149E+00    0.322E-01
DAV:   4    -0.191313603061E+03   -0.28023E-03   -0.63897E-03 11240   0.508E-01    0.389E-01
DAV:   5    -0.191312202775E+03    0.14003E-02   -0.37906E-03 11400   0.464E-01    0.191E-01
DAV:   6    -0.191311850509E+03    0.35227E-03   -0.13314E-03 10760   0.210E-01    0.908E-02
DAV:   7    -0.191311805082E+03    0.45426E-04   -0.58341E-04 10200   0.109E-01
   8 F= -.19131181E+03 E0= -.19121671E+03  d E =0.509558E-01
       N       E                     dE             d eps       ncg     rms          rms(c)
DAV:   1    -0.191212745264E+03    0.99105E-01   -0.14298E+01  8160   0.802E+00    0.919E-01
DAV:   2    -0.191286423295E+03   -0.73678E-01   -0.44759E-01 13600   0.295E+00    0.209E+00
DAV:   3    -0.191232196544E+03    0.54227E-01   -0.11439E-01 12120   0.254E+00    0.802E-01
DAV:   4    -0.191229741198E+03    0.24553E-02   -0.28960E-02 12520   0.100E+00    0.651E-01
DAV:   5    -0.191226027901E+03    0.37133E-02   -0.13973E-02 12440   0.856E-01    0.487E-01
DAV:   6    -0.191224060276E+03    0.19676E-02   -0.73340E-03 11880   0.611E-01    0.252E-01
DAV:   7    -0.191223498682E+03    0.56159E-03   -0.25054E-03 11960   0.266E-01    0.921E-02
DAV:   8    -0.191223289732E+03    0.20895E-03   -0.48147E-04 10360   0.933E-02    0.370E-02
DAV:   9    -0.191223323917E+03   -0.34186E-04   -0.15109E-04  8040   0.860E-02
   9 F= -.19122332E+03 E0= -.19113323E+03  d E =0.884812E-01
       N       E                     dE             d eps       ncg     rms          rms(c)
DAV:   1    -0.191242285945E+03   -0.18996E-01   -0.16650E+00  8160   0.273E+00    0.344E-01
DAV:   2    -0.191254650152E+03   -0.12364E-01   -0.65077E-02 13600   0.112E+00    0.988E-01
DAV:   3    -0.191245245530E+03    0.94046E-02   -0.26655E-02 12040   0.113E+00    0.363E-01
DAV:   4    -0.191244114378E+03    0.11312E-02   -0.41005E-03 11160   0.353E-01    0.180E-01
DAV:   5    -0.191243740479E+03    0.37390E-03   -0.14006E-03 10600   0.247E-01    0.144E-01
DAV:   6    -0.191243747156E+03   -0.66774E-05   -0.10972E-03 11400   0.248E-01    0.144E-01
DAV:   7    -0.191243556357E+03    0.19080E-03   -0.60844E-04  9320   0.157E-01    0.638E-02
DAV:   8    -0.191243547202E+03    0.91552E-05   -0.19323E-04  6960   0.108E-01
  10 F= -.19124355E+03 E0= -.19115164E+03  d E =-.202233E-01
       N       E                     dE             d eps       ncg     rms          rms(c)
DAV:   1    -0.191281592394E+03   -0.38036E-01   -0.26641E+00  8160   0.347E+00    0.479E-01
DAV:   2    -0.191308720462E+03   -0.27128E-01   -0.11371E-01 13600   0.191E+00    0.152E+00
DAV:   3    -0.191284321717E+03    0.24399E-01   -0.51907E-02 12320   0.164E+00    0.358E-01
DAV:   4    -0.191284414454E+03   -0.92736E-04   -0.76021E-03 11480   0.566E-01    0.411E-01
DAV:   5    -0.191282926639E+03    0.14878E-02   -0.44088E-03 11360   0.493E-01    0.216E-01
DAV:   6    -0.191282377361E+03    0.54928E-03   -0.15255E-03 10600   0.232E-01    0.951E-02
DAV:   7    -0.191282578272E+03   -0.20091E-03   -0.10328E-03 10720   0.213E-01    0.169E-01
DAV:   8    -0.191282279059E+03    0.29921E-03   -0.59636E-04  8800   0.188E-01    0.505E-02
DAV:   9    -0.191282251189E+03    0.27870E-04   -0.70680E-05  6040   0.527E-02
  11 F= -.19128225E+03 E0= -.19118736E+03  d E =-.387040E-01
       N       E                     dE             d eps       ncg     rms          rms(c)
DAV:   1    -0.191330376589E+03   -0.48098E-01   -0.41687E+00  8160   0.432E+00    0.557E-01
DAV:   2    -0.191372859513E+03   -0.42483E-01   -0.16878E-01 13600   0.228E+00    0.196E+00
DAV:   3    -0.191335797681E+03    0.37062E-01   -0.86726E-02 12200   0.204E+00    0.444E-01
DAV:   4    -0.191335831168E+03   -0.33487E-04   -0.10060E-02 11560   0.675E-01    0.479E-01
DAV:   5    -0.191333603720E+03    0.22274E-02   -0.52775E-03 11520   0.544E-01    0.205E-01
DAV:   6    -0.191333221558E+03    0.38216E-03   -0.16853E-03 10280   0.240E-01    0.138E-01
DAV:   7    -0.191333614668E+03   -0.39311E-03   -0.18151E-03 10560   0.315E-01    0.234E-01
DAV:   8    -0.191333010998E+03    0.60367E-03   -0.92677E-04  9400   0.229E-01    0.388E-02
DAV:   9    -0.191333003992E+03    0.70054E-05   -0.74091E-05  6160   0.396E-02
  12 F= -.19133300E+03 E0= -.19123425E+03  d E =-.507528E-01
       N       E                     dE             d eps       ncg     rms          rms(c)
DAV:   1    -0.191311731049E+03    0.21280E-01   -0.68228E-01  8160   0.175E+00    0.235E-01
DAV:   2    -0.191318550359E+03   -0.68193E-02   -0.28582E-02 13400   0.960E-01    0.739E-01
DAV:   3    -0.191312396176E+03    0.61542E-02   -0.11209E-02 12080   0.791E-01    0.165E-01
DAV:   4    -0.191312485697E+03   -0.89521E-04   -0.16491E-03  9880   0.267E-01    0.195E-01
DAV:   5    -0.191312129866E+03    0.35583E-03   -0.97329E-04 10000   0.233E-01    0.945E-02
DAV:   6    -0.191312034235E+03    0.95631E-04   -0.29771E-04  7560   0.103E-01
  13 F= -.19131203E+03 E0= -.19121482E+03  d E =0.209698E-01
       N       E                     dE             d eps       ncg     rms          rms(c)
DAV:   1    -0.191269455530E+03    0.42674E-01   -0.28109E+00  8160   0.356E+00    0.426E-01
DAV:   2    -0.191288215532E+03   -0.18760E-01   -0.98222E-02 13600   0.145E+00    0.116E+00
DAV:   3    -0.191273499949E+03    0.14716E-01   -0.33217E-02 12360   0.134E+00    0.380E-01
DAV:   4    -0.191272992219E+03    0.50773E-03   -0.59086E-03 11160   0.468E-01    0.317E-01
DAV:   5    -0.191272063186E+03    0.92903E-03   -0.29279E-03 11160   0.403E-01    0.196E-01
DAV:   6    -0.191271726410E+03    0.33678E-03   -0.13435E-03 10640   0.242E-01    0.106E-01
DAV:   7    -0.191271748252E+03   -0.21842E-04   -0.73235E-04 10400   0.162E-01
  14 F= -.19127175E+03 E0= -.19117736E+03  d E =0.402860E-01
       N       E                     dE             d eps       ncg     rms          rms(c)
DAV:   1    -0.191317506497E+03   -0.45780E-01   -0.41174E+00  8160   0.429E+00    0.534E-01
DAV:   2    -0.191355100067E+03   -0.37594E-01   -0.15840E-01 13520   0.206E+00    0.180E+00
DAV:   3    -0.191323405351E+03    0.31695E-01   -0.76603E-02 12240   0.193E+00    0.448E-01
DAV:   4    -0.191322914423E+03    0.49093E-03   -0.92018E-03 11560   0.617E-01    0.434E-01
DAV:   5    -0.191321152566E+03    0.17619E-02   -0.46776E-03 11400   0.510E-01    0.208E-01
DAV:   6    -0.191320767988E+03    0.38458E-03   -0.16194E-03 10360   0.241E-01    0.136E-01
DAV:   7    -0.191321140960E+03   -0.37297E-03   -0.17338E-03 10640   0.307E-01    0.228E-01
DAV:   8    -0.191320575279E+03    0.56568E-03   -0.91389E-04  9040   0.228E-01    0.415E-02
DAV:   9    -0.191320566469E+03    0.88098E-05   -0.77350E-05  5920   0.400E-02
  15 F= -.19132057E+03 E0= -.19122236E+03  d E =-.488182E-01
       N       E                     dE             d eps       ncg     rms          rms(c)
DAV:   1    -0.191328436839E+03   -0.78616E-02   -0.10183E-01  8160   0.681E-01    0.986E-02
DAV:   2    -0.191329678709E+03   -0.12419E-02   -0.50552E-03 13560   0.413E-01    0.328E-01
DAV:   3    -0.191328530122E+03    0.11486E-02   -0.22182E-03 10760   0.343E-01    0.692E-02
DAV:   4    -0.191328561630E+03   -0.31508E-04   -0.29919E-04  7680   0.120E-01
  16 F= -.19132856E+03 E0= -.19122971E+03  d E =-.799516E-02
       N       E                     dE             d eps       ncg     rms          rms(c)
DAV:   1    -0.191354138922E+03   -0.25609E-01   -0.10611E+00  8160   0.222E+00    0.353E-01
DAV:   2    -0.191370150240E+03   -0.16011E-01   -0.59672E-02 13080   0.144E+00    0.126E+00
DAV:   3    -0.191354924547E+03    0.15226E-01   -0.33050E-02 12120   0.125E+00    0.259E-01
DAV:   4    -0.191354998033E+03   -0.73486E-04   -0.39035E-03 11600   0.425E-01    0.300E-01
DAV:   5    -0.191354163974E+03    0.83406E-03   -0.24392E-03 10560   0.368E-01    0.155E-01
DAV:   6    -0.191353929750E+03    0.23422E-03   -0.98471E-04  9880   0.185E-01    0.951E-02
DAV:   7    -0.191354000205E+03   -0.70454E-04   -0.69932E-04  9480   0.194E-01
  17 F= -.19135400E+03 E0= -.19125324E+03  d E =-.254386E-01
       N       E                     dE             d eps       ncg     rms          rms(c)
DAV:   1    -0.191393481468E+03   -0.39552E-01   -0.27092E+00  8160   0.349E+00    0.424E-01
DAV:   2    -0.191413167376E+03   -0.19686E-01   -0.96621E-02 13560   0.151E+00    0.128E+00
DAV:   3    -0.191397345684E+03    0.15822E-01   -0.42714E-02 12400   0.143E+00    0.387E-01
DAV:   4    -0.191396958228E+03    0.38746E-03   -0.61944E-03 11360   0.498E-01    0.353E-01
DAV:   5    -0.191395840498E+03    0.11177E-02   -0.33879E-03 11320   0.435E-01    0.191E-01
DAV:   6    -0.191395559069E+03    0.28143E-03   -0.13326E-03 10400   0.224E-01    0.122E-01
DAV:   7    -0.191395797380E+03   -0.23831E-03   -0.12626E-03 10360   0.260E-01    0.192E-01
DAV:   8    -0.191395390170E+03    0.40721E-03   -0.63783E-04  8760   0.190E-01    0.308E-02
DAV:   9    -0.191395391831E+03   -0.16611E-05   -0.56028E-05  6000   0.342E-02
  18 F= -.19139539E+03 E0= -.19129262E+03  d E =-.413916E-01
       N       E                     dE             d eps       ncg     rms          rms(c)
DAV:   1    -0.191407366603E+03   -0.11976E-01   -0.22663E-01  8160   0.101E+00    0.123E-01
DAV:   2    -0.191409121307E+03   -0.17547E-02   -0.85049E-03 13600   0.441E-01    0.383E-01
DAV:   3    -0.191407679260E+03    0.14420E-02   -0.35080E-03 11280   0.410E-01    0.104E-01
DAV:   4    -0.191407658055E+03    0.21205E-04   -0.41376E-04  8240   0.125E-01
  19 F= -.19140766E+03 E0= -.19130465E+03  d E =-.122662E-01
       N       E                     dE             d eps       ncg     rms          rms(c)
DAV:   1    -0.191321163997E+03    0.86515E-01   -0.97538E+00  8160   0.666E+00    0.785E-01
DAV:   2    -0.191387347370E+03   -0.66183E-01   -0.34555E-01 13600   0.271E+00    0.215E+00
DAV:   3    -0.191335765786E+03    0.51582E-01   -0.11741E-01 12360   0.251E+00    0.693E-01
DAV:   4    -0.191334224660E+03    0.15411E-02   -0.20236E-02 11640   0.873E-01    0.612E-01
DAV:   5    -0.191330609009E+03    0.36157E-02   -0.10548E-02 11760   0.760E-01    0.339E-01
DAV:   6    -0.191329669195E+03    0.93981E-03   -0.44384E-03 11480   0.420E-01    0.211E-01
DAV:   7    -0.191330168276E+03   -0.49908E-03   -0.37054E-03 11800   0.407E-01    0.324E-01
DAV:   8    -0.191329101480E+03    0.10668E-02   -0.20644E-03 10200   0.334E-01    0.791E-02
DAV:   9    -0.191329027180E+03    0.74300E-04   -0.21991E-04  6680   0.789E-02
  20 F= -.19132903E+03 E0= -.19122905E+03  d E =0.786309E-01
       N       E                     dE             d eps       ncg     rms          rms(c)
DAV:   1    -0.191377345579E+03   -0.48244E-01   -0.44730E+00  8160   0.448E+00    0.553E-01
DAV:   2    -0.191413416006E+03   -0.36070E-01   -0.16389E-01 13600   0.202E+00    0.175E+00
DAV:   3    -0.191383417941E+03    0.29998E-01   -0.77056E-02 12360   0.194E+00    0.477E-01
DAV:   4    -0.191382454390E+03    0.96355E-03   -0.93130E-03 11480   0.570E-01    0.407E-01
DAV:   5    -0.191381100722E+03    0.13537E-02   -0.52720E-03 11440   0.535E-01    0.270E-01
DAV:   6    -0.191380537847E+03    0.56287E-03   -0.24423E-03 11280   0.319E-01    0.165E-01
DAV:   7    -0.191380844141E+03   -0.30629E-03   -0.20653E-03 11240   0.327E-01    0.236E-01
DAV:   8    -0.191380238980E+03    0.60516E-03   -0.10431E-03  9640   0.238E-01    0.445E-02
DAV:   9    -0.191380226657E+03    0.12324E-04   -0.90401E-05  5920   0.455E-02
  21 F= -.19138023E+03 E0= -.19127748E+03  d E =-.511995E-01
       N       E                     dE             d eps       ncg     rms          rms(c)
DAV:   1    -0.191391428155E+03   -0.11189E-01   -0.19299E-01  8160   0.945E-01    0.142E-01
DAV:   2    -0.191393647275E+03   -0.22191E-02   -0.97278E-03 13280   0.555E-01    0.449E-01
DAV:   3    -0.191391559471E+03    0.20878E-02   -0.43541E-03 11560   0.470E-01    0.102E-01
DAV:   4    -0.191391632712E+03   -0.73241E-04   -0.68183E-04  8480   0.180E-01
  22 F= -.19139163E+03 E0= -.19128831E+03  d E =-.114061E-01
       N       E                     dE             d eps       ncg     rms          rms(c)
DAV:   1    -0.191436988875E+03   -0.45429E-01   -0.31115E+00  8160   0.379E+00    0.536E-01
DAV:   2    -0.191466270106E+03   -0.29281E-01   -0.13714E-01 13440   0.197E+00    0.168E+00
DAV:   3    -0.191440289864E+03    0.25980E-01   -0.69946E-02 12280   0.178E+00    0.452E-01
DAV:   4    -0.191440050148E+03    0.23972E-03   -0.10301E-02 11560   0.675E-01    0.478E-01
DAV:   5    -0.191437993534E+03    0.20566E-02   -0.66281E-03 11240   0.602E-01    0.265E-01
DAV:   6    -0.191437376617E+03    0.61692E-03   -0.27861E-03 11120   0.317E-01    0.165E-01
DAV:   7    -0.191437538304E+03   -0.16169E-03   -0.20100E-03 10880   0.320E-01    0.210E-01
DAV:   8    -0.191437049863E+03    0.48844E-03   -0.84883E-04  9000   0.213E-01    0.427E-02
DAV:   9    -0.191437028172E+03    0.21691E-04   -0.91506E-05  6160   0.463E-02
  23 F= -.19143703E+03 E0= -.19133227E+03  d E =-.453955E-01
       N       E                     dE             d eps       ncg     rms          rms(c)
DAV:   1    -0.191464321892E+03   -0.27272E-01   -0.10900E+00  8160   0.222E+00    0.254E-01
DAV:   2    -0.191469853231E+03   -0.55313E-02   -0.34948E-02 13600   0.806E-01    0.649E-01
DAV:   3    -0.191465951163E+03    0.39021E-02   -0.12918E-02 12440   0.776E-01    0.253E-01
DAV:   4    -0.191465605014E+03    0.34615E-03   -0.20492E-03 11120   0.269E-01    0.178E-01
DAV:   5    -0.191465363839E+03    0.24118E-03   -0.11828E-03 10480   0.249E-01    0.138E-01
DAV:   6    -0.191465266544E+03    0.97295E-04   -0.71775E-04  8760   0.181E-01
  24 F= -.19146527E+03 E0= -.19136065E+03  d E =-.282384E-01
       N       E                     dE             d eps       ncg     rms          rms(c)
DAV:   1    -0.191489876826E+03   -0.24513E-01   -0.88903E-01  8160   0.201E+00    0.248E-01
DAV:   2    -0.191496324213E+03   -0.64474E-02   -0.32192E-02 13320   0.807E-01    0.746E-01
DAV:   3    -0.191490990083E+03    0.53341E-02   -0.13865E-02 11200   0.791E-01    0.215E-01
DAV:   4    -0.191491137228E+03   -0.14714E-03   -0.21133E-03 11000   0.305E-01    0.235E-01
DAV:   5    -0.191490532913E+03    0.60431E-03   -0.11542E-03  9880   0.263E-01    0.830E-02
DAV:   6    -0.191490544208E+03   -0.11294E-04   -0.42544E-04  8920   0.110E-01
  25 F= -.19149054E+03 E0= -.19138657E+03  d E =-.252777E-01
       N       E                     dE             d eps       ncg     rms          rms(c)
DAV:   1    -0.191506992940E+03   -0.16460E-01   -0.34758E-01  8160   0.128E+00    0.172E-01
DAV:   2    -0.191508704185E+03   -0.17112E-02   -0.13184E-02 12800   0.525E-01    0.381E-01
DAV:   3    -0.191507320124E+03    0.13841E-02   -0.45950E-03 12280   0.482E-01    0.155E-01
DAV:   4    -0.191507193794E+03    0.12633E-03   -0.97302E-04  8920   0.206E-01    0.129E-01
DAV:   5    -0.191507072837E+03    0.12096E-03   -0.63360E-04  9360   0.186E-01    0.996E-02
DAV:   6    -0.191506996254E+03    0.76583E-04   -0.35854E-04  7760   0.127E-01
  26 F= -.19150700E+03 E0= -.19140333E+03  d E =-.164520E-01
       N       E                     dE             d eps       ncg     rms          rms(c)
DAV:   1    -0.191561524850E+03   -0.54452E-01   -0.36355E+00  8160   0.412E+00    0.518E-01
DAV:   2    -0.191579557753E+03   -0.18033E-01   -0.13243E-01 13480   0.162E+00    0.124E+00
DAV:   3    -0.191566522046E+03    0.13036E-01   -0.47238E-02 11760   0.147E+00    0.489E-01
DAV:   4    -0.191565726851E+03    0.79520E-03   -0.98286E-03 11720   0.684E-01    0.463E-01
DAV:   5    -0.191563613268E+03    0.21136E-02   -0.59226E-03 11400   0.599E-01    0.245E-01
DAV:   6    -0.191563193076E+03    0.42019E-03   -0.27200E-03 10360   0.309E-01    0.149E-01
DAV:   7    -0.191563158338E+03    0.34738E-04   -0.14795E-03 10640   0.262E-01    0.171E-01
DAV:   8    -0.191562844786E+03    0.31355E-03   -0.64648E-04  8880   0.195E-01    0.488E-02
DAV:   9    -0.191562817008E+03    0.27777E-04   -0.97397E-05  6000   0.541E-02
  27 F= -.19156282E+03 E0= -.19146141E+03  d E =-.558208E-01
       N       E                     dE             d eps       ncg     rms          rms(c)
DAV:   1    -0.191595471809E+03   -0.32627E-01   -0.13016E+00  8160   0.244E+00    0.252E-01
DAV:   2    -0.191598244398E+03   -0.27726E-02   -0.35402E-02 12320   0.595E-01    0.331E-01
DAV:   3    -0.191598256135E+03   -0.11737E-04   -0.77420E-03 12600   0.614E-01    0.364E-01
DAV:   4    -0.191597001526E+03    0.12546E-02   -0.27574E-03 11480   0.371E-01    0.128E-01
DAV:   5    -0.191596836292E+03    0.16523E-03   -0.85592E-04 10160   0.161E-01    0.108E-01
DAV:   6    -0.191597012484E+03   -0.17619E-03   -0.96826E-04  9920   0.233E-01    0.163E-01
DAV:   7    -0.191596720149E+03    0.29233E-03   -0.47203E-04  8200   0.161E-01    0.251E-02
DAV:   8    -0.191596721716E+03   -0.15675E-05   -0.55008E-05  5600   0.328E-02
  28 F= -.19159672E+03 E0= -.19149741E+03  d E =-.339047E-01
       N       E                     dE             d eps       ncg     rms          rms(c)
DAV:   1    -0.191636575512E+03   -0.39855E-01   -0.19583E+00  8160   0.300E+00    0.309E-01
DAV:   2    -0.191640247605E+03   -0.36721E-02   -0.53538E-02 12200   0.673E-01    0.335E-01
DAV:   3    -0.191641105313E+03   -0.85771E-03   -0.10169E-02 12080   0.716E-01    0.471E-01
DAV:   4    -0.191638896736E+03    0.22086E-02   -0.45207E-03 11480   0.496E-01    0.154E-01
DAV:   5    -0.191638663291E+03    0.23345E-03   -0.11950E-03 10080   0.197E-01    0.124E-01
DAV:   6    -0.191638874022E+03   -0.21073E-03   -0.12403E-03 10520   0.267E-01    0.181E-01
DAV:   7    -0.191638509245E+03    0.36478E-03   -0.64010E-04  8240   0.194E-01    0.487E-02
DAV:   8    -0.191638501033E+03    0.82115E-05   -0.10601E-04  5680   0.773E-02
  29 F= -.19163850E+03 E0= -.19154190E+03  d E =-.417793E-01
       N       E                     dE             d eps       ncg     rms          rms(c)
DAV:   1    -0.191679950166E+03   -0.41441E-01   -0.20735E+00  8160   0.311E+00    0.348E-01
DAV:   2    -0.191683413742E+03   -0.34636E-02   -0.64135E-02 12200   0.710E-01    0.288E-01
DAV:   3    -0.191684719886E+03   -0.13061E-02   -0.95903E-03 12360   0.693E-01    0.481E-01
DAV:   4    -0.191682229478E+03    0.24904E-02   -0.54225E-03 11760   0.578E-01    0.185E-01
DAV:   5    -0.191681972331E+03    0.25715E-03   -0.16224E-03 10240   0.246E-01    0.145E-01
DAV:   6    -0.191682032446E+03   -0.60115E-04   -0.12741E-03 10640   0.276E-01    0.165E-01
DAV:   7    -0.191681721238E+03    0.31121E-03   -0.59499E-04  8760   0.189E-01    0.527E-02
DAV:   8    -0.191681711198E+03    0.10040E-04   -0.13016E-04  5760   0.877E-02
  30 F= -.19168171E+03 E0= -.19158751E+03  d E =-.432102E-01
       N       E                     dE             d eps       ncg     rms          rms(c)
DAV:   1    -0.191758944421E+03   -0.77223E-01   -0.96685E+00  8160   0.667E+00    0.682E-01
DAV:   2    -0.191776294858E+03   -0.17350E-01   -0.28043E-01 12120   0.138E+00    0.487E-01
DAV:   3    -0.191780097431E+03   -0.38026E-02   -0.29177E-02 12440   0.114E+00    0.836E-01
DAV:   4    -0.191772768722E+03    0.73287E-02   -0.16949E-02 12440   0.108E+00    0.375E-01
DAV:   5    -0.191771404842E+03    0.13639E-02   -0.56680E-03 12320   0.490E-01    0.242E-01
DAV:   6    -0.191772014740E+03   -0.60990E-03   -0.44756E-03 11880   0.514E-01    0.336E-01
DAV:   7    -0.191770665156E+03    0.13496E-02   -0.21702E-03 11720   0.384E-01    0.826E-02
DAV:   8    -0.191770647268E+03    0.17888E-04   -0.33122E-04  8200   0.131E-01
  31 F= -.19177065E+03 E0= -.19168205E+03  d E =-.889361E-01
       N       E                     dE             d eps       ncg     rms          rms(c)
DAV:   1    -0.191858261525E+03   -0.87596E-01   -0.27977E+01  8160   0.114E+01    0.117E+00
DAV:   2    -0.191916334922E+03   -0.58073E-01   -0.90266E-01 11840   0.240E+00    0.750E-01
DAV:   3    -0.191920810987E+03   -0.44761E-02   -0.65890E-02 12360   0.156E+00    0.118E+00
DAV:   4    -0.191907144196E+03    0.13667E-01   -0.37293E-02 12200   0.166E+00    0.671E-01
DAV:   5    -0.191902972532E+03    0.41717E-02   -0.15948E-02 12440   0.905E-01    0.407E-01
DAV:   6    -0.191903680093E+03   -0.70756E-03   -0.12349E-02 12120   0.819E-01    0.503E-01
DAV:   7    -0.191900553658E+03    0.31264E-02   -0.50967E-03 12120   0.602E-01    0.113E-01
DAV:   8    -0.191900475983E+03    0.77675E-04   -0.63476E-04 10560   0.164E-01
  32 F= -.19190048E+03 E0= -.19181940E+03  d E =-.129829E+00
       N       E                     dE             d eps       ncg     rms          rms(c)
DAV:   1    -0.191941266236E+03   -0.40713E-01   -0.60278E+00  8160   0.522E+00    0.564E-01
DAV:   2    -0.191963072733E+03   -0.21806E-01   -0.21684E-01 11480   0.159E+00    0.849E-01
DAV:   3    -0.191957955092E+03    0.51176E-02   -0.30638E-02 12240   0.146E+00    0.616E-01
DAV:   4    -0.191954222459E+03    0.37326E-02   -0.90303E-03 12240   0.748E-01    0.291E-01
DAV:   5    -0.191953741105E+03    0.48135E-03   -0.36896E-03 11880   0.510E-01    0.258E-01
DAV:   6    -0.191953480212E+03    0.26089E-03   -0.24126E-03 12080   0.374E-01    0.162E-01
DAV:   7    -0.191953082896E+03    0.39732E-03   -0.98274E-04 10360   0.180E-01    0.701E-02
DAV:   8    -0.191953050356E+03    0.32540E-04   -0.19728E-04  7440   0.115E-01
  33 F= -.19195305E+03 E0= -.19187574E+03  d E =-.525744E-01
       N       E                     dE             d eps       ncg     rms          rms(c)
DAV:   1    -0.191983023777E+03   -0.29941E-01   -0.32910E+00  8160   0.389E+00    0.428E-01
DAV:   2    -0.191990421496E+03   -0.73977E-02   -0.11329E-01 11840   0.917E-01    0.348E-01
DAV:   3    -0.191992691976E+03   -0.22705E-02   -0.12471E-02 12280   0.881E-01    0.617E-01
DAV:   4    -0.191988538582E+03    0.41534E-02   -0.64458E-03 11920   0.714E-01    0.178E-01
DAV:   5    -0.191988204836E+03    0.33375E-03   -0.17493E-03 11280   0.216E-01    0.110E-01
DAV:   6    -0.191988183153E+03    0.21682E-04   -0.10756E-03 11080   0.197E-01    0.120E-01
DAV:   7    -0.191988029191E+03    0.15396E-03   -0.36955E-04  9280   0.174E-01    0.523E-02
DAV:   8    -0.191987997646E+03    0.31546E-04   -0.80747E-05  6400   0.684E-02
  34 F= -.19198800E+03 E0= -.19191311E+03  d E =-.349473E-01
       N       E                     dE             d eps       ncg     rms          rms(c)
DAV:   1    -0.192014019638E+03   -0.25990E-01   -0.25674E+00  8160   0.340E+00    0.360E-01
DAV:   2    -0.192021143700E+03   -0.71241E-02   -0.81306E-02 12080   0.970E-01    0.453E-01
DAV:   3    -0.192020343930E+03    0.79977E-03   -0.10152E-02 12280   0.859E-01    0.405E-01
DAV:   4    -0.192018676017E+03    0.16679E-02   -0.36146E-03 11800   0.504E-01    0.190E-01
DAV:   5    -0.192018555721E+03    0.12030E-03   -0.16656E-03 11280   0.344E-01    0.183E-01
DAV:   6    -0.192018384498E+03    0.17122E-03   -0.10503E-03 10880   0.258E-01    0.101E-01
DAV:   7    -0.192018216895E+03    0.16760E-03   -0.32829E-04  9120   0.100E-01    0.232E-02
DAV:   8    -0.192018214873E+03    0.20222E-05   -0.55142E-05  7760   0.356E-02
  35 F= -.19201821E+03 E0= -.19194583E+03  d E =-.302172E-01
       N       E                     dE             d eps       ncg     rms          rms(c)
DAV:   1    -0.192033157401E+03   -0.14941E-01   -0.77644E-01  8160   0.189E+00    0.213E-01
DAV:   2    -0.192034754231E+03   -0.15968E-02   -0.24856E-02 12240   0.486E-01    0.202E-01
DAV:   3    -0.192035106679E+03   -0.35245E-03   -0.30487E-03 12440   0.468E-01    0.283E-01
DAV:   4    -0.192034213773E+03    0.89291E-03   -0.13728E-03 11200   0.347E-01    0.986E-02
DAV:   5    -0.192034181206E+03    0.32567E-04   -0.51106E-04  9640   0.157E-01
  36 F= -.19203418E+03 E0= -.19196279E+03  d E =-.159663E-01
       N       E                     dE             d eps       ncg     rms          rms(c)
DAV:   1    -0.192059039707E+03   -0.24826E-01   -0.27772E+00  8160   0.354E+00    0.366E-01
DAV:   2    -0.192064012663E+03   -0.49730E-02   -0.77872E-02 12240   0.783E-01    0.271E-01
DAV:   3    -0.192066063917E+03   -0.20513E-02   -0.72481E-03 12400   0.733E-01    0.515E-01
DAV:   4    -0.192062982947E+03    0.30810E-02   -0.39320E-03 12240   0.602E-01    0.142E-01
DAV:   5    -0.192063310518E+03   -0.32757E-03   -0.14988E-03 10800   0.297E-01    0.202E-01
DAV:   6    -0.192062942029E+03    0.36849E-03   -0.11045E-03 11600   0.300E-01    0.984E-02
DAV:   7    -0.192062783086E+03    0.15894E-03   -0.24984E-04  7720   0.114E-01    0.216E-02
DAV:   8    -0.192062790084E+03   -0.69979E-05   -0.54927E-05  7920   0.487E-02
  37 F= -.19206279E+03 E0= -.19199354E+03  d E =-.286089E-01
       N       E                     dE             d eps       ncg     rms          rms(c)
DAV:   1    -0.192080928452E+03   -0.18145E-01   -0.15913E+00  8160   0.268E+00    0.296E-01
DAV:   2    -0.192084417470E+03   -0.34890E-02   -0.51441E-02 12000   0.758E-01    0.289E-01
DAV:   3    -0.192084455169E+03   -0.37700E-04   -0.57631E-03 12360   0.613E-01    0.309E-01
DAV:   4    -0.192083296847E+03    0.11583E-02   -0.21878E-03 12440   0.419E-01    0.136E-01
DAV:   5    -0.192083211862E+03    0.84986E-04   -0.96525E-04 10640   0.198E-01
  38 F= -.19208321E+03 E0= -.19201565E+03  d E =-.204218E-01
       N       E                     dE             d eps       ncg     rms          rms(c)
DAV:   1    -0.192097429589E+03   -0.14133E-01   -0.11282E+00  8160   0.227E+00    0.249E-01
DAV:   2    -0.192100430125E+03   -0.30005E-02   -0.34416E-02 12120   0.579E-01    0.330E-01
DAV:   3    -0.192100094949E+03    0.33518E-03   -0.48623E-03 12480   0.620E-01    0.293E-01
DAV:   4    -0.192099132049E+03    0.96290E-03   -0.12623E-03 10280   0.315E-01    0.963E-02
DAV:   5    -0.192099333524E+03   -0.20147E-03   -0.68978E-04 11480   0.241E-01    0.154E-01
DAV:   6    -0.192099077052E+03    0.25647E-03   -0.47078E-04  9440   0.189E-01    0.396E-02
DAV:   7    -0.192099060491E+03    0.16561E-04   -0.87086E-05  6760   0.637E-02
  39 F= -.19209906E+03 E0= -.19203260E+03  d E =-.158486E-01
       N       E                     dE             d eps       ncg     rms          rms(c)
DAV:   1    -0.192121447456E+03   -0.22370E-01   -0.20684E+01  8160   0.963E+00    0.983E-01
DAV:   2    -0.192162044540E+03   -0.40597E-01   -0.60804E-01 12240   0.210E+00    0.645E-01
DAV:   3    -0.192163279477E+03   -0.12349E-02   -0.45466E-02 12280   0.127E+00    0.841E-01
DAV:   4    -0.192156353208E+03    0.69263E-02   -0.20779E-02 12600   0.132E+00    0.570E-01
DAV:   5    -0.192153147681E+03    0.32055E-02   -0.12323E-02 12680   0.814E-01    0.325E-01
DAV:   6    -0.192153998346E+03   -0.85067E-03   -0.69435E-03 12800   0.641E-01    0.410E-01
DAV:   7    -0.192151880109E+03    0.21182E-02   -0.29587E-03 11880   0.496E-01    0.807E-02
DAV:   8    -0.192151820336E+03    0.59773E-04   -0.35315E-04 10040   0.105E-01
  40 F= -.19215182E+03 E0= -.19208895E+03  d E =-.527598E-01
       N       E                     dE             d eps       ncg     rms          rms(c)
DAV:   1    -0.192159447382E+03   -0.75673E-02   -0.13207E+00  8160   0.243E+00    0.282E-01
DAV:   2    -0.192164189404E+03   -0.47420E-02   -0.51597E-02 12600   0.824E-01    0.406E-01
DAV:   3    -0.192163254532E+03    0.93487E-03   -0.65219E-03 11880   0.717E-01    0.314E-01
DAV:   4    -0.192162175738E+03    0.10788E-02   -0.20601E-03 11280   0.381E-01    0.126E-01
DAV:   5    -0.192162179236E+03   -0.34971E-05   -0.87213E-04 11360   0.232E-01
  41 F= -.19216218E+03 E0= -.19209995E+03  d E =-.103589E-01
       N       E                     dE             d eps       ncg     rms          rms(c)
DAV:   1    -0.192167705858E+03   -0.55301E-02   -0.76619E-01  8160   0.186E+00    0.219E-01
DAV:   2    -0.192169656385E+03   -0.19505E-02   -0.24814E-02 12680   0.578E-01    0.288E-01
DAV:   3    -0.192169174108E+03    0.48228E-03   -0.35540E-03 12360   0.520E-01    0.220E-01
DAV:   4    -0.192168623604E+03    0.55050E-03   -0.10712E-03 10480   0.280E-01    0.108E-01
DAV:   5    -0.192168698180E+03   -0.74576E-04   -0.69075E-04 11600   0.231E-01
  42 F= -.19216870E+03 E0= -.19210695E+03  d E =-.651894E-02
       N       E                     dE             d eps       ncg     rms          rms(c)
DAV:   1    -0.192173222104E+03   -0.45985E-02   -0.67820E-01  8160   0.175E+00    0.196E-01
DAV:   2    -0.192175445847E+03   -0.22237E-02   -0.22894E-02 12800   0.548E-01    0.288E-01
DAV:   3    -0.192174832910E+03    0.61294E-03   -0.36855E-03 12360   0.513E-01    0.214E-01
DAV:   4    -0.192174376902E+03    0.45601E-03   -0.11262E-03 10600   0.264E-01    0.905E-02
DAV:   5    -0.192174253131E+03    0.12377E-03   -0.41009E-04  9880   0.965E-02    0.464E-02
DAV:   6    -0.192174345002E+03   -0.91870E-04   -0.25301E-04  8600   0.126E-01
  43 F= -.19217435E+03 E0= -.19211286E+03  d E =-.564682E-02
       N       E                     dE             d eps       ncg     rms          rms(c)
DAV:   1    -0.192178562609E+03   -0.43095E-02   -0.15037E+00  8160   0.259E+00    0.277E-01
DAV:   2    -0.192182879218E+03   -0.43166E-02   -0.53517E-02 12320   0.746E-01    0.298E-01
DAV:   3    -0.192183042621E+03   -0.16340E-03   -0.61408E-03 12600   0.653E-01    0.351E-01
DAV:   4    -0.192181693883E+03    0.13487E-02   -0.21184E-03 12560   0.428E-01    0.124E-01
DAV:   5    -0.192181527791E+03    0.16609E-03   -0.68962E-04 10600   0.155E-01    0.813E-02
DAV:   6    -0.192181685060E+03   -0.15727E-03   -0.56944E-04 11560   0.199E-01    0.127E-01
DAV:   7    -0.192181478756E+03    0.20630E-03   -0.28795E-04  9000   0.150E-01    0.269E-02
DAV:   8    -0.192181481202E+03   -0.24461E-05   -0.37202E-05  6240   0.508E-02
  44 F= -.19218148E+03 E0= -.19212023E+03  d E =-.713620E-02
       N       E                     dE             d eps       ncg     rms          rms(c)
DAV:   1    -0.192180105075E+03    0.13737E-02   -0.55485E+00  8160   0.497E+00    0.522E-01
DAV:   2    -0.192195562039E+03   -0.15457E-01   -0.18611E-01 12400   0.143E+00    0.603E-01
DAV:   3    -0.192195642520E+03   -0.80481E-04   -0.23223E-02 12480   0.130E+00    0.655E-01
DAV:   4    -0.192190611472E+03    0.50310E-02   -0.82494E-03 12640   0.776E-01    0.208E-01
DAV:   5    -0.192190076819E+03    0.53465E-03   -0.27868E-03 11320   0.256E-01    0.145E-01
DAV:   6    -0.192190471290E+03   -0.39447E-03   -0.19623E-03 12200   0.341E-01    0.228E-01
DAV:   7    -0.192189857338E+03    0.61395E-03   -0.92028E-04 11240   0.278E-01    0.549E-02
DAV:   8    -0.192189832828E+03    0.24511E-04   -0.87107E-05  6440   0.752E-02
  45 F= -.19218983E+03 E0= -.19212890E+03  d E =-.835163E-02
       N       E                     dE             d eps       ncg     rms          rms(c)
DAV:   1    -0.192190492524E+03   -0.63519E-03   -0.19956E-01  8160   0.948E-01    0.114E-01
DAV:   2    -0.192191390886E+03   -0.89836E-03   -0.88143E-03 11840   0.334E-01    0.180E-01
DAV:   3    -0.192191157536E+03    0.23335E-03   -0.13375E-03 11720   0.316E-01    0.122E-01
DAV:   4    -0.192190985761E+03    0.17177E-03   -0.26553E-04  8840   0.135E-01    0.420E-02
DAV:   5    -0.192190997848E+03   -0.12086E-04   -0.99851E-05  6720   0.876E-02
  46 F= -.19219100E+03 E0= -.19213014E+03  d E =-.116502E-02
       N       E                     dE             d eps       ncg     rms          rms(c)
DAV:   1    -0.192191531705E+03   -0.54594E-03   -0.12994E-01  8160   0.768E-01    0.920E-02
DAV:   2    -0.192192116239E+03   -0.58453E-03   -0.55790E-03 11840   0.276E-01    0.151E-01
DAV:   3    -0.192191922220E+03    0.19402E-03   -0.84056E-04 11360   0.252E-01    0.906E-02
DAV:   4    -0.192191819192E+03    0.10303E-03   -0.10581E-04  6240   0.963E-02    0.315E-02
DAV:   5    -0.192191849896E+03   -0.30705E-04   -0.88872E-05  6880   0.824E-02
  47 F= -.19219185E+03 E0= -.19213108E+03  d E =-.852049E-03
