unknown system                          
           1
     8.856791    5.104458    0.000000
    -8.856755    5.104397    0.000000
     0.000000    0.000000   30.000000
   V    Mo   W    S 
   3   3   3  18
Direct configuration=     1
   1.00000000  0.33333334  0.00000000
   0.33333334  0.33333334  0.00000000
   0.66666669  0.00000000  0.00000000
   0.33333334  0.00000000  0.00000000
   0.66666669  0.33333334  0.00000000
   0.33333334  0.66666669  0.00000000
   0.00000000  0.00000000  0.00000000
   0.00000000  0.66666669  0.00000000
   0.66666669  0.66666669  0.00000000
   0.11068511  0.22244981  0.95539999
   0.22244981  0.11068511  0.04460000
   0.11068511  0.55578315  0.95539999
   0.22244981  0.44401845  0.04460000
   0.11068511  0.88911647  0.95539999
   0.22244981  0.77735180  0.04460000
   0.44401845  0.22244981  0.95539999
   0.55578315  0.11068511  0.04460000
   0.44401845  0.55578315  0.95539999
   0.55578315  0.44401845  0.04460000
   0.44401845  0.88911647  0.95539999
   0.55578315  0.77735180  0.04460000
   0.77735180  0.22244981  0.95539999
   0.88911647  0.11068511  0.04460000
   0.77735180  0.55578315  0.95539999
   0.88911647  0.44401845  0.04460000
   0.77735180  0.88911647  0.95539999
   0.88911647  0.77735180  0.04460000
unknown system                          
           1
     8.668120    4.998173    0.000000
    -8.667946    4.997873    0.000000
     0.000000    0.000000   30.000000
   V    Mo   W    S 
   3   3   3  18
Direct configuration=     2
   1.00002458  0.33408682  0.00004006
   0.33413241  0.33337147  0.00020000
   0.66469417  0.00048688 -0.00017974
   0.33472424 -0.00006222 -0.00022757
   0.66536816  0.33173370 -0.00013336
   0.33321430  0.66775631  0.00009932
   0.00141460  0.00065786  0.00004911
   0.00161839  0.66641771 -0.00000983
   0.66488408  0.66521526  0.00019568
   0.11250223  0.22560028  0.95312008
   0.22338406  0.11520816  0.04806119
   0.10833165  0.55145102  0.95188881
   0.22020275  0.43990027  0.04684998
   0.11025887  0.88833656  0.95070589
   0.22106612  0.77714946  0.04924827
   0.44195200  0.22444744  0.95201715
   0.55791469  0.10869645  0.04804003
   0.44305255  0.55145920  0.95194261
   0.55131469  0.44311734  0.04813531
   0.44892873  0.89113352  0.95185610
   0.55816667  0.78167334  0.04804573
   0.77973908  0.21982800  0.95303520
   0.88706442  0.11272301  0.04690819
   0.77830004  0.55633366  0.95080338
   0.89167078  0.44297879  0.04799633
   0.77565735  0.89091796  0.95200426
   0.88863285  0.77759620  0.04930773
unknown system                          
           1
     8.487049    4.899496    0.000000
    -8.487329    4.899983    0.000000
     0.000000    0.000000   30.000000
   V    Mo   W    S 
   3   3   3  18
Direct configuration=     3
   1.00003439  0.33440981  0.00009043
   0.33454083  0.33346062  0.00022233
   0.66401156  0.00056871 -0.00020379
   0.33488068 -0.00035673 -0.00025390
   0.66491883  0.33149982 -0.00018282
   0.33310766  0.66831353  0.00014332
   0.00177204  0.00037147  0.00005554
   0.00216868  0.66667340 -0.00000534
   0.66456610  0.66473645  0.00016717
   0.11245095  0.22543403  0.95320133
   0.22325802  0.11522521  0.04805247
   0.10815179  0.55144273  0.95185632
   0.22012803  0.43982643  0.04678649
   0.11004648  0.88823981  0.95067946
   0.22085192  0.77706801  0.04933030
   0.44187488  0.22450108  0.95196546
   0.55798746  0.10865282  0.04811293
   0.44318476  0.55145035  0.95198105
   0.55126213  0.44323036  0.04819446
   0.44910448  0.89124647  0.95173854
   0.55838690  0.78169531  0.04802871
   0.77976156  0.21977647  0.95306095
   0.88716781  0.11262957  0.04676895
   0.77840884  0.55660921  0.95086469
   0.89180592  0.44313583  0.04797668
   0.77574510  0.89083954  0.95211931
   0.88863668  0.77753415  0.04924886
unknown system                          
           1
     8.270106    4.773419    0.000000
    -8.270049    4.773323    0.000000
     0.000000    0.000000   30.000000
   V    Mo   W    S 
   3   3   3  18
Direct configuration=     4
   1.00011606  0.33585762  0.00025934
   0.33642748  0.33391128  0.00022406
   0.66128539  0.00047416 -0.00020619
   0.33470689 -0.00213674 -0.00024472
   0.66328435  0.33121322 -0.00028084
   0.33262494  0.67070983  0.00023767
   0.00281125 -0.00166094  0.00006630
   0.00421190  0.66834807  0.00001047
   0.66403791  0.66310085 -0.00001314
   0.11303892  0.22639231  0.95218432
   0.22409737  0.11634964  0.04948078
   0.10764780  0.55024571  0.95026327
   0.21951946  0.43888866  0.04783351
   0.11009708  0.88824238  0.94891437
   0.22093989  0.77731772  0.05127317
   0.44106563  0.22499303  0.95033366
   0.55860695  0.10812247  0.04979255
   0.44233177  0.55032087  0.95070205
   0.54994577  0.44238793  0.04993966
   0.45050083  0.89196766  0.94981631
   0.55920588  0.78301057  0.04940613
   0.78032212  0.21921559  0.95183868
   0.88670865  0.11297576  0.04754112
   0.77854786  0.55692696  0.94951138
   0.89215674  0.44252189  0.04932398
   0.77535735  0.89130964  0.95111671
   0.88861819  0.77720830  0.05067529
unknown system                          
           1
     8.267764    4.769534    0.000000
    -8.270707    4.774634    0.000000
     0.000000    0.000000   30.000000
   V    Mo   W    S 
   3   3   3  18
Direct configuration=     5
   1.00025789  0.33875846  0.00046546
   0.34065910  0.33492566  0.00004668
   0.65595701  0.00029317 -0.00002197
   0.33318817 -0.00660157 -0.00011240
   0.65976371  0.33108107 -0.00031788
   0.33127016  0.67573261  0.00021596
   0.00507205 -0.00588958  0.00012273
   0.00884886  0.67287291  0.00003029
   0.66344673  0.65947633 -0.00027137
   0.11377530  0.22715295  0.95099356
   0.22548186  0.11727590  0.05140649
   0.10763957  0.54928350  0.94807585
   0.21936625  0.43876088  0.04933963
   0.11119671  0.88827112  0.94619268
   0.22156916  0.77801976  0.05420734
   0.44003330  0.22488285  0.94806483
   0.55897293  0.10778369  0.05204372
   0.44073794  0.54933514  0.94916127
   0.54845858  0.44119409  0.05253384
   0.45165733  0.89268137  0.94687029
   0.55972679  0.78436002  0.05113495
   0.78062372  0.21879335  0.95001756
   0.88613835  0.11301700  0.04838092
   0.77896971  0.55664456  0.94772503
   0.89206385  0.44193484  0.05102091
   0.77491407  0.89188270  0.94996007
   0.88842536  0.77629168  0.05271347
unknown system                          
           1
     8.267515    4.768793    0.000000
    -8.270830    4.774539    0.000000
     0.000000    0.000000   30.000000
   V    Mo   W    S 
   3   3   3  18
Direct configuration=     6
   1.00018506  0.33961645  0.00051682
   0.34218884  0.33526642 -0.00000080
   0.65447748  0.00072927 -0.00003365
   0.33204388 -0.00796467 -0.00013242
   0.65867747  0.33121700 -0.00034331
   0.33054750  0.67679991  0.00017641
   0.00607955 -0.00708336  0.00012749
   0.01039557  0.67475510  0.00007217
   0.66376557  0.65803007 -0.00024989
   0.11385238  0.22673741  0.95116362
   0.22566937  0.11682309  0.05147573
   0.10791808  0.54991690  0.94793128
   0.22005184  0.43971419  0.04924988
   0.11188996  0.88823573  0.94575570
   0.22174445  0.77814162  0.05463319
   0.43985365  0.22412951  0.94794987
   0.55845089  0.10792374  0.05220649
   0.44041644  0.54986522  0.94925466
   0.54853522  0.44116074  0.05283350
   0.45122194  0.89268475  0.94658915
   0.55934815  0.78393091  0.05098920
   0.78016179  0.21895801  0.94997108
   0.88615378  0.11244422  0.04810066
   0.77949277  0.55628204  0.94767442
   0.89179169  0.44252707  0.05094346
   0.77497977  0.89169956  0.95021635
   0.88832139  0.77567358  0.05292883
unknown system                          
           1
     8.266191    4.768458    0.000000
    -8.269292    4.773831    0.000000
     0.000000    0.000000   30.000000
   V    Mo   W    S 
   3   3   3  18
Direct configuration=     7
   1.00009745  0.34020795  0.00057689
   0.34322007  0.33552485 -0.00003676
   0.65351705  0.00128040 -0.00002317
   0.33132138 -0.00883221 -0.00010298
   0.65786733  0.33119357 -0.00034260
   0.32989670  0.67749511  0.00017192
   0.00683949 -0.00793804  0.00012301
   0.01146493  0.67604282  0.00009907
   0.66404598  0.65689231 -0.00027736
   0.11389870  0.22649791  0.95131179
   0.22576438  0.11662757  0.05151864
   0.10799779  0.55021765  0.94785423
   0.22040040  0.44014225  0.04913930
   0.11218715  0.88818844  0.94548977
   0.22182242  0.77822962  0.05486245
   0.43970412  0.22375156  0.94788223
   0.55815093  0.10797653  0.05226830
   0.44033368  0.55012052  0.94936259
   0.54854079  0.44110000  0.05302364
   0.45102205  0.89271449  0.94643123
   0.55925466  0.78373907  0.05082988
   0.77991083  0.21900464  0.94996025
   0.88615802  0.11210884  0.04786309
   0.77982268  0.55611082  0.94766506
   0.89166349  0.44287280  0.05086344
   0.77500062  0.89154635  0.95043780
   0.88831134  0.77539865  0.05304820
unknown system                          
           1
     8.266567    4.769289    0.000000
    -8.270280    4.775725    0.000000
     0.000000    0.000000   30.000000
   V    Mo   W    S 
   3   3   3  18
Direct configuration=     8
   1.00013375  0.34001676  0.00055886
   0.34294446  0.33545951 -0.00002792
   0.65375679  0.00105217 -0.00001827
   0.33147077 -0.00866676 -0.00010073
   0.65811019  0.33123945 -0.00033614
   0.33012075  0.67734938  0.00017728
   0.00661638 -0.00772284  0.00012295
   0.01120980  0.67574964  0.00009360
   0.66393681  0.65725062 -0.00027473
   0.11388673  0.22654113  0.95126757
   0.22575370  0.11664734  0.05150082
   0.10799660  0.55016910  0.94787275
   0.22033839  0.44008006  0.04917431
   0.11212368  0.88819925  0.94555897
   0.22182179  0.77821427  0.05479923
   0.43974752  0.22382074  0.94789960
   0.55822311  0.10796661  0.05224060
   0.44033670  0.55006785  0.94932795
   0.54855282  0.44112760  0.05297229
   0.45106086  0.89270731  0.94646074
   0.55924519  0.78377339  0.05089060
   0.77995429  0.21900228  0.94996412
   0.88615585  0.11218609  0.04793323
   0.77972603  0.55616452  0.94767236
   0.89168825  0.44279319  0.05088271
   0.77499895  0.89158176  0.95036895
   0.88830431  0.77544402  0.05301818
unknown system                          
           1
     8.264718    4.767490    0.000000
    -8.268536    4.774107    0.000000
     0.000000    0.000000   30.000000
   V    Mo   W    S 
   3   3   3  18
Direct configuration=     9
   1.00035926  0.33909063  0.00047730
   0.34275554  0.33553892 -0.00001136
   0.65394046 -0.00016850 -0.00001804
   0.33166832 -0.00855312 -0.00014003
   0.65818235  0.33146043 -0.00033416
   0.33136854  0.67746748  0.00013519
   0.00620056 -0.00725814  0.00013816
   0.01084398  0.67560257  0.00007122
   0.66302720  0.65792231 -0.00028554
   0.11411278  0.22663300  0.95112842
   0.22590279  0.11676783  0.05145089
   0.10810879  0.55031001  0.94788975
   0.22055113  0.44016365  0.04927086
   0.11213035  0.88821468  0.94558116
   0.22183422  0.77811000  0.05482389
   0.43973519  0.22386971  0.94795360
   0.55834968  0.10791809  0.05219106
   0.44005425  0.54983532  0.94921357
   0.54839254  0.44118647  0.05290872
   0.45119025  0.89276769  0.94645429
   0.55904750  0.78386598  0.05117926
   0.77985411  0.21896807  0.94999610
   0.88597570  0.11214735  0.04815196
   0.77966094  0.55641048  0.94769165
   0.89176537  0.44283148  0.05092859
   0.77497556  0.89175604  0.95013951
   0.88822712  0.77535600  0.05301388
unknown system                          
           1
     8.266480    4.768063    0.000000
    -8.270441    4.774928    0.000000
     0.000000    0.000000   30.000000
   V    Mo   W    S 
   3   3   3  18
Direct configuration=    10
   1.00027055  0.33962340  0.00059024
   0.34397692  0.33593826 -0.00002453
   0.65283129  0.00035032 -0.00001274
   0.33060872 -0.00982593 -0.00006451
   0.65723128  0.33147692 -0.00032689
   0.33065407  0.67837890  0.00017807
   0.00719926 -0.00819877  0.00014878
   0.01248868  0.67725480  0.00013580
   0.66303605  0.65659631 -0.00030573
   0.11416461  0.22633226  0.95131027
   0.22597770  0.11651101  0.05146995
   0.10817724  0.55062825  0.94790103
   0.22089243  0.44059753  0.04906660
   0.11243389  0.88822495  0.94529141
   0.22192862  0.77817422  0.05500589
   0.43952495  0.22341707  0.94786574
   0.55798318  0.10798630  0.05221874
   0.43995199  0.55008781  0.94928604
   0.54837889  0.44121273  0.05314252
   0.45102307  0.89286541  0.94625243
   0.55902074  0.78367066  0.05102564
   0.77957732  0.21902164  0.95007216
   0.88600493  0.11174508  0.04782368
   0.78002846  0.55631877  0.94776572
   0.89169585  0.44319835  0.05069531
   0.77504752  0.89154441  0.95043451
   0.88810626  0.77508379  0.05305376
unknown system                          
           1
     8.253269    4.762733    0.000000
    -8.259375    4.773318    0.000000
     0.000000    0.000000   30.000000
   V    Mo   W    S 
   3   3   3  18
Direct configuration=    11
   1.00019136  0.33997785  0.00061027
   0.34420336  0.33594929 -0.00004270
   0.65262852  0.00080457 -0.00001682
   0.33052085 -0.00989231 -0.00007402
   0.65703701  0.33137945 -0.00033618
   0.33023453  0.67842474  0.00016753
   0.00742443 -0.00844478  0.00014129
   0.01265697  0.67744716  0.00013320
   0.66335364  0.65619213 -0.00030795
   0.11412445  0.22629154  0.95136813
   0.22595690  0.11648386  0.05150215
   0.10815802  0.55063267  0.94786559
   0.22089839  0.44062468  0.04903838
   0.11248045  0.88820165  0.94523678
   0.22192305  0.77821238  0.05506751
   0.43950485  0.22336908  0.94784688
   0.55791226  0.10799984  0.05225955
   0.44001477  0.55018020  0.94934609
   0.54840801  0.44116108  0.05318940
   0.45095568  0.89284227  0.94624321
   0.55906108  0.78362825  0.05091386
   0.77957061  0.21902685  0.95004467
   0.88603795  0.11170104  0.04773934
   0.78011629  0.55621126  0.94774141
   0.89164612  0.44325089  0.05070293
   0.77504349  0.89149165  0.95052525
   0.88815142  0.77506717  0.05309414
unknown system                          
           1
     8.270389    4.770811    0.000000
    -8.275740    4.780085    0.000000
     0.000000    0.000000   30.000000
   V    Mo   W    S 
   3   3   3  18
Direct configuration=    12
   1.00061760  0.33789516  0.00052062
   0.34419525  0.33650389 -0.00004291
   0.65253157 -0.00181517 -0.00001834
   0.33021960 -0.01067964 -0.00018181
   0.65687082  0.33196256 -0.00035354
   0.33280833  0.67923779  0.00006583
   0.00703115 -0.00771858  0.00015325
   0.01329146  0.67804218  0.00005677
   0.66087225  0.65714143 -0.00035501
   0.11444605  0.22628605  0.95109693
   0.22613388  0.11649806  0.05144451
   0.10849001  0.55094674  0.94803122
   0.22130542  0.44084877  0.04915359
   0.11244715  0.88840530  0.94525922
   0.22211924  0.77803320  0.05516739
   0.43941427  0.22335010  0.94791526
   0.55805828  0.10789123  0.05213970
   0.43952251  0.54985802  0.94904270
   0.54821268  0.44153433  0.05321425
   0.45117275  0.89299754  0.94617981
   0.55884743  0.78383767  0.05151360
   0.77935357  0.21889783  0.95021250
   0.88572075  0.11143407  0.04804603
   0.77994001  0.55694720  0.94797322
   0.89176122  0.44326738  0.05060952
   0.77511640  0.89167588  0.95020955
   0.88771480  0.77493543  0.05294605
unknown system                          
           1
     8.267682    4.769111    0.000000
    -8.273333    4.778904    0.000000
     0.000000    0.000000   30.000000
   V    Mo   W    S 
   3   3   3  18
Direct configuration=    13
   1.00024586  0.33925288  0.00069030
   0.34543898  0.33671891 -0.00005745
   0.65149581  0.00015995 -0.00000473
   0.32936672 -0.01141510 -0.00005720
   0.65578329  0.33155779 -0.00033271
   0.33099752  0.67964474  0.00015077
   0.00842811 -0.00875936  0.00019065
   0.01475042  0.67939122  0.00017647
   0.66166355  0.65510025 -0.00031394
   0.11434153  0.22605054  0.95136126
   0.22613094  0.11628320  0.05152618
   0.10839836  0.55103825  0.94791924
   0.22142079  0.44110174  0.04892972
   0.11275351  0.88830570  0.94487429
   0.22213281  0.77816326  0.05537840
   0.43920849  0.22293473  0.94776914
   0.55761731  0.10798602  0.05224746
   0.43961061  0.55024787  0.94919688
   0.54827220  0.44134748  0.05346361
   0.45092447  0.89300432  0.94598256
   0.55899987  0.78364195  0.05108096
   0.77921427  0.21896223  0.95017163
   0.88584394  0.11111589  0.04759006
   0.78054349  0.55655992  0.94792456
   0.89164126  0.44367916  0.05044953
   0.77511298  0.89140847  0.95064977
   0.88787737  0.77473243  0.05304246
unknown system                          
           1
     8.270908    4.770211    0.000000
    -8.276495    4.779892    0.000000
     0.000000    0.000000   30.000000
   V    Mo   W    S 
   3   3   3  18
Direct configuration=    14
   1.00016691  0.33944902  0.00074768
   0.34617014  0.33701076 -0.00009371
   0.65085034  0.00060677 -0.00002966
   0.32887894 -0.01196768 -0.00008137
   0.65499196  0.33141309 -0.00036396
   0.33074416  0.68007177  0.00012640
   0.00919222 -0.00906093  0.00017530
   0.01577275  0.68030331  0.00017219
   0.66127130  0.65406020 -0.00034884
   0.11437889  0.22591517  0.95146413
   0.22617684  0.11620072  0.05154905
   0.10845174  0.55119814  0.94793400
   0.22160895  0.44128025  0.04882535
   0.11289577  0.88829306  0.94473776
   0.22221125  0.77819405  0.05553404
   0.43908553  0.22274602  0.94775830
   0.55741627  0.10801533  0.05227844
   0.43956651  0.55035853  0.94925292
   0.54823249  0.44131642  0.05358814
   0.45081919  0.89303189  0.94593339
   0.55904814  0.78361237  0.05097061
   0.77905993  0.21895853  0.95021402
   0.88582145  0.11084026  0.04740675
   0.78080827  0.55654659  0.94802321
   0.89157749  0.44392311  0.05033125
   0.77514290  0.89130028  0.95086877
   0.88787411  0.77459742  0.05302574
unknown system                          
           1
     8.265929    4.768504    0.000000
    -8.271958    4.778952    0.000000
     0.000000    0.000000   30.000000
   V    Mo   W    S 
   3   3   3  18
Direct configuration=    15
   0.99996881  0.34024287  0.00083677
   0.34709836  0.33720603 -0.00014187
   0.65004528  0.00181575 -0.00006351
   0.32841594 -0.01238591 -0.00009259
   0.65400671  0.33107346 -0.00039699
   0.32982727  0.68040703  0.00011282
   0.01023814 -0.00962315  0.00015301
   0.01682680  0.68126138  0.00018202
   0.66142236  0.65249721 -0.00037842
   0.11436132  0.22575914  0.95165069
   0.22620684  0.11611675  0.05161645
   0.10844932  0.55133000  0.94788670
   0.22177044  0.44146547  0.04867986
   0.11310612  0.88822629  0.94453737
   0.22227346  0.77828932  0.05573419
   0.43893018  0.22250196  0.94770477
   0.55712852  0.10808075  0.05237523
   0.43960596  0.55057234  0.94939212
   0.54821426  0.44116661  0.05376060
   0.45061583  0.89301441  0.94587666
   0.55916512  0.78352721  0.05068446
   0.77891148  0.21898967  0.95020251
   0.88586689  0.11054802  0.04710809
   0.78118972  0.55631908  0.94806791
   0.89144613  0.44422963  0.05023072
   0.77514916  0.89112713  0.95121931
   0.88797400  0.77445598  0.05306104
unknown system                          
           1
     8.282317    4.775916    0.000000
    -8.287575    4.785024    0.000000
     0.000000    0.000000   30.000000
   V    Mo   W    S 
   3   3   3  18
Direct configuration=    16
   1.00008400  0.33949287  0.00078716
   0.34664734  0.33725077 -0.00012527
   0.65042948  0.00095995 -0.00003929
   0.32849546 -0.01237699 -0.00011160
   0.65454732  0.33139671 -0.00038588
   0.33057209  0.68034044  0.00010456
   0.00966732 -0.00935035  0.00015844
   0.01642284  0.68097949  0.00016318
   0.66107015  0.65337942 -0.00037825
   0.11438050  0.22580769  0.95152093
   0.22618893  0.11610141  0.05158192
   0.10848719  0.55131858  0.94794393
   0.22172563  0.44143164  0.04876914
   0.11298358  0.88828777  0.94463399
   0.22225495  0.77818982  0.05566400
   0.43902698  0.22260575  0.94774127
   0.55727733  0.10802894  0.05230595
   0.43953829  0.55046900  0.94927780
   0.54824407  0.44131122  0.05368865
   0.45072611  0.89304575  0.94588955
   0.55906772  0.78356607  0.05091060
   0.77896152  0.21897049  0.95023236
   0.88581098  0.11064453  0.04729397
   0.78099864  0.55654742  0.94809010
   0.89153688  0.44410229  0.05025215
   0.77518616  0.89121701  0.95100256
   0.88788300  0.77449675  0.05302801
unknown system                          
           1
     8.282823    4.775503    0.000000
    -8.287406    4.783438    0.000000
     0.000000    0.000000   30.000000
   V    Mo   W    S 
   3   3   3  18
Direct configuration=    17
   0.99981325  0.34083334  0.00093817
   0.34801184  0.33743692 -0.00015980
   0.64929450  0.00285466 -0.00008841
   0.32794862 -0.01279570 -0.00004477
   0.65291313  0.33069877 -0.00039885
   0.32914081  0.68074151  0.00013886
   0.01136669 -0.00994225  0.00016737
   0.01801821  0.68220001  0.00024015
   0.66115308  0.65093159 -0.00036903
   0.11440366  0.22565194  0.95178897
   0.22630107  0.11608447  0.05167840
   0.10846497  0.55144573  0.94782503
   0.22196811  0.44163800  0.04854444
   0.11334680  0.88818080  0.94427258
   0.22238437  0.77838733  0.05591887
   0.43870222  0.22223936  0.94761327
   0.55682636  0.10814726  0.05247089
   0.43953249  0.55071387  0.94944974
   0.54811961  0.44101673  0.05394627
   0.45045396  0.89301322  0.94576538
   0.55929264  0.78349772  0.05045722
   0.77875689  0.21901749  0.95018666
   0.88587110  0.11022918  0.04684135
   0.78162356  0.55614949  0.94810217
   0.89133883  0.44455436  0.05011138
   0.77512783  0.89098518  0.95153796
   0.88803985  0.77430348  0.05306563
unknown system                          
           1
     8.285457    4.776277    0.000000
    -8.289457    4.783202    0.000000
     0.000000    0.000000   30.000000
   V    Mo   W    S 
   3   3   3  18
Direct configuration=    18
   0.99968448  0.34158105  0.00100900
   0.34867567  0.33746755 -0.00019565
   0.64869311  0.00379432 -0.00014259
   0.32773329 -0.01295816 -0.00004759
   0.65201641  0.33030201 -0.00043345
   0.32845421  0.68095963  0.00013166
   0.01228985 -0.01017545  0.00014708
   0.01888262  0.68279749  0.00024009
   0.66111810  0.64964216 -0.00039658
   0.11439626  0.22554629  0.95194692
   0.22634577  0.11607072  0.05172590
   0.10847655  0.55153603  0.94779471
   0.22207985  0.44175185  0.04841769
   0.11351517  0.88810163  0.94416019
   0.22247452  0.77850798  0.05604166
   0.43854758  0.22205772  0.94757104
   0.55661511  0.10822695  0.05255317
   0.43956789  0.55084572  0.94956414
   0.54805729  0.44086116  0.05407285
   0.45028736  0.89297940  0.94575039
   0.55943691  0.78347781  0.05020674
   0.77861868  0.21904177  0.95019002
   0.88592567  0.11001257  0.04658983
   0.78188528  0.55594005  0.94816672
   0.89121351  0.44478288  0.05002797
   0.77509164  0.89084579  0.95186298
   0.88813168  0.77421754  0.05304503
unknown system                          
           1
     8.289045    4.778946    0.000000
    -8.293518    4.786692    0.000000
     0.000000    0.000000   30.000000
   V    Mo   W    S 
   3   3   3  18
Direct configuration=    19
   0.99957235  0.34226639  0.00106445
   0.34917440  0.33743765 -0.00021980
   0.64822989  0.00457883 -0.00018247
   0.32762677 -0.01300861 -0.00004164
   0.65133632  0.32996548 -0.00045497
   0.32785197  0.68110209  0.00013160
   0.01299173 -0.01037363  0.00013539
   0.01947619  0.68319125  0.00024645
   0.66121293  0.64864467 -0.00041059
   0.11438252  0.22547215  0.95207525
   0.22637753  0.11607181  0.05177132
   0.10847794  0.55158868  0.94775191
   0.22215697  0.44183359  0.04831823
   0.11365049  0.88803374  0.94406473
   0.22253932  0.77861521  0.05613652
   0.43842156  0.22191524  0.94752486
   0.55645696  0.10829186  0.05262712
   0.43960557  0.55095328  0.94966244
   0.54801014  0.44072259  0.05417268
   0.45015498  0.89294622  0.94573269
   0.55955747  0.78346005  0.04999334
   0.77851786  0.21906116  0.95017852
   0.88597778  0.10986122  0.04638665
   0.78208687  0.55573882  0.94819479
   0.89110291  0.44494974  0.04997909
   0.77505122  0.89073884  0.95211912
   0.88821381  0.77415614  0.05304221
unknown system                          
           1
     8.305407    4.785246    0.000000
    -8.308816    4.791141    0.000000
     0.000000    0.000000   30.000000
   V    Mo   W    S 
   3   3   3  18
Direct configuration=    20
   0.99960011  0.34147476  0.00104200
   0.34888755  0.33759162 -0.00021032
   0.64849774  0.00411882 -0.00013794
   0.32776330 -0.01297937 -0.00005718
   0.65174656  0.33011323 -0.00043925
   0.32848497  0.68107630  0.00013262
   0.01252093 -0.01018590  0.00013911
   0.01910162  0.68300748  0.00024050
   0.66088177  0.64927216 -0.00041751
   0.11443905  0.22554196  0.95196585
   0.22636230  0.11606170  0.05173413
   0.10847029  0.55155336  0.94779997
   0.22211038  0.44175051  0.04838736
   0.11353915  0.88811437  0.94411734
   0.22249648  0.77850507  0.05609224
   0.43851255  0.22203425  0.94757456
   0.55657491  0.10819589  0.05255168
   0.43953804  0.55082407  0.94956406
   0.54803431  0.44084868  0.05410826
   0.45031290  0.89302371  0.94574604
   0.55948533  0.78352706  0.05017831
   0.77856428  0.21899663  0.95020591
   0.88586077  0.10991943  0.04654174
   0.78196131  0.55595026  0.94820545
   0.89121843  0.44483810  0.04997435
   0.77509805  0.89083729  0.95192585
   0.88815137  0.77420298  0.05303476
unknown system                          
           1
     8.305676    4.785038    0.000000
    -8.306810    4.786983    0.000000
     0.000000    0.000000   30.000000
   V    Mo   W    S 
   3   3   3  18
Direct configuration=    21
   0.99926748  0.34245282  0.00119784
   0.35023420  0.33767300 -0.00022742
   0.64726806  0.00600573 -0.00026339
   0.32765417 -0.01312306  0.00000487
   0.64959601  0.32893092 -0.00046262
   0.32756594  0.68172132  0.00018057
   0.01447104 -0.01024339  0.00013275
   0.02091840  0.68427575  0.00029929
   0.66035667  0.64661737 -0.00042236
   0.11456762  0.22540006  0.95226466
   0.22646458  0.11611166  0.05177052
   0.10852639  0.55174497  0.94776464
   0.22239510  0.44191776  0.04809460
   0.11390554  0.88796131  0.94390959
   0.22268825  0.77877972  0.05622991
   0.43813838  0.22170969  0.94746269
   0.55617346  0.10833527  0.05272536
   0.43952069  0.55095193  0.94975791
   0.54783260  0.44050187  0.05429221
   0.45013832  0.89302049  0.94572494
   0.55986902  0.78366491  0.04963413
   0.77816698  0.21893069  0.95022202
   0.88578493  0.10934368  0.04604335
   0.78247906  0.55550328  0.94835527
   0.89093824  0.44532119  0.04977062
   0.77493652  0.89063821  0.95264979
   0.88835681  0.77406729  0.05288815
unknown system                          
           1
     8.311003    4.786930    0.000000
    -8.311206    4.787259    0.000000
     0.000000    0.000000   30.000000
   V    Mo   W    S 
   3   3   3  18
Direct configuration=    22
   0.99912229  0.34398209  0.00127950
   0.35066097  0.33719349 -0.00026849
   0.64681604  0.00711569 -0.00036796
   0.32757217 -0.01293862  0.00001596
   0.64861238  0.32838265 -0.00049185
   0.32636695  0.68169354  0.00014926
   0.01569675 -0.01024589  0.00010642
   0.02179693  0.68449544  0.00028024
   0.66068239  0.64521984 -0.00044386
   0.11446135  0.22532551  0.95246426
   0.22660255  0.11618148  0.05191265
   0.10854996  0.55176744  0.94767670
   0.22243739  0.44206261  0.04793612
   0.11419938  0.88781312  0.94377758
   0.22288587  0.77909334  0.05641345
   0.43785375  0.22138162  0.94731664
   0.55592328  0.10856092  0.05291964
   0.43958848  0.55116228  0.94991650
   0.54771936  0.44017295  0.05450166
   0.44977775  0.89286397  0.94565134
   0.56013223  0.78361937  0.04929032
   0.77805757  0.21912472  0.95016096
   0.88600663  0.10922589  0.04571045
   0.78274597  0.55503386  0.94839468
   0.89067205  0.44553050  0.04972253
   0.77478739  0.89044014  0.95310355
   0.88848664  0.77395650  0.05287165
unknown system                          
           1
     8.332071    4.793291    0.000000
    -8.326696    4.783935    0.000000
     0.000000    0.000000   30.000000
   V    Mo   W    S 
   3   3   3  18
Direct configuration=    23
   0.99901437  0.34477315  0.00131631
   0.35093722  0.33688061 -0.00027706
   0.64647989  0.00772974 -0.00041922
   0.32761657 -0.01276966  0.00003741
   0.64793910  0.32796313 -0.00049692
   0.32578847  0.68177638  0.00015282
   0.01644445 -0.01017975  0.00010493
   0.02230448  0.68466437  0.00029541
   0.66078748  0.64438134 -0.00042727
   0.11442400  0.22529652  0.95257367
   0.22668129  0.11623899  0.05198914
   0.10855335  0.55175807  0.94760271
   0.22247159  0.44212704  0.04784215
   0.11436013  0.88771631  0.94369484
   0.22299248  0.77927332  0.05649600
   0.43769672  0.22121158  0.94723222
   0.55580276  0.10866563  0.05301076
   0.43961534  0.55125216  0.95000719
   0.54762770  0.43998846  0.05459690
   0.44961518  0.89279953  0.94561642
   0.56027781  0.78361671  0.04908107
   0.77798265  0.21921913  0.95012716
   0.88610377  0.10914571  0.04551785
   0.78292230  0.55476939  0.94840397
   0.89049974  0.44566847  0.04970658
   0.77469910  0.89034836  0.95336702
   0.88857649  0.77389976  0.05284783
unknown system                          
           1
     8.351436    4.797538    0.000000
    -8.342204    4.781490    0.000000
     0.000000    0.000000   30.000000
   V    Mo   W    S 
   3   3   3  18
Direct configuration=    24
   0.99853008  0.34885378  0.00141291
   0.35183060  0.33492979 -0.00029557
   0.64530843  0.01008396 -0.00066942
   0.32791965 -0.01162260  0.00011402
   0.64527022  0.32629064 -0.00053967
   0.32291717  0.68184873  0.00012970
   0.01973483 -0.00963879  0.00008683
   0.02414710  0.68488136  0.00032600
   0.66168243  0.64098145 -0.00036310
   0.11413796  0.22521682  0.95310067
   0.22706236  0.11653561  0.05237633
   0.10851443  0.55162584  0.94724941
   0.22241796  0.44234918  0.04738692
   0.11503999  0.88717928  0.94343773
   0.22346595  0.78019451  0.05681587
   0.43704788  0.22046115  0.94685746
   0.55534086  0.10917977  0.05339616
   0.43984139  0.55163132  0.95053457
   0.54712786  0.43908102  0.05497254
   0.44877459  0.89243696  0.94550272