 vasp.5.4.1 05Feb16 (build Jul 05 2020 17:13:04) complex                        
  
 executed on           IFC91_ompi date 2024.08.20  23:57:28
 running on   40 total cores
 distrk:  each k-point on   40 cores,    1 groups
 distr:  one band on NCORES_PER_BAND=   1 cores,   40 groups


--------------------------------------------------------------------------------------------------------


 INCAR:
 POTCAR:   PAW_PBE V 08Apr2002                    
 POTCAR:   PAW_PBE Mo 08Apr2002                   
 POTCAR:   PAW_PBE W 08Apr2002                    
 POTCAR:    PAW_PBE S 17Jan2003                   

 ----------------------------------------------------------------------------- 
|                                                                             |
|           W    W    AA    RRRRR   N    N  II  N    N   GGGG   !!!           |
|           W    W   A  A   R    R  NN   N  II  NN   N  G    G  !!!           |
|           W    W  A    A  R    R  N N  N  II  N N  N  G       !!!           |
|           W WW W  AAAAAA  RRRRR   N  N N  II  N  N N  G  GGG   !            |
|           WW  WW  A    A  R   R   N   NN  II  N   NN  G    G                |
|           W    W  A    A  R    R  N    N  II  N    N   GGGG   !!!           |
|                                                                             |
|      For optimal performance we recommend to set                            |
|        NCORE= 4 - approx SQRT( number of cores)                             |
|      NCORE specifies how many cores store one orbital (NPAR=cpu/NCORE).     |
|      This setting can  greatly improve the performance of VASP for DFT.     |
|      The default, NPAR=number of cores might be grossly inefficient         |
|      on modern multi-core architectures or massively parallel machines.     |
|      Do your own testing !!!!                                               |
|      Unfortunately you need to use the default for GW and RPA calculations. |
|      (for HF NCORE is supported but not extensively tested yet)             |
|                                                                             |
 ----------------------------------------------------------------------------- 

 POTCAR:   PAW_PBE V 08Apr2002                    
   VRHFIN =V: p6 d4 s1                                                          
   LEXCH  = PE                                                                  
   EATOM  =   170.8679 eV,   12.5584 Ry                                         
                                                                                
   TITEL  = PAW_PBE V 08Apr2002                                                 
   LULTRA =        F    use ultrasoft PP ?                                      
   IUNSCR =        1    unscreen: 0-lin 1-nonlin 2-no                           
   RPACOR =    2.000    partial core radius                                     
   POMASS =   50.941; ZVAL   =    5.000    mass and valenz                      
   RCORE  =    2.700    outmost cutoff radius                                   
   RWIGS  =    2.500; RWIGS  =    1.323    wigner-seitz radius (au A)           
   ENMAX  =  192.543; ENMIN  =  144.408 eV                                      
   RCLOC  =    1.779    cutoff for local pot                                    
   LCOR   =        T    correct aug charges                                     
   LPAW   =        T    paw PP                                                  
   EAUG   =  358.662                                                            
   DEXC   =    -.034                                                            
   RMAX   =    3.323    core radius for proj-oper                               
   RAUG   =    1.300    factor for augmentation sphere                          
   RDEP   =    2.762    radius for radial grids                                 
   QCUT   =   -3.762; QGAM   =    7.524    optimization parameters              
                                                                                
   Description                                                                  
     l     E      TYP  RCUT    TYP  RCUT                                        
     2   .000     23  2.700                                                     
     2   .000     23  2.700                                                     
     0   .000     23  2.700                                                     
     0  2.000     23  2.700                                                     
     1   .000     23  2.700                                                     
     1  2.000     23  2.700                                                     
     3   .000      7   .000                                                     
  local pseudopotential read in
  partial core-charges read in
  atomic valenz-charges read in
  non local Contribution for L=           2  read in
    real space projection operators read in
  non local Contribution for L=           2  read in
    real space projection operators read in
  non local Contribution for L=           0  read in
    real space projection operators read in
  non local Contribution for L=           0  read in
    real space projection operators read in
  non local Contribution for L=           1  read in
    real space projection operators read in
  non local Contribution for L=           1  read in
    real space projection operators read in
    PAW grid and wavefunctions read in
 
   number of l-projection  operators is LMAX  =           6
   number of lm-projection operators is LMMAX =          18
 
 POTCAR:   PAW_PBE Mo 08Apr2002                   
   VRHFIN =Mo: 4p5s4d                                                           
   LEXCH  = PE                                                                  
   EATOM  =   217.5180 eV,   15.9871 Ry                                         
                                                                                
   TITEL  = PAW_PBE Mo 08Apr2002                                                
   LULTRA =        F    use ultrasoft PP ?                                      
   IUNSCR =        1    unscreen: 0-lin 1-nonlin 2-no                           
   RPACOR =    2.200    partial core radius                                     
   POMASS =   95.940; ZVAL   =    6.000    mass and valenz                      
   RCORE  =    2.750    outmost cutoff radius                                   
   RWIGS  =    2.750; RWIGS  =    1.455    wigner-seitz radius (au A)           
   ENMAX  =  224.584; ENMIN  =  168.438 eV                                      
   RCLOC  =    2.111    cutoff for local pot                                    
   LCOR   =        T    correct aug charges                                     
   LPAW   =        T    paw PP                                                  
   EAUG   =  345.278                                                            
   DEXC   =    -.088                                                            
   RMAX   =    3.077    core radius for proj-oper                               
   RAUG   =    1.300    factor for augmentation sphere                          
   RDEP   =    2.815    radius for radial grids                                 
   QCUT   =   -4.063; QGAM   =    8.126    optimization parameters              
                                                                                
   Description                                                                  
     l     E      TYP  RCUT    TYP  RCUT                                        
     2   .000     23  2.500                                                     
     2   .000     23  2.500                                                     
     0   .000     23  2.600                                                     
     0  1.000     23  2.600                                                     
     1   .400     23  2.750                                                     
     1  2.000     23  2.750                                                     
     3   .000      7   .000                                                     
  local pseudopotential read in
  partial core-charges read in
  atomic valenz-charges read in
  non local Contribution for L=           2  read in
    real space projection operators read in
  non local Contribution for L=           2  read in
    real space projection operators read in
  non local Contribution for L=           0  read in
    real space projection operators read in
  non local Contribution for L=           0  read in
    real space projection operators read in
  non local Contribution for L=           1  read in
    real space projection operators read in
  non local Contribution for L=           1  read in
    real space projection operators read in
    PAW grid and wavefunctions read in
 
   number of l-projection  operators is LMAX  =           6
   number of lm-projection operators is LMMAX =          18
 
 POTCAR:   PAW_PBE W 08Apr2002                    
   VRHFIN =W : 6s5d                                                             
   LEXCH  = PE                                                                  
   EATOM  =   204.6100 eV,   15.0384 Ry                                         
                                                                                
   TITEL  = PAW_PBE W 08Apr2002                                                 
   LULTRA =        F    use ultrasoft PP ?                                      
   IUNSCR =        1    unscreen: 0-lin 1-nonlin 2-no                           
   RPACOR =    2.330    partial core radius                                     
   POMASS =  183.850; ZVAL   =    6.000    mass and valenz                      
   RCORE  =    2.750    outmost cutoff radius                                   
   RWIGS  =    2.750; RWIGS  =    1.455    wigner-seitz radius (au A)           
   ENMAX  =  223.057; ENMIN  =  167.293 eV                                      
   RCLOC  =    2.147    cutoff for local pot                                    
   LCOR   =        T    correct aug charges                                     
   LPAW   =        T    paw PP                                                  
   EAUG   =  373.438                                                            
   DEXC   =    -.060                                                            
   RMAX   =    3.087    core radius for proj-oper                               
   RAUG   =    1.300    factor for augmentation sphere                          
   RDEP   =    2.886    radius for radial grids                                 
   QCUT   =   -4.049; QGAM   =    8.098    optimization parameters              
                                                                                
   Description                                                                  
     l     E      TYP  RCUT    TYP  RCUT                                        
     2   .000     23  2.500                                                     
     2   .000     23  2.500                                                     
     0   .000     23  2.500                                                     
     0   .000     23  2.500                                                     
     1   .200     23  2.750                                                     
     1  2.000     23  2.750                                                     
     3   .000      7   .000                                                     
  local pseudopotential read in
  partial core-charges read in
  atomic valenz-charges read in
  non local Contribution for L=           2  read in
    real space projection operators read in
  non local Contribution for L=           2  read in
    real space projection operators read in
  non local Contribution for L=           0  read in
    real space projection operators read in
  non local Contribution for L=           0  read in
    real space projection operators read in
  non local Contribution for L=           1  read in
    real space projection operators read in
  non local Contribution for L=           1  read in
    real space projection operators read in
    PAW grid and wavefunctions read in
 
   number of l-projection  operators is LMAX  =           6
   number of lm-projection operators is LMMAX =          18
 
 POTCAR:    PAW_PBE S 17Jan2003                   
   VRHFIN =S : s2p4                                                             
   LEXCH  = PE                                                                  
   EATOM  =   276.8230 eV,   20.3459 Ry                                         
                                                                                
   TITEL  = PAW_PBE S 17Jan2003                                                 
   LULTRA =        F    use ultrasoft PP ?                                      
   IUNSCR =        1    unscreen: 0-lin 1-nonlin 2-no                           
   RPACOR =    1.500    partial core radius                                     
   POMASS =   32.066; ZVAL   =    6.000    mass and valenz                      
   RCORE  =    1.900    outmost cutoff radius                                   
   RWIGS  =    2.200; RWIGS  =    1.164    wigner-seitz radius (au A)           
   ENMAX  =  280.000; ENMIN  =  194.016 eV                                      
   ICORE  =        2    local potential                                         
   LCOR   =        T    correct aug charges                                     
   LPAW   =        T    paw PP                                                  
   EAUG   =  335.092                                                            
   DEXC   =     .000                                                            
   RMAX   =    2.867    core radius for proj-oper                               
   RAUG   =    1.300    factor for augmentation sphere                          
   RDEP   =    1.954    radius for radial grids                                 
   QCUT   =   -4.360; QGAM   =    8.721    optimization parameters              
                                                                                
   Description                                                                  
     l     E      TYP  RCUT    TYP  RCUT                                        
     0   .000     23  1.900                                                     
     0   .000     23  1.900                                                     
     1   .000     23  1.900                                                     
     1   .000     23  1.900                                                     
     2   .000     23  1.900                                                     
  local pseudopotential read in
  partial core-charges read in
  atomic valenz-charges read in
  non local Contribution for L=           0  read in
    real space projection operators read in
  non local Contribution for L=           0  read in
    real space projection operators read in
  non local Contribution for L=           1  read in
    real space projection operators read in
  non local Contribution for L=           1  read in
    real space projection operators read in
    PAW grid and wavefunctions read in
 
   number of l-projection  operators is LMAX  =           4
   number of lm-projection operators is LMMAX =           8
 

 ----------------------------------------------------------------------------- 
|                                                                             |
|  ADVICE TO THIS USER RUNNING 'VASP/VAMP'   (HEAR YOUR MASTER'S VOICE ...):  |
|                                                                             |
|      You have a (more or less) 'large supercell' and for larger cells       |
|      it might be more efficient to use real space projection operators      |
|      So try LREAL= Auto  in the INCAR   file.                               |
|      Mind: If you want to do a very accurate calculations keep the          |
|      reciprocal projection scheme          (i.e. LREAL=.FALSE.)             |
|                                                                             |
 ----------------------------------------------------------------------------- 

 PAW_PBE V 08Apr2002                    :
 energy of atom  1       EATOM= -170.8679
 kinetic energy error for atom=    0.0047 (will be added to EATOM!!)
 PAW_PBE Mo 08Apr2002                   :
 energy of atom  2       EATOM= -217.5180
 kinetic energy error for atom=    0.0215 (will be added to EATOM!!)
 PAW_PBE W 08Apr2002                    :
 energy of atom  3       EATOM= -204.6100
 kinetic energy error for atom=    0.0205 (will be added to EATOM!!)
  PAW_PBE S 17Jan2003                   :
 energy of atom  4       EATOM= -276.8230
 kinetic energy error for atom=    0.0122 (will be added to EATOM!!)
 
 
 POSCAR: crystal structure from VMoWS2 with Hexag
  positions in cartesian coordinates
  No initial velocities read in
 exchange correlation table for  LEXCH =        8
   RHO(1)=    0.500       N(1)  =     2000
   RHO(2)=  100.500       N(2)  =     4000
 


--------------------------------------------------------------------------------------------------------


 ion  position               nearest neighbor table
   1  0.333  0.333  0.000-  13 2.34  16 2.34  19 2.36  18 2.36  11 2.36  10 2.36
   2  1.000  0.333  0.000-  25 2.34  10 2.34  13 2.36  12 2.36  22 2.36  23 2.36
   3  0.667  0.333  0.000-  19 2.34  22 2.34  25 2.36  24 2.36  17 2.36  16 2.36
   4  0.000  0.667  0.000-  27 2.34  12 2.34  14 2.36  15 2.36  24 2.36  25 2.36   6 3.34   7 3.34
                             5 3.34   8 3.36
   5  0.333  0.667  0.000-  15 2.34  18 2.34  20 2.36  21 2.36  13 2.36  12 2.36   8 3.34   4 3.34
                             6 3.34   9 3.36
   6  0.667  0.667  0.000-  21 2.34  24 2.34  27 2.36  26 2.36  19 2.36  18 2.36   4 3.34   9 3.34
                             5 3.34   7 3.36
   7  0.000  0.000  0.000-  23 2.34  14 2.34  11 2.36  10 2.36  27 2.36  26 2.36   9 3.34   4 3.34
                             8 3.34   6 3.36
   8  0.333  0.000  0.000-  11 2.34  20 2.34  17 2.36  16 2.36  15 2.36  14 2.36   5 3.34   9 3.34
                             7 3.34   4 3.36
   9  0.667  0.000  0.000-  17 2.34  26 2.34  23 2.36  22 2.36  21 2.36  20 2.36   7 3.34   6 3.34
                             8 3.34   5 3.36
  10  0.111  0.222  0.955-   2 2.34   7 2.36   1 2.36
  11  0.222  0.111  0.045-   8 2.34   7 2.36   1 2.36
  12  0.111  0.556  0.955-   4 2.34   2 2.36   5 2.36
  13  0.222  0.444  0.045-   1 2.34   2 2.36   5 2.36
  14  0.111  0.889  0.955-   7 2.34   4 2.36   8 2.36
  15  0.222  0.777  0.045-   5 2.34   4 2.36   8 2.36
  16  0.444  0.222  0.955-   1 2.34   8 2.36   3 2.36
  17  0.556  0.111  0.045-   9 2.34   8 2.36   3 2.36
  18  0.444  0.556  0.955-   5 2.34   1 2.36   6 2.36
  19  0.556  0.444  0.045-   3 2.34   1 2.36   6 2.36
  20  0.444  0.889  0.955-   8 2.34   5 2.36   9 2.36
  21  0.556  0.777  0.045-   6 2.34   5 2.36   9 2.36
  22  0.777  0.222  0.955-   3 2.34   9 2.36   2 2.36
  23  0.889  0.111  0.045-   7 2.34   9 2.36   2 2.36
  24  0.777  0.556  0.955-   6 2.34   3 2.36   4 2.36
  25  0.889  0.444  0.045-   2 2.34   3 2.36   4 2.36
  26  0.777  0.889  0.955-   9 2.34   6 2.36   7 2.36
  27  0.889  0.777  0.045-   4 2.34   6 2.36   7 2.36
 

IMPORTANT INFORMATION: All symmetrisations will be switched off!
NOSYMM: (Re-)initialisation of all symmetry stuff for point group C_1.

 
 
 KPOINTS: K-POINTS 	#supercell of CrS2 in hexagona

Automatic generation of k-mesh.
Space group operators:
 irot       det(A)        alpha          n_x          n_y          n_z        tau_x        tau_y        tau_z
    1     1.000000     0.000000     1.000000     0.000000     0.000000     0.000000     0.000000     0.000000
 
 Subroutine IBZKPT returns following result:
 ===========================================
 
 Found     34 irreducible k-points:
 
 Following reciprocal coordinates:
            Coordinates               Weight
  0.000000  0.000000  0.000000      1.000000
  0.125000  0.000000  0.000000      2.000000
  0.250000  0.000000  0.000000      2.000000
  0.375000  0.000000  0.000000      2.000000
  0.500000  0.000000  0.000000      1.000000
  0.000000  0.125000  0.000000      2.000000
  0.125000  0.125000  0.000000      2.000000
  0.250000  0.125000  0.000000      2.000000
  0.375000  0.125000  0.000000      2.000000
  0.500000  0.125000  0.000000      2.000000
 -0.375000  0.125000  0.000000      2.000000
 -0.250000  0.125000  0.000000      2.000000
 -0.125000  0.125000  0.000000      2.000000
  0.000000  0.250000  0.000000      2.000000
  0.125000  0.250000  0.000000      2.000000
  0.250000  0.250000  0.000000      2.000000
  0.375000  0.250000  0.000000      2.000000
  0.500000  0.250000  0.000000      2.000000
 -0.375000  0.250000  0.000000      2.000000
 -0.250000  0.250000  0.000000      2.000000
 -0.125000  0.250000  0.000000      2.000000
 -0.000000  0.375000  0.000000      2.000000
  0.125000  0.375000  0.000000      2.000000
  0.250000  0.375000  0.000000      2.000000
  0.375000  0.375000  0.000000      2.000000
  0.500000  0.375000  0.000000      2.000000
 -0.375000  0.375000  0.000000      2.000000
 -0.250000  0.375000  0.000000      2.000000
 -0.125000  0.375000  0.000000      2.000000
  0.000000  0.500000  0.000000      1.000000
  0.125000  0.500000  0.000000      2.000000
  0.250000  0.500000  0.000000      2.000000
  0.375000  0.500000  0.000000      2.000000
  0.500000  0.500000  0.000000      1.000000
 
 Following cartesian coordinates:
            Coordinates               Weight
  0.000000  0.000000  0.000000      1.000000
  0.007209  0.012401  0.000000      2.000000
  0.014418  0.024802  0.000000      2.000000
  0.021626  0.037202  0.000000      2.000000
  0.028835  0.049603  0.000000      1.000000
 -0.007209  0.012401  0.000000      2.000000
  0.000000  0.024802  0.000000      2.000000
  0.007209  0.037202  0.000000      2.000000
  0.014418  0.049603  0.000000      2.000000
  0.021626  0.062004  0.000000      2.000000
 -0.028835 -0.024802  0.000000      2.000000
 -0.021626 -0.012401  0.000000      2.000000
 -0.014418  0.000000  0.000000      2.000000
 -0.014418  0.024802  0.000000      2.000000
 -0.007209  0.037202  0.000000      2.000000
  0.000000  0.049603  0.000000      2.000000
  0.007209  0.062004  0.000000      2.000000
  0.014418  0.074405  0.000000      2.000000
 -0.036044 -0.012401  0.000000      2.000000
 -0.028835  0.000000  0.000000      2.000000
 -0.021626  0.012401  0.000000      2.000000
 -0.021626  0.037202  0.000000      2.000000
 -0.014418  0.049603  0.000000      2.000000
 -0.007209  0.062004  0.000000      2.000000
  0.000000  0.074405  0.000000      2.000000
  0.007209  0.086806  0.000000      2.000000
 -0.043253  0.000000  0.000000      2.000000
 -0.036044  0.012401  0.000000      2.000000
 -0.028835  0.024802  0.000000      2.000000
 -0.028835  0.049603  0.000000      1.000000
 -0.021626  0.062004  0.000000      2.000000
 -0.014418  0.074405  0.000000      2.000000
 -0.007209  0.086806  0.000000      2.000000
  0.000000  0.099206  0.000000      1.000000
 


--------------------------------------------------------------------------------------------------------




 Dimension of arrays:
   k-points           NKPTS =     34   k-points in BZ     NKDIM =     34   number of bands    NBANDS=    120
   number of dos      NEDOS =    301   number of ions     NIONS =     27
   non local maximal  LDIM  =      6   non local SUM 2l+1 LMDIM =     18
   total plane-waves  NPLWV = 222264
   max r-space proj   IRMAX =      1   max aug-charges    IRDMAX=   5642
   dimension x,y,z NGX =    42 NGY =   42 NGZ =  126
   dimension x,y,z NGXF=    84 NGYF=   84 NGZF=  252
   support grid    NGXF=    84 NGYF=   84 NGZF=  252
   ions per type =               3   3   3  18
 NGX,Y,Z   is equivalent  to a cutoff of   6.96,  6.96,  6.98 a.u.
 NGXF,Y,Z  is equivalent  to a cutoff of  13.92, 13.92, 13.96 a.u.


 I would recommend the setting:
   dimension x,y,z NGX =    41 NGY =   41 NGZ =  123
 SYSTEM =  unknown system                          
 POSCAR =  crystal structure from VMoWS2 with Hexag

 Startparameter for this run:
   NWRITE =      2    write-flag & timer
   PREC   = normal    normal or accurate (medium, high low for compatibility)
   ISTART =      0    job   : 0-new  1-cont  2-samecut
   ICHARG =      2    charge: 1-file 2-atom 10-const
   ISPIN  =      1    spin polarized calculation?
   LNONCOLLINEAR =      F non collinear calculations
   LSORBIT =      F    spin-orbit coupling
   INIWAV =      1    electr: 0-lowe 1-rand  2-diag
   LASPH  =      F    aspherical Exc in radial PAW
   METAGGA=      F    non-selfconsistent MetaGGA calc.

 Electronic Relaxation 1
   ENCUT  =  280.0 eV  20.58 Ry    4.54 a.u.  13.68 13.68 40.93*2*pi/ulx,y,z
   ENINI  =  280.0     initial cutoff
   ENAUG  =  373.4 eV  augmentation charge cutoff
   NELM   =     60;   NELMIN=  2; NELMDL= -5     # of ELM steps 
   EDIFF  = 0.1E-03   stopping-criterion for ELM
   LREAL  =      F    real-space projection
   NLSPLINE    = F    spline interpolate recip. space projectors
   LCOMPAT=      F    compatible to vasp.4.4
   GGA_COMPAT  = T    GGA compatible to vasp.4.4-vasp.4.6
   LMAXPAW     = -100 max onsite density
   LMAXMIX     =    2 max onsite mixed and CHGCAR
   VOSKOWN=      0    Vosko Wilk Nusair interpolation
   ROPT   =    0.00000   0.00000   0.00000   0.00000
 Ionic relaxation
   EDIFFG = 0.1E-02   stopping-criterion for IOM
   NSW    =    100    number of steps for IOM
   NBLOCK =      1;   KBLOCK =    100    inner block; outer block 
   IBRION =      1    ionic relax: 0-MD 1-quasi-New 2-CG
   NFREE  =      0    steps in history (QN), initial steepest desc. (CG)
   ISIF   =      3    stress and relaxation
   IWAVPR =     11    prediction:  0-non 1-charg 2-wave 3-comb
   ISYM   =      0    0-nonsym 1-usesym 2-fastsym
   LCORR  =      T    Harris-Foulkes like correction to forces

   POTIM  = 0.5000    time-step for ionic-motion
   TEIN   =    0.0    initial temperature
   TEBEG  =    0.0;   TEEND  =   0.0 temperature during run
   SMASS  =  -3.00    Nose mass-parameter (am)
   estimated Nose-frequenzy (Omega)   =  0.10E-29 period in steps =****** mass=  -0.230E-26a.u.
   SCALEE = 1.0000    scale energy and forces
   NPACO  =    256;   APACO  = 16.0  distance and # of slots for P.C.
   PSTRESS=    0.0 pullay stress

  Mass of Ions in am
   POMASS =  50.94 95.94183.85 32.07
  Ionic Valenz
   ZVAL   =   5.00  6.00  6.00  6.00
  Atomic Wigner-Seitz radii
   RWIGS  =  -1.00 -1.00 -1.00 -1.00
  virtual crystal weights 
   VCA    =   1.00  1.00  1.00  1.00
   NELECT =     159.0000    total number of electrons
   NUPDOWN=      -1.0000    fix difference up-down

 DOS related values:
   EMIN   =  10.00;   EMAX   =-10.00  energy-range for DOS
   EFERMI =   0.00
   ISMEAR =     0;   SIGMA  =   0.20  broadening in eV -4-tet -1-fermi 0-gaus

 Electronic relaxation 2 (details)
   IALGO  =     38    algorithm
   LDIAG  =      T    sub-space diagonalisation (order eigenvalues)
   LSUBROT=      F    optimize rotation matrix (better conditioning)
   TURBO    =      0    0=normal 1=particle mesh
   IRESTART =      0    0=no restart 2=restart with 2 vectors
   NREBOOT  =      0    no. of reboots
   NMIN     =      0    reboot dimension
   EREF     =   0.00    reference energy to select bands
   IMIX   =      4    mixing-type and parameters
     AMIX     =   0.40;   BMIX     =  1.00
     AMIX_MAG =   1.60;   BMIX_MAG =  1.00
     AMIN     =   0.10
     WC   =   100.;   INIMIX=   1;  MIXPRE=   1;  MAXMIX= -45

 Intra band minimization:
   WEIMIN = 0.0010     energy-eigenvalue tresh-hold
   EBREAK =  0.21E-06  absolut break condition
   DEPER  =   0.30     relativ break condition  

   TIME   =   0.40     timestep for ELM

  volume/ion in A,a.u.               =      97.10       655.29
  Fermi-wavevector in a.u.,A,eV,Ry     =   0.643191  1.215456  5.628665  0.413695
  Thomas-Fermi vector in A             =   1.710110
 
 Write flags
   LWAVE  =      F    write WAVECAR
   LCHARG =      F    write CHGCAR
   LVTOT  =      F    write LOCPOT, total local potential
   LVHAR  =      F    write LOCPOT, Hartree potential only
   LELF   =      F    write electronic localiz. function (ELF)
   LORBIT =      0    0 simple, 1 ext, 2 COOP (PROOUT)


 Dipole corrections
   LMONO  =      F    monopole corrections only (constant potential shift)
   LDIPOL =      F    correct potential (dipole corrections)
   IDIPOL =      0    1-x, 2-y, 3-z, 4-all directions 
   EPSILON=  1.0000000 bulk dielectric constant

 Exchange correlation treatment:
   GGA     =    --    GGA type
   LEXCH   =     8    internal setting for exchange type
   VOSKOWN=      0    Vosko Wilk Nusair interpolation
   LHFCALC =     F    Hartree Fock is set to
   LHFONE  =     F    Hartree Fock one center treatment
   AEXX    =    0.0000 exact exchange contribution

 Linear response parameters
   LEPSILON=     F    determine dielectric tensor
   LRPA    =     F    only Hartree local field effects (RPA)
   LNABLA  =     F    use nabla operator in PAW spheres
   LVEL    =     F    velocity operator in full k-point grid
   LINTERFAST=   F  fast interpolation
   KINTER  =     0    interpolate to denser k-point grid
   CSHIFT  =0.1000    complex shift for real part using Kramers Kronig
   OMEGAMAX=  -1.0    maximum frequency
   DEG_THRESHOLD= 0.2000000E-02 threshold for treating states as degnerate
   RTIME   =    0.100 relaxation time in fs

 Orbital magnetization related:
   ORBITALMAG=     F  switch on orbital magnetization
   LCHIMAG   =     F  perturbation theory with respect to B field
   DQ        =  0.001000  dq finite difference perturbation B field



--------------------------------------------------------------------------------------------------------


 quasi-Newton-method for relaxation of ions
 charge density and potential will be updated during run
 non-spin polarized calculation
 Variant of blocked Davidson
 Davidson routine will perform the subspace rotation
 perform sub-space diagonalisation
    after iterative eigenvector-optimisation
 modified Broyden-mixing scheme, WC =      100.0
 initial mixing is a Kerker type mixing with AMIX =  0.4000 and BMIX =      1.0000
 Hartree-type preconditioning will be used
 using additional bands           40
 reciprocal scheme for non local part
 use partial core corrections
 calculate Harris-corrections to forces 
   (improved forces if not selfconsistent)
 use gradient corrections 
 use of overlap-Matrix (Vanderbilt PP)
 Gauss-broadening in eV      SIGMA  =   0.20


--------------------------------------------------------------------------------------------------------


  energy-cutoff  :      280.00
  volume of cell :     2621.81
      direct lattice vectors                 reciprocal lattice vectors
     8.669999960  5.039999894  0.000000000     0.057670129  0.099206348  0.000000000
    -8.669999821  5.040000133  0.000000000    -0.057670126  0.099206350  0.000000000
     0.000000000  0.000000000 30.000000000     0.000000000  0.000000000  0.033333333

  length of vectors
    10.028484344 10.028484344 30.000000000     0.114750788  0.114750788  0.033333333


 
 k-points in units of 2pi/SCALE and weight: K-POINTS 	#supercell of CrS2 in hexagona
   0.00000000  0.00000000  0.00000000       0.016
   0.00720877  0.01240079  0.00000000       0.031
   0.01441753  0.02480159  0.00000000       0.031
   0.02162630  0.03720238  0.00000000       0.031
   0.02883506  0.04960317  0.00000000       0.016
  -0.00720877  0.01240079  0.00000000       0.031
   0.00000000  0.02480159  0.00000000       0.031
   0.00720877  0.03720238  0.00000000       0.031
   0.01441753  0.04960317  0.00000000       0.031
   0.02162630  0.06200397  0.00000000       0.031
  -0.02883506 -0.02480159  0.00000000       0.031
  -0.02162630 -0.01240079  0.00000000       0.031
  -0.01441753  0.00000000  0.00000000       0.031
  -0.01441753  0.02480159  0.00000000       0.031
  -0.00720877  0.03720238  0.00000000       0.031
   0.00000000  0.04960317  0.00000000       0.031
   0.00720877  0.06200397  0.00000000       0.031
   0.01441753  0.07440476  0.00000000       0.031
  -0.03604383 -0.01240079  0.00000000       0.031
  -0.02883506  0.00000000  0.00000000       0.031
  -0.02162630  0.01240079  0.00000000       0.031
  -0.02162630  0.03720238  0.00000000       0.031
  -0.01441753  0.04960317  0.00000000       0.031
  -0.00720877  0.06200397  0.00000000       0.031
   0.00000000  0.07440476  0.00000000       0.031
   0.00720877  0.08680556  0.00000000       0.031
  -0.04325260  0.00000000  0.00000000       0.031
  -0.03604383  0.01240079  0.00000000       0.031
  -0.02883506  0.02480159  0.00000000       0.031
  -0.02883506  0.04960317  0.00000000       0.016
  -0.02162630  0.06200397  0.00000000       0.031
  -0.01441753  0.07440476  0.00000000       0.031
  -0.00720876  0.08680556  0.00000000       0.031
   0.00000000  0.09920635  0.00000000       0.016
 
 k-points in reciprocal lattice and weights: K-POINTS 	#supercell of CrS2 in hexagona
   0.00000000  0.00000000  0.00000000       0.016
   0.12500000  0.00000000  0.00000000       0.031
   0.25000000  0.00000000  0.00000000       0.031
   0.37500000  0.00000000  0.00000000       0.031
   0.50000000  0.00000000  0.00000000       0.016
   0.00000000  0.12500000  0.00000000       0.031
   0.12500000  0.12500000  0.00000000       0.031
   0.25000000  0.12500000  0.00000000       0.031
   0.37500000  0.12500000  0.00000000       0.031
   0.50000000  0.12500000  0.00000000       0.031
  -0.37500000  0.12500000  0.00000000       0.031
  -0.25000000  0.12500000  0.00000000       0.031
  -0.12500000  0.12500000  0.00000000       0.031
   0.00000000  0.25000000  0.00000000       0.031
   0.12500000  0.25000000  0.00000000       0.031
   0.25000000  0.25000000  0.00000000       0.031
   0.37500000  0.25000000  0.00000000       0.031
   0.50000000  0.25000000  0.00000000       0.031
  -0.37500000  0.25000000  0.00000000       0.031
  -0.25000000  0.25000000  0.00000000       0.031
  -0.12500000  0.25000000  0.00000000       0.031
  -0.00000000  0.37500000  0.00000000       0.031
   0.12500000  0.37500000  0.00000000       0.031
   0.25000000  0.37500000  0.00000000       0.031
   0.37500000  0.37500000  0.00000000       0.031
   0.50000000  0.37500000  0.00000000       0.031
  -0.37500000  0.37500000  0.00000000       0.031
  -0.25000000  0.37500000  0.00000000       0.031
  -0.12500000  0.37500000  0.00000000       0.031
   0.00000000  0.50000000  0.00000000       0.016
   0.12500000  0.50000000  0.00000000       0.031
   0.25000000  0.50000000  0.00000000       0.031
   0.37500000  0.50000000  0.00000000       0.031
   0.50000000  0.50000000  0.00000000       0.016
 
 position of ions in fractional coordinates (direct lattice) 
   0.33333334  0.33333334  0.00000000
   1.00000000  0.33333334  0.00000000
   0.66666669  0.33333334  0.00000000
   0.00000000  0.66666669  0.00000000
   0.33333334  0.66666669  0.00000000
   0.66666669  0.66666669  0.00000000
   0.00000000  0.00000000  0.00000000
   0.33333334  0.00000000  0.00000000
   0.66666669  0.00000000  0.00000000
   0.11068511  0.22244981  0.95539999
   0.22244981  0.11068511  0.04460000
   0.11068511  0.55578315  0.95539999
   0.22244981  0.44401845  0.04460000
   0.11068511  0.88911647  0.95539999
   0.22244981  0.77735180  0.04460000
   0.44401845  0.22244981  0.95539999
   0.55578315  0.11068511  0.04460000
   0.44401845  0.55578315  0.95539999
   0.55578315  0.44401845  0.04460000
   0.44401845  0.88911647  0.95539999
   0.55578315  0.77735180  0.04460000
   0.77735180  0.22244981  0.95539999
   0.88911647  0.11068511  0.04460000
   0.77735180  0.55578315  0.95539999
   0.88911647  0.44401845  0.04460000
   0.77735180  0.88911647  0.95539999
   0.88911647  0.77735180  0.04460000
 
 position of ions in cartesian coordinates  (Angst):
   0.00000005  3.36000011  0.00000000
   5.77999993  6.71999999  0.00000000
   2.89000012  5.04000012  0.00000000
  -5.78000005  3.36000019  0.00000000
  -2.88999998  5.04000020  0.00000000
   0.00000009  6.72000022  0.00000000
   0.00000000  0.00000000  0.00000000
   2.89000007  1.68000002  0.00000000
   5.78000015  3.36000003  0.00000000
  -0.96899991  1.67900001 28.66199970
   0.96899995  1.67899998  1.33799996
  -3.85899993  3.35900011 28.66199970
  -1.92100007  3.35900008  1.33799996
  -6.74899970  5.03900005 28.66199970
  -4.81100010  5.03900017  1.33799996
   1.92100017  3.35900003 28.66199970
   3.85900003  3.35900000  1.33799996
  -0.96899986  5.03900012 28.66199970
   0.96900000  5.03900009  1.33799996
  -3.85899963  6.71900006 28.66199970
  -1.92100003  6.71900019  1.33799996
   4.81100024  5.03900004 28.66199970
   6.74899984  5.03899987  1.33799996
   1.92100021  6.71900014 28.66199970
   3.85899981  6.71899996  1.33799996
  -0.96899956  8.39900008 28.66199970
   0.96899979  8.39900005  1.33799996
 


--------------------------------------------------------------------------------------------------------


 k-point  1 :   0.0000 0.0000 0.0000  plane waves:   27959
 k-point  2 :   0.1250 0.0000 0.0000  plane waves:   27889
 k-point  3 :   0.2500 0.0000 0.0000  plane waves:   27875
 k-point  4 :   0.3750 0.0000 0.0000  plane waves:   27893
 k-point  5 :   0.5000 0.0000 0.0000  plane waves:   27932
 k-point  6 :   0.0000 0.1250 0.0000  plane waves:   27889
 k-point  7 :   0.1250 0.1250 0.0000  plane waves:   27906
 k-point  8 :   0.2500 0.1250 0.0000  plane waves:   27898
 k-point  9 :   0.3750 0.1250 0.0000  plane waves:   27888
 k-point 10 :   0.5000 0.1250 0.0000  plane waves:   27873
 k-point 11 :  -0.3750 0.1250 0.0000  plane waves:   27874
 k-point 12 :  -0.2500 0.1250 0.0000  plane waves:   27895
 k-point 13 :  -0.1250 0.1250 0.0000  plane waves:   27879
 k-point 14 :   0.0000 0.2500 0.0000  plane waves:   27875
 k-point 15 :   0.1250 0.2500 0.0000  plane waves:   27898
 k-point 16 :   0.2500 0.2500 0.0000  plane waves:   27920
 k-point 17 :   0.3750 0.2500 0.0000  plane waves:   27901
 k-point 18 :   0.5000 0.2500 0.0000  plane waves:   27875
 k-point 19 :  -0.3750 0.2500 0.0000  plane waves:   27894
 k-point 20 :  -0.2500 0.2500 0.0000  plane waves:   27870
 k-point 21 :  -0.1250 0.2500 0.0000  plane waves:   27895
 k-point 22 :  -0.0000 0.3750 0.0000  plane waves:   27893
 k-point 23 :   0.1250 0.3750 0.0000  plane waves:   27888
 k-point 24 :   0.2500 0.3750 0.0000  plane waves:   27901
 k-point 25 :   0.3750 0.3750 0.0000  plane waves:   27860
 k-point 26 :   0.5000 0.3750 0.0000  plane waves:   27895
 k-point 27 :  -0.3750 0.3750 0.0000  plane waves:   27858
 k-point 28 :  -0.2500 0.3750 0.0000  plane waves:   27894
 k-point 29 :  -0.1250 0.3750 0.0000  plane waves:   27874
 k-point 30 :   0.0000 0.5000 0.0000  plane waves:   27932
 k-point 31 :   0.1250 0.5000 0.0000  plane waves:   27873
 k-point 32 :   0.2500 0.5000 0.0000  plane waves:   27875
 k-point 33 :   0.3750 0.5000 0.0000  plane waves:   27895
 k-point 34 :   0.5000 0.5000 0.0000  plane waves:   27910

 maximum and minimum number of plane-waves per node :     27959    27858

 maximum number of plane-waves:     27959
 maximum index in each direction: 
   IXMAX=   14   IYMAX=   13   IZMAX=   40
   IXMIN=  -14   IYMIN=  -14   IZMIN=  -40

 WARNING: aliasing errors must be expected set NGX to  58 to avoid them
 WARNING: aliasing errors must be expected set NGY to  56 to avoid them
 WARNING: aliasing errors must be expected set NGZ to 162 to avoid them
 aliasing errors are usually negligible using standard VASP settings
 and one can safely disregard these warnings

 serial   3D FFT for wavefunctions

 total amount of memory used by VASP on root node   650782. kBytes
========================================================================

   base      :      30000. kBytes
   nonl-proj :     559647. kBytes
   fftplans  :       2414. kBytes
   grid      :      12150. kBytes
   one-center:        419. kBytes
   wavefun   :      46152. kBytes
 
     INWAV:  cpu time    0.0000: real time    0.0000
 Broyden mixing: mesh for mixing (old mesh)
   NGX = 27   NGY = 27   NGZ = 81
  (NGX  = 84   NGY  = 84   NGZ  =252)
  gives a total of  59049 points

 initial charge density was supplied:
 charge density of overlapping atoms calculated
 number of electron     159.0000000 magnetization 
 keeping initial charge density in first step


--------------------------------------------------------------------------------------------------------


 Maximum index for augmentation-charges          139 (set IRDMAX)


--------------------------------------------------------------------------------------------------------


 First call to EWALD:  gamma=   0.129
 Maximum number of real-space cells 4x 4x 2
 Maximum number of reciprocal cells 2x 2x 5

 FEWALD executed in parallel
    FEWALD:  cpu time    0.0017: real time    0.0017


----------------------------------------- Iteration    1(   1)  ---------------------------------------


    POTLOK:  cpu time    0.0365: real time    0.0366
    SETDIJ:  cpu time    0.0031: real time    0.0032
     EDDAV:  cpu time   21.9295: real time   21.9855
       DOS:  cpu time    0.0020: real time    0.0013
    --------------------------------------------
      LOOP:  cpu time   21.9747: real time   22.0333

 eigenvalue-minimisations  :  8160
 total energy-change (2. order) : 0.1123415E+04  (-0.3586707E+04)
 number of electron     159.0000000 magnetization 
 augmentation part      159.0000000 magnetization 

 Free energy of the ion-electron system (eV)
  ---------------------------------------------------
  alpha Z        PSCENC =        81.65567618
  Ewald energy   TEWEN  =     41891.19379415
  -Hartree energ DENC   =    -47723.83905759
  -exchange      EXHF   =         0.00000000
  -V(xc)+E(xc)   XCENC  =      -242.92449815
  PAW double counting   =      3467.42045192    -2871.19716117
  entropy T*S    EENTRO =        -0.52791648
  eigenvalues    EBANDS =      -239.80850262
  atomic energy  EATOM  =      6761.44252427
  Solvation  Ediel_sol  =         0.00000000
  ---------------------------------------------------
  free energy    TOTEN  =      1123.41531051 eV

  energy without entropy =     1123.94322699  energy(sigma->0) =     1123.67926875


--------------------------------------------------------------------------------------------------------




----------------------------------------- Iteration    1(   2)  ---------------------------------------


     EDDAV:  cpu time   28.7166: real time   28.7864
       DOS:  cpu time    0.0010: real time    0.0010
    --------------------------------------------
      LOOP:  cpu time   28.7178: real time   28.7957

 eigenvalue-minimisations  : 11400
 total energy-change (2. order) :-0.1128392E+04  (-0.1088594E+04)
 number of electron     159.0000000 magnetization 
 augmentation part      159.0000000 magnetization 

 Free energy of the ion-electron system (eV)
  ---------------------------------------------------
  alpha Z        PSCENC =        81.65567618
  Ewald energy   TEWEN  =     41891.19379415
  -Hartree energ DENC   =    -47723.83905759
  -exchange      EXHF   =         0.00000000
  -V(xc)+E(xc)   XCENC  =      -242.92449815
  PAW double counting   =      3467.42045192    -2871.19716117
  entropy T*S    EENTRO =        -0.20931058
  eigenvalues    EBANDS =     -1368.51871719
  atomic energy  EATOM  =      6761.44252427
  Solvation  Ediel_sol  =         0.00000000
  ---------------------------------------------------
  free energy    TOTEN  =        -4.97629816 eV

  energy without entropy =       -4.76698758  energy(sigma->0) =       -4.87164287


--------------------------------------------------------------------------------------------------------




----------------------------------------- Iteration    1(   3)  ---------------------------------------


     EDDAV:  cpu time   27.6210: real time   27.6881
       DOS:  cpu time    0.0010: real time    0.0010
    --------------------------------------------
      LOOP:  cpu time   27.6232: real time   27.6954

 eigenvalue-minimisations  : 10880
 total energy-change (2. order) :-0.1950017E+03  (-0.1873430E+03)
 number of electron     159.0000000 magnetization 
 augmentation part      159.0000000 magnetization 

 Free energy of the ion-electron system (eV)
  ---------------------------------------------------
  alpha Z        PSCENC =        81.65567618
  Ewald energy   TEWEN  =     41891.19379415
  -Hartree energ DENC   =    -47723.83905759
  -exchange      EXHF   =         0.00000000
  -V(xc)+E(xc)   XCENC  =      -242.92449815
  PAW double counting   =      3467.42045192    -2871.19716117
  entropy T*S    EENTRO =        -0.25138545
  eigenvalues    EBANDS =     -1563.47836175
  atomic energy  EATOM  =      6761.44252427
  Solvation  Ediel_sol  =         0.00000000
  ---------------------------------------------------
  free energy    TOTEN  =      -199.97801759 eV

  energy without entropy =     -199.72663214  energy(sigma->0) =     -199.85232486


--------------------------------------------------------------------------------------------------------




----------------------------------------- Iteration    1(   4)  ---------------------------------------


     EDDAV:  cpu time   30.4987: real time   30.5724
       DOS:  cpu time    0.0010: real time    0.0010
    --------------------------------------------
      LOOP:  cpu time   30.5006: real time   30.5796

 eigenvalue-minimisations  : 12280
 total energy-change (2. order) :-0.9118533E+01  (-0.8842998E+01)
 number of electron     159.0000000 magnetization 
 augmentation part      159.0000000 magnetization 

 Free energy of the ion-electron system (eV)
  ---------------------------------------------------
  alpha Z        PSCENC =        81.65567618
  Ewald energy   TEWEN  =     41891.19379415
  -Hartree energ DENC   =    -47723.83905759
  -exchange      EXHF   =         0.00000000
  -V(xc)+E(xc)   XCENC  =      -242.92449815
  PAW double counting   =      3467.42045192    -2871.19716117
  entropy T*S    EENTRO =        -0.25949327
  eigenvalues    EBANDS =     -1572.58878712
  atomic energy  EATOM  =      6761.44252427
  Solvation  Ediel_sol  =         0.00000000
  ---------------------------------------------------
  free energy    TOTEN  =      -209.09655078 eV

  energy without entropy =     -208.83705751  energy(sigma->0) =     -208.96680415


--------------------------------------------------------------------------------------------------------




----------------------------------------- Iteration    1(   5)  ---------------------------------------


     EDDAV:  cpu time   28.5898: real time   28.6593
       DOS:  cpu time    0.0009: real time    0.0009
    CHARGE:  cpu time    0.4655: real time    0.4667
    MIXING:  cpu time    0.0017: real time    0.0019
    --------------------------------------------
      LOOP:  cpu time   29.0602: real time   29.4813

 eigenvalue-minimisations  : 11360
 total energy-change (2. order) :-0.3090955E+00  (-0.3081834E+00)
 number of electron     159.0000110 magnetization 
 augmentation part       -9.8639638 magnetization 

 Broyden mixing:
  rms(total) = 0.27779E+01    rms(broyden)= 0.27775E+01
  rms(prec ) = 0.29677E+01
  weight for this iteration     100.00

 Free energy of the ion-electron system (eV)
  ---------------------------------------------------
  alpha Z        PSCENC =        81.65567618
  Ewald energy   TEWEN  =     41891.19379415
  -Hartree energ DENC   =    -47723.83905759
  -exchange      EXHF   =         0.00000000
  -V(xc)+E(xc)   XCENC  =      -242.92449815
  PAW double counting   =      3467.42045192    -2871.19716117
  entropy T*S    EENTRO =        -0.25698479
  eigenvalues    EBANDS =     -1572.90039110
  atomic energy  EATOM  =      6761.44252427
  Solvation  Ediel_sol  =         0.00000000
  ---------------------------------------------------
  free energy    TOTEN  =      -209.40564627 eV

  energy without entropy =     -209.14866148  energy(sigma->0) =     -209.27715388


--------------------------------------------------------------------------------------------------------




----------------------------------------- Iteration    1(   6)  ---------------------------------------


    POTLOK:  cpu time    0.0340: real time    0.0343
    SETDIJ:  cpu time    0.0026: real time    0.0026
     EDDAV:  cpu time   30.6393: real time   30.7127
       DOS:  cpu time    0.0010: real time    0.0010
    CHARGE:  cpu time    0.4585: real time    0.4596
    MIXING:  cpu time    0.0018: real time    0.0020
    --------------------------------------------
      LOOP:  cpu time   31.1383: real time   31.2203

 eigenvalue-minimisations  : 12440
 total energy-change (2. order) :-0.3247535E+02  (-0.1127147E+02)
 number of electron     159.0000107 magnetization 
 augmentation part        7.2919218 magnetization 

 Broyden mixing:
  rms(total) = 0.60862E+01    rms(broyden)= 0.60856E+01
  rms(prec ) = 0.67196E+01
  weight for this iteration     100.00

 eigenvalues of (default mixing * dielectric matrix)
  average eigenvalue GAMMA=   0.2914
  0.2914

 Free energy of the ion-electron system (eV)
  ---------------------------------------------------
  alpha Z        PSCENC =        81.65567618
  Ewald energy   TEWEN  =     41891.19379415
  -Hartree energ DENC   =    -47702.18408450
  -exchange      EXHF   =         0.00000000
  -V(xc)+E(xc)   XCENC  =      -233.58016467
  PAW double counting   =      3677.12177551    -3083.12052574
  entropy T*S    EENTRO =        -0.26184238
  eigenvalues    EBANDS =     -1634.14814560
  atomic energy  EATOM  =      6761.44252427
  Solvation  Ediel_sol  =         0.00000000
  ---------------------------------------------------
  free energy    TOTEN  =      -241.88099277 eV

  energy without entropy =     -241.61915039  energy(sigma->0) =     -241.75007158


--------------------------------------------------------------------------------------------------------




----------------------------------------- Iteration    1(   7)  ---------------------------------------


    POTLOK:  cpu time    0.0311: real time    0.0315
    SETDIJ:  cpu time    0.0024: real time    0.0024
     EDDAV:  cpu time   32.4124: real time   32.4906
       DOS:  cpu time    0.0009: real time    0.0009
    CHARGE:  cpu time    0.4713: real time    0.4725
    MIXING:  cpu time    0.0011: real time    0.0011
    --------------------------------------------
      LOOP:  cpu time   32.9205: real time   33.0079

 eigenvalue-minimisations  : 13200
 total energy-change (2. order) : 0.4583212E+02  (-0.1799614E+02)
 number of electron     159.0000087 magnetization 
 augmentation part       -6.2700002 magnetization 

 Broyden mixing:
  rms(total) = 0.19713E+01    rms(broyden)= 0.19694E+01
  rms(prec ) = 0.21920E+01
  weight for this iteration     100.00

 eigenvalues of (default mixing * dielectric matrix)
  average eigenvalue GAMMA=   0.5569
  0.9022  0.2116

 Free energy of the ion-electron system (eV)
  ---------------------------------------------------
  alpha Z        PSCENC =        81.65567618
  Ewald energy   TEWEN  =     41891.19379415
  -Hartree energ DENC   =    -47739.14970683
  -exchange      EXHF   =         0.00000000
  -V(xc)+E(xc)   XCENC  =      -234.97144636
  PAW double counting   =      3763.62140156    -3177.66739893
  entropy T*S    EENTRO =        -0.34050770
  eigenvalues    EBANDS =     -1541.83321242
  atomic energy  EATOM  =      6761.44252427
  Solvation  Ediel_sol  =         0.00000000
  ---------------------------------------------------
  free energy    TOTEN  =      -196.04887609 eV

  energy without entropy =     -195.70836839  energy(sigma->0) =     -195.87862224


--------------------------------------------------------------------------------------------------------




----------------------------------------- Iteration    1(   8)  ---------------------------------------


    POTLOK:  cpu time    0.0321: real time    0.0325
    SETDIJ:  cpu time    0.0025: real time    0.0025
     EDDAV:  cpu time   30.1485: real time   30.2207
       DOS:  cpu time    0.0010: real time    0.0010
    CHARGE:  cpu time    0.4798: real time    0.4809
    MIXING:  cpu time    0.0011: real time    0.0011
    --------------------------------------------
      LOOP:  cpu time   30.6663: real time   30.7473

 eigenvalue-minimisations  : 12120
 total energy-change (2. order) : 0.6816263E+01  (-0.1887367E+01)
 number of electron     159.0000095 magnetization 
 augmentation part       -6.3050352 magnetization 

 Broyden mixing:
  rms(total) = 0.12062E+01    rms(broyden)= 0.12060E+01
  rms(prec ) = 0.12999E+01
  weight for this iteration     100.00

 eigenvalues of (default mixing * dielectric matrix)
  average eigenvalue GAMMA=   0.5958
  1.1504  0.2291  0.4078

 Free energy of the ion-electron system (eV)
  ---------------------------------------------------
  alpha Z        PSCENC =        81.65567618
  Ewald energy   TEWEN  =     41891.19379415
  -Hartree energ DENC   =    -47762.09427039
  -exchange      EXHF   =         0.00000000
  -V(xc)+E(xc)   XCENC  =      -234.95863113
  PAW double counting   =      3908.67833368    -3324.42303414
  entropy T*S    EENTRO =        -0.33045304
  eigenvalues    EBANDS =     -1510.39655302
  atomic energy  EATOM  =      6761.44252427
  Solvation  Ediel_sol  =         0.00000000
  ---------------------------------------------------
  free energy    TOTEN  =      -189.23261343 eV

  energy without entropy =     -188.90216039  energy(sigma->0) =     -189.06738691


--------------------------------------------------------------------------------------------------------




----------------------------------------- Iteration    1(   9)  ---------------------------------------


    POTLOK:  cpu time    0.0306: real time    0.0307
    SETDIJ:  cpu time    0.0023: real time    0.0023
     EDDAV:  cpu time   32.5186: real time   32.5971
       DOS:  cpu time    0.0009: real time    0.0009
    CHARGE:  cpu time    0.4885: real time    0.4897
    MIXING:  cpu time    0.0012: real time    0.0012
    --------------------------------------------
      LOOP:  cpu time   33.0430: real time   33.1303

 eigenvalue-minimisations  : 13280
 total energy-change (2. order) : 0.1205149E+01  (-0.2859836E+00)
 number of electron     159.0000091 magnetization 
 augmentation part       -5.4582724 magnetization 

 Broyden mixing:
  rms(total) = 0.87142E+00    rms(broyden)= 0.87120E+00
  rms(prec ) = 0.94551E+00
  weight for this iteration     100.00

 eigenvalues of (default mixing * dielectric matrix)
  average eigenvalue GAMMA=   0.7441
  1.8123  0.6316  0.2197  0.3129

 Free energy of the ion-electron system (eV)
  ---------------------------------------------------
  alpha Z        PSCENC =        81.65567618
  Ewald energy   TEWEN  =     41891.19379415
  -Hartree energ DENC   =    -47766.95255903
  -exchange      EXHF   =         0.00000000
  -V(xc)+E(xc)   XCENC  =      -234.04006021
  PAW double counting   =      3980.43739040    -3397.06890015
  entropy T*S    EENTRO =        -0.33179165
  eigenvalues    EBANDS =     -1504.36353831
  atomic energy  EATOM  =      6761.44252427
  Solvation  Ediel_sol  =         0.00000000
  ---------------------------------------------------
  free energy    TOTEN  =      -188.02746434 eV

  energy without entropy =     -187.69567269  energy(sigma->0) =     -187.86156852


--------------------------------------------------------------------------------------------------------




----------------------------------------- Iteration    1(  10)  ---------------------------------------


    POTLOK:  cpu time    0.0368: real time    0.0369
    SETDIJ:  cpu time    0.0025: real time    0.0025
     EDDAV:  cpu time   33.0394: real time   33.1191
       DOS:  cpu time    0.0010: real time    0.0010
    CHARGE:  cpu time    0.4977: real time    0.4990
    MIXING:  cpu time    0.0013: real time    0.0013
    --------------------------------------------
      LOOP:  cpu time   33.5797: real time   33.6621

 eigenvalue-minimisations  : 13520
 total energy-change (2. order) : 0.1096580E+01  (-0.1536614E+00)
 number of electron     159.0000092 magnetization 
 augmentation part       -4.2748210 magnetization 

 Broyden mixing:
  rms(total) = 0.20374E+00    rms(broyden)= 0.20322E+00
  rms(prec ) = 0.21226E+00
  weight for this iteration     100.00

 eigenvalues of (default mixing * dielectric matrix)
  average eigenvalue GAMMA=   0.9732
  1.8542  1.8542  0.6459  0.2202  0.2915

 Free energy of the ion-electron system (eV)
  ---------------------------------------------------
  alpha Z        PSCENC =        81.65567618
  Ewald energy   TEWEN  =     41891.19379415
  -Hartree energ DENC   =    -47780.08628057
  -exchange      EXHF   =         0.00000000
  -V(xc)+E(xc)   XCENC  =      -232.57799177
  PAW double counting   =      4104.48866089    -3522.66172635
  entropy T*S    EENTRO =        -0.35428172
  eigenvalues    EBANDS =     -1490.03125966
  atomic energy  EATOM  =      6761.44252427
  Solvation  Ediel_sol  =         0.00000000
  ---------------------------------------------------
  free energy    TOTEN  =      -186.93088457 eV

  energy without entropy =     -186.57660286  energy(sigma->0) =     -186.75374372


--------------------------------------------------------------------------------------------------------




----------------------------------------- Iteration    1(  11)  ---------------------------------------


    POTLOK:  cpu time    0.0300: real time    0.0302
    SETDIJ:  cpu time    0.0023: real time    0.0023
     EDDAV:  cpu time   32.7229: real time   32.8019
       DOS:  cpu time    0.0009: real time    0.0009
    CHARGE:  cpu time    0.5016: real time    0.5028
    MIXING:  cpu time    0.0012: real time    0.0012
    --------------------------------------------
      LOOP:  cpu time   33.2602: real time   33.3477

 eigenvalue-minimisations  : 13360
 total energy-change (2. order) : 0.1645867E-01  (-0.3784489E-01)
 number of electron     159.0000087 magnetization 
 augmentation part       -4.6010490 magnetization 

 Broyden mixing:
  rms(total) = 0.26711E+00    rms(broyden)= 0.26707E+00
  rms(prec ) = 0.29694E+00
  weight for this iteration     100.00

 eigenvalues of (default mixing * dielectric matrix)
  average eigenvalue GAMMA=   0.9808
  2.2362  1.6620  0.8206  0.6520  0.2199  0.2943

 Free energy of the ion-electron system (eV)
  ---------------------------------------------------
  alpha Z        PSCENC =        81.65567618
  Ewald energy   TEWEN  =     41891.19379415
  -Hartree energ DENC   =    -47795.97681882
  -exchange      EXHF   =         0.00000000
  -V(xc)+E(xc)   XCENC  =      -232.07753246
  PAW double counting   =      4176.39273038    -3594.65991071
  entropy T*S    EENTRO =        -0.34003989
  eigenvalues    EBANDS =     -1474.54484901
  atomic energy  EATOM  =      6761.44252427
  Solvation  Ediel_sol  =         0.00000000
  ---------------------------------------------------
  free energy    TOTEN  =      -186.91442591 eV

  energy without entropy =     -186.57438602  energy(sigma->0) =     -186.74440596


--------------------------------------------------------------------------------------------------------




----------------------------------------- Iteration    1(  12)  ---------------------------------------


    POTLOK:  cpu time    0.0331: real time    0.0332
    SETDIJ:  cpu time    0.0025: real time    0.0025
     EDDAV:  cpu time   33.0563: real time   33.1366
       DOS:  cpu time    0.0001: real time    0.0010
    CHARGE:  cpu time    0.4956: real time    0.4968
    MIXING:  cpu time    0.0014: real time    0.0014
    --------------------------------------------
      LOOP:  cpu time   33.5909: real time   33.6797

 eigenvalue-minimisations  : 13520
 total energy-change (2. order) : 0.7265182E-01  (-0.2198586E-01)
 number of electron     159.0000089 magnetization 
 augmentation part       -4.0453455 magnetization 

 Broyden mixing:
  rms(total) = 0.11403E+00    rms(broyden)= 0.11383E+00
  rms(prec ) = 0.12705E+00
  weight for this iteration     100.00

 eigenvalues of (default mixing * dielectric matrix)
  average eigenvalue GAMMA=   0.9024
  2.2313  1.7035  0.8859  0.6396  0.2198  0.2947  0.3423

 Free energy of the ion-electron system (eV)
  ---------------------------------------------------
  alpha Z        PSCENC =        81.65567618
  Ewald energy   TEWEN  =     41891.19379415
  -Hartree energ DENC   =    -47802.21023697
  -exchange      EXHF   =         0.00000000
  -V(xc)+E(xc)   XCENC  =      -231.88771733
  PAW double counting   =      4190.45204013    -3608.63162045
  entropy T*S    EENTRO =        -0.34760184
  eigenvalues    EBANDS =     -1468.50863224
  atomic energy  EATOM  =      6761.44252427
  Solvation  Ediel_sol  =         0.00000000
  ---------------------------------------------------
  free energy    TOTEN  =      -186.84177408 eV

  energy without entropy =     -186.49417225  energy(sigma->0) =     -186.66797317


--------------------------------------------------------------------------------------------------------




----------------------------------------- Iteration    1(  13)  ---------------------------------------


    POTLOK:  cpu time    0.0312: real time    0.0315
    SETDIJ:  cpu time    0.0023: real time    0.0023
     EDDAV:  cpu time   32.9754: real time   33.0553
       DOS:  cpu time    0.0002: real time    0.0010
    CHARGE:  cpu time    0.4969: real time    0.4981
    MIXING:  cpu time    0.0014: real time    0.0014
    --------------------------------------------
      LOOP:  cpu time   33.5095: real time   33.5983

 eigenvalue-minimisations  : 13480
 total energy-change (2. order) : 0.4445675E-02  (-0.2869192E-02)
 number of electron     159.0000089 magnetization 
 augmentation part       -4.1109296 magnetization 

 Broyden mixing:
  rms(total) = 0.99762E-01    rms(broyden)= 0.99730E-01
  rms(prec ) = 0.11093E+00
  weight for this iteration     100.00

 eigenvalues of (default mixing * dielectric matrix)
  average eigenvalue GAMMA=   0.8801
  2.2043  1.8564  1.0789  0.6299  0.6299  0.2944  0.2198  0.1275

 Free energy of the ion-electron system (eV)
  ---------------------------------------------------
  alpha Z        PSCENC =        81.65567618
  Ewald energy   TEWEN  =     41891.19379415
  -Hartree energ DENC   =    -47804.20010095
  -exchange      EXHF   =         0.00000000
  -V(xc)+E(xc)   XCENC  =      -231.86223651
  PAW double counting   =      4191.30318105    -3609.45282843
  entropy T*S    EENTRO =        -0.34669178
  eigenvalues    EBANDS =     -1466.57064640
  atomic energy  EATOM  =      6761.44252427
  Solvation  Ediel_sol  =         0.00000000
  ---------------------------------------------------
  free energy    TOTEN  =      -186.83732841 eV

  energy without entropy =     -186.49063663  energy(sigma->0) =     -186.66398252


--------------------------------------------------------------------------------------------------------




----------------------------------------- Iteration    1(  14)  ---------------------------------------


    POTLOK:  cpu time    0.0311: real time    0.0314
    SETDIJ:  cpu time    0.0024: real time    0.0024
     EDDAV:  cpu time   32.5118: real time   32.5901
       DOS:  cpu time    0.0002: real time    0.0010
    CHARGE:  cpu time    0.4969: real time    0.4981
    MIXING:  cpu time    0.0015: real time    0.0015
    --------------------------------------------
      LOOP:  cpu time   33.0460: real time   33.1331

 eigenvalue-minimisations  : 13280
 total energy-change (2. order) : 0.9457650E-02  (-0.1855617E-02)
 number of electron     159.0000089 magnetization 
 augmentation part       -4.2010149 magnetization 

 Broyden mixing:
  rms(total) = 0.18908E-01    rms(broyden)= 0.18788E-01
  rms(prec ) = 0.22499E-01
  weight for this iteration     100.00

 eigenvalues of (default mixing * dielectric matrix)
  average eigenvalue GAMMA=   0.9723
  2.2738  2.2738  1.3296  0.9728  0.6335  0.6335  0.2198  0.2944  0.1196

 Free energy of the ion-electron system (eV)
  ---------------------------------------------------
  alpha Z        PSCENC =        81.65567618
  Ewald energy   TEWEN  =     41891.19379415
  -Hartree energ DENC   =    -47807.63840488
  -exchange      EXHF   =         0.00000000
  -V(xc)+E(xc)   XCENC  =      -231.81990348
  PAW double counting   =      4192.58461960    -3610.68709094
  entropy T*S    EENTRO =        -0.34542012
  eigenvalues    EBANDS =     -1463.21366554
  atomic energy  EATOM  =      6761.44252427
  Solvation  Ediel_sol  =         0.00000000
  ---------------------------------------------------
  free energy    TOTEN  =      -186.82787076 eV

  energy without entropy =     -186.48245064  energy(sigma->0) =     -186.65516070


--------------------------------------------------------------------------------------------------------




----------------------------------------- Iteration    1(  15)  ---------------------------------------


    POTLOK:  cpu time    0.0309: real time    0.0309
    SETDIJ:  cpu time    0.0025: real time    0.0025
     EDDAV:  cpu time   31.4333: real time   31.5092
       DOS:  cpu time    0.0010: real time    0.0010
    CHARGE:  cpu time    0.4975: real time    0.4987
    MIXING:  cpu time    0.0016: real time    0.0016
    --------------------------------------------
      LOOP:  cpu time   31.9678: real time   32.0519

 eigenvalue-minimisations  : 12760
 total energy-change (2. order) : 0.3586335E-03  (-0.3522814E-03)
 number of electron     159.0000089 magnetization 
 augmentation part       -4.1993452 magnetization 

 Broyden mixing:
  rms(total) = 0.25114E-01    rms(broyden)= 0.25103E-01
  rms(prec ) = 0.28948E-01
  weight for this iteration     100.00

 eigenvalues of (default mixing * dielectric matrix)
  average eigenvalue GAMMA=   0.9046
  2.3008  2.3008  1.3544  0.9878  0.6340  0.6340  0.2945  0.2198  0.2006  0.1193

 Free energy of the ion-electron system (eV)
  ---------------------------------------------------
  alpha Z        PSCENC =        81.65567618
  Ewald energy   TEWEN  =     41891.19379415
  -Hartree energ DENC   =    -47813.95805973
  -exchange      EXHF   =         0.00000000
  -V(xc)+E(xc)   XCENC  =      -231.73894807
  PAW double counting   =      4194.47009803    -3612.50738418
  entropy T*S    EENTRO =        -0.34541526
  eigenvalues    EBANDS =     -1457.03979752
  atomic energy  EATOM  =      6761.44252427
  Solvation  Ediel_sol  =         0.00000000
  ---------------------------------------------------
  free energy    TOTEN  =      -186.82751213 eV

  energy without entropy =     -186.48209687  energy(sigma->0) =     -186.65480450


--------------------------------------------------------------------------------------------------------




----------------------------------------- Iteration    1(  16)  ---------------------------------------


    POTLOK:  cpu time    0.0306: real time    0.0306
    SETDIJ:  cpu time    0.0024: real time    0.0024
     EDDAV:  cpu time   30.1480: real time   30.2201
       DOS:  cpu time    0.0010: real time    0.0010
    CHARGE:  cpu time    0.4982: real time    0.4993
    MIXING:  cpu time    0.0017: real time    0.0017
    --------------------------------------------
      LOOP:  cpu time   30.6826: real time   30.7626

 eigenvalue-minimisations  : 12120
 total energy-change (2. order) : 0.5299095E-03  (-0.2366588E-03)
 number of electron     159.0000089 magnetization 
 augmentation part       -4.1977872 magnetization 

 Broyden mixing:
  rms(total) = 0.17450E-01    rms(broyden)= 0.17433E-01
  rms(prec ) = 0.20385E-01
  weight for this iteration     100.00

 eigenvalues of (default mixing * dielectric matrix)
  average eigenvalue GAMMA=   0.8781
  2.3292  2.3292  1.3854  1.0097  0.6335  0.6335  0.5760  0.2944  0.2198  0.1193
  0.1293

 Free energy of the ion-electron system (eV)
  ---------------------------------------------------
  alpha Z        PSCENC =        81.65567618
  Ewald energy   TEWEN  =     41891.19379415
  -Hartree energ DENC   =    -47814.98265977
  -exchange      EXHF   =         0.00000000
  -V(xc)+E(xc)   XCENC  =      -231.72820866
  PAW double counting   =      4194.50383479    -3612.53483227
  entropy T*S    EENTRO =        -0.34542272
  eigenvalues    EBANDS =     -1456.03168819
  atomic energy  EATOM  =      6761.44252427
  Solvation  Ediel_sol  =         0.00000000
  ---------------------------------------------------
  free energy    TOTEN  =      -186.82698222 eV

  energy without entropy =     -186.48155949  energy(sigma->0) =     -186.65427085


--------------------------------------------------------------------------------------------------------




----------------------------------------- Iteration    1(  17)  ---------------------------------------


    POTLOK:  cpu time    0.0311: real time    0.0312
    SETDIJ:  cpu time    0.0025: real time    0.0025
     EDDAV:  cpu time   27.3600: real time   27.4262
       DOS:  cpu time    0.0010: real time    0.0010
    CHARGE:  cpu time    0.4967: real time    0.4978
    MIXING:  cpu time    0.0018: real time    0.0018
    --------------------------------------------
      LOOP:  cpu time   27.8940: real time   27.9682

 eigenvalue-minimisations  : 10800
 total energy-change (2. order) : 0.1259691E-04  (-0.1284846E-03)
 number of electron     159.0000089 magnetization 
 augmentation part       -4.1958702 magnetization 

 Broyden mixing:
  rms(total) = 0.12442E-01    rms(broyden)= 0.12427E-01
  rms(prec ) = 0.15251E-01
  weight for this iteration     100.00

 eigenvalues of (default mixing * dielectric matrix)
  average eigenvalue GAMMA=   0.9118
  2.4539  2.4539  1.5728  1.2226  0.9554  0.6338  0.6338  0.2944  0.2198  0.2595
  0.1190  0.1228

 Free energy of the ion-electron system (eV)
  ---------------------------------------------------
  alpha Z        PSCENC =        81.65567618
  Ewald energy   TEWEN  =     41891.19379415
  -Hartree energ DENC   =    -47816.78753113
  -exchange      EXHF   =         0.00000000
  -V(xc)+E(xc)   XCENC  =      -231.71184955
  PAW double counting   =      4194.31397430    -3612.33748074
  entropy T*S    EENTRO =        -0.34538482
  eigenvalues    EBANDS =     -1454.25069229
  atomic energy  EATOM  =      6761.44252427
  Solvation  Ediel_sol  =         0.00000000
  ---------------------------------------------------
  free energy    TOTEN  =      -186.82696962 eV

  energy without entropy =     -186.48158480  energy(sigma->0) =     -186.65427721


--------------------------------------------------------------------------------------------------------




----------------------------------------- Iteration    1(  18)  ---------------------------------------


    POTLOK:  cpu time    0.0302: real time    0.0305
    SETDIJ:  cpu time    0.0024: real time    0.0024
     EDDAV:  cpu time   26.0785: real time   26.1409
       DOS:  cpu time    0.0011: real time    0.0011
    --------------------------------------------
      LOOP:  cpu time   26.1134: real time   26.1824

 eigenvalue-minimisations  : 10240
 total energy-change (2. order) :-0.7403779E-04  (-0.8238136E-04)
 number of electron     159.0000089 magnetization 
 augmentation part       -4.1958702 magnetization 

 Free energy of the ion-electron system (eV)
  ---------------------------------------------------
  alpha Z        PSCENC =        81.65567618
  Ewald energy   TEWEN  =     41891.19379415
  -Hartree energ DENC   =    -47821.10932900
  -exchange      EXHF   =         0.00000000
  -V(xc)+E(xc)   XCENC  =      -231.67504161
  PAW double counting   =      4193.69043541    -3611.69889245
  entropy T*S    EENTRO =        -0.34522270
  eigenvalues    EBANDS =     -1449.98098791
  atomic energy  EATOM  =      6761.44252427
  Solvation  Ediel_sol  =         0.00000000
  ---------------------------------------------------
  free energy    TOTEN  =      -186.82704366 eV

  energy without entropy =     -186.48182095  energy(sigma->0) =     -186.65443230


--------------------------------------------------------------------------------------------------------




 average (electrostatic) potential at core
  the test charge radii are     1.2064  1.2296  1.1823  0.9698
  (the norm of the test charge is              1.0000)
       1 -50.0725       2 -50.0722       3 -50.0727       4 -47.5425       5 -47.5418
       6 -47.5400       7 -49.9795       8 -49.9806       9 -49.9820      10 -95.1009
      11 -95.3221      12 -95.1675      13 -95.0104      14 -95.4209      15 -95.3529
      16 -95.1009      17 -95.3226      18 -95.1670      19 -95.0104      20 -95.4212
      21 -95.3530      22 -95.1011      23 -95.3224      24 -95.1673      25 -95.0106
      26 -95.4209      27 -95.3527
 
 
 
 E-fermi :  -3.4024     XC(G=0):  -2.4934     alpha+bet : -2.1596


 k-point     1 :       0.0000    0.0000    0.0000
  band No.  band energies     occupation 
      1     -18.3276      2.00000
      2     -17.1859      2.00000
      3     -17.1859      2.00000
      4     -17.1305      2.00000
      5     -16.9113      2.00000
      6     -16.9111      2.00000
      7     -16.8341      2.00000
      8     -16.5503      2.00000
      9     -16.5413      2.00000
     10     -16.5413      2.00000
     11     -16.4023      2.00000
     12     -16.4021      2.00000
     13     -16.2859      2.00000
     14     -16.1554      2.00000
     15     -16.0909      2.00000
     16     -16.0908      2.00000
     17     -15.9197      2.00000
     18     -15.9195      2.00000
     19      -9.7034      2.00000
     20      -9.4890      2.00000
     21      -9.4888      2.00000
     22      -9.3526      2.00000
     23      -9.3491      2.00000
     24      -9.3490      2.00000
     25      -9.0378      2.00000
     26      -8.8684      2.00000
     27      -8.8683      2.00000
     28      -8.8551      2.00000
     29      -8.8551      2.00000
     30      -8.6576      2.00000
     31      -8.6575      2.00000
     32      -8.4831      2.00000
     33      -8.3821      2.00000
     34      -8.3299      2.00000
     35      -8.3298      2.00000
     36      -8.3176      2.00000
     37      -8.3174      2.00000
     38      -8.3172      2.00000
     39      -8.0110      2.00000
     40      -7.9737      2.00000
     41      -7.9735      2.00000
     42      -7.9104      2.00000
     43      -7.7036      2.00000
     44      -7.6590      2.00000
     45      -7.6589      2.00000
     46      -7.5249      2.00000
     47      -7.5248      2.00000
     48      -7.3231      2.00000
     49      -7.3229      2.00000
     50      -7.3185      2.00000
     51      -6.8264      2.00000
     52      -6.6605      2.00000
     53      -6.6605      2.00000
     54      -6.6238      2.00000
     55      -6.6237      2.00000
     56      -6.5619      2.00000
     57      -6.5618      2.00000
     58      -5.8008      2.00000
     59      -5.8007      2.00000
     60      -5.7720      2.00000
     61      -5.6401      2.00000
     62      -5.5943      2.00000
     63      -5.5942      2.00000
     64      -5.5303      2.00000
     65      -5.4204      2.00000
     66      -5.4204      2.00000
     67      -5.3568      2.00000
     68      -5.3045      2.00000
     69      -5.3045      2.00000
     70      -5.2320      2.00000
     71      -4.3794      2.00000
     72      -4.3650      2.00000
     73      -4.1670      2.00000
     74      -4.1668      2.00000
     75      -4.1662      2.00000
     76      -4.1171      2.00000
     77      -4.1168      2.00000
     78      -3.9630      1.99993
     79      -3.9308      1.99981
     80      -3.8160      1.99655
     81      -3.3150      0.53655
     82      -3.3145      0.53400
     83      -2.8797      0.00022
     84      -2.7813      0.00001
     85      -2.7387      0.00000
     86      -2.7385      0.00000
     87      -2.6466      0.00000
     88      -2.6463      0.00000
     89      -2.4630      0.00000
     90      -2.4081      0.00000
     91      -2.4080      0.00000
     92      -2.3003      0.00000
     93      -2.2999      0.00000
     94      -2.2869      0.00000
     95      -2.1085      0.00000
     96      -2.1082      0.00000
     97      -1.9791      0.00000
     98      -1.9787      0.00000
     99      -1.8322      0.00000
    100      -0.7261      0.00000
    101      -0.7260      0.00000
    102      -0.6418      0.00000
    103      -0.6418      0.00000
    104      -0.6358      0.00000
    105      -0.2376      0.00000
    106       0.2982      0.00000
    107       0.2986      0.00000
    108       0.4042      0.00000
    109       0.4046      0.00000
    110       0.4634      0.00000
    111       0.6337      0.00000
    112       0.7988      0.00000
    113       0.7993      0.00000
    114       0.9558      0.00000
    115       0.9675      0.00000
    116       0.9680      0.00000
    117       1.0296      0.00000
    118       1.2941      0.00000
    119       1.3682      0.00000
    120       1.9251      0.00000

 k-point     2 :       0.1250    0.0000    0.0000
  band No.  band energies     occupation 
      1     -18.3038      2.00000
      2     -17.3768      2.00000
      3     -17.1380      2.00000
      4     -17.0231      2.00000
      5     -16.9749      2.00000
      6     -16.8685      2.00000
      7     -16.8188      2.00000
      8     -16.6072      2.00000
      9     -16.5433      2.00000
     10     -16.4822      2.00000
     11     -16.4222      2.00000
     12     -16.3383      2.00000
     13     -16.2806      2.00000
     14     -16.1518      2.00000
     15     -16.1091      2.00000
     16     -16.0883      2.00000
     17     -15.9511      2.00000
     18     -15.8979      2.00000
     19      -9.7588      2.00000
     20      -9.6999      2.00000
     21      -9.5270      2.00000
     22      -9.3337      2.00000
     23      -9.3006      2.00000
     24      -9.1948      2.00000
     25      -9.0456      2.00000
     26      -9.0287      2.00000
     27      -8.9650      2.00000
     28      -8.8374      2.00000
     29      -8.7989      2.00000
     30      -8.5373      2.00000
     31      -8.5309      2.00000
     32      -8.5279      2.00000
     33      -8.4414      2.00000
     34      -8.4236      2.00000
     35      -8.3022      2.00000
     36      -8.2864      2.00000
     37      -8.2716      2.00000
     38      -8.2042      2.00000
     39      -8.0004      2.00000
     40      -7.9527      2.00000
     41      -7.8733      2.00000
     42      -7.8181      2.00000
     43      -7.7130      2.00000
     44      -7.6814      2.00000
     45      -7.6692      2.00000
     46      -7.6115      2.00000
     47      -7.4384      2.00000
     48      -7.3116      2.00000
     49      -7.3036      2.00000
     50      -7.2865      2.00000
     51      -6.8497      2.00000
     52      -6.7800      2.00000
     53      -6.7482      2.00000
     54      -6.6719      2.00000
     55      -6.6230      2.00000
     56      -6.4442      2.00000
     57      -6.3929      2.00000
     58      -5.9210      2.00000
     59      -5.9058      2.00000
     60      -5.8497      2.00000
     61      -5.7674      2.00000
     62      -5.6428      2.00000
     63      -5.5954      2.00000
     64      -5.5929      2.00000
     65      -5.5451      2.00000
     66      -5.4682      2.00000
     67      -5.3299      2.00000
     68      -5.2351      2.00000
     69      -5.1425      2.00000
     70      -5.0542      2.00000
     71      -4.5384      2.00000
     72      -4.4439      2.00000
     73      -4.2576      2.00000
     74      -4.1904      2.00000
     75      -4.1114      2.00000
     76      -4.0787      2.00000
     77      -4.0133      1.99998
     78      -3.8922      1.99947
[...]
    104      -0.5624      0.00000
    105      -0.4691      0.00000
    106      -0.2928      0.00000
    107      -0.2608      0.00000
    108      -0.0943      0.00000
    109       0.0264      0.00000
    110       0.2594      0.00000
    111       0.3473      0.00000
    112       0.4884      0.00000
    113       0.5944      0.00000
    114       1.0026      0.00000
    115       1.0313      0.00000
    116       1.1130      0.00000
    117       1.7698      0.00000
    118       2.1585      0.00000
    119       2.3203      0.00000
    120       2.4301      0.00000

 k-point    34 :       0.5000    0.5000    0.0000
  band No.  band energies     occupation 
      1     -17.4271      2.00000
      2     -17.4269      2.00000
      3     -16.7125      2.00000
      4     -16.7122      2.00000
      5     -16.5700      2.00000
      6     -16.5696      2.00000
      7     -16.2138      2.00000
      8     -16.1942      2.00000
      9     -16.1699      2.00000
     10     -16.1695      2.00000
     11     -15.7948      2.00000
     12     -15.7572      2.00000
     13     -15.7569      2.00000
     14     -15.6796      2.00000
     15     -15.4907      2.00000
     16     -15.4904      2.00000
     17     -15.4561      2.00000
     18     -15.2653      2.00000
     19      -9.8278      2.00000
     20      -9.4016      2.00000
     21      -9.1922      2.00000
     22      -9.1920      2.00000
     23      -8.7681      2.00000
     24      -8.7679      2.00000
     25      -8.7453      2.00000
     26      -8.5589      2.00000
     27      -8.5583      2.00000
     28      -8.3758      2.00000
     29      -8.1534      2.00000
     30      -8.0820      2.00000
     31      -8.0774      2.00000
     32      -8.0772      2.00000
     33      -7.7865      2.00000
     34      -7.7850      2.00000
     35      -7.7268      2.00000
     36      -7.7088      2.00000
     37      -7.7082      2.00000
     38      -7.5213      2.00000
     39      -7.5205      2.00000
     40      -7.4280      2.00000
     41      -7.0399      2.00000
     42      -7.0100      2.00000
     43      -7.0094      2.00000
     44      -6.8555      2.00000
     45      -6.7453      2.00000
     46      -6.7444      2.00000
     47      -6.6387      2.00000
     48      -6.5744      2.00000
     49      -6.5740      2.00000
     50      -6.5634      2.00000
     51      -6.3559      2.00000
     52      -6.3094      2.00000
     53      -6.3088      2.00000
     54      -6.2611      2.00000
     55      -6.0778      2.00000
     56      -6.0770      2.00000
     57      -5.9845      2.00000
     58      -5.8611      2.00000
     59      -5.8610      2.00000
     60      -5.7270      2.00000
     61      -5.7262      2.00000
     62      -5.5589      2.00000
     63      -5.5588      2.00000
     64      -5.4441      2.00000
     65      -5.1964      2.00000
     66      -5.0574      2.00000
     67      -4.9971      2.00000
     68      -4.9962      2.00000
     69      -4.7487      2.00000
     70      -4.5602      2.00000
     71      -4.5591      2.00000
     72      -4.5214      2.00000
     73      -4.2423      2.00000
     74      -4.2422      2.00000
     75      -4.0572      2.00000
     76      -4.0546      2.00000
     77      -3.8676      1.99999
     78      -3.8674      1.99999
     79      -3.4440      1.85342
     80      -3.4386      1.84243
     81      -2.9789      0.06613
     82      -2.9776      0.06481
     83      -2.6337      0.00002
     84      -2.6329      0.00002
     85      -2.5639      0.00000
     86      -2.4523      0.00000
     87      -2.1641      0.00000
     88      -2.1628      0.00000
     89      -2.0368      0.00000
     90      -1.9071      0.00000
     91      -1.9062      0.00000
     92      -1.5873      0.00000
     93      -1.1757      0.00000
     94      -1.1687      0.00000
     95      -1.1682      0.00000
     96      -1.0826      0.00000
     97      -1.0815      0.00000
     98      -1.0293      0.00000
     99      -0.8205      0.00000
    100      -0.7894      0.00000
    101      -0.7879      0.00000
    102      -0.7092      0.00000
    103      -0.6607      0.00000
    104      -0.6601      0.00000
    105      -0.5362      0.00000
    106      -0.2859      0.00000
    107      -0.2843      0.00000
    108      -0.0651      0.00000
    109      -0.0645      0.00000
    110       0.2553      0.00000
    111       0.3826      0.00000
    112       0.5233      0.00000
    113       0.5235      0.00000
    114       1.0709      0.00000
    115       1.0716      0.00000
    116       1.0741      0.00000
    117       1.8441      0.00000
    118       2.2632      0.00000
    119       2.2633      0.00000
    120       2.4149      0.00000


--------------------------------------------------------------------------------------------------------


 soft charge-density along one line, spin component           1
         0         1         2         3         4         5         6         7         8         9
 total charge-density along one line
 
 pseudopotential strength for first ion, spin component:           1
 -7.248  -0.010   0.013   0.004  -0.001   0.683   0.002  -0.004
 -0.010  -7.150   0.005  -0.010  -0.004   0.002   0.653  -0.001
  0.013   0.005  -7.112  -0.003   0.007  -0.004  -0.001   0.643
  0.004  -0.010  -0.003  -7.162   0.005  -0.001   0.003   0.001
 -0.001  -0.004   0.007   0.005  -7.247   0.000   0.001  -0.002
  0.683   0.002  -0.004  -0.001   0.000   0.330  -0.000   0.001
  0.002   0.653  -0.001   0.003   0.001  -0.000   0.339   0.000
 -0.004  -0.001   0.643   0.001  -0.002   0.001   0.000   0.341
 -0.001   0.003   0.001   0.656  -0.001   0.000  -0.001  -0.000
  0.000   0.001  -0.002  -0.001   0.682  -0.000  -0.000   0.001
  0.004  -0.002  -0.020   0.001   0.002  -0.001   0.000   0.005
  0.001  -0.001  -0.007   0.000   0.001  -0.000   0.000   0.002
 -0.003  -0.002  -0.001   0.003  -0.006  -0.000   0.001  -0.001
  0.003   0.010  -0.000  -0.006   0.002  -0.000  -0.000   0.000
  0.006   0.003   0.001   0.001  -0.003   0.001  -0.000   0.001
 -0.002  -0.002   0.000   0.003  -0.004   0.000   0.000  -0.000
  0.003   0.007   0.001  -0.004   0.002  -0.001  -0.001  -0.000
  0.004   0.003  -0.000   0.002  -0.002  -0.000  -0.001   0.000
 total augmentation occupancy for first ion, spin component:           1
  0.810   0.155   0.029   0.003  -0.018   0.431   0.220   0.005  -0.006  -0.007  -0.012   0.002   0.008   0.071  -0.012   0.001
  0.155   1.077  -0.028   0.010  -0.003   0.216   0.639  -0.041   0.014   0.006  -0.009  -0.003  -0.053   0.077   0.071  -0.002
  0.029  -0.028   0.840   0.016   0.017   0.004  -0.041   0.337   0.024   0.002   0.152   0.005   0.073   0.003  -0.042   0.003
  0.003   0.010   0.016   1.088  -0.159  -0.006   0.014   0.023   0.655  -0.210   0.005   0.002   0.071  -0.045   0.028   0.002
 -0.018  -0.003   0.017  -0.159   0.830  -0.007   0.006   0.003  -0.212   0.439  -0.007   0.001   0.012   0.041   0.005   0.003
  0.431   0.216   0.004  -0.006  -0.007   0.367   0.221  -0.005  -0.005   0.006   0.018   0.001  -0.019   0.070   0.029   0.000
  0.220   0.639  -0.041   0.014   0.006   0.221   0.574  -0.026   0.006   0.005  -0.034  -0.005  -0.044   0.090   0.067  -0.004
  0.005  -0.041   0.337   0.023   0.003  -0.005  -0.026   0.270   0.015  -0.003   0.043   0.010   0.017  -0.005  -0.010   0.004
 -0.006   0.014   0.024   0.655  -0.212  -0.005   0.006   0.015   0.581  -0.215   0.020   0.003   0.067  -0.052   0.033   0.005
 -0.007   0.006   0.002  -0.210   0.439   0.006   0.005  -0.003  -0.215   0.361   0.010   0.001  -0.029   0.040  -0.015   0.000
 -0.012  -0.009   0.152   0.005  -0.007   0.018  -0.034   0.043   0.020   0.010   1.407   0.137   0.044  -0.014  -0.025   0.002
  0.002  -0.003   0.005   0.002   0.001   0.001  -0.005   0.010   0.003   0.001   0.137   0.026   0.009  -0.000  -0.005   0.001
  0.008  -0.053   0.073   0.071   0.012  -0.019  -0.044   0.017   0.067  -0.029   0.044   0.009   0.357  -0.006  -0.002   0.026
  0.071   0.077   0.003  -0.045   0.041   0.070   0.090  -0.005  -0.052   0.040  -0.014  -0.000  -0.006   0.425   0.004   0.000
 -0.012   0.071  -0.042   0.028   0.005   0.029   0.067  -0.010   0.033  -0.015  -0.025  -0.005  -0.002   0.004   0.356   0.000
  0.001  -0.002   0.003   0.002   0.003   0.000  -0.004   0.004   0.005   0.000   0.002   0.001   0.026   0.000   0.000   0.003
  0.003  -0.001  -0.000   0.001   0.002   0.005   0.005  -0.000  -0.003   0.003  -0.001  -0.000  -0.000   0.028   0.000  -0.000
 -0.003   0.002  -0.001   0.000   0.002  -0.000   0.005  -0.002   0.002   0.000  -0.001  -0.000   0.000  -0.000   0.027   0.000


------------------------ aborting loop because EDIFF is reached ----------------------------------------


    CHARGE:  cpu time    0.4614: real time    0.4625
    FORLOC:  cpu time    0.0063: real time    0.0063
    FORNL :  cpu time    5.3663: real time    5.3792
    STRESS:  cpu time   32.3618: real time   32.4393
    FORCOR:  cpu time    0.0341: real time    0.0342
    FORHAR:  cpu time    0.0122: real time    0.0123
    MIXING:  cpu time    0.0010: real time    0.0010
    OFIELD:  cpu time    0.0000: real time    0.0000

  FORCE on cell =-STRESS in cart. coord.  units (eV):
  Direction    XX          YY          ZZ          XY          YZ          ZX
  --------------------------------------------------------------------------------------
  Alpha Z    89.52855    89.52855    89.52855
  Ewald   49358.62137 49307.23288-54270.41791    44.42958   -20.48920    11.75635
  Hartree 50062.88662 50030.48065-49691.17171    28.03738   -12.22505     7.04274
  E(xc)    -609.70943  -610.77237  -617.79008     0.92252     0.95293    -0.54925
  Local  ************************101399.29936   -65.42492    41.40715   -23.81445
  n-local  1213.95381  1216.10955  1248.40318    -1.90508     2.85790    -1.66096
  augment  -213.43445  -213.08476  -214.90987    -0.29252    -0.53837     0.31573
  Kinetic  2008.62474  2015.35497  2054.89137    -5.84142   -11.82683     6.82997
  Fock        0.00000     0.00000     0.00000     0.00000     0.00000     0.00000
  -------------------------------------------------------------------------------------
  Total      -0.11283    -0.02688    -2.16713    -0.07447     0.13853    -0.07987
  in kB      -0.07560    -0.01801    -1.45201    -0.04989     0.09282    -0.05352
  external pressure =       -0.52 kB  Pullay stress =        0.00 kB


 VOLUME and BASIS-vectors are now :
 -----------------------------------------------------------------------------
  energy-cutoff  :      280.00
  volume of cell :     2391.25
      direct lattice vectors                 reciprocal lattice vectors
     8.282799607  4.782487501  0.000000000     0.060549136  0.104231039  0.000000000
    -8.308096641  4.826278933  0.000000000    -0.059999741  0.103913670  0.000000000
     0.000000000  0.000000000 30.000000000     0.000000000  0.000000000  0.033333333

  length of vectors
     9.564358631  9.608196404 30.000000000     0.120541725  0.119991748  0.033333333


 FORCES acting on ions
    electron-ion (+dipol)            ewald-force                    non-local-force                 convergence-correction
 -----------------------------------------------------------------------------------------------
   -.120E+02 0.207E+02 -.139E+02   0.127E+02 -.220E+02 0.138E+02   -.767E+00 0.133E+01 0.171E+00   0.154E-01 -.150E-01 -.342E-01
   -.120E+02 0.207E+02 -.139E+02   0.127E+02 -.220E+02 0.138E+02   -.770E+00 0.133E+01 0.172E+00   0.350E-01 0.315E-02 -.374E-01
   -.119E+02 0.207E+02 -.139E+02   0.127E+02 -.220E+02 0.138E+02   -.768E+00 0.133E+01 0.172E+00   -.252E-01 -.321E-01 -.371E-01
   -.691E+01 0.121E+02 -.771E+01   0.678E+01 -.119E+02 0.778E+01   0.123E+00 -.217E+00 -.782E-01   0.126E-01 -.302E-01 0.158E-02
   -.693E+01 0.122E+02 -.772E+01   0.675E+01 -.119E+02 0.779E+01   0.119E+00 -.216E+00 -.796E-01   0.595E-01 -.476E-01 0.533E-02
   -.717E+01 0.121E+02 -.773E+01   0.702E+01 -.118E+02 0.780E+01   0.129E+00 -.211E+00 -.795E-01   0.186E-01 -.792E-01 0.626E-02
   0.178E+02 -.308E+02 0.235E+02   -.182E+02 0.315E+02 -.232E+02   0.417E+00 -.722E+00 -.314E+00   -.142E-01 0.514E-01 0.240E-01
   0.178E+02 -.308E+02 0.234E+02   -.182E+02 0.315E+02 -.232E+02   0.417E+00 -.721E+00 -.313E+00   -.381E-01 0.427E-01 0.235E-01
   0.178E+02 -.308E+02 0.234E+02   -.182E+02 0.316E+02 -.231E+02   0.415E+00 -.720E+00 -.312E+00   -.152E-01 0.227E-01 0.267E-01
   -.153E+01 0.248E+01 0.488E+03   0.107E+01 -.182E+01 -.493E+03   0.443E+00 -.771E+00 0.478E+01   0.139E-01 0.115E+00 0.873E-01
   0.951E+01 -.165E+02 -.497E+03   -.964E+01 0.167E+02 0.502E+03   0.183E+00 -.320E+00 -.513E+01   -.518E-01 0.949E-01 -.692E-01
   -.956E+01 0.165E+02 0.588E+03   0.105E+02 -.183E+02 -.591E+03   -.100E+01 0.175E+01 0.304E+01   0.441E-01 -.496E-01 0.215E-01
   -.121E+02 0.209E+02 -.588E+03   0.126E+02 -.219E+02 0.592E+03   -.574E+00 0.997E+00 -.317E+01   0.935E-01 -.190E-02 -.698E-01
   0.111E+02 -.193E+02 0.629E+03   -.114E+02 0.197E+02 -.633E+03   0.267E+00 -.462E+00 0.399E+01   -.570E-02 0.107E-01 -.230E-01
   0.406E+01 -.697E+01 -.622E+03   -.459E+01 0.788E+01 0.626E+03   0.526E+00 -.903E+00 -.358E+01   -.276E-02 0.767E-02 0.372E-02
   -.140E+01 0.252E+01 0.488E+03   0.106E+01 -.180E+01 -.493E+03   0.447E+00 -.769E+00 0.478E+01   -.101E+00 0.564E-01 0.951E-01
   0.953E+01 -.164E+02 -.497E+03   -.968E+01 0.167E+02 0.502E+03   0.183E+00 -.318E+00 -.513E+01   -.375E-01 0.322E-01 -.346E-01
   -.965E+01 0.167E+02 0.588E+03   0.106E+02 -.183E+02 -.592E+03   -.100E+01 0.174E+01 0.305E+01   0.739E-01 -.122E+00 0.977E-01
   -.121E+02 0.210E+02 -.588E+03   0.127E+02 -.219E+02 0.592E+03   -.574E+00 0.997E+00 -.317E+01   -.321E-01 -.796E-01 -.802E-01
   0.112E+02 -.193E+02 0.629E+03   -.114E+02 0.197E+02 -.633E+03   0.266E+00 -.461E+00 0.399E+01   -.300E-02 0.104E-02 -.272E-01
   0.404E+01 -.702E+01 -.622E+03   -.458E+01 0.795E+01 0.626E+03   0.520E+00 -.903E+00 -.358E+01   0.886E-02 -.141E-01 -.774E-03
   -.145E+01 0.253E+01 0.488E+03   0.103E+01 -.179E+01 -.493E+03   0.444E+00 -.770E+00 0.478E+01   -.349E-01 0.401E-01 0.441E-01
   0.945E+01 -.164E+02 -.497E+03   -.963E+01 0.167E+02 0.502E+03   0.184E+00 -.317E+00 -.513E+01   -.597E-02 0.378E-01 -.286E-01
   -.952E+01 0.165E+02 0.588E+03   0.105E+02 -.182E+02 -.591E+03   -.101E+01 0.175E+01 0.304E+01   0.238E-01 -.738E-01 0.320E-01
   -.120E+02 0.209E+02 -.588E+03   0.126E+02 -.219E+02 0.592E+03   -.576E+00 0.995E+00 -.317E+01   0.269E-03 -.253E-01 -.114E-01
   0.111E+02 -.193E+02 0.629E+03   -.113E+02 0.198E+02 -.633E+03   0.267E+00 -.460E+00 0.399E+01   0.144E-02 0.820E-03 -.272E-01
   0.400E+01 -.696E+01 -.622E+03   -.452E+01 0.787E+01 0.626E+03   0.522E+00 -.908E+00 -.358E+01   -.376E-02 0.240E-02 0.321E-02
 -----------------------------------------------------------------------------------------------
   0.115E+01 -.199E+01 0.868E+00   -.497E-13 -.506E-13 -.341E-12   -.118E+01 0.204E+01 -.868E+00   0.299E-01 -.519E-01 -.852E-02
 
 
 POSITION                                       TOTAL-FORCE (eV/Angst)
 -----------------------------------------------------------------------------------
     -0.15680      3.45928      0.05305         0.006618     -0.012042      0.006879
      5.36508      6.64791      0.05290         0.000875     -0.006434      0.007908
      2.60409      5.05370      0.05296         0.005649     -0.004510      0.007374
     -5.57748      3.28524      0.02237         0.002334     -0.002461     -0.005226
     -2.81620      4.87972      0.02243        -0.002119      0.000735     -0.006741
     -0.05773      6.47252      0.02246        -0.000387      0.002099     -0.006800
      0.15851     -0.27529     -0.07206        -0.004208      0.006219     -0.010993
      2.91944      1.31904     -0.07199        -0.003298      0.006617     -0.010671
      5.68018      2.91343     -0.07182        -0.003048      0.005395     -0.009670
     -0.93397      1.61708     28.71435        -0.004058      0.003177     -0.003128
      0.91206      1.60769      1.30506         0.002587     -0.004592      0.010127
     -3.69031      3.20391     28.42959         0.009084     -0.014515      0.008068
     -1.85069      3.20519      1.60092        -0.009178      0.009808      0.015599
     -6.44208      4.78183     28.27059         0.003294     -0.005654     -0.013034
     -4.60650      4.79078      1.67578        -0.004674      0.009311     -0.006149
      1.82699      3.21136     28.71442        -0.000611      0.004770     -0.003198
      3.67281      3.20207      1.30532         0.001092     -0.002455      0.008810
     -0.92949      4.79772     28.42908         0.006746     -0.011816      0.006017
      0.90999      4.79925      1.60091        -0.004166      0.012640      0.015779
     -3.68121      6.37634     28.27062         0.003521     -0.006282     -0.012742
     -1.84612      6.38516      1.67654        -0.005262      0.009094     -0.007261
      4.58784      4.80563     28.71446        -0.002737      0.005275     -0.001922
      6.43394      4.79634      1.30519         0.001463     -0.002124      0.008624
      1.83121      6.39210     28.42996         0.007815     -0.014668      0.007897
      3.67119      6.39359      1.60088        -0.005488      0.010397      0.013812
     -0.92059      7.97022     28.27060         0.003765     -0.006535     -0.012815
      0.91512      7.97873      1.67541        -0.005608      0.008549     -0.006542
 -----------------------------------------------------------------------------------
    total drift:                                0.003080     -0.006189     -0.007658


--------------------------------------------------------------------------------------------------------



  FREE ENERGIE OF THE ION-ELECTRON SYSTEM (eV)
  ---------------------------------------------------
  free  energy   TOTEN  =      -192.44216436 eV

  energy  without entropy=     -192.30224262  energy(sigma->0) =     -192.37220349
 
 d Force =-0.2956240E-03[-0.286E-03,-0.305E-03]  d Energy =-0.3279055E-03 0.323E-04
 d Force =-0.7631339E+00[-0.758E+00,-0.768E+00]  d Ewald  =-0.1059245E+02 0.983E+01


--------------------------------------------------------------------------------------------------------


    POTLOK:  cpu time    0.0345: real time    0.0346


--------------------------------------------------------------------------------------------------------


 Quasi-Newton relaxation of ions (Broydens 2nd method)
  g(Force)  = 0.225E-03   g(Stress)= 0.439E-04

 retain information from N=  2 steps
 eigenvalues of (default step * inverse Hessian matrix)
  average eigenvalue of G=   0.2907
 eigenvalue spectrum of G is  0.2907  0.2907


--------------------------------------------------------------------------------------------------------


  
 reached required accuracy - stopping structural energy minimisation
     LOOP+:  cpu time  114.8153: real time  115.1033
    4ORBIT:  cpu time    0.0000: real time    0.0000

 total amount of memory used by VASP on root node   650782. kBytes
========================================================================

   base      :      30000. kBytes
   nonl-proj :     559647. kBytes
   fftplans  :       2414. kBytes
   grid      :      12150. kBytes
   one-center:        419. kBytes
   wavefun   :      46152. kBytes
 
  
  
 General timing and accounting informations for this job:
 ========================================================
  
                  Total CPU time used (sec):     5893.560
                            User time (sec):     5871.285
                          System time (sec):       22.275
                         Elapsed time (sec):     5909.337
  
                   Maximum memory used (kb):      739952.
                   Average memory used (kb):           0.
  
                          Minor page faults:       889671
                          Major page faults:            5
                 Voluntary context switches:         5016
