unknown system                          
           1
     8.853013    5.103358    0.000000
    -8.856624    5.109570    0.000000
     0.000000    0.000000   30.000000
   V    Mo   W    S 
   3   3   3  18
Direct configuration=     1
   0.33333334  0.33333334  0.00000000
   1.00000000  0.33333334  0.00000000
   0.66666669  0.33333334  0.00000000
   0.00000000  0.66666669  0.00000000
   0.33333334  0.66666669  0.00000000
   0.66666669  0.66666669  0.00000000
   0.00000000  0.00000000  0.00000000
   0.33333334  0.00000000  0.00000000
   0.66666669  0.00000000  0.00000000
   0.11068511  0.22244981  0.95539999
   0.22244981  0.11068511  0.04460000
   0.11068511  0.55578315  0.95539999
   0.22244981  0.44401845  0.04460000
   0.11068511  0.88911647  0.95539999
   0.22244981  0.77735180  0.04460000
   0.44401845  0.22244981  0.95539999
   0.55578315  0.11068511  0.04460000
   0.44401845  0.55578315  0.95539999
   0.55578315  0.44401845  0.04460000
   0.44401845  0.88911647  0.95539999
   0.55578315  0.77735180  0.04460000
   0.77735180  0.22244981  0.95539999
   0.88911647  0.11068511  0.04460000
   0.77735180  0.55578315  0.95539999
   0.88911647  0.44401845  0.04460000
   0.77735180  0.88911647  0.95539999
   0.88911647  0.77735180  0.04460000
unknown system                          
           1
     8.665113    4.997433    0.000000
    -8.667961    5.002325    0.000000
     0.000000    0.000000   30.000000
   V    Mo   W    S 
   3   3   3  18
Direct configuration=     2
   0.33442679  0.33559652  0.00000214
   1.00109182  0.33560220  0.00000234
   0.66776244  0.33559512  0.00000215
  -0.00006461  0.66651133  0.00017342
   0.33326307  0.66651442  0.00017342
   0.66659631  0.66650441  0.00017335
  -0.00124028 -0.00249255 -0.00024581
   0.33209256 -0.00249577 -0.00024613
   0.66541978 -0.00249150 -0.00024588
   0.11253621  0.22563636  0.95317698
   0.22392623  0.11481263  0.04803903
   0.10883219  0.55099463  0.95196967
   0.22018550  0.43998469  0.04689580
   0.11161716  0.88988202  0.95069980
   0.22252846  0.77848028  0.04928919
   0.44586563  0.22563433  0.95317741
   0.55725776  0.11480785  0.04803859
   0.44216285  0.55099444  0.95196966
   0.55351416  0.43998217  0.04689675
   0.44495360  0.88988410  0.95069942
   0.55586125  0.77848474  0.04928940
   0.77919971  0.22563036  0.95317729
   0.89058651  0.11480883  0.04803839
   0.77550405  0.55099734  0.95196893
   0.88685180  0.43998568  0.04689539
   0.77828328  0.88988962  0.95069916
   0.88920024  0.77848020  0.04929003
unknown system                          
           1
     8.481248    4.896709    0.000000
    -8.484024    4.901483    0.000000
     0.000000    0.000000   30.000000
   V    Mo   W    S 
   3   3   3  18
Direct configuration=     3
   0.33478564  0.33630142 -0.00003633
   1.00144518  0.33630090 -0.00003634
   0.66811278  0.33629955 -0.00003640
   0.00019043  0.66702884  0.00018486
   0.33352862  0.66703045  0.00018489
   0.66685804  0.66702512  0.00018456
  -0.00178272 -0.00356665 -0.00019711
   0.33155298 -0.00356333 -0.00019706
   0.66487971 -0.00356601 -0.00019719
   0.11246880  0.22545569  0.95330415
   0.22386368  0.11464066  0.04787880
   0.10873756  0.55083256  0.95195639
   0.22012477  0.43990828  0.04691119
   0.11169941  0.89008394  0.95061253
   0.22265936  0.77872175  0.04938575
   0.44579627  0.22545569  0.95330357
   0.55719532  0.11463853  0.04787977
   0.44206895  0.55083052  0.95195661
   0.55345335  0.43990748  0.04691160
   0.44503310  0.89008309  0.95061090
   0.55599209  0.77872173  0.04938619
   0.77913196  0.22545494  0.95330328
   0.89052867  0.11463793  0.04787967
   0.77540549  0.55083402  0.95195587
   0.88678961  0.43990952  0.04691146
   0.77836666  0.89008651  0.95061184
   0.88932873  0.77872131  0.04938645
unknown system                          
           1
     8.257293    4.767043    0.000000
    -8.271579    4.791755    0.000000
     0.000000    0.000000   30.000000
   V    Mo   W    S 
   3   3   3  18
Direct configuration=     4
   0.33602814  0.33882971 -0.00019550
   1.00276423  0.33882224 -0.00019589
   0.66935454  0.33880002 -0.00019689
   0.00170919  0.67000312  0.00014479
   0.33500450  0.66994758  0.00014383
   0.66828550  0.66997300  0.00014467
  -0.00411845 -0.00818869  0.00003825
   0.32918366 -0.00822100  0.00003631
   0.66252203 -0.00823899  0.00003553
   0.11291570  0.22615841  0.95249630
   0.22437730  0.11549883  0.04870941
   0.10809734  0.54962981  0.95051268
   0.21958239  0.43897035  0.04829860
   0.11157588  0.88993461  0.94858292
   0.22266079  0.77866279  0.05140913
   0.44617684  0.22613605  0.95249315
   0.55768145  0.11543893  0.04871893
   0.44141812  0.54960189  0.95051370
   0.55285879  0.43898179  0.04830563
   0.44491344  0.88994119  0.94858616
   0.55600006  0.77866947  0.05141251
   0.77956791  0.22611836  0.95249094
   0.89101709  0.11546980  0.04871237
   0.77478815  0.54966440  0.95050571
   0.88627068  0.43900230  0.04830543
   0.77824225  0.88994516  0.94858326
   0.88933696  0.77866331  0.05140799
unknown system                          
           1
     8.242655    4.759103    0.000000
    -8.270208    4.806798    0.000000
     0.000000    0.000000   30.000000
   V    Mo   W    S 
   3   3   3  18
Direct configuration=     5
   0.33873715  0.34426492 -0.00038670
   1.00548842  0.34426414 -0.00038838
   0.67208136  0.34421664 -0.00039442
   0.00488894  0.67631415  0.00004909
   0.33814123  0.67625841  0.00004694
   0.67139399  0.67627462  0.00004895
  -0.00893755 -0.01779371  0.00027332
   0.32433029 -0.01784699  0.00026656
   0.65769282 -0.01784056  0.00026417
   0.11292048  0.22595316  0.95157459
   0.22461459  0.11592354  0.04948882
   0.10792691  0.54924478  0.94851356
   0.21943912  0.43896812  0.05034149
   0.11129649  0.88937762  0.94564325
   0.22197400  0.77725435  0.05451056
   0.44622678  0.22594189  0.95158623
   0.55793201  0.11589289  0.04948683
   0.44124578  0.54924085  0.94850501
   0.55274763  0.43896527  0.05033326
   0.44462856  0.88936645  0.94565086
   0.55528567  0.77725772  0.05451592
   0.77959550  0.22593652  0.95159272
   0.89125649  0.11591222  0.04948445
   0.77459988  0.54926205  0.94852644
   0.88611435  0.43896948  0.05032230
   0.77796780  0.88937786  0.94564839
   0.88862577  0.77725806  0.05449569
unknown system                          
           1
     8.243049    4.759312    0.000000
    -8.269950    4.805878    0.000000
     0.000000    0.000000   30.000000
   V    Mo   W    S 
   3   3   3  18
Direct configuration=     6
   0.34025353  0.34728509 -0.00034589
   1.00698716  0.34727629 -0.00034582
   0.67358356  0.34723602 -0.00035113
   0.00518533  0.67695019  0.00030109
   0.33845866  0.67689421  0.00030269
   0.67170035  0.67692143  0.00030101
  -0.01023277 -0.02040716  0.00008189
   0.32304272 -0.02043933  0.00008031
   0.65640618 -0.02045382  0.00008232
   0.11235418  0.22480960  0.95192920
   0.22410724  0.11492395  0.04910549
   0.10858158  0.55054361  0.94832387
   0.21988377  0.43985286  0.05044346
   0.11130009  0.88938023  0.94521559
   0.22142515  0.77616527  0.05494902
   0.44565945  0.22479426  0.95193931
   0.55742316  0.11490090  0.04910145
   0.44190034  0.55053679  0.94831860
   0.55319844  0.43984860  0.05043353
   0.44462954  0.88937095  0.94521825
   0.55473881  0.77617246  0.05495039
   0.77902351  0.22479170  0.95194269
   0.89075492  0.11491746  0.04910114
   0.77524971  0.55055393  0.94833927
   0.88655602  0.43985434  0.05042731
   0.77797268  0.88937631  0.94522055
   0.88807112  0.77615830  0.05493432
unknown system                          
           1
     8.243335    4.759508    0.000000
    -8.273269    4.811326    0.000000
     0.000000    0.000000   30.000000
   V    Mo   W    S 
   3   3   3  18
Direct configuration=     7
   0.34157750  0.34993699 -0.00041427
   1.00831101  0.34993360 -0.00041518
   0.67491089  0.34988834 -0.00041968
   0.00542491  0.67743123  0.00034360
   0.33869355  0.67737120  0.00034272
   0.67193776  0.67740608  0.00034327
  -0.01138484 -0.02272343  0.00003114
   0.32188760 -0.02274888  0.00002941
   0.65525884 -0.02275833  0.00002883
   0.11203215  0.22416301  0.95231115
   0.22384262  0.11440768  0.04871185
   0.10891851  0.55121067  0.94826579
   0.22008192  0.44025273  0.05057784
   0.11114881  0.88906680  0.94497960
   0.22121025  0.77574853  0.05519845
   0.44533577  0.22414494  0.95231845
   0.55715827  0.11438289  0.04870925
   0.44223774  0.55120698  0.94825953
   0.55340116  0.44025264  0.05056918
   0.44448003  0.88906001  0.94498486
   0.55452316  0.77575178  0.05520320
   0.77870694  0.22414307  0.95232277
   0.89049543  0.11440256  0.04870722
   0.77558667  0.55122526  0.94827891
   0.88676312  0.44025572  0.05056334
   0.77782036  0.88906440  0.94498445
   0.88785430  0.77573796  0.05518421
unknown system                          
           1
     8.240327    4.757895    0.000000
    -8.282224    4.830434    0.000000
     0.000000    0.000000   30.000000
   V    Mo   W    S 
   3   3   3  18
Direct configuration=     8
   0.34247672  0.35175612 -0.00041669
   1.00923451  0.35179876 -0.00041696
   0.67584689  0.35172482 -0.00042209
   0.00549935  0.67756603  0.00042201
   0.33875346  0.67751852  0.00042134
   0.67202343  0.67757528  0.00042217
  -0.01211864 -0.02419126 -0.00003697
   0.32115743 -0.02420964 -0.00003819
   0.65453008 -0.02422369 -0.00003843
   0.11183695  0.22379045  0.95258498
   0.22369602  0.11411942  0.04843119
   0.10914766  0.55166619  0.94817364
   0.22016436  0.44043877  0.05066897
   0.11106368  0.88889320  0.94481279
   0.22103139  0.77539497  0.05536854
   0.44515439  0.22376905  0.95259043
   0.55701497  0.11410140  0.04842650
   0.44247804  0.55168488  0.94816374
   0.55350190  0.44044282  0.05066147
   0.44439763  0.88888802  0.94481890
   0.55434595  0.77540171  0.05537271
   0.77853011  0.22377342  0.95259699
   0.89035843  0.11412930  0.04842251
   0.77582070  0.55169388  0.94818460
   0.88686139  0.44043817  0.05065436
   0.77773509  0.88888902  0.94481724
   0.88767257  0.77538485  0.05535416
unknown system                          
           1
     8.254060    4.765900    0.000000
    -8.303034    4.850699    0.000000
     0.000000    0.000000   30.000000
   V    Mo   W    S 
   3   3   3  18
Direct configuration=     9
   0.34751633  0.36168205 -0.00037415
   1.01409488  0.36148909 -0.00036233
   0.68069935  0.36162161 -0.00037571
   0.00565758  0.67797134  0.00075976
   0.33900882  0.67789517  0.00075745
   0.67209944  0.67781824  0.00075977
  -0.01592032 -0.03181989 -0.00048328
   0.31733789 -0.03184408 -0.00048316
   0.65073553 -0.03182128 -0.00048081
   0.11103000  0.22205739  0.95424619
   0.22310807  0.11297091  0.04672105
   0.11043063  0.55422516  0.94767368
   0.22062198  0.44122882  0.05119039
   0.11049256  0.88771076  0.94407525
   0.22016092  0.77368368  0.05616176
   0.44430779  0.22207678  0.95426274
   0.55643146  0.11294468  0.04671965
   0.44368222  0.55408802  0.94771445
   0.55386677  0.44118193  0.05115942
   0.44381204  0.88771919  0.94408274
   0.55344135  0.77366409  0.05616666
   0.77762714  0.22203090  0.95424719
   0.88975684  0.11292056  0.04672844
   0.77702793  0.55411156  0.94771938
   0.88720740  0.44123337  0.05118964
   0.77717208  0.88773553  0.94407630
   0.88680777  0.77363888  0.05614743
unknown system                          
           1
     8.257699    4.767986    0.000000
    -8.295060    4.832671    0.000000
     0.000000    0.000000   30.000000
   V    Mo   W    S 
   3   3   3  18
Direct configuration=    10
   0.35038911  0.36740638 -0.00010748
   1.01697124  0.36724482 -0.00012425
   0.68355471  0.36735290 -0.00011628
   0.00560982  0.67788696  0.00101902
   0.33897388  0.67780584  0.00101614
   0.67203209  0.67772293  0.00101599
  -0.01821780 -0.03644453 -0.00089853
   0.31504106 -0.03643537 -0.00089446
   0.64843044 -0.03641810 -0.00089678
   0.11061303  0.22116579  0.95554065
   0.22289048  0.11254822  0.04538302
   0.11145104  0.55626542  0.94724916
   0.22091911  0.44177309  0.05160679
   0.10998215  0.88668369  0.94352874
   0.21950082  0.77237265  0.05666519
   0.44386029  0.22118461  0.95555267
   0.55621555  0.11251740  0.04538468
   0.44472415  0.55617164  0.94725709
   0.55413251  0.44173092  0.05159225
   0.44331525  0.88670385  0.94353928
   0.55279370  0.77236294  0.05668064
   0.77717090  0.22114215  0.95553913
   0.88953555  0.11246986  0.04540085
   0.77806818  0.55619219  0.94726716
   0.88746811  0.44177789  0.05160499
   0.77665920  0.88670110  0.94353812
   0.88612988  0.77232921  0.05665613
unknown system                          
           1
     8.265030    4.772227    0.000000
    -8.303761    4.839285    0.000000
     0.000000    0.000000   30.000000
   V    Mo   W    S 
   3   3   3  18
Direct configuration=    11
   0.34916914  0.36503699 -0.00000294
   1.01583514  0.36500212 -0.00001795
   0.68243890  0.36501728 -0.00001284
   0.00547440  0.67758813  0.00090688
   0.33882088  0.67754181  0.00090388
   0.67193831  0.67751682  0.00090037
  -0.01749555 -0.03498296 -0.00090511
   0.31578151 -0.03496967 -0.00090587
   0.64915120 -0.03497156 -0.00090019
   0.11087880  0.22175169  0.95551050
   0.22308963  0.11293653  0.04542113
   0.11136180  0.55608935  0.94738602
   0.22090989  0.44184089  0.05160707
   0.10990901  0.88654070  0.94364364
   0.21966126  0.77268450  0.05643575
   0.44415093  0.22175508  0.95551545
   0.55641513  0.11291637  0.04541990
   0.44467258  0.55607502  0.94736974
   0.55418855  0.44182722  0.05161238
   0.44324334  0.88656070  0.94365453
   0.55297603  0.77270346  0.05644981
   0.77748563  0.22173974  0.95551373
   0.88974565  0.11288654  0.04542779
   0.77801484  0.55608015  0.94738932
   0.88753382  0.44183933  0.05159576
   0.77657835  0.88654832  0.94365443
   0.88628528  0.77265988  0.05642673
unknown system                          
           1
     8.264627    4.771993    0.000000
    -8.301421    4.835696    0.000000
     0.000000    0.000000   30.000000
   V    Mo   W    S 
   3   3   3  18
Direct configuration=    12
   0.34982299  0.36634425  0.00010867
   1.01648590  0.36630678  0.00009406
   0.68309438  0.36632497  0.00009888
   0.00540603  0.67745787  0.00094384
   0.33876238  0.67741442  0.00094131
   0.67186837  0.67738791  0.00093840
  -0.01804866 -0.03608720 -0.00104979
   0.31523245 -0.03607189 -0.00104969
   0.64860304 -0.03606737 -0.00104509
   0.11084134  0.22167826  0.95582155
   0.22309100  0.11293939  0.04509198
   0.11154250  0.55644952  0.94732853
   0.22097111  0.44197263  0.05174869
   0.10976513  0.88625080  0.94350051
   0.21955059  0.77246584  0.05650859
   0.44411594  0.22168043  0.95582449
   0.55641709  0.11292308  0.04509112
   0.44485267  0.55643661  0.94731088
   0.55425837  0.44196291  0.05175558
   0.44310326  0.88627505  0.94351118
   0.55286753  0.77248632  0.05652441
   0.77745203  0.22166930  0.95582455
   0.88975252  0.11289652  0.04509798
   0.77819696  0.55644525  0.94733024
   0.88760393  0.44197064  0.05173760
   0.77643412  0.88626118  0.94351147
   0.88617148  0.77244096  0.05649995
unknown system                          
           1
     8.268976    4.774505    0.000000
    -8.305420    4.837602    0.000000
     0.000000    0.000000   30.000000
   V    Mo   W    S 
   3   3   3  18
Direct configuration=    13
   0.35003939  0.36684053  0.00028882
   1.01675465  0.36677256  0.00027927
   0.68327978  0.36669986  0.00027903
   0.00536559  0.67733763  0.00092697
   0.33868126  0.67722448  0.00092698
   0.67176978  0.67726196  0.00092480
  -0.01833820 -0.03665559 -0.00119683
   0.31495304 -0.03663377 -0.00119481
   0.64833194 -0.03661662 -0.00119000
   0.11094696  0.22190510  0.95608944
   0.22314410  0.11303849  0.04477838
   0.11156756  0.55649987  0.94737215
   0.22103826  0.44212700  0.05191859
   0.10958437  0.88589608  0.94339523
   0.21957567  0.77252711  0.05642610
   0.44420112  0.22189226  0.95608557
   0.55645268  0.11299725  0.04478277
   0.44487397  0.55647784  0.94735955
   0.55431627  0.44213909  0.05193052
   0.44293449  0.88593410  0.94340453
   0.55290449  0.77254905  0.05644299
   0.77758785  0.22188489  0.95608742
   0.88980914  0.11300624  0.04478178
   0.77824681  0.55654841  0.94736629
   0.88772836  0.44213805  0.05191513
   0.77626226  0.88591429  0.94340430
   0.88620285  0.77250829  0.05641493
unknown system                          
           1
     8.273842    4.777318    0.000000
    -8.308719    4.837701    0.000000
     0.000000    0.000000   30.000000
   V    Mo   W    S 
   3   3   3  18
Direct configuration=    14
   0.35009161  0.36692980  0.00031636
   1.01679667  0.36687755  0.00030458
   0.68335099  0.36683609  0.00030281
   0.00531228  0.67724009  0.00092823
   0.33864378  0.67715390  0.00092668
   0.67173200  0.67717359  0.00092537
  -0.01834837 -0.03667714 -0.00122693
   0.31493859 -0.03666025 -0.00122539
   0.64831805 -0.03664570 -0.00122075
   0.11096035  0.22193161  0.95611672
   0.22314383  0.11303815  0.04474797
   0.11156022  0.55648553  0.94736328
   0.22105741  0.44216373  0.05195699
   0.10956419  0.88585249  0.94335971
   0.21957873  0.77252707  0.05643964
   0.44422221  0.22192473  0.95611505
   0.55645627  0.11300450  0.04475198
   0.44487007  0.55646904  0.94734802
   0.55434026  0.44217003  0.05196392
   0.44291231  0.88588730  0.94337031
   0.55290281  0.77255164  0.05645726
   0.77759928  0.22191725  0.95611699
   0.88980972  0.11300672  0.04475190
   0.77822912  0.55651409  0.94736402
   0.88773448  0.44216870  0.05194802
   0.77623734  0.88586966  0.94336901
   0.88620025  0.77250428  0.05642812
unknown system                          
           1
     8.275403    4.778217    0.000000
    -8.308757    4.835963    0.000000
     0.000000    0.000000   30.000000
   V    Mo   W    S 
   3   3   3  18
Direct configuration=    15
   0.35027724  0.36718802  0.00047082
   1.01687835  0.36718793  0.00045924
   0.68362430  0.36734449  0.00045775
   0.00521759  0.67713759  0.00092147
   0.33866796  0.67721532  0.00091629
   0.67175049  0.67711409  0.00091813
  -0.01855070 -0.03707387 -0.00134870
   0.31473768 -0.03707715 -0.00134817
   0.64810495 -0.03706465 -0.00134322
   0.11101317  0.22206216  0.95627632
   0.22309852  0.11294951  0.04454365
   0.11156750  0.55649266  0.94738398
   0.22114697  0.44237296  0.05210777
   0.10943375  0.88557768  0.94328175
   0.21963941  0.77262622  0.05636804
   0.44435417  0.22208612  0.95628588
   0.55644768  0.11298808  0.04453504
   0.44488132  0.55649601  0.94736404
   0.55450653  0.44235500  0.05209777
   0.44277193  0.88559841  0.94329251
   0.55294629  0.77265929  0.05638591
   0.77764462  0.22208559  0.95629105
   0.88977859  0.11293765  0.04454439
   0.77818220  0.55642550  0.94740840
   0.88776478  0.44234566  0.05208014
   0.77608907  0.88559472  0.94329031
   0.88624010  0.77258946  0.05635932
unknown system                          
           1
     8.278227    4.779851    0.000000
    -8.308026    4.831440    0.000000
     0.000000    0.000000   30.000000
   V    Mo   W    S 
   3   3   3  18
Direct configuration=    16
   0.35046457  0.36759083  0.00061691
   1.01709814  0.36764197  0.00061032
   0.68382097  0.36769046  0.00062817
   0.00508924  0.67682701  0.00090113
   0.33850453  0.67690862  0.00090174
   0.67160074  0.67685116  0.00089915
  -0.01865852 -0.03727439 -0.00150358
   0.31466520 -0.03726650 -0.00150016
   0.64799586 -0.03725269 -0.00149580
   0.11111469  0.22230154  0.95646276
   0.22307702  0.11290772  0.04434141
   0.11148894  0.55630770  0.94744285
   0.22122850  0.44257426  0.05224431
   0.10929192  0.88530856  0.94315326
   0.21968279  0.77271056  0.05633464
   0.44449459  0.22232457  0.95646708
   0.55644348  0.11298373  0.04432755
   0.44478579  0.55632318  0.94742360
   0.55461987  0.44255693  0.05225480
   0.44263962  0.88532709  0.94315715
   0.55299053  0.77274719  0.05635199
   0.77776600  0.22233521  0.95647422
   0.88977784  0.11292676  0.04433838
   0.77811670  0.55630508  0.94743462
   0.88786812  0.44253762  0.05224056
   0.77595764  0.88532374  0.94315922
   0.88628968  0.77269656  0.05633362
unknown system                          
           1
     8.282659    4.782405    0.000000
    -8.311345    4.832066    0.000000
     0.000000    0.000000   30.000000
   V    Mo   W    S 
   3   3   3  18
Direct configuration=    17
   0.35070931  0.36814762  0.00087724
   1.01737791  0.36809781  0.00087669
   0.68397676  0.36803689  0.00088427
   0.00501588  0.67665987  0.00088596
   0.33837336  0.67660374  0.00089868
   0.67145970  0.67663486  0.00089001
  -0.01888314 -0.03770755 -0.00168564
   0.31446637 -0.03766757 -0.00169131
   0.64781351 -0.03763020 -0.00168618
   0.11131292  0.22269177  0.95667938
   0.22306262  0.11286891  0.04407741
   0.11137018  0.55607049  0.94746172
   0.22139208  0.44285388  0.05247302
   0.10906971  0.88485598  0.94296671
   0.21978167  0.77294348  0.05624334
   0.44464682  0.22268956  0.95667596
   0.55640558  0.11290158  0.04407749
   0.44463781  0.55602512  0.94746183
   0.55469276  0.44286368  0.05250290
   0.44242623  0.88490049  0.94296228
   0.55311191  0.77297470  0.05626142
   0.77796975  0.22268988  0.95667733
   0.88975052  0.11288360  0.04407701
   0.77802680  0.55613124  0.94744440
   0.88808690  0.44285738  0.05250662
   0.77573574  0.88488647  0.94296812
   0.88642480  0.77295076  0.05623324
unknown system                          
           1
     8.283439    4.782855    0.000000
    -8.310318    4.829386    0.000000
     0.000000    0.000000   30.000000
   V    Mo   W    S 
   3   3   3  18
Direct configuration=    18
   0.35084591  0.36843425  0.00107348
   1.01753216  0.36838350  0.00106544
   0.68412647  0.36834532  0.00105846
   0.00491072  0.67645890  0.00085490
   0.33827697  0.67640077  0.00086133
   0.67135304  0.67642582  0.00085860
  -0.01897009 -0.03788351 -0.00186020
   0.31435855 -0.03786958 -0.00186202
   0.64771730 -0.03783355 -0.00185780
   0.11148360  0.22301761  0.95681627
   0.22305164  0.11284018  0.04391245
   0.11123355  0.55580321  0.94748188
   0.22152238  0.44307483  0.05269126
   0.10890639  0.88452548  0.94282708
   0.21988221  0.77315109  0.05618732
   0.44478455  0.22301193  0.95681090
   0.55637473  0.11283595  0.04392331
   0.44450119  0.55574780  0.94747808
   0.55476705  0.44309504  0.05271225
   0.44226253  0.88456579  0.94282705
   0.55321791  0.77318850  0.05620948
   0.77814521  0.22300872  0.95680920
   0.88972700  0.11284513  0.04391790
   0.77788359  0.55584458  0.94748112
   0.88823083  0.44309779  0.05271810
   0.77556608  0.88455826  0.94282832
   0.88652298  0.77314064  0.05617575
unknown system                          
           1
     8.284071    4.783222    0.000000
    -8.309879    4.827898    0.000000
     0.000000    0.000000   30.000000
   V    Mo   W    S 
   3   3   3  18
Direct configuration=    19
   0.35102914  0.36880506  0.00134557
   1.01773177  0.36879186  0.00133240
   0.68434634  0.36876898  0.00132496
   0.00478073  0.67618718  0.00082130
   0.33815822  0.67615801  0.00081911
   0.67121794  0.67617586  0.00082276
  -0.01909011 -0.03811991 -0.00208358
   0.31423230 -0.03812519 -0.00207897
   0.64758465 -0.03809841 -0.00207360
   0.11169963  0.22344818  0.95701654
   0.22299208  0.11271669  0.04366526
   0.11101841  0.55537946  0.94753775
   0.22170188  0.44342157  0.05297850
   0.10867535  0.88406771  0.94264136
   0.22005189  0.77348781  0.05607029
   0.44499378  0.22344698  0.95701081
   0.55630675  0.11269829  0.04368136
   0.44429994  0.55533740  0.94752451
   0.55493820  0.44344322  0.05298289
   0.44203331  0.88409893  0.94264561
   0.55339135  0.77353822  0.05609569
   0.77837412  0.22344927  0.95700856
   0.88966382  0.11272156  0.04367340
   0.77766309  0.55540752  0.94754894
   0.88840461  0.44344888  0.05298547
   0.77533347  0.88409737  0.94264359
   0.88668179  0.77346195  0.05605942
unknown system                          
           1
     8.283703    4.783009    0.000000
    -8.308731    4.826333    0.000000
     0.000000    0.000000   30.000000
   V    Mo   W    S 
   3   3   3  18
Direct configuration=    20
   0.35102092  0.36876325  0.00148520
   1.01771436  0.36883710  0.00147752
   0.68441853  0.36885706  0.00147840
   0.00474580  0.67612370  0.00080501
   0.33815560  0.67618303  0.00080236
   0.67123652  0.67617630  0.00080434
  -0.01908840 -0.03810487 -0.00217477
   0.31425467 -0.03809390 -0.00217433
   0.64759823 -0.03806907 -0.00216749
   0.11176615  0.22361867  0.95705219
   0.22291406  0.11256835  0.04360917
   0.11085370  0.55504964  0.94756357
   0.22176273  0.44361108  0.05310293
   0.10858506  0.88388457  0.94255329
   0.22018275  0.77371916  0.05600369
   0.44511958  0.22362988  0.95705278
   0.55625622  0.11260208  0.04361557
   0.44415411  0.55504399  0.94754078
   0.55509331  0.44361536  0.05309867
   0.44193877  0.88390626  0.94255857
   0.55350319  0.77377843  0.05602705
   0.77845997  0.22365002  0.95705576
   0.88961104  0.11260365  0.04361151
   0.77748166  0.55504858  0.94758042
   0.88844973  0.44360880  0.05308978
   0.77523400  0.88390546  0.94255625
   0.88679222  0.77369785  0.05599170
unknown system                          
           1
     8.284206    4.783300    0.000000
    -8.308922    4.826084    0.000000
     0.000000    0.000000   30.000000
   V    Mo   W    S 
   3   3   3  18
Direct configuration=    21
   0.35109274  0.36891879  0.00166316
   1.01778482  0.36894896  0.00166271
   0.68445869  0.36895252  0.00166707
   0.00471786  0.67604957  0.00076374
   0.33811584  0.67607356  0.00076699
   0.67116362  0.67607969  0.00076656
  -0.01913525 -0.03818749 -0.00232932
   0.31422326 -0.03816953 -0.00232760
   0.64756596 -0.03813116 -0.00231988
   0.11191658  0.22391319  0.95713501
   0.22285068  0.11244403  0.04351008
   0.11066325  0.55467032  0.94760863
   0.22191091  0.44389506  0.05328191
   0.10843090  0.88357805  0.94242945
   0.22032276  0.77399881  0.05592334
   0.44526584  0.22392527  0.95713677
   0.55619485  0.11247853  0.04351613
   0.44395159  0.55463648  0.94759665
   0.55523499  0.44389819  0.05327862
   0.44179099  0.88361064  0.94243086
   0.55363963  0.77405431  0.05594615
   0.77860679  0.22394523  0.95713812
   0.88955003  0.11247920  0.04351245
   0.77729234  0.55467254  0.94762338
   0.88858780  0.44389754  0.05327693
   0.77508438  0.88360467  0.94242984
   0.88693261  0.77397748  0.05591214
unknown system                          
           1
     8.282800    4.782488    0.000000
    -8.308097    4.826279    0.000000
     0.000000    0.000000   30.000000
   V    Mo   W    S 
   3   3   3  18
Direct configuration=    22
   0.35112397  0.36897932  0.00182057
   1.01780506  0.36894660  0.00181932
   0.68443613  0.36895086  0.00182337
   0.00469442  0.67599342  0.00073342
   0.33807722  0.67596707  0.00074050
   0.67109016  0.67597158  0.00074041
  -0.01910959 -0.03814133 -0.00244908
   0.31424420 -0.03812294 -0.00244618
   0.64759455 -0.03807239 -0.00244145
   0.11205704  0.22417344  0.95717515
   0.22278659  0.11232035  0.04346552
   0.11044839  0.55424346  0.94766290
   0.22207042  0.44417073  0.05341636
   0.10830710  0.88332948  0.94231205
   0.22046512  0.77429495  0.05583969
   0.44539013  0.22418515  0.95717840
   0.55613011  0.11234846  0.04347528
   0.44372256  0.55417771  0.94765718
   0.55535488  0.44417296  0.05341553
   0.44167643  0.88337834  0.94230974
   0.55378500  0.77434181  0.05586601
   0.77872892  0.22419500  0.95717663
   0.88948294  0.11234288  0.04347194
   0.77707981  0.55424675  0.94767551
   0.88872820  0.44418519  0.05342262
   0.77496267  0.88336670  0.94230992
   0.88708203  0.77426892  0.05582859
unknown system                          
           1
     8.282800    4.782488    0.000000
    -8.308097    4.826279    0.000000
     0.000000    0.000000   30.000000
   V    Mo   W    S 
   3   3   3  18
Direct configuration=    23
   0.35107049  0.36887426  0.00176840
   1.01776963  0.36890483  0.00176319
   0.68442779  0.36890438  0.00176541
   0.00471250  0.67602886  0.00074553
   0.33810000  0.67604051  0.00074780
   0.67114215  0.67604768  0.00074854
  -0.01909642 -0.03811724 -0.00240190
   0.31425399 -0.03809985 -0.00239963
   0.64759932 -0.03806459 -0.00239395
   0.11199835  0.22407467  0.95714510
   0.22279553  0.11233695  0.04350193
   0.11050151  0.55434728  0.94765315
   0.22202235  0.44410350  0.05336387
   0.10835314  0.88342113  0.94235312
   0.22042843  0.77421690  0.05585918
   0.44534586  0.22408460  0.95714744
   0.55614100  0.11237150  0.04351055
   0.44379217  0.55431793  0.94763592
   0.55532968  0.44410796  0.05336358
   0.44171860  0.88346111  0.94235410
   0.55375076  0.77427148  0.05588478
   0.77868565  0.22410207  0.95714882
   0.88949658  0.11237058  0.04350637
   0.77713332  0.55435458  0.94766543
   0.88869812  0.44411169  0.05336262
   0.77500339  0.88345006  0.94235349
   0.88704054  0.77419165  0.05584706
