 vasp.5.4.1 05Feb16 (build Jul 05 2020 17:13:04) complex                        
  
 executed on           IFC91_ompi date 2024.07.24  16:15:18
 running on   40 total cores
 distrk:  each k-point on   40 cores,    1 groups
 distr:  one band on NCORES_PER_BAND=   1 cores,   40 groups


--------------------------------------------------------------------------------------------------------


 INCAR:
 POTCAR:   PAW_PBE V 08Apr2002                    
 POTCAR:   PAW_PBE Mo 08Apr2002                   
 POTCAR:   PAW_PBE W 08Apr2002                    
 POTCAR:    PAW_PBE S 17Jan2003                   

 ----------------------------------------------------------------------------- 
|                                                                             |
|           W    W    AA    RRRRR   N    N  II  N    N   GGGG   !!!           |
|           W    W   A  A   R    R  NN   N  II  NN   N  G    G  !!!           |
|           W    W  A    A  R    R  N N  N  II  N N  N  G       !!!           |
|           W WW W  AAAAAA  RRRRR   N  N N  II  N  N N  G  GGG   !            |
|           WW  WW  A    A  R   R   N   NN  II  N   NN  G    G                |
|           W    W  A    A  R    R  N    N  II  N    N   GGGG   !!!           |
|                                                                             |
|      For optimal performance we recommend to set                            |
|        NCORE= 4 - approx SQRT( number of cores)                             |
|      NCORE specifies how many cores store one orbital (NPAR=cpu/NCORE).     |
|      This setting can  greatly improve the performance of VASP for DFT.     |
|      The default, NPAR=number of cores might be grossly inefficient         |
|      on modern multi-core architectures or massively parallel machines.     |
|      Do your own testing !!!!                                               |
|      Unfortunately you need to use the default for GW and RPA calculations. |
|      (for HF NCORE is supported but not extensively tested yet)             |
|                                                                             |
 ----------------------------------------------------------------------------- 

 POTCAR:   PAW_PBE V 08Apr2002                    
   VRHFIN =V: p6 d4 s1                                                          
   LEXCH  = PE                                                                  
   EATOM  =   170.8679 eV,   12.5584 Ry                                         
                                                                                
   TITEL  = PAW_PBE V 08Apr2002                                                 
   LULTRA =        F    use ultrasoft PP ?                                      
   IUNSCR =        1    unscreen: 0-lin 1-nonlin 2-no                           
   RPACOR =    2.000    partial core radius                                     
   POMASS =   50.941; ZVAL   =    5.000    mass and valenz                      
   RCORE  =    2.700    outmost cutoff radius                                   
   RWIGS  =    2.500; RWIGS  =    1.323    wigner-seitz radius (au A)           
   ENMAX  =  192.543; ENMIN  =  144.408 eV                                      
   RCLOC  =    1.779    cutoff for local pot                                    
   LCOR   =        T    correct aug charges                                     
   LPAW   =        T    paw PP                                                  
   EAUG   =  358.662                                                            
   DEXC   =    -.034                                                            
   RMAX   =    3.323    core radius for proj-oper                               
   RAUG   =    1.300    factor for augmentation sphere                          
   RDEP   =    2.762    radius for radial grids                                 
   QCUT   =   -3.762; QGAM   =    7.524    optimization parameters              
                                                                                
   Description                                                                  
     l     E      TYP  RCUT    TYP  RCUT                                        
     2   .000     23  2.700                                                     
     2   .000     23  2.700                                                     
     0   .000     23  2.700                                                     
     0  2.000     23  2.700                                                     
     1   .000     23  2.700                                                     
     1  2.000     23  2.700                                                     
     3   .000      7   .000                                                     
  local pseudopotential read in
  partial core-charges read in
  atomic valenz-charges read in
  non local Contribution for L=           2  read in
    real space projection operators read in
  non local Contribution for L=           2  read in
    real space projection operators read in
  non local Contribution for L=           0  read in
    real space projection operators read in
  non local Contribution for L=           0  read in
    real space projection operators read in
  non local Contribution for L=           1  read in
    real space projection operators read in
  non local Contribution for L=           1  read in
    real space projection operators read in
    PAW grid and wavefunctions read in
 
   number of l-projection  operators is LMAX  =           6
   number of lm-projection operators is LMMAX =          18
 
 POTCAR:   PAW_PBE Mo 08Apr2002                   
   VRHFIN =Mo: 4p5s4d                                                           
   LEXCH  = PE                                                                  
   EATOM  =   217.5180 eV,   15.9871 Ry                                         
                                                                                
   TITEL  = PAW_PBE Mo 08Apr2002                                                
   LULTRA =        F    use ultrasoft PP ?                                      
   IUNSCR =        1    unscreen: 0-lin 1-nonlin 2-no                           
   RPACOR =    2.200    partial core radius                                     
   POMASS =   95.940; ZVAL   =    6.000    mass and valenz                      
   RCORE  =    2.750    outmost cutoff radius                                   
   RWIGS  =    2.750; RWIGS  =    1.455    wigner-seitz radius (au A)           
   ENMAX  =  224.584; ENMIN  =  168.438 eV                                      
   RCLOC  =    2.111    cutoff for local pot                                    
   LCOR   =        T    correct aug charges                                     
   LPAW   =        T    paw PP                                                  
   EAUG   =  345.278                                                            
   DEXC   =    -.088                                                            
   RMAX   =    3.077    core radius for proj-oper                               
   RAUG   =    1.300    factor for augmentation sphere                          
   RDEP   =    2.815    radius for radial grids                                 
   QCUT   =   -4.063; QGAM   =    8.126    optimization parameters              
                                                                                
   Description                                                                  
     l     E      TYP  RCUT    TYP  RCUT                                        
     2   .000     23  2.500                                                     
     2   .000     23  2.500                                                     
     0   .000     23  2.600                                                     
     0  1.000     23  2.600                                                     
     1   .400     23  2.750                                                     
     1  2.000     23  2.750                                                     
     3   .000      7   .000                                                     
  local pseudopotential read in
  partial core-charges read in
  atomic valenz-charges read in
  non local Contribution for L=           2  read in
    real space projection operators read in
  non local Contribution for L=           2  read in
    real space projection operators read in
  non local Contribution for L=           0  read in
    real space projection operators read in
  non local Contribution for L=           0  read in
    real space projection operators read in
  non local Contribution for L=           1  read in
    real space projection operators read in
  non local Contribution for L=           1  read in
    real space projection operators read in
    PAW grid and wavefunctions read in
 
   number of l-projection  operators is LMAX  =           6
   number of lm-projection operators is LMMAX =          18
 
 POTCAR:   PAW_PBE W 08Apr2002                    
   VRHFIN =W : 6s5d                                                             
   LEXCH  = PE                                                                  
   EATOM  =   204.6100 eV,   15.0384 Ry                                         
                                                                                
   TITEL  = PAW_PBE W 08Apr2002                                                 
   LULTRA =        F    use ultrasoft PP ?                                      
   IUNSCR =        1    unscreen: 0-lin 1-nonlin 2-no                           
   RPACOR =    2.330    partial core radius                                     
   POMASS =  183.850; ZVAL   =    6.000    mass and valenz                      
   RCORE  =    2.750    outmost cutoff radius                                   
   RWIGS  =    2.750; RWIGS  =    1.455    wigner-seitz radius (au A)           
   ENMAX  =  223.057; ENMIN  =  167.293 eV                                      
   RCLOC  =    2.147    cutoff for local pot                                    
   LCOR   =        T    correct aug charges                                     
   LPAW   =        T    paw PP                                                  
   EAUG   =  373.438                                                            
   DEXC   =    -.060                                                            
   RMAX   =    3.087    core radius for proj-oper                               
   RAUG   =    1.300    factor for augmentation sphere                          
   RDEP   =    2.886    radius for radial grids                                 
   QCUT   =   -4.049; QGAM   =    8.098    optimization parameters              
                                                                                
   Description                                                                  
     l     E      TYP  RCUT    TYP  RCUT                                        
     2   .000     23  2.500                                                     
     2   .000     23  2.500                                                     
     0   .000     23  2.500                                                     
     0   .000     23  2.500                                                     
     1   .200     23  2.750                                                     
     1  2.000     23  2.750                                                     
     3   .000      7   .000                                                     
  local pseudopotential read in
  partial core-charges read in
  atomic valenz-charges read in
  non local Contribution for L=           2  read in
    real space projection operators read in
  non local Contribution for L=           2  read in
    real space projection operators read in
  non local Contribution for L=           0  read in
    real space projection operators read in
  non local Contribution for L=           0  read in
    real space projection operators read in
  non local Contribution for L=           1  read in
    real space projection operators read in
  non local Contribution for L=           1  read in
    real space projection operators read in
    PAW grid and wavefunctions read in
 
   number of l-projection  operators is LMAX  =           6
   number of lm-projection operators is LMMAX =          18
 
 POTCAR:    PAW_PBE S 17Jan2003                   
   VRHFIN =S : s2p4                                                             
   LEXCH  = PE                                                                  
   EATOM  =   276.8230 eV,   20.3459 Ry                                         
                                                                                
   TITEL  = PAW_PBE S 17Jan2003                                                 
   LULTRA =        F    use ultrasoft PP ?                                      
   IUNSCR =        1    unscreen: 0-lin 1-nonlin 2-no                           
   RPACOR =    1.500    partial core radius                                     
   POMASS =   32.066; ZVAL   =    6.000    mass and valenz                      
   RCORE  =    1.900    outmost cutoff radius                                   
   RWIGS  =    2.200; RWIGS  =    1.164    wigner-seitz radius (au A)           
   ENMAX  =  280.000; ENMIN  =  194.016 eV                                      
   ICORE  =        2    local potential                                         
   LCOR   =        T    correct aug charges                                     
   LPAW   =        T    paw PP                                                  
   EAUG   =  335.092                                                            
   DEXC   =     .000                                                            
   RMAX   =    2.867    core radius for proj-oper                               
   RAUG   =    1.300    factor for augmentation sphere                          
   RDEP   =    1.954    radius for radial grids                                 
   QCUT   =   -4.360; QGAM   =    8.721    optimization parameters              
                                                                                
   Description                                                                  
     l     E      TYP  RCUT    TYP  RCUT                                        
     0   .000     23  1.900                                                     
     0   .000     23  1.900                                                     
     1   .000     23  1.900                                                     
     1   .000     23  1.900                                                     
     2   .000     23  1.900                                                     
  local pseudopotential read in
  partial core-charges read in
  atomic valenz-charges read in
  non local Contribution for L=           0  read in
    real space projection operators read in
  non local Contribution for L=           0  read in
    real space projection operators read in
  non local Contribution for L=           1  read in
    real space projection operators read in
  non local Contribution for L=           1  read in
    real space projection operators read in
    PAW grid and wavefunctions read in
 
   number of l-projection  operators is LMAX  =           4
   number of lm-projection operators is LMMAX =           8
 

 ----------------------------------------------------------------------------- 
|                                                                             |
|  ADVICE TO THIS USER RUNNING 'VASP/VAMP'   (HEAR YOUR MASTER'S VOICE ...):  |
|                                                                             |
|      You have a (more or less) 'large supercell' and for larger cells       |
|      it might be more efficient to use real space projection operators      |
|      So try LREAL= Auto  in the INCAR   file.                               |
|      Mind: If you want to do a very accurate calculations keep the          |
|      reciprocal projection scheme          (i.e. LREAL=.FALSE.)             |
|                                                                             |
 ----------------------------------------------------------------------------- 

 PAW_PBE V 08Apr2002                    :
 energy of atom  1       EATOM= -170.8679
 kinetic energy error for atom=    0.0047 (will be added to EATOM!!)
 PAW_PBE Mo 08Apr2002                   :
 energy of atom  2       EATOM= -217.5180
 kinetic energy error for atom=    0.0215 (will be added to EATOM!!)
 PAW_PBE W 08Apr2002                    :
 energy of atom  3       EATOM= -204.6100
 kinetic energy error for atom=    0.0205 (will be added to EATOM!!)
  PAW_PBE S 17Jan2003                   :
 energy of atom  4       EATOM= -276.8230
 kinetic energy error for atom=    0.0122 (will be added to EATOM!!)
 
 
 POSCAR: crystal structure from VMoWS2 with Hexag
  positions in cartesian coordinates
  No initial velocities read in
 exchange correlation table for  LEXCH =        8
   RHO(1)=    0.500       N(1)  =     2000
   RHO(2)=  100.500       N(2)  =     4000
 


--------------------------------------------------------------------------------------------------------


 ion  position               nearest neighbor table
   1  0.667  0.333  0.000-  19 2.34  22 2.34  25 2.36  24 2.36  17 2.36  16 2.36
   2  0.333  0.333  0.000-  13 2.34  16 2.34  19 2.36  18 2.36  11 2.36  10 2.36
   3  0.667  0.667  0.000-  21 2.34  24 2.34  27 2.36  26 2.36  19 2.36  18 2.36
   4  0.333  0.667  0.000-  15 2.34  18 2.34  20 2.36  21 2.36  13 2.36  12 2.36   6 3.34   5 3.34
                             9 3.36   8 3.36
   5  0.000  0.667  0.000-  27 2.34  12 2.34  14 2.36  15 2.36  24 2.36  25 2.36   7 3.34   8 3.34
                             4 3.34   6 3.36
   6  0.333  0.000  0.000-  11 2.34  20 2.34  17 2.36  16 2.36  15 2.36  14 2.36   4 3.34   9 3.34
                             7 3.34   5 3.36
   7  0.000  0.000  0.000-  23 2.34  14 2.34  11 2.36  10 2.36  27 2.36  26 2.36   9 3.34   5 3.34
                             8 3.34   6 3.34
   8  1.000  0.333  0.000-  25 2.34  10 2.34  13 2.36  12 2.36  22 2.36  23 2.36   5 3.34   7 3.34
                             9 3.36   4 3.36
   9  0.667  0.000  0.000-  17 2.34  26 2.34  23 2.36  22 2.36  21 2.36  20 2.36   7 3.34   6 3.34
                             8 3.36   4 3.36
  10  0.111  0.222  0.955-   8 2.34   7 2.36   2 2.36
  11  0.222  0.111  0.045-   6 2.34   7 2.36   2 2.36
  12  0.111  0.556  0.955-   5 2.34   8 2.36   4 2.36
  13  0.222  0.444  0.045-   2 2.34   8 2.36   4 2.36
  14  0.111  0.889  0.955-   7 2.34   5 2.36   6 2.36
  15  0.222  0.777  0.045-   4 2.34   5 2.36   6 2.36
  16  0.444  0.222  0.955-   2 2.34   6 2.36   1 2.36
  17  0.556  0.111  0.045-   9 2.34   6 2.36   1 2.36
  18  0.444  0.556  0.955-   4 2.34   2 2.36   3 2.36
  19  0.556  0.444  0.045-   1 2.34   2 2.36   3 2.36
  20  0.444  0.889  0.955-   6 2.34   4 2.36   9 2.36
  21  0.556  0.777  0.045-   3 2.34   4 2.36   9 2.36
  22  0.777  0.222  0.955-   1 2.34   9 2.36   8 2.36
  23  0.889  0.111  0.045-   7 2.34   9 2.36   8 2.36
  24  0.777  0.556  0.955-   3 2.34   1 2.36   5 2.36
  25  0.889  0.444  0.045-   8 2.34   1 2.36   5 2.36
  26  0.777  0.889  0.955-   9 2.34   3 2.36   7 2.36
  27  0.889  0.777  0.045-   5 2.34   3 2.36   7 2.36
 

IMPORTANT INFORMATION: All symmetrisations will be switched off!
NOSYMM: (Re-)initialisation of all symmetry stuff for point group C_1.

 
 
 KPOINTS: K-POINTS 	#supercell of CrS2 in hexagona

Automatic generation of k-mesh.
Space group operators:
 irot       det(A)        alpha          n_x          n_y          n_z        tau_x        tau_y        tau_z
    1     1.000000     0.000000     1.000000     0.000000     0.000000     0.000000     0.000000     0.000000
 
 Subroutine IBZKPT returns following result:
 ===========================================
 
 Found     34 irreducible k-points:
 
 Following reciprocal coordinates:
            Coordinates               Weight
  0.000000  0.000000  0.000000      1.000000
  0.125000  0.000000  0.000000      2.000000
  0.250000  0.000000  0.000000      2.000000
  0.375000  0.000000  0.000000      2.000000
  0.500000  0.000000  0.000000      1.000000
  0.000000  0.125000  0.000000      2.000000
  0.125000  0.125000  0.000000      2.000000
  0.250000  0.125000  0.000000      2.000000
  0.375000  0.125000  0.000000      2.000000
  0.500000  0.125000  0.000000      2.000000
 -0.375000  0.125000  0.000000      2.000000
 -0.250000  0.125000  0.000000      2.000000
 -0.125000  0.125000  0.000000      2.000000
  0.000000  0.250000  0.000000      2.000000
  0.125000  0.250000  0.000000      2.000000
  0.250000  0.250000  0.000000      2.000000
  0.375000  0.250000  0.000000      2.000000
  0.500000  0.250000  0.000000      2.000000
 -0.375000  0.250000  0.000000      2.000000
 -0.250000  0.250000  0.000000      2.000000
 -0.125000  0.250000  0.000000      2.000000
 -0.000000  0.375000  0.000000      2.000000
  0.125000  0.375000  0.000000      2.000000
  0.250000  0.375000  0.000000      2.000000
  0.375000  0.375000  0.000000      2.000000
  0.500000  0.375000  0.000000      2.000000
 -0.375000  0.375000  0.000000      2.000000
 -0.250000  0.375000  0.000000      2.000000
 -0.125000  0.375000  0.000000      2.000000
  0.000000  0.500000  0.000000      1.000000
  0.125000  0.500000  0.000000      2.000000
  0.250000  0.500000  0.000000      2.000000
  0.375000  0.500000  0.000000      2.000000
  0.500000  0.500000  0.000000      1.000000
 
 Following cartesian coordinates:
            Coordinates               Weight
  0.000000  0.000000  0.000000      1.000000
  0.007209  0.012401  0.000000      2.000000
  0.014418  0.024802  0.000000      2.000000
  0.021626  0.037202  0.000000      2.000000
  0.028835  0.049603  0.000000      1.000000
 -0.007209  0.012401  0.000000      2.000000
  0.000000  0.024802  0.000000      2.000000
  0.007209  0.037202  0.000000      2.000000
  0.014418  0.049603  0.000000      2.000000
  0.021626  0.062004  0.000000      2.000000
 -0.028835 -0.024802  0.000000      2.000000
 -0.021626 -0.012401  0.000000      2.000000
 -0.014418  0.000000  0.000000      2.000000
 -0.014418  0.024802  0.000000      2.000000
 -0.007209  0.037202  0.000000      2.000000
  0.000000  0.049603  0.000000      2.000000
  0.007209  0.062004  0.000000      2.000000
  0.014418  0.074405  0.000000      2.000000
 -0.036044 -0.012401  0.000000      2.000000
 -0.028835  0.000000  0.000000      2.000000
 -0.021626  0.012401  0.000000      2.000000
 -0.021626  0.037202  0.000000      2.000000
 -0.014418  0.049603  0.000000      2.000000
 -0.007209  0.062004  0.000000      2.000000
  0.000000  0.074405  0.000000      2.000000
  0.007209  0.086806  0.000000      2.000000
 -0.043253  0.000000  0.000000      2.000000
 -0.036044  0.012401  0.000000      2.000000
 -0.028835  0.024802  0.000000      2.000000
 -0.028835  0.049603  0.000000      1.000000
 -0.021626  0.062004  0.000000      2.000000
 -0.014418  0.074405  0.000000      2.000000
 -0.007209  0.086806  0.000000      2.000000
  0.000000  0.099206  0.000000      1.000000
 


--------------------------------------------------------------------------------------------------------




 Dimension of arrays:
   k-points           NKPTS =     34   k-points in BZ     NKDIM =     34   number of bands    NBANDS=    120
   number of dos      NEDOS =    301   number of ions     NIONS =     27
   non local maximal  LDIM  =      6   non local SUM 2l+1 LMDIM =     18
   total plane-waves  NPLWV = 222264
   max r-space proj   IRMAX =      1   max aug-charges    IRDMAX=   5642
   dimension x,y,z NGX =    42 NGY =   42 NGZ =  126
   dimension x,y,z NGXF=    84 NGYF=   84 NGZF=  252
   support grid    NGXF=    84 NGYF=   84 NGZF=  252
   ions per type =               3   3   3  18
 NGX,Y,Z   is equivalent  to a cutoff of   6.96,  6.96,  6.98 a.u.
 NGXF,Y,Z  is equivalent  to a cutoff of  13.92, 13.92, 13.96 a.u.


 I would recommend the setting:
   dimension x,y,z NGX =    41 NGY =   41 NGZ =  123
 SYSTEM =  unknown system                          
 POSCAR =  crystal structure from VMoWS2 with Hexag

 Startparameter for this run:
   NWRITE =      2    write-flag & timer
   PREC   = normal    normal or accurate (medium, high low for compatibility)
   ISTART =      0    job   : 0-new  1-cont  2-samecut
   ICHARG =      2    charge: 1-file 2-atom 10-const
   ISPIN  =      1    spin polarized calculation?
   LNONCOLLINEAR =      F non collinear calculations
   LSORBIT =      F    spin-orbit coupling
   INIWAV =      1    electr: 0-lowe 1-rand  2-diag
   LASPH  =      F    aspherical Exc in radial PAW
   METAGGA=      F    non-selfconsistent MetaGGA calc.

 Electronic Relaxation 1
   ENCUT  =  280.0 eV  20.58 Ry    4.54 a.u.  13.68 13.68 40.93*2*pi/ulx,y,z
   ENINI  =  280.0     initial cutoff
   ENAUG  =  373.4 eV  augmentation charge cutoff
   NELM   =     60;   NELMIN=  2; NELMDL= -5     # of ELM steps 
   EDIFF  = 0.1E-03   stopping-criterion for ELM
   LREAL  =      F    real-space projection
   NLSPLINE    = F    spline interpolate recip. space projectors
   LCOMPAT=      F    compatible to vasp.4.4
   GGA_COMPAT  = T    GGA compatible to vasp.4.4-vasp.4.6
   LMAXPAW     = -100 max onsite density
   LMAXMIX     =    2 max onsite mixed and CHGCAR
   VOSKOWN=      0    Vosko Wilk Nusair interpolation
   ROPT   =    0.00000   0.00000   0.00000   0.00000
 Ionic relaxation
   EDIFFG = 0.1E-02   stopping-criterion for IOM
   NSW    =    100    number of steps for IOM
   NBLOCK =      1;   KBLOCK =    100    inner block; outer block 
   IBRION =      1    ionic relax: 0-MD 1-quasi-New 2-CG
   NFREE  =      0    steps in history (QN), initial steepest desc. (CG)
   ISIF   =      3    stress and relaxation
   IWAVPR =     11    prediction:  0-non 1-charg 2-wave 3-comb
   ISYM   =      0    0-nonsym 1-usesym 2-fastsym
   LCORR  =      T    Harris-Foulkes like correction to forces

   POTIM  = 0.5000    time-step for ionic-motion
   TEIN   =    0.0    initial temperature
   TEBEG  =    0.0;   TEEND  =   0.0 temperature during run
   SMASS  =  -3.00    Nose mass-parameter (am)
   estimated Nose-frequenzy (Omega)   =  0.10E-29 period in steps =****** mass=  -0.230E-26a.u.
   SCALEE = 1.0000    scale energy and forces
   NPACO  =    256;   APACO  = 16.0  distance and # of slots for P.C.
   PSTRESS=    0.0 pullay stress

  Mass of Ions in am
   POMASS =  50.94 95.94183.85 32.07
  Ionic Valenz
   ZVAL   =   5.00  6.00  6.00  6.00
  Atomic Wigner-Seitz radii
   RWIGS  =  -1.00 -1.00 -1.00 -1.00
  virtual crystal weights 
   VCA    =   1.00  1.00  1.00  1.00
   NELECT =     159.0000    total number of electrons
   NUPDOWN=      -1.0000    fix difference up-down

 DOS related values:
   EMIN   =  10.00;   EMAX   =-10.00  energy-range for DOS
   EFERMI =   0.00
   ISMEAR =     0;   SIGMA  =   0.20  broadening in eV -4-tet -1-fermi 0-gaus

 Electronic relaxation 2 (details)
   IALGO  =     38    algorithm
   LDIAG  =      T    sub-space diagonalisation (order eigenvalues)
   LSUBROT=      F    optimize rotation matrix (better conditioning)
   TURBO    =      0    0=normal 1=particle mesh
   IRESTART =      0    0=no restart 2=restart with 2 vectors
   NREBOOT  =      0    no. of reboots
   NMIN     =      0    reboot dimension
   EREF     =   0.00    reference energy to select bands
   IMIX   =      4    mixing-type and parameters
     AMIX     =   0.40;   BMIX     =  1.00
     AMIX_MAG =   1.60;   BMIX_MAG =  1.00
     AMIN     =   0.10
     WC   =   100.;   INIMIX=   1;  MIXPRE=   1;  MAXMIX= -45

 Intra band minimization:
   WEIMIN = 0.0010     energy-eigenvalue tresh-hold
   EBREAK =  0.21E-06  absolut break condition
   DEPER  =   0.30     relativ break condition  

   TIME   =   0.40     timestep for ELM

  volume/ion in A,a.u.               =      97.10       655.29
  Fermi-wavevector in a.u.,A,eV,Ry     =   0.643191  1.215456  5.628665  0.413695
  Thomas-Fermi vector in A             =   1.710110
 
 Write flags
   LWAVE  =      F    write WAVECAR
   LCHARG =      F    write CHGCAR
   LVTOT  =      F    write LOCPOT, total local potential
   LVHAR  =      F    write LOCPOT, Hartree potential only
   LELF   =      F    write electronic localiz. function (ELF)
   LORBIT =      0    0 simple, 1 ext, 2 COOP (PROOUT)


 Dipole corrections
   LMONO  =      F    monopole corrections only (constant potential shift)
   LDIPOL =      F    correct potential (dipole corrections)
   IDIPOL =      0    1-x, 2-y, 3-z, 4-all directions 
   EPSILON=  1.0000000 bulk dielectric constant

 Exchange correlation treatment:
   GGA     =    --    GGA type
   LEXCH   =     8    internal setting for exchange type
   VOSKOWN=      0    Vosko Wilk Nusair interpolation
   LHFCALC =     F    Hartree Fock is set to
   LHFONE  =     F    Hartree Fock one center treatment
   AEXX    =    0.0000 exact exchange contribution

 Linear response parameters
   LEPSILON=     F    determine dielectric tensor
   LRPA    =     F    only Hartree local field effects (RPA)
   LNABLA  =     F    use nabla operator in PAW spheres
   LVEL    =     F    velocity operator in full k-point grid
   LINTERFAST=   F  fast interpolation
   KINTER  =     0    interpolate to denser k-point grid
   CSHIFT  =0.1000    complex shift for real part using Kramers Kronig
   OMEGAMAX=  -1.0    maximum frequency
   DEG_THRESHOLD= 0.2000000E-02 threshold for treating states as degnerate
   RTIME   =    0.100 relaxation time in fs

 Orbital magnetization related:
   ORBITALMAG=     F  switch on orbital magnetization
   LCHIMAG   =     F  perturbation theory with respect to B field
   DQ        =  0.001000  dq finite difference perturbation B field



--------------------------------------------------------------------------------------------------------


 quasi-Newton-method for relaxation of ions
 charge density and potential will be updated during run
 non-spin polarized calculation
 Variant of blocked Davidson
 Davidson routine will perform the subspace rotation
 perform sub-space diagonalisation
    after iterative eigenvector-optimisation
 modified Broyden-mixing scheme, WC =      100.0
 initial mixing is a Kerker type mixing with AMIX =  0.4000 and BMIX =      1.0000
 Hartree-type preconditioning will be used
 using additional bands           40
 reciprocal scheme for non local part
 use partial core corrections
 calculate Harris-corrections to forces 
   (improved forces if not selfconsistent)
 use gradient corrections 
 use of overlap-Matrix (Vanderbilt PP)
 Gauss-broadening in eV      SIGMA  =   0.20


--------------------------------------------------------------------------------------------------------


  energy-cutoff  :      280.00
  volume of cell :     2621.81
      direct lattice vectors                 reciprocal lattice vectors
     8.669999960  5.039999894  0.000000000     0.057670129  0.099206348  0.000000000
    -8.669999821  5.040000133  0.000000000    -0.057670126  0.099206350  0.000000000
     0.000000000  0.000000000 30.000000000     0.000000000  0.000000000  0.033333333

  length of vectors
    10.028484344 10.028484344 30.000000000     0.114750788  0.114750788  0.033333333


 
 k-points in units of 2pi/SCALE and weight: K-POINTS 	#supercell of CrS2 in hexagona
   0.00000000  0.00000000  0.00000000       0.016
   0.00720877  0.01240079  0.00000000       0.031
   0.01441753  0.02480159  0.00000000       0.031
   0.02162630  0.03720238  0.00000000       0.031
   0.02883506  0.04960317  0.00000000       0.016
  -0.00720877  0.01240079  0.00000000       0.031
   0.00000000  0.02480159  0.00000000       0.031
   0.00720877  0.03720238  0.00000000       0.031
   0.01441753  0.04960317  0.00000000       0.031
   0.02162630  0.06200397  0.00000000       0.031
  -0.02883506 -0.02480159  0.00000000       0.031
  -0.02162630 -0.01240079  0.00000000       0.031
  -0.01441753  0.00000000  0.00000000       0.031
  -0.01441753  0.02480159  0.00000000       0.031
  -0.00720877  0.03720238  0.00000000       0.031
   0.00000000  0.04960317  0.00000000       0.031
   0.00720877  0.06200397  0.00000000       0.031
   0.01441753  0.07440476  0.00000000       0.031
  -0.03604383 -0.01240079  0.00000000       0.031
  -0.02883506  0.00000000  0.00000000       0.031
  -0.02162630  0.01240079  0.00000000       0.031
  -0.02162630  0.03720238  0.00000000       0.031
  -0.01441753  0.04960317  0.00000000       0.031
  -0.00720877  0.06200397  0.00000000       0.031
   0.00000000  0.07440476  0.00000000       0.031
   0.00720877  0.08680556  0.00000000       0.031
  -0.04325260  0.00000000  0.00000000       0.031
  -0.03604383  0.01240079  0.00000000       0.031
  -0.02883506  0.02480159  0.00000000       0.031
  -0.02883506  0.04960317  0.00000000       0.016
  -0.02162630  0.06200397  0.00000000       0.031
  -0.01441753  0.07440476  0.00000000       0.031
  -0.00720876  0.08680556  0.00000000       0.031
   0.00000000  0.09920635  0.00000000       0.016
 
 k-points in reciprocal lattice and weights: K-POINTS 	#supercell of CrS2 in hexagona
   0.00000000  0.00000000  0.00000000       0.016
   0.12500000  0.00000000  0.00000000       0.031
   0.25000000  0.00000000  0.00000000       0.031
   0.37500000  0.00000000  0.00000000       0.031
   0.50000000  0.00000000  0.00000000       0.016
   0.00000000  0.12500000  0.00000000       0.031
   0.12500000  0.12500000  0.00000000       0.031
   0.25000000  0.12500000  0.00000000       0.031
   0.37500000  0.12500000  0.00000000       0.031
   0.50000000  0.12500000  0.00000000       0.031
  -0.37500000  0.12500000  0.00000000       0.031
  -0.25000000  0.12500000  0.00000000       0.031
  -0.12500000  0.12500000  0.00000000       0.031
   0.00000000  0.25000000  0.00000000       0.031
   0.12500000  0.25000000  0.00000000       0.031
   0.25000000  0.25000000  0.00000000       0.031
   0.37500000  0.25000000  0.00000000       0.031
   0.50000000  0.25000000  0.00000000       0.031
  -0.37500000  0.25000000  0.00000000       0.031
  -0.25000000  0.25000000  0.00000000       0.031
  -0.12500000  0.25000000  0.00000000       0.031
  -0.00000000  0.37500000  0.00000000       0.031
   0.12500000  0.37500000  0.00000000       0.031
   0.25000000  0.37500000  0.00000000       0.031
   0.37500000  0.37500000  0.00000000       0.031
   0.50000000  0.37500000  0.00000000       0.031
  -0.37500000  0.37500000  0.00000000       0.031
  -0.25000000  0.37500000  0.00000000       0.031
  -0.12500000  0.37500000  0.00000000       0.031
   0.00000000  0.50000000  0.00000000       0.016
   0.12500000  0.50000000  0.00000000       0.031
   0.25000000  0.50000000  0.00000000       0.031
   0.37500000  0.50000000  0.00000000       0.031
   0.50000000  0.50000000  0.00000000       0.016
 
 position of ions in fractional coordinates (direct lattice) 
   0.66666669  0.33333334  0.00000000
   0.33333334  0.33333334  0.00000000
   0.66666669  0.66666669  0.00000000
   0.33333334  0.66666669  0.00000000
   0.00000000  0.66666669  0.00000000
   0.33333334  0.00000000  0.00000000
   0.00000000  0.00000000  0.00000000
   1.00000000  0.33333334  0.00000000
   0.66666669  0.00000000  0.00000000
   0.11068511  0.22244981  0.95539999
   0.22244981  0.11068511  0.04460000
   0.11068511  0.55578315  0.95539999
   0.22244981  0.44401845  0.04460000
   0.11068511  0.88911647  0.95539999
   0.22244981  0.77735180  0.04460000
   0.44401845  0.22244981  0.95539999
   0.55578315  0.11068511  0.04460000
   0.44401845  0.55578315  0.95539999
   0.55578315  0.44401845  0.04460000
   0.44401845  0.88911647  0.95539999
   0.55578315  0.77735180  0.04460000
   0.77735180  0.22244981  0.95539999
   0.88911647  0.11068511  0.04460000
   0.77735180  0.55578315  0.95539999
   0.88911647  0.44401845  0.04460000
   0.77735180  0.88911647  0.95539999
   0.88911647  0.77735180  0.04460000
 
 position of ions in cartesian coordinates  (Angst):
   2.89000012  5.04000012  0.00000000
   0.00000005  3.36000011  0.00000000
   0.00000009  6.72000022  0.00000000
  -2.88999998  5.04000020  0.00000000
  -5.78000005  3.36000019  0.00000000
   2.89000007  1.68000002  0.00000000
   0.00000000  0.00000000  0.00000000
   5.77999993  6.71999999  0.00000000
   5.78000015  3.36000003  0.00000000
  -0.96899991  1.67900001 28.66199970
   0.96899995  1.67899998  1.33799996
  -3.85899993  3.35900011 28.66199970
  -1.92100007  3.35900008  1.33799996
  -6.74899970  5.03900005 28.66199970
  -4.81100010  5.03900017  1.33799996
   1.92100017  3.35900003 28.66199970
   3.85900003  3.35900000  1.33799996
  -0.96899986  5.03900012 28.66199970
   0.96900000  5.03900009  1.33799996
  -3.85899963  6.71900006 28.66199970
  -1.92100003  6.71900019  1.33799996
   4.81100024  5.03900004 28.66199970
   6.74899984  5.03899987  1.33799996
   1.92100021  6.71900014 28.66199970
   3.85899981  6.71899996  1.33799996
  -0.96899956  8.39900008 28.66199970
   0.96899979  8.39900005  1.33799996
 


--------------------------------------------------------------------------------------------------------


 k-point  1 :   0.0000 0.0000 0.0000  plane waves:   27959
 k-point  2 :   0.1250 0.0000 0.0000  plane waves:   27889
 k-point  3 :   0.2500 0.0000 0.0000  plane waves:   27875
 k-point  4 :   0.3750 0.0000 0.0000  plane waves:   27893
 k-point  5 :   0.5000 0.0000 0.0000  plane waves:   27932
 k-point  6 :   0.0000 0.1250 0.0000  plane waves:   27889
 k-point  7 :   0.1250 0.1250 0.0000  plane waves:   27906
 k-point  8 :   0.2500 0.1250 0.0000  plane waves:   27898
 k-point  9 :   0.3750 0.1250 0.0000  plane waves:   27888
 k-point 10 :   0.5000 0.1250 0.0000  plane waves:   27873
 k-point 11 :  -0.3750 0.1250 0.0000  plane waves:   27874
 k-point 12 :  -0.2500 0.1250 0.0000  plane waves:   27895
 k-point 13 :  -0.1250 0.1250 0.0000  plane waves:   27879
 k-point 14 :   0.0000 0.2500 0.0000  plane waves:   27875
 k-point 15 :   0.1250 0.2500 0.0000  plane waves:   27898
 k-point 16 :   0.2500 0.2500 0.0000  plane waves:   27920
 k-point 17 :   0.3750 0.2500 0.0000  plane waves:   27901
 k-point 18 :   0.5000 0.2500 0.0000  plane waves:   27875
 k-point 19 :  -0.3750 0.2500 0.0000  plane waves:   27894
 k-point 20 :  -0.2500 0.2500 0.0000  plane waves:   27870
 k-point 21 :  -0.1250 0.2500 0.0000  plane waves:   27895
 k-point 22 :  -0.0000 0.3750 0.0000  plane waves:   27893
 k-point 23 :   0.1250 0.3750 0.0000  plane waves:   27888
 k-point 24 :   0.2500 0.3750 0.0000  plane waves:   27901
 k-point 25 :   0.3750 0.3750 0.0000  plane waves:   27860
 k-point 26 :   0.5000 0.3750 0.0000  plane waves:   27895
 k-point 27 :  -0.3750 0.3750 0.0000  plane waves:   27858
 k-point 28 :  -0.2500 0.3750 0.0000  plane waves:   27894
 k-point 29 :  -0.1250 0.3750 0.0000  plane waves:   27874
 k-point 30 :   0.0000 0.5000 0.0000  plane waves:   27932
 k-point 31 :   0.1250 0.5000 0.0000  plane waves:   27873
 k-point 32 :   0.2500 0.5000 0.0000  plane waves:   27875
 k-point 33 :   0.3750 0.5000 0.0000  plane waves:   27895
 k-point 34 :   0.5000 0.5000 0.0000  plane waves:   27910

 maximum and minimum number of plane-waves per node :     27959    27858

 maximum number of plane-waves:     27959
 maximum index in each direction: 
   IXMAX=   14   IYMAX=   13   IZMAX=   40
   IXMIN=  -14   IYMIN=  -14   IZMIN=  -40

 WARNING: aliasing errors must be expected set NGX to  58 to avoid them
 WARNING: aliasing errors must be expected set NGY to  56 to avoid them
 WARNING: aliasing errors must be expected set NGZ to 162 to avoid them
 aliasing errors are usually negligible using standard VASP settings
 and one can safely disregard these warnings

 serial   3D FFT for wavefunctions

 total amount of memory used by VASP on root node   650782. kBytes
========================================================================

   base      :      30000. kBytes
   nonl-proj :     559647. kBytes
   fftplans  :       2414. kBytes
   grid      :      12150. kBytes
   one-center:        419. kBytes
   wavefun   :      46152. kBytes
 
     INWAV:  cpu time    0.0000: real time    0.0000
 Broyden mixing: mesh for mixing (old mesh)
   NGX = 27   NGY = 27   NGZ = 81
  (NGX  = 84   NGY  = 84   NGZ  =252)
  gives a total of  59049 points

 initial charge density was supplied:
 charge density of overlapping atoms calculated
 number of electron     159.0000000 magnetization 
 keeping initial charge density in first step


--------------------------------------------------------------------------------------------------------


 Maximum index for augmentation-charges          140 (set IRDMAX)


--------------------------------------------------------------------------------------------------------


 First call to EWALD:  gamma=   0.129
 Maximum number of real-space cells 4x 4x 2
 Maximum number of reciprocal cells 2x 2x 5

 FEWALD executed in parallel
    FEWALD:  cpu time    0.0017: real time    0.0017


----------------------------------------- Iteration    1(   1)  ---------------------------------------


    POTLOK:  cpu time    0.0366: real time    0.0371
    SETDIJ:  cpu time    0.0033: real time    0.0033
     EDDAV:  cpu time   21.7495: real time   21.8048
       DOS:  cpu time    0.0013: real time    0.0014
    --------------------------------------------
      LOOP:  cpu time   21.7949: real time   21.8547

 eigenvalue-minimisations  :  8160
 total energy-change (2. order) : 0.1123552E+04  (-0.3586522E+04)
 number of electron     159.0000000 magnetization 
 augmentation part      159.0000000 magnetization 

 Free energy of the ion-electron system (eV)
  ---------------------------------------------------
  alpha Z        PSCENC =        81.65567618
  Ewald energy   TEWEN  =     41891.17178794
  -Hartree energ DENC   =    -47723.81766557
  -exchange      EXHF   =         0.00000000
  -V(xc)+E(xc)   XCENC  =      -242.92463154
  PAW double counting   =      3467.42045192    -2871.19716117
  entropy T*S    EENTRO =        -0.53058500
  eigenvalues    EBANDS =      -239.66887226
  atomic energy  EATOM  =      6761.44252427
  Solvation  Ediel_sol  =         0.00000000
  ---------------------------------------------------
  free energy    TOTEN  =      1123.55152477 eV

  energy without entropy =     1124.08210977  energy(sigma->0) =     1123.81681727


--------------------------------------------------------------------------------------------------------




----------------------------------------- Iteration    1(   2)  ---------------------------------------


     EDDAV:  cpu time   28.7934: real time   28.8637
       DOS:  cpu time    0.0009: real time    0.0009
    --------------------------------------------
      LOOP:  cpu time   28.7954: real time   28.8730

 eigenvalue-minimisations  : 11440
 total energy-change (2. order) :-0.1127134E+04  (-0.1084516E+04)
 number of electron     159.0000000 magnetization 
 augmentation part      159.0000000 magnetization 

 Free energy of the ion-electron system (eV)
  ---------------------------------------------------
  alpha Z        PSCENC =        81.65567618
  Ewald energy   TEWEN  =     41891.17178794
  -Hartree energ DENC   =    -47723.81766557
  -exchange      EXHF   =         0.00000000
  -V(xc)+E(xc)   XCENC  =      -242.92463154
  PAW double counting   =      3467.42045192    -2871.19716117
  entropy T*S    EENTRO =        -0.21949702
  eigenvalues    EBANDS =     -1367.11348866
  atomic energy  EATOM  =      6761.44252427
  Solvation  Ediel_sol  =         0.00000000
  ---------------------------------------------------
  free energy    TOTEN  =        -3.58200365 eV

  energy without entropy =       -3.36250663  energy(sigma->0) =       -3.47225514


--------------------------------------------------------------------------------------------------------




----------------------------------------- Iteration    1(   3)  ---------------------------------------


     EDDAV:  cpu time   27.5852: real time   27.6515
       DOS:  cpu time    0.0002: real time    0.0010
    --------------------------------------------
      LOOP:  cpu time   27.5871: real time   27.6601

 eigenvalue-minimisations  : 10880
 total energy-change (2. order) :-0.1963185E+03  (-0.1888486E+03)
 number of electron     159.0000000 magnetization 
 augmentation part      159.0000000 magnetization 

 Free energy of the ion-electron system (eV)
  ---------------------------------------------------
  alpha Z        PSCENC =        81.65567618
  Ewald energy   TEWEN  =     41891.17178794
  -Hartree energ DENC   =    -47723.81766557
  -exchange      EXHF   =         0.00000000
  -V(xc)+E(xc)   XCENC  =      -242.92463154
  PAW double counting   =      3467.42045192    -2871.19716117
  entropy T*S    EENTRO =        -0.29485010
  eigenvalues    EBANDS =     -1563.35659440
  atomic energy  EATOM  =      6761.44252427
  Solvation  Ediel_sol  =         0.00000000
  ---------------------------------------------------
  free energy    TOTEN  =      -199.90046248 eV

  energy without entropy =     -199.60561238  energy(sigma->0) =     -199.75303743


--------------------------------------------------------------------------------------------------------




----------------------------------------- Iteration    1(   4)  ---------------------------------------


     EDDAV:  cpu time   30.3238: real time   30.3963
       DOS:  cpu time    0.0010: real time    0.0010
    --------------------------------------------
      LOOP:  cpu time   30.3256: real time   30.4041

 eigenvalue-minimisations  : 12160
 total energy-change (2. order) :-0.9022183E+01  (-0.8779891E+01)
 number of electron     159.0000000 magnetization 
 augmentation part      159.0000000 magnetization 

 Free energy of the ion-electron system (eV)
  ---------------------------------------------------
  alpha Z        PSCENC =        81.65567618
  Ewald energy   TEWEN  =     41891.17178794
  -Hartree energ DENC   =    -47723.81766557
  -exchange      EXHF   =         0.00000000
  -V(xc)+E(xc)   XCENC  =      -242.92463154
  PAW double counting   =      3467.42045192    -2871.19716117
  entropy T*S    EENTRO =        -0.32040327
  eigenvalues    EBANDS =     -1572.35322446
  atomic energy  EATOM  =      6761.44252427
  Solvation  Ediel_sol  =         0.00000000
  ---------------------------------------------------
  free energy    TOTEN  =      -208.92264570 eV

  energy without entropy =     -208.60224244  energy(sigma->0) =     -208.76244407


--------------------------------------------------------------------------------------------------------




----------------------------------------- Iteration    1(   5)  ---------------------------------------


     EDDAV:  cpu time   27.9550: real time   28.0222
       DOS:  cpu time    0.0011: real time    0.0011
    CHARGE:  cpu time    0.4637: real time    0.4649
    MIXING:  cpu time    0.0019: real time    0.0019
    --------------------------------------------
      LOOP:  cpu time   28.4225: real time   28.4974

 eigenvalue-minimisations  : 11080
 total energy-change (2. order) :-0.3027987E+00  (-0.3020155E+00)
 number of electron     159.0000110 magnetization 
 augmentation part       -9.8087496 magnetization 

 Broyden mixing:
  rms(total) = 0.27437E+01    rms(broyden)= 0.27433E+01
  rms(prec ) = 0.29282E+01
  weight for this iteration     100.00

 Free energy of the ion-electron system (eV)
  ---------------------------------------------------
  alpha Z        PSCENC =        81.65567618
  Ewald energy   TEWEN  =     41891.17178794
  -Hartree energ DENC   =    -47723.81766557
  -exchange      EXHF   =         0.00000000
  -V(xc)+E(xc)   XCENC  =      -242.92463154
  PAW double counting   =      3467.42045192    -2871.19716117
  entropy T*S    EENTRO =        -0.31749653
  eigenvalues    EBANDS =     -1572.65892995
  atomic energy  EATOM  =      6761.44252427
  Solvation  Ediel_sol  =         0.00000000
  ---------------------------------------------------
  free energy    TOTEN  =      -209.22544445 eV

  energy without entropy =     -208.90794792  energy(sigma->0) =     -209.06669619


--------------------------------------------------------------------------------------------------------




----------------------------------------- Iteration    1(   6)  ---------------------------------------


    POTLOK:  cpu time    0.0330: real time    0.0334
    SETDIJ:  cpu time    0.0026: real time    0.0026
     EDDAV:  cpu time   30.6489: real time   30.7228
       DOS:  cpu time    0.0011: real time    0.0011
    CHARGE:  cpu time    0.4661: real time    0.4672
    MIXING:  cpu time    0.0018: real time    0.0019
    --------------------------------------------
      LOOP:  cpu time   31.1547: real time   31.2385

 eigenvalue-minimisations  : 12360
 total energy-change (2. order) :-0.2749787E+02  (-0.1123268E+02)
 number of electron     159.0000105 magnetization 
 augmentation part        7.0935948 magnetization 

 Broyden mixing:
  rms(total) = 0.59219E+01    rms(broyden)= 0.59212E+01
  rms(prec ) = 0.65292E+01
  weight for this iteration     100.00

 eigenvalues of (default mixing * dielectric matrix)
  average eigenvalue GAMMA=   0.2940
  0.2940

 Free energy of the ion-electron system (eV)
  ---------------------------------------------------
  alpha Z        PSCENC =        81.65567618
  Ewald energy   TEWEN  =     41891.17178794
  -Hartree energ DENC   =    -47701.72372733
  -exchange      EXHF   =         0.00000000
  -V(xc)+E(xc)   XCENC  =      -233.61319961
  PAW double counting   =      3675.77613410    -3081.88046705
  entropy T*S    EENTRO =        -0.25623622
  eigenvalues    EBANDS =     -1629.29580198
  atomic energy  EATOM  =      6761.44252427
  Solvation  Ediel_sol  =         0.00000000
  ---------------------------------------------------
  free energy    TOTEN  =      -236.72330970 eV

  energy without entropy =     -236.46707348  energy(sigma->0) =     -236.59519159


--------------------------------------------------------------------------------------------------------




----------------------------------------- Iteration    1(   7)  ---------------------------------------


    POTLOK:  cpu time    0.0296: real time    0.0299
    SETDIJ:  cpu time    0.0024: real time    0.0024
     EDDAV:  cpu time   33.1904: real time   33.2697
       DOS:  cpu time    0.0011: real time    0.0011
    CHARGE:  cpu time    0.4686: real time    0.4697
    MIXING:  cpu time    0.0012: real time    0.0012
    --------------------------------------------
      LOOP:  cpu time   33.6944: real time   33.7831

 eigenvalue-minimisations  : 13520
 total energy-change (2. order) : 0.3987540E+02  (-0.1768633E+02)
 number of electron     159.0000086 magnetization 
 augmentation part       -6.2256607 magnetization 

 Broyden mixing:
  rms(total) = 0.20361E+01    rms(broyden)= 0.20341E+01
  rms(prec ) = 0.22633E+01
  weight for this iteration     100.00

 eigenvalues of (default mixing * dielectric matrix)
  average eigenvalue GAMMA=   0.5420
  0.8738  0.2102

 Free energy of the ion-electron system (eV)
  ---------------------------------------------------
  alpha Z        PSCENC =        81.65567618
  Ewald energy   TEWEN  =     41891.17178794
  -Hartree energ DENC   =    -47739.00382705
  -exchange      EXHF   =         0.00000000
  -V(xc)+E(xc)   XCENC  =      -234.99292770
  PAW double counting   =      3763.58937742    -3177.62588254
  entropy T*S    EENTRO =        -0.32028787
  eigenvalues    EBANDS =     -1542.76434860
  atomic energy  EATOM  =      6761.44252427
  Solvation  Ediel_sol  =         0.00000000
  ---------------------------------------------------
  free energy    TOTEN  =      -196.84790795 eV

  energy without entropy =     -196.52762008  energy(sigma->0) =     -196.68776401


--------------------------------------------------------------------------------------------------------




----------------------------------------- Iteration    1(   8)  ---------------------------------------


    POTLOK:  cpu time    0.0313: real time    0.0314
    SETDIJ:  cpu time    0.0024: real time    0.0024
     EDDAV:  cpu time   29.8307: real time   29.9028
       DOS:  cpu time    0.0011: real time    0.0011
    CHARGE:  cpu time    0.4776: real time    0.4787
    MIXING:  cpu time    0.0012: real time    0.0012
    --------------------------------------------
      LOOP:  cpu time   30.3454: real time   30.4267

 eigenvalue-minimisations  : 11960
 total energy-change (2. order) : 0.6873947E+01  (-0.1785001E+01)
 number of electron     159.0000095 magnetization 
 augmentation part       -6.4895381 magnetization 

 Broyden mixing:
  rms(total) = 0.13449E+01    rms(broyden)= 0.13445E+01
  rms(prec ) = 0.14643E+01
  weight for this iteration     100.00

 eigenvalues of (default mixing * dielectric matrix)
  average eigenvalue GAMMA=   0.5409
  1.0700  0.2413  0.3115

 Free energy of the ion-electron system (eV)
  ---------------------------------------------------
  alpha Z        PSCENC =        81.65567618
  Ewald energy   TEWEN  =     41891.17178794
  -Hartree energ DENC   =    -47762.24902654
  -exchange      EXHF   =         0.00000000
  -V(xc)+E(xc)   XCENC  =      -235.03050363
  PAW double counting   =      3904.62346497    -3320.28206299
  entropy T*S    EENTRO =        -0.31032147
  eigenvalues    EBANDS =     -1510.99549989
  atomic energy  EATOM  =      6761.44252427
  Solvation  Ediel_sol  =         0.00000000
  ---------------------------------------------------
  free energy    TOTEN  =      -189.97396116 eV

  energy without entropy =     -189.66363969  energy(sigma->0) =     -189.81880042


--------------------------------------------------------------------------------------------------------




----------------------------------------- Iteration    1(   9)  ---------------------------------------


    POTLOK:  cpu time    0.0298: real time    0.0301
    SETDIJ:  cpu time    0.0023: real time    0.0023
     EDDAV:  cpu time   31.4970: real time   31.5729
       DOS:  cpu time    0.0002: real time    0.0010
    CHARGE:  cpu time    0.4808: real time    0.4820
    MIXING:  cpu time    0.0012: real time    0.0012
    --------------------------------------------
      LOOP:  cpu time   32.0134: real time   32.0973

 eigenvalue-minimisations  : 12720
 total energy-change (2. order) : 0.1730111E+01  (-0.3381482E+00)
 number of electron     159.0000091 magnetization 
 augmentation part       -5.7126260 magnetization 

 Broyden mixing:
  rms(total) = 0.95022E+00    rms(broyden)= 0.94997E+00
  rms(prec ) = 0.10240E+01
  weight for this iteration     100.00

 eigenvalues of (default mixing * dielectric matrix)
  average eigenvalue GAMMA=   0.7352
  1.8024  0.6139  0.2201  0.3043

 Free energy of the ion-electron system (eV)
  ---------------------------------------------------
  alpha Z        PSCENC =        81.65567618
  Ewald energy   TEWEN  =     41891.17178794
  -Hartree energ DENC   =    -47766.10601278
  -exchange      EXHF   =         0.00000000
  -V(xc)+E(xc)   XCENC  =      -234.30555416
  PAW double counting   =      3963.41471502    -3379.78294364
  entropy T*S    EENTRO =        -0.34656773
  eigenvalues    EBANDS =     -1505.38747542
  atomic energy  EATOM  =      6761.44252427
  Solvation  Ediel_sol  =         0.00000000
  ---------------------------------------------------
  free energy    TOTEN  =      -188.24385032 eV

  energy without entropy =     -187.89728259  energy(sigma->0) =     -188.07056645


--------------------------------------------------------------------------------------------------------




----------------------------------------- Iteration    1(  10)  ---------------------------------------


    POTLOK:  cpu time    0.0322: real time    0.0325
    SETDIJ:  cpu time    0.0024: real time    0.0024
     EDDAV:  cpu time   32.6045: real time   32.6872
       DOS:  cpu time    0.0010: real time    0.0010
    CHARGE:  cpu time    0.5029: real time    0.5041
    MIXING:  cpu time    0.0014: real time    0.0014
    --------------------------------------------
      LOOP:  cpu time   33.1456: real time   33.2370

 eigenvalue-minimisations  : 13240
 total energy-change (2. order) : 0.1330592E+01  (-0.1715477E+00)
 number of electron     159.0000092 magnetization 
 augmentation part       -4.2710045 magnetization 

 Broyden mixing:
  rms(total) = 0.19906E+00    rms(broyden)= 0.19863E+00
  rms(prec ) = 0.20608E+00
  weight for this iteration     100.00

 eigenvalues of (default mixing * dielectric matrix)
  average eigenvalue GAMMA=   0.9531
  1.8061  1.8061  0.6378  0.2210  0.2944

 Free energy of the ion-electron system (eV)
  ---------------------------------------------------
  alpha Z        PSCENC =        81.65567618
  Ewald energy   TEWEN  =     41891.17178794
  -Hartree energ DENC   =    -47780.45408647
  -exchange      EXHF   =         0.00000000
  -V(xc)+E(xc)   XCENC  =      -232.58119786
  PAW double counting   =      4105.31341939    -3523.45584581
  entropy T*S    EENTRO =        -0.35261623
  eigenvalues    EBANDS =     -1489.65291971
  atomic energy  EATOM  =      6761.44252427
  Solvation  Ediel_sol  =         0.00000000
  ---------------------------------------------------
  free energy    TOTEN  =      -186.91325830 eV

  energy without entropy =     -186.56064207  energy(sigma->0) =     -186.73695019


--------------------------------------------------------------------------------------------------------




----------------------------------------- Iteration    1(  11)  ---------------------------------------


    POTLOK:  cpu time    0.0308: real time    0.0309
    SETDIJ:  cpu time    0.0023: real time    0.0023
     EDDAV:  cpu time   33.1586: real time   33.2427
       DOS:  cpu time    0.0010: real time    0.0010
    CHARGE:  cpu time    0.4989: real time    0.5001
    MIXING:  cpu time    0.0013: real time    0.0013
    --------------------------------------------
      LOOP:  cpu time   33.6938: real time   33.7866

 eigenvalue-minimisations  : 13520
 total energy-change (2. order) :-0.9681230E-02  (-0.4051782E-01)
 number of electron     159.0000087 magnetization 
 augmentation part       -4.6295448 magnetization 

 Broyden mixing:
  rms(total) = 0.30171E+00    rms(broyden)= 0.30166E+00
  rms(prec ) = 0.33404E+00
  weight for this iteration     100.00

 eigenvalues of (default mixing * dielectric matrix)
  average eigenvalue GAMMA=   0.9399
  2.1200  1.7662  0.6174  0.6174  0.2206  0.2975

 Free energy of the ion-electron system (eV)
  ---------------------------------------------------
  alpha Z        PSCENC =        81.65567618
  Ewald energy   TEWEN  =     41891.17178794
  -Hartree energ DENC   =    -47795.10914083
  -exchange      EXHF   =         0.00000000
  -V(xc)+E(xc)   XCENC  =      -232.12010679
  PAW double counting   =      4172.49271607    -3590.74734523
  entropy T*S    EENTRO =        -0.33457759
  eigenvalues    EBANDS =     -1475.37447357
  atomic energy  EATOM  =      6761.44252427
  Solvation  Ediel_sol  =         0.00000000
  ---------------------------------------------------
  free energy    TOTEN  =      -186.92293953 eV

  energy without entropy =     -186.58836195  energy(sigma->0) =     -186.75565074


--------------------------------------------------------------------------------------------------------




----------------------------------------- Iteration    1(  12)  ---------------------------------------


    POTLOK:  cpu time    0.0310: real time    0.0314
    SETDIJ:  cpu time    0.0024: real time    0.0024
     EDDAV:  cpu time   29.9920: real time   30.0677
       DOS:  cpu time    0.0011: real time    0.0011
    CHARGE:  cpu time    0.5002: real time    0.5015
    MIXING:  cpu time    0.0014: real time    0.0014
    --------------------------------------------
      LOOP:  cpu time   30.5294: real time   30.6136

 eigenvalue-minimisations  : 12040
 total energy-change (2. order) :-0.4408639E-02  (-0.3721285E-01)
 number of electron     159.0000089 magnetization 
 augmentation part       -4.2144770 magnetization 

 Broyden mixing:
  rms(total) = 0.37860E+00    rms(broyden)= 0.37841E+00
  rms(prec ) = 0.41704E+00
  weight for this iteration     100.00

 eigenvalues of (default mixing * dielectric matrix)
  average eigenvalue GAMMA=   0.8629
  2.2695  1.6934  0.7879  0.6432  0.2207  0.2969  0.1285

 Free energy of the ion-electron system (eV)
  ---------------------------------------------------
  alpha Z        PSCENC =        81.65567618
  Ewald energy   TEWEN  =     41891.17178794
  -Hartree energ DENC   =    -47800.43327362
  -exchange      EXHF   =         0.00000000
  -V(xc)+E(xc)   XCENC  =      -231.94983767
  PAW double counting   =      4187.33238755    -3605.53772867
  entropy T*S    EENTRO =        -0.34094656
  eigenvalues    EBANDS =     -1470.26793760
  atomic energy  EATOM  =      6761.44252427
  Solvation  Ediel_sol  =         0.00000000
  ---------------------------------------------------
  free energy    TOTEN  =      -186.92734817 eV

  energy without entropy =     -186.58640162  energy(sigma->0) =     -186.75687490


--------------------------------------------------------------------------------------------------------




----------------------------------------- Iteration    1(  13)  ---------------------------------------


    POTLOK:  cpu time    0.0317: real time    0.0318
    SETDIJ:  cpu time    0.0023: real time    0.0023
     EDDAV:  cpu time   31.4250: real time   31.5048
       DOS:  cpu time    0.0010: real time    0.0010
    CHARGE:  cpu time    0.4986: real time    0.4999
    MIXING:  cpu time    0.0014: real time    0.0014
    --------------------------------------------
      LOOP:  cpu time   31.9609: real time   32.0499

 eigenvalue-minimisations  : 12720
 total energy-change (2. order) : 0.1038790E+00  (-0.2516318E-01)
 number of electron     159.0000089 magnetization 
 augmentation part       -4.1128722 magnetization 

 Broyden mixing:
  rms(total) = 0.88132E-01    rms(broyden)= 0.87714E-01
  rms(prec ) = 0.98653E-01
  weight for this iteration     100.00

 eigenvalues of (default mixing * dielectric matrix)
  average eigenvalue GAMMA=   0.8090
  2.2741  1.7169  0.8532  0.6288  0.2206  0.2977  0.3630  0.1175

 Free energy of the ion-electron system (eV)
  ---------------------------------------------------
  alpha Z        PSCENC =        81.65567618
  Ewald energy   TEWEN  =     41891.17178794
  -Hartree energ DENC   =    -47802.87017241
  -exchange      EXHF   =         0.00000000
  -V(xc)+E(xc)   XCENC  =      -231.88327627
  PAW double counting   =      4191.72074277    -3609.89573161
  entropy T*S    EENTRO =        -0.34550874
  eigenvalues    EBANDS =     -1467.81951134
  atomic energy  EATOM  =      6761.44252427
  Solvation  Ediel_sol  =         0.00000000
  ---------------------------------------------------
  free energy    TOTEN  =      -186.82346920 eV

  energy without entropy =     -186.47796046  energy(sigma->0) =     -186.65071483


--------------------------------------------------------------------------------------------------------




----------------------------------------- Iteration    1(  14)  ---------------------------------------


    POTLOK:  cpu time    0.0304: real time    0.0308
    SETDIJ:  cpu time    0.0023: real time    0.0023
     EDDAV:  cpu time   31.2314: real time   31.3105
       DOS:  cpu time    0.0011: real time    0.0011
    CHARGE:  cpu time    0.5016: real time    0.5029
    MIXING:  cpu time    0.0015: real time    0.0015
    --------------------------------------------
      LOOP:  cpu time   31.7694: real time   31.8565

 eigenvalue-minimisations  : 12640
 total energy-change (2. order) : 0.6684077E-02  (-0.1630938E-02)
 number of electron     159.0000089 magnetization 
 augmentation part       -4.1420031 magnetization 

 Broyden mixing:
  rms(total) = 0.53386E-01    rms(broyden)= 0.53343E-01
  rms(prec ) = 0.60215E-01
  weight for this iteration     100.00

 eigenvalues of (default mixing * dielectric matrix)
  average eigenvalue GAMMA=   0.8055
  2.2676  1.8164  1.0396  0.6324  0.6324  0.2970  0.2206  0.2257  0.1177

 Free energy of the ion-electron system (eV)
  ---------------------------------------------------
  alpha Z        PSCENC =        81.65567618
  Ewald energy   TEWEN  =     41891.17178794
  -Hartree energ DENC   =    -47804.81846552
  -exchange      EXHF   =         0.00000000
  -V(xc)+E(xc)   XCENC  =      -231.85755460
  PAW double counting   =      4192.46296225    -3610.60966145
  entropy T*S    EENTRO =        -0.34536511
  eigenvalues    EBANDS =     -1465.91868910
  atomic energy  EATOM  =      6761.44252427
  Solvation  Ediel_sol  =         0.00000000
  ---------------------------------------------------
  free energy    TOTEN  =      -186.81678512 eV

  energy without entropy =     -186.47142002  energy(sigma->0) =     -186.64410257


--------------------------------------------------------------------------------------------------------




----------------------------------------- Iteration    1(  15)  ---------------------------------------


    POTLOK:  cpu time    0.0328: real time    0.0331
    SETDIJ:  cpu time    0.0024: real time    0.0024
     EDDAV:  cpu time   32.2698: real time   32.3484
       DOS:  cpu time    0.0011: real time    0.0011
    CHARGE:  cpu time    0.4977: real time    0.5032
    MIXING:  cpu time    0.0016: real time    0.0016
    --------------------------------------------
      LOOP:  cpu time   32.8068: real time   32.8977

 eigenvalue-minimisations  : 13120
 total energy-change (2. order) : 0.4924680E-04  (-0.1457514E-02)
 number of electron     159.0000089 magnetization 
 augmentation part       -4.1899940 magnetization 

 Broyden mixing:
  rms(total) = 0.65539E-01    rms(broyden)= 0.65509E-01
  rms(prec ) = 0.72863E-01
  weight for this iteration     100.00

 eigenvalues of (default mixing * dielectric matrix)
  average eigenvalue GAMMA=   0.8038
  2.1930  2.1236  1.2984  0.6827  0.6827  0.2206  0.2928  0.2928  0.1169  0.1345

 Free energy of the ion-electron system (eV)
  ---------------------------------------------------
  alpha Z        PSCENC =        81.65567618
  Ewald energy   TEWEN  =     41891.17178794
  -Hartree energ DENC   =    -47808.12544172
  -exchange      EXHF   =         0.00000000
  -V(xc)+E(xc)   XCENC  =      -231.81575351
  PAW double counting   =      4193.31585043    -3611.41865958
  entropy T*S    EENTRO =        -0.34446554
  eigenvalues    EBANDS =     -1462.69825435
  atomic energy  EATOM  =      6761.44252427
  Solvation  Ediel_sol  =         0.00000000
  ---------------------------------------------------
  free energy    TOTEN  =      -186.81673588 eV

  energy without entropy =     -186.47227033  energy(sigma->0) =     -186.64450310


--------------------------------------------------------------------------------------------------------




----------------------------------------- Iteration    1(  16)  ---------------------------------------


    POTLOK:  cpu time    0.0307: real time    0.0308
    SETDIJ:  cpu time    0.0024: real time    0.0024
     EDDAV:  cpu time   31.6006: real time   31.6768
       DOS:  cpu time    0.0010: real time    0.0010
    CHARGE:  cpu time    0.5015: real time    0.5028
    MIXING:  cpu time    0.0016: real time    0.0016
    --------------------------------------------
      LOOP:  cpu time   32.1387: real time   32.2231

 eigenvalue-minimisations  : 12800
 total energy-change (2. order) : 0.3292446E-02  (-0.1076711E-02)
 number of electron     159.0000089 magnetization 
 augmentation part       -4.2213553 magnetization 

 Broyden mixing:
  rms(total) = 0.26073E-01    rms(broyden)= 0.26019E-01
  rms(prec ) = 0.30123E-01
  weight for this iteration     100.00

 eigenvalues of (default mixing * dielectric matrix)
  average eigenvalue GAMMA=   0.8479
  2.3333  2.3333  1.3595  0.9992  0.6432  0.6432  0.2971  0.2206  0.2563  0.1164
  0.1244

 Free energy of the ion-electron system (eV)
  ---------------------------------------------------
  alpha Z        PSCENC =        81.65567618
  Ewald energy   TEWEN  =     41891.17178794
  -Hartree energ DENC   =    -47811.15274961
  -exchange      EXHF   =         0.00000000
  -V(xc)+E(xc)   XCENC  =      -231.77820481
  PAW double counting   =      4193.97979845    -3612.04545107
  entropy T*S    EENTRO =        -0.34397683
  eigenvalues    EBANDS =     -1459.74284796
  atomic energy  EATOM  =      6761.44252427
  Solvation  Ediel_sol  =         0.00000000
  ---------------------------------------------------
  free energy    TOTEN  =      -186.81344343 eV

  energy without entropy =     -186.46946660  energy(sigma->0) =     -186.64145501


--------------------------------------------------------------------------------------------------------




----------------------------------------- Iteration    1(  17)  ---------------------------------------


    POTLOK:  cpu time    0.0300: real time    0.0301
    SETDIJ:  cpu time    0.0024: real time    0.0024
     EDDAV:  cpu time   31.0089: real time   31.0835
       DOS:  cpu time    0.0010: real time    0.0010
    CHARGE:  cpu time    0.5002: real time    0.5014
    MIXING:  cpu time    0.0018: real time    0.0018
    --------------------------------------------
      LOOP:  cpu time   31.5453: real time   31.6280

 eigenvalue-minimisations  : 12520
 total energy-change (2. order) : 0.9718086E-03  (-0.2284867E-03)
 number of electron     159.0000089 magnetization 
 augmentation part       -4.1947525 magnetization 

 Broyden mixing:
  rms(total) = 0.89140E-02    rms(broyden)= 0.88976E-02
  rms(prec ) = 0.12105E-01
  weight for this iteration     100.00

 eigenvalues of (default mixing * dielectric matrix)
  average eigenvalue GAMMA=   0.8353
  2.3651  2.3651  1.3538  1.1287  0.6641  0.6641  0.4711  0.2970  0.2206  0.2539
  0.1242  0.1164

 Free energy of the ion-electron system (eV)
  ---------------------------------------------------
  alpha Z        PSCENC =        81.65567618
  Ewald energy   TEWEN  =     41891.17178794
  -Hartree energ DENC   =    -47815.62657588
  -exchange      EXHF   =         0.00000000
  -V(xc)+E(xc)   XCENC  =      -231.72755819
  PAW double counting   =      4194.44583206    -3612.47006196
  entropy T*S    EENTRO =        -0.34442572
  eigenvalues    EBANDS =     -1455.35967032
  atomic energy  EATOM  =      6761.44252427
  Solvation  Ediel_sol  =         0.00000000
  ---------------------------------------------------
  free energy    TOTEN  =      -186.81247162 eV

  energy without entropy =     -186.46804590  energy(sigma->0) =     -186.64025876


--------------------------------------------------------------------------------------------------------




----------------------------------------- Iteration    1(  18)  ---------------------------------------


    POTLOK:  cpu time    0.0300: real time    0.0304
    SETDIJ:  cpu time    0.0023: real time    0.0023
     EDDAV:  cpu time   28.9723: real time   29.0422
       DOS:  cpu time    0.0010: real time    0.0010
    --------------------------------------------
      LOOP:  cpu time   29.0068: real time   29.0833

 eigenvalue-minimisations  : 11560
 total energy-change (2. order) : 0.5581725E-04  (-0.6571271E-04)
 number of electron     159.0000089 magnetization 
 augmentation part       -4.1947525 magnetization 

 Free energy of the ion-electron system (eV)
  ---------------------------------------------------
  alpha Z        PSCENC =        81.65567618
  Ewald energy   TEWEN  =     41891.17178794
  -Hartree energ DENC   =    -47817.77774700
  -exchange      EXHF   =         0.00000000
  -V(xc)+E(xc)   XCENC  =      -231.70664924
  PAW double counting   =      4194.29734244    -3612.31263521
  entropy T*S    EENTRO =        -0.34446879
  eigenvalues    EBANDS =     -1453.23824640
  atomic energy  EATOM  =      6761.44252427
  Solvation  Ediel_sol  =         0.00000000
  ---------------------------------------------------
  free energy    TOTEN  =      -186.81241580 eV

  energy without entropy =     -186.46794701  energy(sigma->0) =     -186.64018141


--------------------------------------------------------------------------------------------------------




 average (electrostatic) potential at core
  the test charge radii are     1.2064  1.2296  1.1823  0.9698
  (the norm of the test charge is              1.0000)
       1 -50.0905       2 -50.0872       3 -50.0878       4 -47.5716       5 -47.5680
       6 -47.5680       7 -49.9846       8 -50.0012       9 -50.0013      10 -95.3176
      11 -95.2487      12 -95.3829      13 -95.2458      14 -95.3817      15 -95.2895
      16 -95.0538      17 -95.2523      18 -95.0578      19 -94.9010      20 -95.3827
      21 -95.2454      22 -95.3133      23 -95.5667      24 -95.0525      25 -95.2513
      26 -95.3162      27 -95.2472
 
 
 
 E-fermi :  -3.4243     XC(G=0):  -2.4981     alpha+bet : -2.1596


 k-point     1 :       0.0000    0.0000    0.0000
  band No.  band energies     occupation 
      1     -18.3539      2.00000
      2     -17.1890      2.00000
      3     -17.1756      2.00000
      4     -17.1521      2.00000
      5     -16.9518      2.00000
      6     -16.9204      2.00000
      7     -16.9068      2.00000
      8     -16.5850      2.00000
      9     -16.4528      2.00000
     10     -16.4517      2.00000
     11     -16.4180      2.00000
     12     -16.4137      2.00000
     13     -16.4125      2.00000
     14     -16.3532      2.00000
     15     -16.2399      2.00000
     16     -16.0058      2.00000
     17     -16.0047      2.00000
     18     -15.7743      2.00000
     19      -9.7117      2.00000
     20      -9.5571      2.00000
     21      -9.5441      2.00000
     22      -9.3415      2.00000
     23      -9.2798      2.00000
     24      -9.2726      2.00000
     25      -9.2290      2.00000
     26      -8.9486      2.00000
     27      -8.8890      2.00000
     28      -8.8764      2.00000
     29      -8.7469      2.00000
     30      -8.7460      2.00000
     31      -8.6959      2.00000
     32      -8.4416      2.00000
     33      -8.4366      2.00000
     34      -8.4097      2.00000
     35      -8.2903      2.00000
     36      -8.2870      2.00000
     37      -8.2777      2.00000
     38      -8.2692      2.00000
     39      -8.2096      2.00000
     40      -8.0404      2.00000
     41      -7.9508      2.00000
     42      -7.9395      2.00000
     43      -7.9247      2.00000
     44      -7.6425      2.00000
     45      -7.6266      2.00000
     46      -7.4894      2.00000
     47      -7.4840      2.00000
     48      -7.3798      2.00000
     49      -7.3130      2.00000
     50      -7.1384      2.00000
     51      -7.1276      2.00000
     52      -6.7149      2.00000
     53      -6.6682      2.00000
     54      -6.6442      2.00000
     55      -6.5790      2.00000
     56      -6.5757      2.00000
     57      -6.5508      2.00000
     58      -5.8393      2.00000
     59      -5.8045      2.00000
     60      -5.7591      2.00000
     61      -5.6676      2.00000
     62      -5.6208      2.00000
     63      -5.6187      2.00000
     64      -5.5346      2.00000
     65      -5.4465      2.00000
     66      -5.4456      2.00000
     67      -5.4031      2.00000
     68      -5.3372      2.00000
     69      -5.3368      2.00000
     70      -5.2019      2.00000
     71      -4.4135      2.00000
     72      -4.4017      2.00000
     73      -4.3415      2.00000
     74      -4.1865      2.00000
     75      -4.1805      2.00000
     76      -4.0000      1.99995
     77      -4.0000      1.99995
     78      -3.9769      1.99991
     79      -3.9524      1.99981
     80      -3.9316      1.99967
     81      -3.3363      0.53407
     82      -3.3352      0.52886
     83      -2.8997      0.00021
     84      -2.7990      0.00001
     85      -2.7592      0.00000
     86      -2.7537      0.00000
     87      -2.6104      0.00000
     88      -2.6097      0.00000
     89      -2.6000      0.00000
     90      -2.4827      0.00000
     91      -2.4095      0.00000
     92      -2.4047      0.00000
     93      -2.2445      0.00000
     94      -2.1908      0.00000
     95      -2.1897      0.00000
     96      -2.1751      0.00000
     97      -1.9632      0.00000
     98      -1.9431      0.00000
     99      -1.9343      0.00000
    100      -0.7666      0.00000
    101      -0.7296      0.00000
    102      -0.7114      0.00000
    103      -0.6495      0.00000
    104      -0.4273      0.00000
    105      -0.3873      0.00000
    106       0.2545      0.00000
    107       0.2595      0.00000
    108       0.3195      0.00000
    109       0.3640      0.00000
    110       0.5456      0.00000
    111       0.5921      0.00000
    112       0.7111      0.00000
    113       0.8418      0.00000
    114       0.8563      0.00000
    115       0.9526      0.00000
    116       1.0105      0.00000
    117       1.0356      0.00000
    118       1.2828      0.00000
    119       1.3543      0.00000
    120       1.9164      0.00000

 k-point     2 :       0.1250    0.0000    0.0000
  band No.  band energies     occupation 
      1     -18.3324      2.00000
      2     -17.3456      2.00000
      3     -17.1825      2.00000
      4     -17.0930      2.00000
      5     -16.9405      2.00000
      6     -16.8912      2.00000
      7     -16.8743      2.00000
      8     -16.5843      2.00000
      9     -16.4871      2.00000
     10     -16.4638      2.00000
     11     -16.4199      2.00000
     12     -16.4065      2.00000
     13     -16.3694      2.00000
     14     -16.3178      2.00000
     15     -16.2446      2.00000
     16     -16.0117      2.00000
     17     -16.0080      2.00000
     18     -15.7789      2.00000
     19      -9.7866      2.00000
     20      -9.6534      2.00000
     21      -9.5866      2.00000
     22      -9.3721      2.00000
     23      -9.2800      2.00000
     24      -9.2410      2.00000
     25      -9.1642      2.00000
     26      -9.0262      2.00000
     27      -8.9410      2.00000
     28      -8.8937      2.00000
     29      -8.7357      2.00000
     30      -8.6366      2.00000
     31      -8.6030      2.00000
     32      -8.4533      2.00000
     33      -8.4160      2.00000
     34      -8.3833      2.00000
     35      -8.3287      2.00000
     36      -8.2819      2.00000
     37      -8.2581      2.00000
     38      -8.2532      2.00000
     39      -8.1877      2.00000
     40      -8.0361      2.00000
     41      -7.9145      2.00000
     42      -7.8651      2.00000
     43      -7.8354      2.00000
     44      -7.6655      2.00000
     45      -7.6202      2.00000
     46      -7.4722      2.00000
     47      -7.4621      2.00000
     48      -7.3456      2.00000
     49      -7.3344      2.00000
     50      -7.1475      2.00000
     51      -7.1297      2.00000
     52      -6.7977      2.00000
     53      -6.7371      2.00000
     54      -6.6896      2.00000
     55      -6.6063      2.00000
     56      -6.4474      2.00000
     57      -6.4159      2.00000
     58      -5.9425      2.00000
     59      -5.9165      2.00000
     60      -5.8345      2.00000
     61      -5.7663      2.00000
     62      -5.6751      2.00000
     63      -5.6709      2.00000
     64      -5.6130      2.00000
     65      -5.5263      2.00000
     66      -5.5172      2.00000
     67      -5.3515      2.00000
     68      -5.2253      2.00000
     69      -5.2054      2.00000
     70      -5.0486      2.00000
     71      -4.5716      2.00000
     72      -4.4898      2.00000
     73      -4.3096      2.00000
     74      -4.1995      2.00000
     75      -4.1616      2.00000
     76      -4.0436      1.99999
     77      -3.9812      1.99992
     78      -3.9395      1.99973
[...]
    104      -0.5758      0.00000
    105      -0.5121      0.00000
    106      -0.4666      0.00000
    107      -0.2876      0.00000
    108      -0.2611      0.00000
    109      -0.0529      0.00000
    110       0.1614      0.00000
    111       0.5459      0.00000
    112       0.6689      0.00000
    113       0.9093      0.00000
    114       0.9700      0.00000
    115       1.0712      0.00000
    116       1.1890      0.00000
    117       1.3668      0.00000
    118       2.1267      0.00000
    119       2.2769      0.00000
    120       2.3878      0.00000

 k-point    34 :       0.5000    0.5000    0.0000
  band No.  band energies     occupation 
      1     -17.4331      2.00000
      2     -17.3389      2.00000
      3     -16.7301      2.00000
      4     -16.6953      2.00000
      5     -16.5220      2.00000
      6     -16.3493      2.00000
      7     -16.2448      2.00000
      8     -16.1999      2.00000
      9     -16.0339      2.00000
     10     -16.0074      2.00000
     11     -15.9190      2.00000
     12     -15.9068      2.00000
     13     -15.7819      2.00000
     14     -15.7352      2.00000
     15     -15.6041      2.00000
     16     -15.5916      2.00000
     17     -15.5147      2.00000
     18     -15.4871      2.00000
     19      -9.7618      2.00000
     20      -9.2863      2.00000
     21      -9.1415      2.00000
     22      -9.0471      2.00000
     23      -8.9003      2.00000
     24      -8.7780      2.00000
     25      -8.5588      2.00000
     26      -8.5329      2.00000
     27      -8.4037      2.00000
     28      -8.3184      2.00000
     29      -8.2826      2.00000
     30      -8.1821      2.00000
     31      -8.0934      2.00000
     32      -8.0186      2.00000
     33      -7.8902      2.00000
     34      -7.8697      2.00000
     35      -7.7530      2.00000
     36      -7.6235      2.00000
     37      -7.4831      2.00000
     38      -7.4346      2.00000
     39      -7.4313      2.00000
     40      -7.1984      2.00000
     41      -7.1338      2.00000
     42      -7.0863      2.00000
     43      -6.9909      2.00000
     44      -6.9350      2.00000
     45      -6.7669      2.00000
     46      -6.7228      2.00000
     47      -6.7031      2.00000
     48      -6.6271      2.00000
     49      -6.5271      2.00000
     50      -6.4270      2.00000
     51      -6.3881      2.00000
     52      -6.3668      2.00000
     53      -6.3402      2.00000
     54      -6.2728      2.00000
     55      -6.1808      2.00000
     56      -6.0388      2.00000
     57      -6.0357      2.00000
     58      -6.0196      2.00000
     59      -5.9484      2.00000
     60      -5.8785      2.00000
     61      -5.7747      2.00000
     62      -5.6880      2.00000
     63      -5.6392      2.00000
     64      -5.4930      2.00000
     65      -5.3313      2.00000
     66      -5.0836      2.00000
     67      -4.9900      2.00000
     68      -4.9669      2.00000
     69      -4.8167      2.00000
     70      -4.6873      2.00000
     71      -4.6475      2.00000
     72      -4.4049      2.00000
     73      -4.3801      2.00000
     74      -4.2937      2.00000
     75      -4.2886      2.00000
     76      -4.1037      2.00000
     77      -3.6684      1.99987
     78      -3.5321      1.99569
     79      -3.2684      1.67802
     80      -3.0942      0.80902
     81      -2.8762      0.07452
     82      -2.7801      0.01379
     83      -2.7570      0.00863
     84      -2.6946      0.00216
     85      -2.6299      0.00042
     86      -2.5492      0.00004
     87      -2.3882      0.00000
     88      -2.0925      0.00000
     89      -1.9771      0.00000
     90      -1.9623      0.00000
     91      -1.8180      0.00000
     92      -1.7508      0.00000
     93      -1.6022      0.00000
     94      -1.4979      0.00000
     95      -1.1967      0.00000
     96      -1.1289      0.00000
     97      -1.0397      0.00000
     98      -0.9377      0.00000
     99      -0.9368      0.00000
    100      -0.7706      0.00000
    101      -0.7610      0.00000
    102      -0.7505      0.00000
    103      -0.6571      0.00000
    104      -0.5770      0.00000
    105      -0.5711      0.00000
    106      -0.5142      0.00000
    107      -0.2536      0.00000
    108      -0.2012      0.00000
    109      -0.0904      0.00000
    110       0.2833      0.00000
    111       0.4200      0.00000
    112       0.6578      0.00000
    113       0.9200      0.00000
    114       0.9919      0.00000
    115       1.0785      0.00000
    116       1.2072      0.00000
    117       1.3951      0.00000
    118       2.2082      0.00000
    119       2.2370      0.00000
    120       2.3540      0.00000


--------------------------------------------------------------------------------------------------------


 soft charge-density along one line, spin component           1
         0         1         2         3         4         5         6         7         8         9
 total charge-density along one line
 
 pseudopotential strength for first ion, spin component:           1
 -7.288  -0.049  -0.000  -0.000  -0.000   0.694   0.014   0.000
 -0.049  -7.230   0.000   0.000   0.000   0.014   0.677  -0.000
 -0.000   0.000  -7.187  -0.025  -0.019   0.000  -0.000   0.666
 -0.000   0.000  -0.025  -7.207  -0.029   0.000  -0.000   0.007
 -0.000   0.000  -0.019  -0.029  -7.291   0.000  -0.000   0.006
  0.694   0.014   0.000   0.000   0.000   0.327  -0.004  -0.000
  0.014   0.677  -0.000  -0.000  -0.000  -0.004   0.332   0.000
  0.000  -0.000   0.666   0.007   0.006  -0.000   0.000   0.334
  0.000  -0.000   0.007   0.670   0.010  -0.000   0.000  -0.002
  0.000  -0.000   0.006   0.010   0.695  -0.000   0.000  -0.002
 -0.000   0.000  -0.016   0.014  -0.005   0.000  -0.000   0.003
 -0.000  -0.000  -0.006   0.004  -0.001   0.000  -0.000   0.001
 -0.002  -0.002  -0.000   0.000  -0.000   0.001   0.000   0.000
  0.000   0.000   0.000   0.000  -0.000  -0.000  -0.000  -0.000
  0.000   0.000   0.000  -0.003   0.002  -0.000  -0.000  -0.000
 -0.002  -0.000  -0.000   0.000  -0.000   0.000  -0.000   0.000
  0.000   0.000   0.002   0.001  -0.000  -0.000  -0.000  -0.001
  0.000   0.000  -0.000  -0.001   0.003  -0.000  -0.000   0.000
 total augmentation occupancy for first ion, spin component:           1
  0.839   0.109  -0.001  -0.000  -0.000   0.420   0.237   0.000  -0.000   0.000  -0.000   0.000  -0.069   0.000   0.000  -0.002
  0.109   1.115   0.000  -0.000  -0.000   0.232   0.602  -0.000  -0.000   0.000  -0.000  -0.000  -0.048   0.000   0.000  -0.002
 -0.001   0.000   0.719  -0.043  -0.063   0.000  -0.000   0.265   0.006  -0.015   0.168  -0.001   0.000   0.020   0.005   0.000
 -0.000  -0.000  -0.043   1.076  -0.197  -0.000  -0.000   0.002   0.635  -0.269  -0.027  -0.005   0.000  -0.002  -0.048   0.000
 -0.000  -0.000  -0.063  -0.197   0.785   0.000   0.000  -0.017  -0.269   0.411   0.000   0.005   0.000   0.002   0.046   0.000
  0.420   0.232   0.000  -0.000   0.000   0.376   0.212  -0.000  -0.000  -0.000  -0.000  -0.000  -0.018   0.000   0.000  -0.003
  0.237   0.602  -0.000  -0.000   0.000   0.212   0.540  -0.000  -0.000   0.000  -0.000  -0.000  -0.041   0.000   0.000  -0.003
  0.000  -0.000   0.265   0.002  -0.017  -0.000  -0.000   0.239   0.007  -0.007   0.005   0.003  -0.000   0.007  -0.002   0.000
 -0.000  -0.000   0.006   0.635  -0.269  -0.000  -0.000   0.007   0.571  -0.244  -0.014  -0.006   0.000   0.004  -0.058   0.000
  0.000   0.000  -0.015  -0.269   0.411  -0.000   0.000  -0.007  -0.244   0.379   0.034   0.004  -0.000  -0.008   0.026  -0.000
 -0.000  -0.000   0.168  -0.027   0.000  -0.000  -0.000   0.005  -0.014   0.034   1.379   0.130   0.000  -0.072  -0.009   0.000
  0.000  -0.000  -0.001  -0.005   0.005  -0.000  -0.000   0.003  -0.006   0.004   0.130   0.025   0.000  -0.004   0.001   0.000
 -0.069  -0.048   0.000   0.000   0.000  -0.018  -0.041  -0.000   0.000  -0.000   0.000   0.000   0.345  -0.000  -0.000   0.025
  0.000   0.000   0.020  -0.002   0.002   0.000   0.000   0.007   0.004  -0.008  -0.072  -0.004  -0.000   0.404  -0.016  -0.000
  0.000   0.000   0.005  -0.048   0.046   0.000   0.000  -0.002  -0.058   0.026  -0.009   0.001  -0.000  -0.016   0.353  -0.000
 -0.002  -0.002   0.000   0.000   0.000  -0.003  -0.003   0.000   0.000  -0.000   0.000   0.000   0.025  -0.000  -0.000   0.003
  0.000  -0.000   0.000  -0.001  -0.000   0.000   0.000   0.001  -0.000  -0.000  -0.003  -0.001   0.000   0.028  -0.001  -0.000
 -0.000   0.000   0.001  -0.002  -0.000   0.000   0.000   0.000  -0.004   0.002  -0.000   0.000   0.000  -0.001   0.027  -0.000


------------------------ aborting loop because EDIFF is reached ----------------------------------------


    CHARGE:  cpu time    0.4631: real time    0.4644
    FORLOC:  cpu time    0.0063: real time    0.0063
    FORNL :  cpu time    5.2933: real time    5.3078
    STRESS:  cpu time   32.3851: real time   32.4649
    FORCOR:  cpu time    0.0337: real time    0.0338
    FORHAR:  cpu time    0.0123: real time    0.0123
    MIXING:  cpu time    0.0011: real time    0.0011
    OFIELD:  cpu time    0.0000: real time    0.0000

  FORCE on cell =-STRESS in cart. coord.  units (eV):
  Direction    XX          YY          ZZ          XY          YZ          ZX
  --------------------------------------------------------------------------------------
  Alpha Z    88.17660    88.17660    88.17660
  Ewald   48742.44039 48743.14031-53680.13764    -0.00820    -0.07580     0.06675
  Hartree 49456.80510 49457.27072-49103.63749     0.00029    -0.01773    -0.00603
  E(xc)    -609.98265  -609.99232  -617.06012     0.00103     0.00258     0.00228
  Local  ************************100225.56931     0.01283     0.10131    -0.05180
  n-local  1214.97891  1214.89492  1250.39812    -0.01299    -0.00519     0.03607
  augment  -212.55530  -212.50745  -215.35355     0.00244    -0.00145    -0.01037
  Kinetic  2012.96014  2013.06461  2049.85733     0.00276    -0.00627    -0.05300
  Fock        0.00000     0.00000     0.00000     0.00000     0.00000     0.00000
  -------------------------------------------------------------------------------------
  Total      -0.01751     0.00857    -2.18744    -0.00184    -0.00255    -0.01610
  in kB      -0.01155     0.00565    -1.44349    -0.00121    -0.00168    -0.01062
  external pressure =       -0.48 kB  Pullay stress =        0.00 kB


 VOLUME and BASIS-vectors are now :
 -----------------------------------------------------------------------------
  energy-cutoff  :      280.00
  volume of cell :     2427.92
      direct lattice vectors                 reciprocal lattice vectors
     8.372157293  4.833628418  0.000000000     0.059719841  0.103445291  0.000000000
    -8.371887416  4.833161368  0.000000000    -0.059725612  0.103448626  0.000000000
     0.000000000  0.000000000 30.000000000     0.000000000  0.000000000  0.033333333

  length of vectors
     9.667315109  9.666847868 30.000000000     0.119446170  0.119451944  0.033333333


 FORCES acting on ions
    electron-ion (+dipol)            ewald-force                    non-local-force                 convergence-correction
 -----------------------------------------------------------------------------------------------
   -.409E+00 0.701E-01 0.891E+01   -.749E-01 -.740E-01 -.923E+01   0.529E+00 0.873E-02 0.341E+00   -.605E-01 -.208E-02 -.832E-02
   0.526E+00 0.435E+00 0.923E+01   -.255E+00 -.147E-01 -.957E+01   -.242E+00 -.490E+00 0.337E+00   -.179E-01 0.740E-01 0.503E-02
   0.584E+00 -.394E+00 0.918E+01   -.314E+00 -.328E-01 -.952E+01   -.232E+00 0.490E+00 0.337E+00   -.216E-01 -.693E-01 0.356E-02
   -.324E+02 0.153E-01 -.128E+01   0.317E+02 -.186E-01 0.146E+01   0.547E+00 -.291E-02 -.167E+00   0.769E-01 0.396E-02 -.444E-02
   0.161E+02 0.277E+02 -.146E+01   -.158E+02 -.271E+02 0.164E+01   -.291E+00 -.483E+00 -.172E+00   -.221E-01 -.273E-01 -.673E-02
   0.162E+02 -.277E+02 -.141E+01   -.159E+02 0.272E+02 0.159E+01   -.291E+00 0.478E+00 -.170E+00   -.166E-01 0.261E-01 -.686E-02
   0.347E+02 -.131E-01 -.828E+01   -.352E+02 0.215E-01 0.865E+01   0.514E+00 0.153E-03 -.367E+00   -.311E-02 -.665E-02 -.129E-02
   -.176E+02 0.300E+02 -.829E+01   0.178E+02 -.305E+02 0.865E+01   -.253E+00 0.436E+00 -.369E+00   0.229E-01 0.204E-01 -.208E-02
   -.176E+02 -.300E+02 -.827E+01   0.178E+02 0.305E+02 0.863E+01   -.252E+00 -.435E+00 -.370E+00   0.290E-01 -.232E-01 -.292E-02
   0.765E+01 0.131E+02 0.529E+03   -.715E+01 -.123E+02 -.534E+03   -.527E+00 -.916E+00 0.447E+01   0.357E-01 0.725E-01 0.192E-01
   0.186E+02 -.175E+02 -.571E+03   -.193E+02 0.171E+02 0.574E+03   0.803E+00 0.414E+00 -.375E+01   -.438E-01 0.683E-01 -.223E-01
   -.959E+01 0.164E+02 0.621E+03   0.101E+02 -.174E+02 -.624E+03   -.568E+00 0.960E+00 0.356E+01   0.167E-01 -.768E-02 -.157E-01
   -.246E+02 0.714E+01 -.570E+03   0.246E+02 -.806E+01 0.574E+03   -.368E-01 0.907E+00 -.375E+01   0.826E-01 0.115E-01 -.402E-01
   0.190E+02 -.140E-01 0.620E+03   -.201E+02 0.184E-01 -.624E+03   0.112E+01 -.236E-02 0.357E+01   -.166E-01 -.211E-02 -.199E-01
   0.155E-02 0.295E-02 -.634E+03   0.182E-02 0.321E-03 0.638E+03   -.883E-02 -.358E-02 -.349E+01   0.327E-02 -.481E-03 0.161E-01
   0.425E+01 -.720E+01 0.532E+03   -.456E+01 0.782E+01 -.535E+03   0.401E+00 -.673E+00 0.339E+01   -.786E-01 0.445E-01 0.345E-01
   0.597E+01 -.247E+02 -.571E+03   -.517E+01 0.252E+02 0.574E+03   -.773E+00 -.484E+00 -.374E+01   -.247E-01 0.256E-01 0.312E-02
   -.832E+01 -.517E-01 0.531E+03   0.899E+01 0.310E-01 -.535E+03   -.777E+00 0.898E-02 0.341E+01   0.906E-01 0.123E-01 0.916E-01
   0.216E+00 0.129E-01 -.521E+03   -.167E+00 -.270E-01 0.525E+03   0.111E-01 0.434E-02 -.402E+01   -.560E-01 0.104E-01 -.978E-01
   -.959E+01 -.164E+02 0.621E+03   0.101E+02 0.174E+02 -.624E+03   -.565E+00 -.961E+00 0.356E+01   0.200E-01 0.891E-02 -.145E-01
   -.247E+02 -.713E+01 -.570E+03   0.246E+02 0.805E+01 0.574E+03   -.297E-01 -.909E+00 -.375E+01   0.915E-01 -.854E-02 -.473E-01
   -.155E+02 0.206E-01 0.530E+03   0.144E+02 -.207E-01 -.534E+03   0.106E+01 0.126E-02 0.446E+01   -.252E-01 -.559E-03 -.169E-01
   -.102E+00 0.864E-02 -.464E+03   0.935E-01 -.320E-02 0.469E+03   0.137E-02 -.828E-03 -.510E+01   0.991E-02 -.439E-02 0.380E-01
   0.430E+01 0.719E+01 0.532E+03   -.460E+01 -.782E+01 -.536E+03   0.393E+00 0.678E+00 0.339E+01   -.908E-01 -.410E-01 0.422E-01
   0.591E+01 0.247E+02 -.571E+03   -.512E+01 -.252E+02 0.575E+03   -.769E+00 0.486E+00 -.374E+01   -.288E-01 -.264E-01 0.398E-02
   0.766E+01 -.131E+02 0.529E+03   -.717E+01 0.123E+02 -.534E+03   -.523E+00 0.911E+00 0.448E+01   0.408E-01 -.831E-01 0.278E-01
   0.186E+02 0.175E+02 -.571E+03   -.193E+02 -.170E+02 0.575E+03   0.801E+00 -.418E+00 -.375E+01   -.491E-01 -.793E-01 -.292E-01
 -----------------------------------------------------------------------------------------------
   -.106E-01 -.274E-02 0.145E+01   0.249E-13 0.711E-14 0.000E+00   0.403E-01 0.637E-02 -.140E+01   -.356E-01 -.368E-02 -.513E-01
 
 
 POSITION                                       TOTAL-FORCE (eV/Angst)
 -----------------------------------------------------------------------------------
      2.82116      4.83357     -0.04868        -0.014626      0.002803      0.004778
     -0.01230      3.19593     -0.04985         0.011422      0.004890      0.003806
     -0.01153      6.47006     -0.04959         0.015777     -0.005544      0.003904
     -2.98132      4.83274      0.00929        -0.021728     -0.002248      0.003759
     -5.48709      3.38371      0.00989         0.003313      0.017273      0.000837
      2.88533      1.44777      0.00974         0.002026     -0.019561      0.001605
      0.32395     -0.00067      0.02981         0.015143      0.001948     -0.005852
      5.41901      6.72428      0.02987        -0.002923      0.011607     -0.006519
      5.41894      2.94148      0.02986        -0.004150     -0.009844     -0.007031
     -0.93039      1.61018     28.56891         0.002257     -0.001046      0.007659
      0.95451      1.65473      1.55057         0.001926     -0.002578     -0.002544
     -3.74048      3.25526     28.31152        -0.003135      0.002851     -0.002829
     -1.83498      3.26514      1.54914        -0.003451      0.003424     -0.003733
     -6.47205      4.83255     28.31189         0.002239     -0.000059      0.000308
     -4.65179      4.83249      1.72496        -0.001974     -0.000792      0.007313
      1.85599      3.23099     28.57676         0.006844     -0.007839     -0.002442
      3.67038      3.22273      1.54996        -0.003770     -0.002095      0.001744
     -0.92046      4.83274     28.57808        -0.013173      0.000567      0.005930
      0.93013      4.83264      1.40729         0.004438      0.000618      0.012331
     -3.74032      6.41011     28.31146        -0.003140     -0.002963     -0.004061
     -1.83492      6.40020      1.54890        -0.003208     -0.005025     -0.001476
      4.65111      4.83290     28.56813        -0.000519      0.000572      0.004645
      6.51154      4.83290      1.22608         0.002648      0.000229     -0.026712
      1.85610      6.43452     28.57615         0.005652      0.008252     -0.007166
      3.67050      6.44280      1.55035        -0.002657      0.000860      0.003400
     -0.93023      8.05529     28.56876         0.003274      0.001477      0.006616
      0.95458      8.01082      1.55076         0.001494      0.002224      0.001732
 -----------------------------------------------------------------------------------
    total drift:                               -0.005932     -0.000051     -0.007369


--------------------------------------------------------------------------------------------------------



  FREE ENERGIE OF THE ION-ELECTRON SYSTEM (eV)
  ---------------------------------------------------
  free  energy   TOTEN  =      -192.21138381 eV

  energy  without entropy=     -191.99833461  energy(sigma->0) =     -192.10485921
 
 d Force = 0.2037962E-03[ 0.148E-03, 0.260E-03]  d Energy = 0.1621790E-03 0.416E-04
 d Force =-0.4443988E+01[-0.444E+01,-0.444E+01]  d Ewald  =-0.4819534E+01 0.376E+00


--------------------------------------------------------------------------------------------------------


    POTLOK:  cpu time    0.0335: real time    0.0336


--------------------------------------------------------------------------------------------------------


 Quasi-Newton relaxation of ions (Broydens 2nd method)
  g(Force)  = 0.207E-03   g(Stress)= 0.691E-06

 retain information from N=  3 steps
 eigenvalues of (default step * inverse Hessian matrix)
  average eigenvalue of G=   1.0897
 eigenvalue spectrum of G is  0.9823  0.8733  1.4134


--------------------------------------------------------------------------------------------------------


  
 reached required accuracy - stopping structural energy minimisation
     LOOP+:  cpu time  142.0919: real time  142.4841
    4ORBIT:  cpu time    0.0000: real time    0.0000

 total amount of memory used by VASP on root node   650782. kBytes
========================================================================

   base      :      30000. kBytes
   nonl-proj :     559647. kBytes
   fftplans  :       2414. kBytes
   grid      :      12150. kBytes
   one-center:        419. kBytes
   wavefun   :      46152. kBytes
 
  
  
 General timing and accounting informations for this job:
 ========================================================
  
                  Total CPU time used (sec):     5475.874
                            User time (sec):     5454.587
                          System time (sec):       21.287
                         Elapsed time (sec):     5490.610
  
                   Maximum memory used (kb):      738312.
                   Average memory used (kb):           0.
  
                          Minor page faults:       395345
                          Major page faults:            5
                 Voluntary context switches:         4671
