       N       E                     dE             d eps       ncg     rms          rms(c)
DAV:   1     0.112643456574E+04    0.11264E+04   -0.35977E+04  8160   0.577E+02
DAV:   2    -0.117013680356E+01   -0.11276E+04   -0.10855E+04 11160   0.173E+02
DAV:   3    -0.199584449017E+03   -0.19841E+03   -0.19032E+03 10880   0.822E+01
DAV:   4    -0.208970769083E+03   -0.93863E+01   -0.90834E+01 12120   0.264E+01
DAV:   5    -0.209313945550E+03   -0.34318E+00   -0.34220E+00 11720   0.363E+00    0.275E+01
DAV:   6    -0.237232190392E+03   -0.27918E+02   -0.10625E+02 12600   0.605E+01    0.595E+01
DAV:   7    -0.196469502704E+03    0.40763E+02   -0.17629E+02 13320   0.152E+02    0.200E+01
DAV:   8    -0.189425938146E+03    0.70436E+01   -0.17606E+01 11920   0.127E+01    0.125E+01
DAV:   9    -0.188229381427E+03    0.11966E+01   -0.35817E+00 12480   0.614E+00    0.929E+00
DAV:  10    -0.187079489997E+03    0.11499E+01   -0.20075E+00 13400   0.732E+00    0.319E+00
DAV:  11    -0.187030018545E+03    0.49471E-01   -0.72362E-01 13440   0.322E+00    0.343E+00
DAV:  12    -0.187173585996E+03   -0.14357E+00   -0.11498E+00 12800   0.556E+00    0.487E+00
DAV:  13    -0.186926976809E+03    0.24661E+00   -0.49555E-01 13200   0.359E+00    0.215E+00
DAV:  14    -0.186879704883E+03    0.47272E-01   -0.11154E-01 13560   0.163E+00    0.773E-01
DAV:  15    -0.186881622829E+03   -0.19179E-02   -0.41803E-02 12440   0.118E+00    0.118E+00
DAV:  16    -0.186872618758E+03    0.90041E-02   -0.20691E-02 13440   0.811E-01    0.565E-01
DAV:  17    -0.186869286599E+03    0.33322E-02   -0.98683E-03 12640   0.520E-01    0.221E-01
DAV:  18    -0.186869096523E+03    0.19008E-03   -0.20596E-03 11840   0.150E-01    0.154E-01
DAV:  19    -0.186868744964E+03    0.35156E-03   -0.90299E-04 11280   0.104E-01    0.509E-02
DAV:  20    -0.186869511002E+03   -0.76604E-03   -0.74332E-04  9120   0.627E-02    0.540E-02
DAV:  21    -0.186870117985E+03   -0.60698E-03   -0.20920E-04  8160   0.456E-02    0.324E-02
DAV:  22    -0.186871226548E+03   -0.11086E-02   -0.17934E-04  7520   0.419E-02    0.332E-02
DAV:  23    -0.186872452913E+03   -0.12264E-02   -0.13117E-04  7520   0.409E-02    0.119E-02
DAV:  24    -0.186873038610E+03   -0.58570E-03   -0.25122E-05  6840   0.133E-02    0.760E-03
DAV:  25    -0.186873417682E+03   -0.37907E-03   -0.15755E-05  5480   0.118E-02    0.487E-03
DAV:  26    -0.186873636396E+03   -0.21871E-03   -0.82972E-06  6840   0.713E-03    0.208E-03
DAV:  27    -0.186873740151E+03   -0.10376E-03   -0.38325E-06  6920   0.409E-03    0.127E-03
DAV:  28    -0.186873790387E+03   -0.50236E-04   -0.20968E-06  7240   0.300E-03
   1 F= -.18687379E+03 E0= -.18670212E+03  d E =-.186874E+03
       N       E                     dE             d eps       ncg     rms          rms(c)
DAV:   1    -0.187499208547E+03   -0.62547E+00   -0.27028E+02  8160   0.349E+01    0.465E+00
DAV:   2    -0.189500802070E+03   -0.20016E+01   -0.20288E+01 12240   0.156E+01    0.985E+00
DAV:   3    -0.189340471781E+03    0.16033E+00   -0.49437E+00 12440   0.126E+01    0.628E+00
DAV:   4    -0.188767328027E+03    0.57314E+00   -0.55952E-01 11880   0.439E+00    0.201E+00
DAV:   5    -0.188899907944E+03   -0.13258E+00   -0.48376E-01 12160   0.390E+00    0.550E+00
DAV:   6    -0.188742321474E+03    0.15759E+00   -0.78686E-01 12720   0.436E+00    0.229E+00
DAV:   7    -0.188712343135E+03    0.29978E-01   -0.21104E-01 11760   0.214E+00    0.203E+00
DAV:   8    -0.188695388505E+03    0.16955E-01   -0.11973E-01 12960   0.209E+00    0.173E+00
DAV:   9    -0.188670364285E+03    0.25024E-01   -0.47789E-02 12000   0.113E+00    0.507E-01
DAV:  10    -0.188668691463E+03    0.16728E-02   -0.58697E-03 11120   0.273E-01    0.259E-01
DAV:  11    -0.188668137719E+03    0.55374E-03   -0.28855E-03 13120   0.223E-01    0.139E-01
DAV:  12    -0.188668075542E+03    0.62177E-04   -0.10812E-03 11800   0.103E-01    0.104E-01
DAV:  13    -0.188668055045E+03    0.20497E-04   -0.27043E-04  7520   0.678E-02
   2 F= -.18866806E+03 E0= -.18852820E+03  d E =-.179426E+01
       N       E                     dE             d eps       ncg     rms          rms(c)
DAV:   1    -0.190590448392E+03   -0.19224E+01   -0.31014E+01  9200   0.142E+01    0.446E+00
DAV:   2    -0.190573106654E+03    0.17342E-01   -0.28209E+00 11160   0.969E+00    0.741E+00
DAV:   3    -0.190062369911E+03    0.51074E+00   -0.13084E+00 12280   0.868E+00    0.416E+00
DAV:   4    -0.189856136920E+03    0.20623E+00   -0.68886E-01 12720   0.413E+00    0.248E+00
DAV:   5    -0.189791471402E+03    0.64666E-01   -0.31239E-01 11080   0.236E+00    0.199E+00
DAV:   6    -0.189759745556E+03    0.31726E-01   -0.10523E-01 12720   0.193E+00    0.844E-01
DAV:   7    -0.189752284894E+03    0.74607E-02   -0.14997E-02 12560   0.589E-01    0.195E-01
DAV:   8    -0.189752303773E+03   -0.18879E-04   -0.26901E-03 10440   0.158E-01    0.139E-01
DAV:   9    -0.189752528122E+03   -0.22435E-03   -0.10608E-03 10400   0.120E-01    0.138E-01
DAV:  10    -0.189752693955E+03   -0.16583E-03   -0.97712E-04 10440   0.198E-01    0.188E-01
DAV:  11    -0.189752394151E+03    0.29980E-03   -0.53193E-04  9520   0.161E-01    0.357E-02
DAV:  12    -0.189752400733E+03   -0.65816E-05   -0.58177E-05  5920   0.353E-02
   3 F= -.18975240E+03 E0= -.18963509E+03  d E =-.108435E+01
       N       E                     dE             d eps       ncg     rms          rms(c)
DAV:   1    -0.191295783759E+03   -0.15434E+01   -0.71079E+01  8160   0.193E+01    0.461E+00
DAV:   2    -0.191186673494E+03    0.10911E+00   -0.54046E+00 13400   0.839E+00    0.520E+00
DAV:   3    -0.191235166614E+03   -0.48493E-01   -0.15751E+00 11680   0.922E+00    0.685E+00
DAV:   4    -0.190908093260E+03    0.32707E+00   -0.15644E+00 12520   0.785E+00    0.410E+00
DAV:   5    -0.190895876527E+03    0.12217E-01   -0.86755E-01 11200   0.587E+00    0.360E+00
DAV:   6    -0.190712762008E+03    0.18311E+00   -0.20615E-01 11240   0.297E+00    0.601E-01
DAV:   7    -0.190711291648E+03    0.14704E-02   -0.36861E-02 11360   0.692E-01    0.450E-01
DAV:   8    -0.190707811884E+03    0.34798E-02   -0.70890E-03 10200   0.335E-01    0.147E-01
DAV:   9    -0.190708510166E+03   -0.69828E-03   -0.17897E-03 12360   0.255E-01    0.247E-01
DAV:  10    -0.190708267447E+03    0.24272E-03   -0.16369E-03 10440   0.292E-01    0.145E-01
DAV:  11    -0.190708076067E+03    0.19138E-03   -0.60266E-04  9920   0.132E-01    0.434E-02
DAV:  12    -0.190708088435E+03   -0.12369E-04   -0.13214E-04  6600   0.445E-02
   4 F= -.19070809E+03 E0= -.19060968E+03  d E =-.955688E+00
       N       E                     dE             d eps       ncg     rms          rms(c)
DAV:   1    -0.192099855395E+03   -0.13918E+01   -0.14507E+02  8160   0.271E+01    0.575E+00
DAV:   2    -0.191940671461E+03    0.15918E+00   -0.95005E+00 12240   0.938E+00    0.546E+00
DAV:   3    -0.192384632784E+03   -0.44396E+00   -0.32445E+00 12240   0.125E+01    0.932E+00
DAV:   4    -0.191533070133E+03    0.85156E+00   -0.21311E+00 12320   0.105E+01    0.299E+00
DAV:   5    -0.191506063369E+03    0.27007E-01   -0.53417E-01 11840   0.484E+00    0.411E+00
DAV:   6    -0.191370396420E+03    0.13567E+00   -0.57386E-01 12200   0.509E+00    0.157E+00
DAV:   7    -0.191346588311E+03    0.23808E-01   -0.69277E-02 11920   0.144E+00    0.687E-01
DAV:   8    -0.191345211362E+03    0.13769E-02   -0.24596E-02 12080   0.111E+00    0.749E-01
DAV:   9    -0.191339646179E+03    0.55652E-02   -0.97884E-03 11440   0.743E-01    0.225E-01
DAV:  10    -0.191339785817E+03   -0.13964E-03   -0.26939E-03 11640   0.219E-01    0.113E-01
DAV:  11    -0.191339663820E+03    0.12200E-03   -0.82800E-04 10720   0.106E-01    0.636E-02
DAV:  12    -0.191339627858E+03    0.35962E-04   -0.13758E-04  7200   0.471E-02
   5 F= -.19133963E+03 E0= -.19124641E+03  d E =-.631539E+00
       N       E                     dE             d eps       ncg     rms          rms(c)
DAV:   1    -0.191389971209E+03   -0.50307E-01   -0.41553E+00  8160   0.432E+00    0.604E-01
DAV:   2    -0.191446821643E+03   -0.56850E-01   -0.22753E-01 12560   0.262E+00    0.224E+00
DAV:   3    -0.191399737181E+03    0.47084E-01   -0.10935E-01 12000   0.224E+00    0.515E-01
DAV:   4    -0.191400025105E+03   -0.28792E-03   -0.14155E-02 11440   0.807E-01    0.561E-01
DAV:   5    -0.191396808371E+03    0.32167E-02   -0.63747E-03 11440   0.583E-01    0.179E-01
DAV:   6    -0.191396868328E+03   -0.59957E-04   -0.20095E-03 11400   0.279E-01    0.215E-01
DAV:   7    -0.191396851897E+03    0.16431E-04   -0.22286E-03 11040   0.356E-01    0.199E-01
DAV:   8    -0.191396391001E+03    0.46090E-03   -0.77407E-04  9480   0.187E-01    0.282E-02
DAV:   9    -0.191396406585E+03   -0.15583E-04   -0.86235E-05  6200   0.361E-02
   6 F= -.19139641E+03 E0= -.19130088E+03  d E =-.567787E-01
       N       E                     dE             d eps       ncg     rms          rms(c)
DAV:   1    -0.191467538510E+03   -0.71148E-01   -0.10949E+01  8160   0.699E+00    0.928E-01
DAV:   2    -0.191591488685E+03   -0.12395E+00   -0.46553E-01 13040   0.359E+00    0.358E+00
DAV:   3    -0.191485060434E+03    0.10643E+00   -0.31476E-01 12000   0.350E+00    0.899E-01
DAV:   4    -0.191484123268E+03    0.93717E-03   -0.37346E-02 11640   0.131E+00    0.894E-01
DAV:   5    -0.191475917099E+03    0.82062E-02   -0.17155E-02 11680   0.942E-01    0.314E-01
DAV:   6    -0.191476024480E+03   -0.10738E-03   -0.61303E-03 11320   0.512E-01    0.387E-01
DAV:   7    -0.191475240860E+03    0.78362E-03   -0.55550E-03 11240   0.564E-01    0.255E-01
DAV:   8    -0.191474456718E+03    0.78414E-03   -0.15043E-03 10600   0.251E-01    0.468E-02
DAV:   9    -0.191474440603E+03    0.16114E-04   -0.17072E-04  6720   0.544E-02
   7 F= -.19147444E+03 E0= -.19137683E+03  d E =-.780340E-01
       N       E                     dE             d eps       ncg     rms          rms(c)
DAV:   1    -0.191514199180E+03   -0.39742E-01   -0.31434E+00  8160   0.378E+00    0.533E-01
DAV:   2    -0.191556488363E+03   -0.42289E-01   -0.15827E-01 12560   0.229E+00    0.205E+00
DAV:   3    -0.191518985676E+03    0.37503E-01   -0.88899E-02 12120   0.196E+00    0.454E-01
DAV:   4    -0.191519553619E+03   -0.56794E-03   -0.11813E-02 11440   0.745E-01    0.528E-01
DAV:   5    -0.191516743477E+03    0.28101E-02   -0.61190E-03 11440   0.546E-01    0.185E-01
DAV:   6    -0.191516933442E+03   -0.18997E-03   -0.23866E-03 11120   0.336E-01    0.248E-01
DAV:   7    -0.191516492758E+03    0.44068E-03   -0.19426E-03 10440   0.330E-01    0.124E-01
DAV:   8    -0.191516279908E+03    0.21285E-03   -0.41196E-04  8480   0.122E-01    0.262E-02
DAV:   9    -0.191516276565E+03    0.33430E-05   -0.66682E-05  7000   0.337E-02
   8 F= -.19151628E+03 E0= -.19141846E+03  d E =-.418360E-01
       N       E                     dE             d eps       ncg     rms          rms(c)
DAV:   1    -0.191592966343E+03   -0.76686E-01   -0.14659E+01  8160   0.819E+00    0.102E+00
DAV:   2    -0.191728122538E+03   -0.13516E+00   -0.59311E-01 12600   0.394E+00    0.375E+00
DAV:   3    -0.191619569106E+03    0.10855E+00   -0.35219E-01 12280   0.360E+00    0.968E-01
DAV:   4    -0.191620814968E+03   -0.12459E-02   -0.47631E-02 11360   0.153E+00    0.108E+00
DAV:   5    -0.191607932782E+03    0.12882E-01   -0.24110E-02 11720   0.114E+00    0.369E-01
DAV:   6    -0.191608420164E+03   -0.48738E-03   -0.86413E-03 11560   0.627E-01    0.459E-01
DAV:   7    -0.191607277173E+03    0.11430E-02   -0.76982E-03 11560   0.692E-01    0.299E-01
DAV:   8    -0.191605970404E+03    0.13068E-02   -0.20892E-03 11000   0.310E-01    0.520E-02
DAV:   9    -0.191605958110E+03    0.12294E-04   -0.28399E-04  8200   0.622E-02
   9 F= -.19160596E+03 E0= -.19151145E+03  d E =-.896815E-01
       N       E                     dE             d eps       ncg     rms          rms(c)
DAV:   1    -0.191609633782E+03   -0.36634E-02   -0.23355E-02  8160   0.330E-01    0.450E-02
DAV:   2    -0.191609825350E+03   -0.19157E-03   -0.11258E-03 12360   0.156E-01    0.122E-01
DAV:   3    -0.191609687536E+03    0.13781E-03   -0.39292E-04  7720   0.138E-01    0.477E-02
DAV:   4    -0.191609683841E+03    0.36947E-05   -0.82377E-05  5680   0.628E-02
  10 F= -.19160968E+03 E0= -.19151540E+03  d E =-.372573E-02
       N       E                     dE             d eps       ncg     rms          rms(c)
DAV:   1    -0.191610254610E+03   -0.56707E-03   -0.14113E-01  8160   0.878E-01    0.244E-01
DAV:   2    -0.191612846219E+03   -0.25916E-02   -0.14577E-02 11320   0.777E-01    0.597E-01
DAV:   3    -0.191608923900E+03    0.39223E-02   -0.73281E-03 10720   0.671E-01    0.168E-01
DAV:   4    -0.191609313425E+03   -0.38953E-03   -0.27501E-03 10440   0.359E-01    0.291E-01
DAV:   5    -0.191608682942E+03    0.63048E-03   -0.26250E-03  9800   0.350E-01    0.161E-01
DAV:   6    -0.191608479789E+03    0.20315E-03   -0.91564E-04  9720   0.189E-01    0.110E-01
DAV:   7    -0.191608361523E+03    0.11827E-03   -0.27051E-04  7480   0.125E-01    0.280E-02
DAV:   8    -0.191608362203E+03   -0.67974E-06   -0.35063E-05  6480   0.339E-02
  11 F= -.19160836E+03 E0= -.19151445E+03  d E =0.132164E-02
       N       E                     dE             d eps       ncg     rms          rms(c)
DAV:   1    -0.191655099834E+03   -0.46738E-01   -0.31471E+00  8160   0.386E+00    0.556E-01
DAV:   2    -0.191670150530E+03   -0.15051E-01   -0.12817E-01 13320   0.165E+00    0.118E+00
DAV:   3    -0.191657406935E+03    0.12744E-01   -0.41217E-02 12160   0.149E+00    0.483E-01
DAV:   4    -0.191656951919E+03    0.45502E-03   -0.11870E-02 12240   0.753E-01    0.552E-01
DAV:   5    -0.191654413307E+03    0.25386E-02   -0.86351E-03 11920   0.711E-01    0.320E-01
DAV:   6    -0.191654140940E+03    0.27237E-03   -0.47064E-03 11040   0.440E-01    0.293E-01
DAV:   7    -0.191653445175E+03    0.69576E-03   -0.26199E-03 10960   0.380E-01    0.143E-01
DAV:   8    -0.191653206305E+03    0.23887E-03   -0.52406E-04  8600   0.150E-01    0.356E-02
DAV:   9    -0.191653182305E+03    0.24000E-04   -0.74195E-05  7440   0.370E-02
  12 F= -.19165318E+03 E0= -.19156194E+03  d E =-.448201E-01
       N       E                     dE             d eps       ncg     rms          rms(c)
DAV:   1    -0.191702696327E+03   -0.49490E-01   -0.39996E+00  8160   0.429E+00    0.439E-01
DAV:   2    -0.191710868881E+03   -0.81726E-02   -0.11685E-01 12120   0.101E+00    0.477E-01
DAV:   3    -0.191712869671E+03   -0.20008E-02   -0.20712E-02 11480   0.965E-01    0.686E-01
DAV:   4    -0.191708371490E+03    0.44982E-02   -0.93519E-03 11440   0.699E-01    0.288E-01
DAV:   5    -0.191707873201E+03    0.49829E-03   -0.31025E-03 11240   0.422E-01    0.245E-01
DAV:   6    -0.191707644634E+03    0.22857E-03   -0.25652E-03 11640   0.378E-01    0.169E-01
DAV:   7    -0.191707255883E+03    0.38875E-03   -0.96013E-04  9800   0.194E-01    0.799E-02
DAV:   8    -0.191707212781E+03    0.43101E-04   -0.25325E-04  8080   0.124E-01
  13 F= -.19170721E+03 E0= -.19162067E+03  d E =-.540305E-01
       N       E                     dE             d eps       ncg     rms          rms(c)
DAV:   1    -0.191644611065E+03    0.62645E-01   -0.44759E+00  8160   0.452E+00    0.442E-01
DAV:   2    -0.191652651892E+03   -0.80408E-02   -0.12662E-01 12280   0.960E-01    0.306E-01
DAV:   3    -0.191653647378E+03   -0.99549E-03   -0.12640E-02 11320   0.615E-01    0.508E-01
DAV:   4    -0.191651814469E+03    0.18329E-02   -0.86888E-03 11080   0.645E-01    0.371E-01
DAV:   5    -0.191650509477E+03    0.13050E-02   -0.36060E-03 11200   0.363E-01    0.150E-01
DAV:   6    -0.191650962223E+03   -0.45275E-03   -0.20549E-03 12400   0.334E-01    0.237E-01
DAV:   7    -0.191650233113E+03    0.72911E-03   -0.93023E-04 10080   0.254E-01    0.322E-02
DAV:   8    -0.191650243411E+03   -0.10298E-04   -0.82798E-05  6120   0.497E-02
  14 F= -.19165024E+03 E0= -.19155871E+03  d E =0.569694E-01
       N       E                     dE             d eps       ncg     rms          rms(c)
DAV:   1    -0.191600646357E+03    0.49587E-01   -0.49448E+00  8160   0.479E+00    0.535E-01
DAV:   2    -0.191612686580E+03   -0.12040E-01   -0.15283E-01 13360   0.132E+00    0.753E-01
DAV:   3    -0.191612438289E+03    0.24829E-03   -0.35062E-02 12480   0.129E+00    0.822E-01
DAV:   4    -0.191607175521E+03    0.52628E-02   -0.15883E-02 12440   0.835E-01    0.416E-01
DAV:   5    -0.191605966799E+03    0.12087E-02   -0.60993E-03 10960   0.564E-01    0.313E-01
DAV:   6    -0.191605283877E+03    0.68292E-03   -0.37470E-03 11880   0.427E-01    0.166E-01
DAV:   7    -0.191604942299E+03    0.34158E-03   -0.12767E-03 10920   0.210E-01    0.109E-01
DAV:   8    -0.191604851532E+03    0.90766E-04   -0.45248E-04  9360   0.160E-01
  15 F= -.19160485E+03 E0= -.19151125E+03  d E =0.453919E-01
       N       E                     dE             d eps       ncg     rms          rms(c)
DAV:   1    -0.191582268366E+03    0.22674E-01   -0.23353E+00  8160   0.329E+00    0.352E-01
DAV:   2    -0.191586948314E+03   -0.46799E-02   -0.67727E-02 12680   0.756E-01    0.386E-01
DAV:   3    -0.191588133110E+03   -0.11848E-02   -0.12637E-02 12280   0.757E-01    0.577E-01
DAV:   4    -0.191585409495E+03    0.27236E-02   -0.69061E-03 11840   0.588E-01    0.242E-01
DAV:   5    -0.191584854356E+03    0.55514E-03   -0.22113E-03 11200   0.281E-01    0.188E-01
DAV:   6    -0.191584976255E+03   -0.12190E-03   -0.20402E-03 10280   0.345E-01    0.202E-01
DAV:   7    -0.191584503503E+03    0.47275E-03   -0.82398E-04  9200   0.205E-01    0.475E-02
DAV:   8    -0.191584501419E+03    0.20841E-05   -0.99101E-05  6400   0.806E-02
  16 F= -.19158450E+03 E0= -.19149100E+03  d E =0.203501E-01
       N       E                     dE             d eps       ncg     rms          rms(c)
DAV:   1    -0.191603213730E+03   -0.18710E-01   -0.13846E+00  8160   0.254E+00    0.317E-01
DAV:   2    -0.191614968270E+03   -0.11755E-01   -0.54525E-02 13560   0.114E+00    0.104E+00
DAV:   3    -0.191605607892E+03    0.93604E-02   -0.20855E-02 12040   0.102E+00    0.273E-01
DAV:   4    -0.191606105272E+03   -0.49738E-03   -0.36040E-03 11160   0.435E-01    0.352E-01
DAV:   5    -0.191604820607E+03    0.12847E-02   -0.25764E-03 10040   0.405E-01    0.119E-01
DAV:   6    -0.191604942174E+03   -0.12157E-03   -0.88579E-04 10280   0.195E-01    0.138E-01
DAV:   7    -0.191604774161E+03    0.16801E-03   -0.56972E-04  9080   0.200E-01    0.784E-02
DAV:   8    -0.191604686031E+03    0.88130E-04   -0.11511E-04  5840   0.794E-02
  17 F= -.19160469E+03 E0= -.19151356E+03  d E =-.201846E-01
       N       E                     dE             d eps       ncg     rms          rms(c)
DAV:   1    -0.191613742771E+03   -0.89686E-02   -0.61718E-01  8160   0.170E+00    0.204E-01
DAV:   2    -0.191615809420E+03   -0.20666E-02   -0.20412E-02 13360   0.568E-01    0.355E-01
DAV:   3    -0.191614780734E+03    0.10287E-02   -0.44234E-03 12320   0.504E-01    0.221E-01
DAV:   4    -0.191614609510E+03    0.17122E-03   -0.18827E-03 10680   0.289E-01    0.215E-01
DAV:   5    -0.191614243395E+03    0.36612E-03   -0.11850E-03  9600   0.251E-01    0.115E-01
DAV:   6    -0.191614158426E+03    0.84969E-04   -0.51558E-04  8400   0.139E-01
  18 F= -.19161416E+03 E0= -.19152249E+03  d E =-.947239E-02
       N       E                     dE             d eps       ncg     rms          rms(c)
DAV:   1    -0.191642565943E+03   -0.28323E-01   -0.25950E+00  8160   0.344E+00    0.403E-01
DAV:   2    -0.191658101882E+03   -0.15536E-01   -0.95202E-02 13000   0.135E+00    0.116E+00
DAV:   3    -0.191647447935E+03    0.10654E-01   -0.32599E-02 11360   0.119E+00    0.406E-01
DAV:   4    -0.191647465485E+03   -0.17551E-04   -0.66148E-03 11360   0.589E-01    0.411E-01
DAV:   5    -0.191645493299E+03    0.19722E-02   -0.33290E-03 11040   0.472E-01    0.134E-01
DAV:   6    -0.191645649283E+03   -0.15598E-03   -0.14971E-03 10480   0.220E-01    0.156E-01
DAV:   7    -0.191645500977E+03    0.14831E-03   -0.10532E-03 10520   0.255E-01    0.132E-01
DAV:   8    -0.191645292256E+03    0.20872E-03   -0.33865E-04  8520   0.144E-01    0.239E-02
DAV:   9    -0.191645289700E+03    0.25557E-05   -0.40053E-05  6440   0.275E-02
  19 F= -.19164529E+03 E0= -.19155542E+03  d E =-.311313E-01
       N       E                     dE             d eps       ncg     rms          rms(c)
DAV:   1    -0.191669167040E+03   -0.23875E-01   -0.17525E+00  8160   0.282E+00    0.307E-01
DAV:   2    -0.191677855787E+03   -0.86887E-02   -0.57383E-02 12600   0.973E-01    0.838E-01
DAV:   3    -0.191672478246E+03    0.53775E-02   -0.17644E-02 11880   0.886E-01    0.315E-01
DAV:   4    -0.191671847196E+03    0.63105E-03   -0.28687E-03 11160   0.328E-01    0.214E-01
DAV:   5    -0.191671475813E+03    0.37138E-03   -0.15973E-03 10680   0.309E-01    0.155E-01
DAV:   6    -0.191671392313E+03    0.83501E-04   -0.10515E-03 10000   0.218E-01    0.109E-01
DAV:   7    -0.191671330775E+03    0.61538E-04   -0.49003E-04  8960   0.168E-01
  20 F= -.19167133E+03 E0= -.19158363E+03  d E =-.260411E-01
       N       E                     dE             d eps       ncg     rms          rms(c)
DAV:   1    -0.191674651799E+03   -0.32595E-02   -0.31192E-02  8160   0.398E-01    0.464E-02
DAV:   2    -0.191674787373E+03   -0.13557E-03   -0.11633E-03 13520   0.126E-01    0.949E-02
DAV:   3    -0.191674726626E+03    0.60746E-04   -0.28598E-04  7600   0.125E-01
  21 F= -.19167473E+03 E0= -.19158754E+03  d E =-.339585E-02
       N       E                     dE             d eps       ncg     rms          rms(c)
DAV:   1    -0.191654582503E+03    0.20205E-01   -0.10362E+00  8160   0.219E+00    0.286E-01
DAV:   2    -0.191662060216E+03   -0.74777E-02   -0.41084E-02 12320   0.985E-01    0.821E-01
DAV:   3    -0.191655525162E+03    0.65351E-02   -0.12841E-02 11560   0.835E-01    0.230E-01
DAV:   4    -0.191655414525E+03    0.11064E-03   -0.26240E-03 11000   0.339E-01    0.236E-01
DAV:   5    -0.191654933035E+03    0.48149E-03   -0.16803E-03 10080   0.321E-01    0.134E-01
DAV:   6    -0.191654829208E+03    0.10383E-03   -0.82857E-04 10280   0.190E-01    0.104E-01
DAV:   7    -0.191654759711E+03    0.69496E-04   -0.38808E-04  8480   0.163E-01
  22 F= -.19165476E+03 E0= -.19156572E+03  d E =0.199669E-01
       N       E                     dE             d eps       ncg     rms          rms(c)
DAV:   1    -0.191702103958E+03   -0.47275E-01   -0.69201E+00  8160   0.563E+00    0.640E-01
DAV:   2    -0.191737199134E+03   -0.35095E-01   -0.22706E-01 12680   0.204E+00    0.182E+00
DAV:   3    -0.191713295348E+03    0.23904E-01   -0.80553E-02 11760   0.185E+00    0.621E-01
DAV:   4    -0.191711515235E+03    0.17801E-02   -0.13138E-02 11480   0.807E-01    0.546E-01
DAV:   5    -0.191708399978E+03    0.31153E-02   -0.77776E-03 11080   0.724E-01    0.283E-01
DAV:   6    -0.191708308294E+03    0.91684E-04   -0.46373E-03 11520   0.433E-01    0.257E-01
DAV:   7    -0.191707844360E+03    0.46393E-03   -0.25672E-03 11520   0.409E-01    0.192E-01
DAV:   8    -0.191707368636E+03    0.47572E-03   -0.76984E-04 10040   0.221E-01    0.391E-02
DAV:   9    -0.191707345509E+03    0.23127E-04   -0.93544E-05  6440   0.436E-02
  23 F= -.19170735E+03 E0= -.19162251E+03  d E =-.525858E-01
       N       E                     dE             d eps       ncg     rms          rms(c)
DAV:   1    -0.191728523419E+03   -0.21155E-01   -0.11842E+00  8160   0.232E+00    0.234E-01
DAV:   2    -0.191731216520E+03   -0.26931E-02   -0.34344E-02 12360   0.574E-01    0.311E-01
DAV:   3    -0.191731554222E+03   -0.33770E-03   -0.61415E-03 11840   0.551E-01    0.372E-01
DAV:   4    -0.191730259813E+03    0.12944E-02   -0.23248E-03 10560   0.351E-01    0.136E-01
DAV:   5    -0.191730200895E+03    0.58918E-04   -0.73849E-04  9720   0.225E-01
  24 F= -.19173020E+03 E0= -.19164694E+03  d E =-.228554E-01
       N       E                     dE             d eps       ncg     rms          rms(c)
DAV:   1    -0.191696131283E+03    0.34129E-01   -0.25107E+00  8160   0.345E+00    0.427E-01
DAV:   2    -0.191701452526E+03   -0.53212E-02   -0.84208E-02 12120   0.922E-01    0.575E-01
DAV:   3    -0.191702038103E+03   -0.58558E-03   -0.19702E-02 12200   0.993E-01    0.725E-01
DAV:   4    -0.191697677373E+03    0.43607E-02   -0.11540E-02 11920   0.706E-01    0.251E-01
DAV:   5    -0.191696852850E+03    0.82452E-03   -0.25403E-03 11160   0.271E-01    0.150E-01
DAV:   6    -0.191697008911E+03   -0.15606E-03   -0.17830E-03 12080   0.334E-01    0.195E-01
DAV:   7    -0.191696537944E+03    0.47097E-03   -0.81624E-04  9960   0.224E-01    0.401E-02
DAV:   8    -0.191696545476E+03   -0.75316E-05   -0.10919E-04  6440   0.767E-02
  25 F= -.19169655E+03 E0= -.19161149E+03  d E =0.336554E-01
       N       E                     dE             d eps       ncg     rms          rms(c)
DAV:   1    -0.191628019742E+03    0.68518E-01   -0.10598E+01  8160   0.696E+00    0.728E-01
DAV:   2    -0.191651435448E+03   -0.23416E-01   -0.30449E-01 12400   0.167E+00    0.933E-01
DAV:   3    -0.191654848186E+03   -0.34127E-02   -0.52353E-02 11000   0.165E+00    0.128E+00
DAV:   4    -0.191642776283E+03    0.12072E-01   -0.33565E-02 11960   0.120E+00    0.516E-01
DAV:   5    -0.191640893190E+03    0.18831E-02   -0.90246E-03 11320   0.724E-01    0.378E-01
DAV:   6    -0.191640249650E+03    0.64354E-03   -0.64011E-03 12080   0.586E-01    0.261E-01
DAV:   7    -0.191639415942E+03    0.83371E-03   -0.26076E-03 12400   0.328E-01    0.164E-01
DAV:   8    -0.191639172582E+03    0.24336E-03   -0.79098E-04 10000   0.226E-01    0.748E-02
DAV:   9    -0.191639110131E+03    0.62450E-04   -0.12769E-04  6400   0.802E-02
  26 F= -.19163911E+03 E0= -.19155136E+03  d E =0.574353E-01
       N       E                     dE             d eps       ncg     rms          rms(c)
DAV:   1    -0.191709206421E+03   -0.70034E-01   -0.17563E+01  8160   0.909E+00    0.112E+00
DAV:   2    -0.191777775388E+03   -0.68569E-01   -0.61031E-01 12600   0.312E+00    0.250E+00
DAV:   3    -0.191740325455E+03    0.37450E-01   -0.20904E-01 11720   0.297E+00    0.126E+00
DAV:   4    -0.191731957130E+03    0.83683E-02   -0.46863E-02 12280   0.168E+00    0.107E+00
DAV:   5    -0.191719386736E+03    0.12570E-01   -0.27181E-02 11520   0.139E+00    0.511E-01
DAV:   6    -0.191718134131E+03    0.12526E-02   -0.15237E-02 10720   0.734E-01    0.402E-01
DAV:   7    -0.191717227087E+03    0.90704E-03   -0.76450E-03 12040   0.685E-01    0.357E-01
DAV:   8    -0.191715748410E+03    0.14787E-02   -0.26719E-03 11880   0.420E-01    0.865E-02
DAV:   9    -0.191715620929E+03    0.12748E-03   -0.34073E-04  7960   0.867E-02    0.357E-02
DAV:  10    -0.191715594586E+03    0.26343E-04   -0.16435E-04  7240   0.384E-02
  27 F= -.19171559E+03 E0= -.19163145E+03  d E =-.764845E-01
       N       E                     dE             d eps       ncg     rms          rms(c)
DAV:   1    -0.191708067972E+03    0.75530E-02   -0.45450E-01  8160   0.151E+00    0.262E-01
DAV:   2    -0.191709108059E+03   -0.10401E-02   -0.20170E-02 11040   0.641E-01    0.389E-01
DAV:   3    -0.191707854119E+03    0.12539E-02   -0.51016E-03 11480   0.613E-01    0.240E-01
DAV:   4    -0.191707177399E+03    0.67672E-03   -0.19445E-03 10920   0.331E-01    0.151E-01
DAV:   5    -0.191707276536E+03   -0.99137E-04   -0.15267E-03 10000   0.295E-01    0.198E-01
DAV:   6    -0.191706886472E+03    0.39006E-03   -0.97602E-04  9640   0.232E-01    0.776E-02
DAV:   7    -0.191706878619E+03    0.78533E-05   -0.24877E-04  6320   0.112E-01
  28 F= -.19170688E+03 E0= -.19162236E+03  d E =0.871597E-02
       N       E                     dE             d eps       ncg     rms          rms(c)
DAV:   1    -0.191734507803E+03   -0.27621E-01   -0.23085E+00  8160   0.324E+00    0.329E-01
DAV:   2    -0.191740262344E+03   -0.57545E-02   -0.64807E-02 12360   0.846E-01    0.545E-01
DAV:   3    -0.191739298763E+03    0.96358E-03   -0.12826E-02 11440   0.801E-01    0.445E-01
DAV:   4    -0.191737543151E+03    0.17556E-02   -0.37476E-03 11240   0.448E-01    0.221E-01
DAV:   5    -0.191737212973E+03    0.33018E-03   -0.16467E-03 10000   0.351E-01    0.166E-01
DAV:   6    -0.191737027461E+03    0.18551E-03   -0.11650E-03 10080   0.228E-01    0.820E-02
DAV:   7    -0.191736903790E+03    0.12367E-03   -0.31874E-04  7880   0.992E-02    0.416E-02
DAV:   8    -0.191736895313E+03    0.84767E-05   -0.85984E-05  7480   0.766E-02
  29 F= -.19173690E+03 E0= -.19165506E+03  d E =-.300167E-01
       N       E                     dE             d eps       ncg     rms          rms(c)
DAV:   1    -0.191741333903E+03   -0.44301E-02   -0.59359E-02  8160   0.542E-01    0.890E-02
DAV:   2    -0.191741569865E+03   -0.23596E-03   -0.28664E-03 11560   0.240E-01    0.164E-01
DAV:   3    -0.191741371816E+03    0.19805E-03   -0.83735E-04  9600   0.222E-01    0.975E-02
DAV:   4    -0.191741339816E+03    0.32000E-04   -0.34496E-04  7280   0.140E-01
  30 F= -.19174134E+03 E0= -.19165937E+03  d E =-.444450E-02
       N       E                     dE             d eps       ncg     rms          rms(c)
DAV:   1    -0.191766123945E+03   -0.24752E-01   -0.17022E+00  8160   0.278E+00    0.275E-01
DAV:   2    -0.191769525320E+03   -0.34014E-02   -0.44531E-02 11720   0.631E-01    0.351E-01
DAV:   3    -0.191769970697E+03   -0.44538E-03   -0.75825E-03 12520   0.656E-01    0.422E-01
DAV:   4    -0.191768319783E+03    0.16509E-02   -0.30143E-03 11120   0.415E-01    0.160E-01
DAV:   5    -0.191768306396E+03    0.13388E-04   -0.13373E-03 10120   0.295E-01    0.171E-01
DAV:   6    -0.191768108712E+03    0.19768E-03   -0.88099E-04 10440   0.217E-01    0.856E-02
DAV:   7    -0.191768033097E+03    0.75615E-04   -0.34508E-04  8200   0.134E-01
  31 F= -.19176803E+03 E0= -.19168841E+03  d E =-.266933E-01
       N       E                     dE             d eps       ncg     rms          rms(c)
DAV:   1    -0.191742063346E+03    0.26045E-01   -0.13681E+00  8160   0.250E+00    0.246E-01
DAV:   2    -0.191744799834E+03   -0.27365E-02   -0.39139E-02 12160   0.574E-01    0.246E-01
DAV:   3    -0.191745694070E+03   -0.89424E-03   -0.54773E-03 12640   0.556E-01    0.408E-01
DAV:   4    -0.191744197929E+03    0.14961E-02   -0.30943E-03 11280   0.423E-01    0.165E-01
DAV:   5    -0.191744102504E+03    0.95425E-04   -0.10843E-03  9560   0.259E-01    0.149E-01
DAV:   6    -0.191743973727E+03    0.12878E-03   -0.73637E-04 10520   0.194E-01    0.846E-02
DAV:   7    -0.191743900258E+03    0.73469E-04   -0.30510E-04  7800   0.127E-01
  32 F= -.19174390E+03 E0= -.19166252E+03  d E =0.241328E-01
       N       E                     dE             d eps       ncg     rms          rms(c)
DAV:   1    -0.191717620515E+03    0.26353E-01   -0.22425E+00  8160   0.323E+00    0.354E-01
DAV:   2    -0.191723094191E+03   -0.54737E-02   -0.70538E-02 12640   0.845E-01    0.450E-01
DAV:   3    -0.191724128520E+03   -0.10343E-02   -0.13514E-02 12280   0.862E-01    0.581E-01
DAV:   4    -0.191720989761E+03    0.31388E-02   -0.52452E-03 12040   0.539E-01    0.190E-01
DAV:   5    -0.191720843650E+03    0.14611E-03   -0.16781E-03 11160   0.295E-01    0.195E-01
DAV:   6    -0.191720831484E+03    0.12166E-04   -0.16467E-03 11200   0.329E-01    0.170E-01
DAV:   7    -0.191720450814E+03    0.38067E-03   -0.57368E-04  8760   0.170E-01    0.433E-02
DAV:   8    -0.191720448757E+03    0.20575E-05   -0.92253E-05  6800   0.753E-02
  33 F= -.19172045E+03 E0= -.19163867E+03  d E =0.234515E-01
       N       E                     dE             d eps       ncg     rms          rms(c)
DAV:   1    -0.191716441238E+03    0.40096E-02   -0.51824E-01  8160   0.157E+00    0.184E-01
DAV:   2    -0.191717547671E+03   -0.11064E-02   -0.14291E-02 12600   0.421E-01    0.269E-01
DAV:   3    -0.191717279181E+03    0.26849E-03   -0.31318E-03 12280   0.430E-01    0.234E-01
DAV:   4    -0.191716929310E+03    0.34987E-03   -0.12646E-03 10120   0.267E-01    0.151E-01
DAV:   5    -0.191716804592E+03    0.12472E-03   -0.86822E-04  9200   0.225E-01    0.132E-01
DAV:   6    -0.191716677378E+03    0.12721E-03   -0.47626E-04  8400   0.166E-01    0.636E-02
DAV:   7    -0.191716658936E+03    0.18442E-04   -0.16933E-04  7000   0.108E-01
  34 F= -.19171666E+03 E0= -.19163560E+03  d E =0.378982E-02
       N       E                     dE             d eps       ncg     rms          rms(c)
DAV:   1    -0.191738771050E+03   -0.22094E-01   -0.16129E+00  8160   0.272E+00    0.279E-01
DAV:   2    -0.191743865018E+03   -0.50940E-02   -0.46460E-02 12160   0.788E-01    0.533E-01
DAV:   3    -0.191742012301E+03    0.18527E-02   -0.85306E-03 12280   0.723E-01    0.321E-01
DAV:   4    -0.191741275392E+03    0.73691E-03   -0.22473E-03 11000   0.339E-01    0.206E-01
DAV:   5    -0.191741012958E+03    0.26243E-03   -0.15866E-03 10320   0.319E-01    0.159E-01
DAV:   6    -0.191740893468E+03    0.11949E-03   -0.80994E-04 10000   0.198E-01    0.896E-02
DAV:   7    -0.191740768271E+03    0.12520E-03   -0.30552E-04  8240   0.102E-01    0.463E-02
DAV:   8    -0.191740747495E+03    0.20776E-04   -0.65149E-05  6800   0.727E-02
  35 F= -.19174075E+03 E0= -.19166181E+03  d E =-.240886E-01
       N       E                     dE             d eps       ncg     rms          rms(c)
DAV:   1    -0.191726431135E+03    0.14337E-01   -0.56880E-01  8160   0.163E+00    0.173E-01
DAV:   2    -0.191727653282E+03   -0.12221E-02   -0.15033E-02 12840   0.419E-01    0.260E-01
DAV:   3    -0.191727390577E+03    0.26271E-03   -0.25939E-03 11120   0.392E-01    0.226E-01
DAV:   4    -0.191727035423E+03    0.35515E-03   -0.12137E-03  9840   0.251E-01    0.140E-01
DAV:   5    -0.191726891895E+03    0.14353E-03   -0.67105E-04  8840   0.207E-01    0.977E-02
DAV:   6    -0.191726846068E+03    0.45827E-04   -0.33790E-04  8520   0.137E-01
  36 F= -.19172685E+03 E0= -.19164650E+03  d E =0.139014E-01
       N       E                     dE             d eps       ncg     rms          rms(c)
DAV:   1    -0.191737792727E+03   -0.10901E-01   -0.44918E-01  8160   0.148E+00    0.225E-01
DAV:   2    -0.191739622550E+03   -0.18298E-02   -0.19832E-02 12080   0.611E-01    0.433E-01
DAV:   3    -0.191738312269E+03    0.13103E-02   -0.55087E-03 12240   0.584E-01    0.251E-01
DAV:   4    -0.191737845525E+03    0.46674E-03   -0.18176E-03 10200   0.315E-01    0.191E-01
DAV:   5    -0.191737629446E+03    0.21608E-03   -0.12620E-03  9920   0.286E-01    0.142E-01
DAV:   6    -0.191737429050E+03    0.20040E-03   -0.63147E-04  9360   0.173E-01    0.721E-02
DAV:   7    -0.191737404462E+03    0.24588E-04   -0.23639E-04  8240   0.128E-01
  37 F= -.19173740E+03 E0= -.19165733E+03  d E =-.105584E-01
       N       E                     dE             d eps       ncg     rms          rms(c)
DAV:   1    -0.191755509157E+03   -0.18080E-01   -0.10510E+00  8160   0.219E+00    0.223E-01
DAV:   2    -0.191757477169E+03   -0.19680E-02   -0.28322E-02 12280   0.530E-01    0.250E-01
DAV:   3    -0.191758115884E+03   -0.63871E-03   -0.43399E-03 12440   0.522E-01    0.368E-01
DAV:   4    -0.191756780159E+03    0.13357E-02   -0.18242E-03 10280   0.351E-01    0.107E-01
DAV:   5    -0.191756899410E+03   -0.11925E-03   -0.86036E-04 10040   0.226E-01    0.152E-01
DAV:   6    -0.191756716175E+03    0.18323E-03   -0.63426E-04  9480   0.211E-01    0.801E-02
DAV:   7    -0.191756656145E+03    0.60030E-04   -0.18112E-04  6440   0.106E-01
  38 F= -.19175666E+03 E0= -.19167814E+03  d E =-.192517E-01
       N       E                     dE             d eps       ncg     rms          rms(c)
DAV:   1    -0.191770969017E+03   -0.14253E-01   -0.63622E-01  8160   0.170E+00    0.169E-01
DAV:   2    -0.191772263088E+03   -0.12941E-02   -0.17428E-02 12200   0.398E-01    0.193E-01
DAV:   3    -0.191772553293E+03   -0.29021E-03   -0.25567E-03 11320   0.388E-01    0.265E-01
DAV:   4    -0.191771905954E+03    0.64734E-03   -0.10701E-03 10480   0.263E-01    0.107E-01
DAV:   5    -0.191771861180E+03    0.44774E-04   -0.40895E-04  8400   0.172E-01
  39 F= -.19177186E+03 E0= -.19169436E+03  d E =-.152050E-01
       N       E                     dE             d eps       ncg     rms          rms(c)
DAV:   1    -0.191724272393E+03    0.47634E-01   -0.53005E+00  8160   0.491E+00    0.493E-01
DAV:   2    -0.191736563288E+03   -0.12291E-01   -0.14394E-01 11560   0.124E+00    0.724E-01
DAV:   3    -0.191735511185E+03    0.10521E-02   -0.24388E-02 12320   0.119E+00    0.721E-01
DAV:   4    -0.191731112613E+03    0.43986E-02   -0.10626E-02 11920   0.726E-01    0.305E-01
DAV:   5    -0.191730803319E+03    0.30929E-03   -0.37137E-03 10600   0.504E-01    0.306E-01
DAV:   6    -0.191730157456E+03    0.64586E-03   -0.30827E-03 11840   0.445E-01    0.174E-01
DAV:   7    -0.191729893921E+03    0.26354E-03   -0.13622E-03 10480   0.253E-01    0.127E-01
DAV:   8    -0.191729699466E+03    0.19446E-03   -0.34770E-04  9920   0.156E-01    0.380E-02
DAV:   9    -0.191729687570E+03    0.11896E-04   -0.58281E-05  6240   0.494E-02
  40 F= -.19172969E+03 E0= -.19165006E+03  d E =0.421736E-01
       N       E                     dE             d eps       ncg     rms          rms(c)
DAV:   1    -0.191755941342E+03   -0.26242E-01   -0.19280E+00  8160   0.302E+00    0.397E-01
DAV:   2    -0.191762680540E+03   -0.67392E-02   -0.65628E-02 12840   0.110E+00    0.798E-01
DAV:   3    -0.191757908736E+03    0.47718E-02   -0.16463E-02 11800   0.991E-01    0.399E-01
DAV:   4    -0.191757401452E+03    0.50728E-03   -0.56512E-03 11520   0.596E-01    0.397E-01
DAV:   5    -0.191755873490E+03    0.15280E-02   -0.37466E-03 11480   0.527E-01    0.194E-01
DAV:   6    -0.191755556840E+03    0.31665E-03   -0.16445E-03 10160   0.256E-01    0.123E-01
DAV:   7    -0.191755492945E+03    0.63896E-04   -0.67601E-04 10680   0.223E-01
  41 F= -.19175549E+03 E0= -.19167713E+03  d E =-.258054E-01
       N       E                     dE             d eps       ncg     rms          rms(c)
DAV:   1    -0.191767669612E+03   -0.12113E-01   -0.44696E-01  8160   0.144E+00    0.173E-01
DAV:   2    -0.191768371751E+03   -0.70214E-03   -0.13687E-02 11880   0.402E-01    0.180E-01
DAV:   3    -0.191768511596E+03   -0.13985E-03   -0.20867E-03 12280   0.370E-01    0.228E-01
DAV:   4    -0.191768044676E+03    0.46692E-03   -0.11843E-03 10160   0.285E-01    0.126E-01
DAV:   5    -0.191768068179E+03   -0.23503E-04   -0.65248E-04  9440   0.203E-01
  42 F= -.19176807E+03 E0= -.19169149E+03  d E =-.125752E-01
       N       E                     dE             d eps       ncg     rms          rms(c)
DAV:   1    -0.191791830134E+03   -0.23785E-01   -0.18363E+00  8160   0.289E+00    0.287E-01
DAV:   2    -0.191794856234E+03   -0.30261E-02   -0.45225E-02 11920   0.641E-01    0.288E-01
DAV:   3    -0.191796053410E+03   -0.11972E-02   -0.68662E-03 12480   0.662E-01    0.453E-01
DAV:   4    -0.191793881354E+03    0.21721E-02   -0.31802E-03 11280   0.468E-01    0.134E-01
DAV:   5    -0.191794302720E+03   -0.42137E-03   -0.12910E-03 10240   0.316E-01    0.241E-01
DAV:   6    -0.191793775367E+03    0.52735E-03   -0.10309E-03 10160   0.280E-01    0.758E-02
DAV:   7    -0.191793688111E+03    0.87256E-04   -0.16604E-04  6360   0.811E-02
  43 F= -.19179369E+03 E0= -.19171805E+03  d E =-.256199E-01
       N       E                     dE             d eps       ncg     rms          rms(c)
DAV:   1    -0.191798288169E+03   -0.45128E-02   -0.51685E-02  8160   0.502E-01    0.635E-02
DAV:   2    -0.191798354868E+03   -0.66699E-04   -0.16992E-03 12240   0.113E-01    0.553E-02
DAV:   3    -0.191798418058E+03   -0.63191E-04   -0.27881E-04  9440   0.135E-01
  44 F= -.19179842E+03 E0= -.19172291E+03  d E =-.472995E-02
       N       E                     dE             d eps       ncg     rms          rms(c)
DAV:   1    -0.191802119316E+03   -0.37644E-02   -0.18700E-01  8160   0.931E-01    0.181E-01
DAV:   2    -0.191808981608E+03   -0.68623E-02   -0.17269E-02 12240   0.899E-01    0.787E-01
DAV:   3    -0.191802353281E+03    0.66283E-02   -0.76872E-03 10560   0.763E-01    0.751E-02
DAV:   4    -0.191802350853E+03    0.24278E-05   -0.35718E-04  8720   0.109E-01
  45 F= -.19180235E+03 E0= -.19172705E+03  d E =-.393279E-02
       N       E                     dE             d eps       ncg     rms          rms(c)
DAV:   1    -0.191806868924E+03   -0.45156E-02   -0.19052E-01  8160   0.987E-01    0.232E-01
DAV:   2    -0.191809736739E+03   -0.28678E-02   -0.12856E-02 11320   0.751E-01    0.602E-01
DAV:   3    -0.191805970156E+03    0.37666E-02   -0.58042E-03 11720   0.661E-01    0.172E-01
DAV:   4    -0.191805989335E+03   -0.19180E-04   -0.14567E-03 10360   0.314E-01    0.204E-01
DAV:   5    -0.191805613102E+03    0.37623E-03   -0.10994E-03  9880   0.295E-01    0.112E-01
DAV:   6    -0.191805430185E+03    0.18292E-03   -0.44130E-04  8320   0.135E-01    0.297E-02
DAV:   7    -0.191805435448E+03   -0.52634E-05   -0.10024E-04  6760   0.587E-02
  46 F= -.19180544E+03 E0= -.19173057E+03  d E =-.308460E-02
       N       E                     dE             d eps       ncg     rms          rms(c)
DAV:   1    -0.191831270963E+03   -0.25841E-01   -0.15128E+00  8160   0.269E+00    0.412E-01
DAV:   2    -0.191845569784E+03   -0.14299E-01   -0.63664E-02 13040   0.149E+00    0.120E+00
DAV:   3    -0.191831222439E+03    0.14347E-01   -0.24901E-02 12320   0.130E+00    0.274E-01
DAV:   4    -0.191832010482E+03   -0.78804E-03   -0.44313E-03 11440   0.559E-01    0.432E-01
DAV:   5    -0.191830042565E+03    0.19679E-02   -0.32318E-03 10720   0.535E-01    0.155E-01
DAV:   6    -0.191829893336E+03    0.14923E-03   -0.13194E-03 10920   0.231E-01    0.116E-01
DAV:   7    -0.191829791278E+03    0.10206E-03   -0.58704E-04  9760   0.201E-01    0.819E-02
DAV:   8    -0.191829703526E+03    0.87753E-04   -0.11683E-04  5800   0.967E-02
  47 F= -.19182970E+03 E0= -.19175479E+03  d E =-.242681E-01
       N       E                     dE             d eps       ncg     rms          rms(c)
DAV:   1    -0.191853296159E+03   -0.23505E-01   -0.15755E+00  8160   0.269E+00    0.293E-01
DAV:   2    -0.191857905500E+03   -0.46093E-02   -0.46345E-02 12080   0.839E-01    0.486E-01
DAV:   3    -0.191856140947E+03    0.17646E-02   -0.84048E-03 12480   0.755E-01    0.298E-01
DAV:   4    -0.191855346286E+03    0.79466E-03   -0.23248E-03 11360   0.360E-01    0.189E-01
DAV:   5    -0.191855230535E+03    0.11575E-03   -0.12477E-03 10400   0.325E-01    0.177E-01
DAV:   6    -0.191855080498E+03    0.15004E-03   -0.89545E-04  9880   0.235E-01    0.116E-01
DAV:   7    -0.191854971227E+03    0.10927E-03   -0.45351E-04  8800   0.181E-01    0.779E-02
DAV:   8    -0.191854888867E+03    0.82360E-04   -0.89809E-05  6320   0.846E-02
  48 F= -.19185489E+03 E0= -.19178002E+03  d E =-.251853E-01
       N       E                     dE             d eps       ncg     rms          rms(c)
DAV:   1    -0.191903396887E+03   -0.48426E-01   -0.93774E+00  8160   0.657E+00    0.703E-01
DAV:   2    -0.191930836484E+03   -0.27440E-01   -0.28266E-01 11760   0.202E+00    0.112E+00
DAV:   3    -0.191922211935E+03    0.86245E-02   -0.48845E-02 12360   0.182E+00    0.729E-01
DAV:   4    -0.191916743395E+03    0.54685E-02   -0.14294E-02 12360   0.876E-01    0.407E-01
DAV:   5    -0.191916245044E+03    0.49835E-03   -0.74968E-03 12120   0.744E-01    0.419E-01
DAV:   6    -0.191915366720E+03    0.87832E-03   -0.50325E-03 11800   0.584E-01    0.276E-01
DAV:   7    -0.191914741649E+03    0.62507E-03   -0.26084E-03 11520   0.423E-01    0.202E-01
DAV:   8    -0.191914229952E+03    0.51170E-03   -0.65879E-04 10000   0.216E-01    0.360E-02
DAV:   9    -0.191914224458E+03    0.54938E-05   -0.10266E-04  6560   0.402E-02
  49 F= -.19191422E+03 E0= -.19183873E+03  d E =-.593356E-01
       N       E                     dE             d eps       ncg     rms          rms(c)
DAV:   1    -0.191930705127E+03   -0.16475E-01   -0.10458E+00  8160   0.219E+00    0.250E-01
DAV:   2    -0.191933846640E+03   -0.31415E-02   -0.37414E-02 11080   0.640E-01    0.324E-01
DAV:   3    -0.191933691094E+03    0.15555E-03   -0.48925E-03 12240   0.613E-01    0.332E-01
DAV:   4    -0.191932549189E+03    0.11419E-02   -0.17758E-03 11920   0.368E-01    0.120E-01
DAV:   5    -0.191932541776E+03    0.74129E-05   -0.71901E-04 10080   0.205E-01
  50 F= -.19193254E+03 E0= -.19185707E+03  d E =-.183173E-01
       N       E                     dE             d eps       ncg     rms          rms(c)
DAV:   1    -0.191940226892E+03   -0.76777E-02   -0.23741E-01  8160   0.109E+00    0.206E-01
DAV:   2    -0.191946135422E+03   -0.59085E-02   -0.16912E-02 13480   0.938E-01    0.730E-01
DAV:   3    -0.191940012518E+03    0.61229E-02   -0.82644E-03 11360   0.784E-01    0.102E-01
DAV:   4    -0.191940149230E+03   -0.13671E-03   -0.75126E-04 10000   0.191E-01    0.146E-01
DAV:   5    -0.191939966755E+03    0.18248E-03   -0.51592E-04 10120   0.214E-01    0.933E-02
DAV:   6    -0.191939874452E+03    0.92303E-04   -0.21700E-04  6960   0.109E-01
  51 F= -.19193987E+03 E0= -.19186400E+03  d E =-.733268E-02
       N       E                     dE             d eps       ncg     rms          rms(c)
DAV:   1    -0.191953808204E+03   -0.13841E-01   -0.70803E-01  8160   0.182E+00    0.252E-01
DAV:   2    -0.191957982406E+03   -0.41742E-02   -0.28713E-02 12960   0.837E-01    0.574E-01
DAV:   3    -0.191954580342E+03    0.34021E-02   -0.77313E-03 12240   0.730E-01    0.184E-01
DAV:   4    -0.191954432350E+03    0.14799E-03   -0.15483E-03 10440   0.289E-01    0.185E-01
DAV:   5    -0.191954142846E+03    0.28950E-03   -0.92506E-04 10680   0.289E-01    0.121E-01
DAV:   6    -0.191954067811E+03    0.75034E-04   -0.51017E-04  9120   0.172E-01
  52 F= -.19195407E+03 E0= -.19187754E+03  d E =-.141934E-01
       N       E                     dE             d eps       ncg     rms          rms(c)
DAV:   1    -0.191980328434E+03   -0.26186E-01   -0.33226E+00  8160   0.390E+00    0.450E-01
DAV:   2    -0.191993177481E+03   -0.12849E-01   -0.11296E-01 11480   0.141E+00    0.838E-01
DAV:   3    -0.191986910579E+03    0.62669E-02   -0.22616E-02 12280   0.123E+00    0.406E-01
DAV:   4    -0.191985376748E+03    0.15338E-02   -0.49250E-03 11960   0.504E-01    0.266E-01
DAV:   5    -0.191984999895E+03    0.37685E-03   -0.27215E-03 11480   0.463E-01    0.229E-01
DAV:   6    -0.191984864181E+03    0.13571E-03   -0.17133E-03 11320   0.329E-01    0.174E-01
DAV:   7    -0.191984524030E+03    0.34015E-03   -0.87698E-04 10440   0.249E-01    0.975E-02
DAV:   8    -0.191984406930E+03    0.11710E-03   -0.17551E-04  7800   0.107E-01    0.219E-02
DAV:   9    -0.191984403735E+03    0.31943E-05   -0.43518E-05  7080   0.258E-02
  53 F= -.19198440E+03 E0= -.19190742E+03  d E =-.303359E-01
       N       E                     dE             d eps       ncg     rms          rms(c)
DAV:   1    -0.192002690724E+03   -0.18284E-01   -0.14657E+00  8160   0.259E+00    0.289E-01
DAV:   2    -0.192006335405E+03   -0.36447E-02   -0.47335E-02 11200   0.683E-01    0.326E-01
DAV:   3    -0.192006552302E+03   -0.21690E-03   -0.63111E-03 12360   0.689E-01    0.391E-01
DAV:   4    -0.192004936937E+03    0.16154E-02   -0.24139E-03 12160   0.445E-01    0.130E-01
DAV:   5    -0.192004805647E+03    0.13129E-03   -0.90540E-04 10040   0.186E-01    0.116E-01
DAV:   6    -0.192004961551E+03   -0.15590E-03   -0.94661E-04 11440   0.256E-01    0.160E-01
DAV:   7    -0.192004665089E+03    0.29646E-03   -0.55165E-04  8320   0.181E-01    0.373E-02
DAV:   8    -0.192004663983E+03    0.11053E-05   -0.66314E-05  5800   0.599E-02
  54 F= -.19200466E+03 E0= -.19192781E+03  d E =-.202602E-01
       N       E                     dE             d eps       ncg     rms          rms(c)
DAV:   1    -0.192012052278E+03   -0.73872E-02   -0.20065E-01  8160   0.970E-01    0.135E-01
DAV:   2    -0.192012998084E+03   -0.94581E-03   -0.82800E-03 11960   0.433E-01    0.253E-01
DAV:   3    -0.192012329591E+03    0.66849E-03   -0.16308E-03 11800   0.357E-01    0.105E-01
DAV:   4    -0.192012242355E+03    0.87237E-04   -0.40424E-04  8800   0.154E-01
  55 F= -.19201224E+03 E0= -.19193539E+03  d E =-.757837E-02
       N       E                     dE             d eps       ncg     rms          rms(c)
DAV:   1    -0.192029360108E+03   -0.17031E-01   -0.11883E+00  8160   0.236E+00    0.299E-01
DAV:   2    -0.192034232078E+03   -0.48720E-02   -0.40046E-02 12360   0.856E-01    0.549E-01
DAV:   3    -0.192031400553E+03    0.28315E-02   -0.88966E-03 12320   0.830E-01    0.282E-01
DAV:   4    -0.192030544374E+03    0.85618E-03   -0.21378E-03 11400   0.300E-01    0.115E-01
DAV:   5    -0.192030345261E+03    0.19911E-03   -0.10390E-03 10720   0.129E-01    0.752E-02
DAV:   6    -0.192030473610E+03   -0.12835E-03   -0.58159E-04  9320   0.177E-01    0.136E-01
DAV:   7    -0.192030270873E+03    0.20274E-03   -0.25809E-04  8520   0.154E-01    0.293E-02
DAV:   8    -0.192030265616E+03    0.52569E-05   -0.37372E-05  6200   0.348E-02
  56 F= -.19203027E+03 E0= -.19195336E+03  d E =-.180233E-01
       N       E                     dE             d eps       ncg     rms          rms(c)
DAV:   1    -0.192049500927E+03   -0.19230E-01   -0.16318E+00  8160   0.274E+00    0.335E-01
DAV:   2    -0.192057732796E+03   -0.82319E-02   -0.54082E-02 12200   0.111E+00    0.739E-01
DAV:   3    -0.192051966172E+03    0.57666E-02   -0.13195E-02 12360   0.101E+00    0.256E-01
DAV:   4    -0.192051156147E+03    0.81003E-03   -0.14987E-03 11160   0.254E-01    0.105E-01
DAV:   5    -0.192051473796E+03   -0.31765E-03   -0.11384E-03 11240   0.271E-01    0.193E-01
DAV:   6    -0.192051152126E+03    0.32167E-03   -0.90928E-04 11280   0.265E-01    0.962E-02
DAV:   7    -0.192051054201E+03    0.97925E-04   -0.21394E-04  7880   0.127E-01
  57 F= -.19205105E+03 E0= -.19197470E+03  d E =-.207886E-01
       N       E                     dE             d eps       ncg     rms          rms(c)
DAV:   1    -0.192054475891E+03   -0.33238E-02   -0.50908E-02  8160   0.494E-01    0.880E-02
DAV:   2    -0.192054971333E+03   -0.49544E-03   -0.29509E-03 11680   0.321E-01    0.202E-01
DAV:   3    -0.192054460108E+03    0.51122E-03   -0.85531E-04 10240   0.255E-01    0.537E-02
DAV:   4    -0.192054468323E+03   -0.82148E-05   -0.14164E-04  6720   0.985E-02
  58 F= -.19205447E+03 E0= -.19197815E+03  d E =-.341412E-02
       N       E                     dE             d eps       ncg     rms          rms(c)
DAV:   1    -0.192072288983E+03   -0.17829E-01   -0.12478E+00  8160   0.243E+00    0.309E-01
DAV:   2    -0.192076780025E+03   -0.44910E-02   -0.39728E-02 11920   0.883E-01    0.554E-01
DAV:   3    -0.192073985505E+03    0.27945E-02   -0.86327E-03 12360   0.834E-01    0.283E-01
DAV:   4    -0.192073070480E+03    0.91503E-03   -0.20403E-03 11440   0.314E-01    0.122E-01
DAV:   5    -0.192072973117E+03    0.97363E-04   -0.11690E-03 10680   0.215E-01    0.123E-01
DAV:   6    -0.192072969395E+03    0.37219E-05   -0.77736E-04 10240   0.240E-01
  59 F= -.19207297E+03 E0= -.19199727E+03  d E =-.185011E-01
       N       E                     dE             d eps       ncg     rms          rms(c)
DAV:   1    -0.192080861719E+03   -0.78886E-02   -0.25106E-01  8160   0.109E+00    0.148E-01
DAV:   2    -0.192081961823E+03   -0.11001E-02   -0.86385E-03 11200   0.423E-01    0.287E-01
DAV:   3    -0.192081173067E+03    0.78876E-03   -0.19473E-03 12120   0.410E-01    0.132E-01
DAV:   4    -0.192080998412E+03    0.17465E-03   -0.36103E-04  8280   0.152E-01    0.623E-02
DAV:   5    -0.192081033982E+03   -0.35570E-04   -0.25392E-04  8720   0.137E-01
  60 F= -.19208103E+03 E0= -.19200557E+03  d E =-.806459E-02
       N       E                     dE             d eps       ncg     rms          rms(c)
DAV:   1    -0.192095840632E+03   -0.14842E-01   -0.87978E-01  8160   0.203E+00    0.261E-01
DAV:   2    -0.192100099657E+03   -0.42590E-02   -0.29173E-02 12000   0.794E-01    0.544E-01
DAV:   3    -0.192097026407E+03    0.30733E-02   -0.72953E-03 12320   0.764E-01    0.208E-01
DAV:   4    -0.192096497445E+03    0.52896E-03   -0.92192E-04  9920   0.194E-01    0.741E-02
DAV:   5    -0.192096508868E+03   -0.11423E-04   -0.53467E-04 10720   0.998E-02
  61 F= -.19209651E+03 E0= -.19202165E+03  d E =-.154749E-01
       N       E                     dE             d eps       ncg     rms          rms(c)
DAV:   1    -0.192101534848E+03   -0.50374E-02   -0.96008E-02  8160   0.688E-01    0.134E-01
DAV:   2    -0.192103880106E+03   -0.23453E-02   -0.56105E-03 12280   0.590E-01    0.457E-01
DAV:   3    -0.192101462498E+03    0.24176E-02   -0.26089E-03 11560   0.503E-01    0.604E-02
DAV:   4    -0.192101523415E+03   -0.60917E-04   -0.24788E-04  8760   0.123E-01
  62 F= -.19210152E+03 E0= -.19202690E+03  d E =-.501455E-02
       N       E                     dE             d eps       ncg     rms          rms(c)
DAV:   1    -0.192118436982E+03   -0.16974E-01   -0.13535E+00  8160   0.251E+00    0.311E-01
DAV:   2    -0.192123530393E+03   -0.50934E-02   -0.41341E-02 11600   0.924E-01    0.586E-01
DAV:   3    -0.192120212220E+03    0.33182E-02   -0.95471E-03 12400   0.859E-01    0.263E-01
DAV:   4    -0.192119313974E+03    0.89825E-03   -0.14592E-03 11360   0.259E-01    0.888E-02
DAV:   5    -0.192119380738E+03   -0.66764E-04   -0.86452E-04 10560   0.149E-01
  63 F= -.19211938E+03 E0= -.19204562E+03  d E =-.178573E-01
       N       E                     dE             d eps       ncg     rms          rms(c)
DAV:   1    -0.192150445046E+03   -0.31131E-01   -0.13644E+01  8160   0.804E+00    0.952E-01
DAV:   2    -0.192204521720E+03   -0.54077E-01   -0.45362E-01 11400   0.286E+00    0.179E+00
DAV:   3    -0.192174897822E+03    0.29624E-01   -0.94558E-02 12320   0.269E+00    0.809E-01
DAV:   4    -0.192165537877E+03    0.93599E-02   -0.12167E-02 12480   0.782E-01    0.278E-01
DAV:   5    -0.192168163254E+03   -0.26254E-02   -0.91126E-03 12600   0.774E-01    0.525E-01
DAV:   6    -0.192164876145E+03    0.32871E-02   -0.64030E-03 12280   0.722E-01    0.186E-01
DAV:   7    -0.192164419877E+03    0.45627E-03   -0.11630E-03 11880   0.250E-01    0.103E-01
DAV:   8    -0.192164338464E+03    0.81414E-04   -0.35243E-04 10120   0.155E-01
  64 F= -.19216434E+03 E0= -.19209236E+03  d E =-.449577E-01
       N       E                     dE             d eps       ncg     rms          rms(c)
DAV:   1    -0.192171849582E+03   -0.74297E-02   -0.12376E+00  8160   0.240E+00    0.310E-01
DAV:   2    -0.192176704246E+03   -0.48547E-02   -0.55670E-02 11360   0.870E-01    0.453E-01
DAV:   3    -0.192175402116E+03    0.13021E-02   -0.83159E-03 12320   0.796E-01    0.330E-01
DAV:   4    -0.192174066828E+03    0.13353E-02   -0.23034E-03 12400   0.394E-01    0.127E-01
DAV:   5    -0.192174016764E+03    0.50063E-04   -0.12245E-03 10240   0.248E-01    0.143E-01
DAV:   6    -0.192173918113E+03    0.98652E-04   -0.87681E-04 11040   0.253E-01
  65 F= -.19217392E+03 E0= -.19210200E+03  d E =-.957965E-02
       N       E                     dE             d eps       ncg     rms          rms(c)
DAV:   1    -0.192178229869E+03   -0.42131E-02   -0.13547E+00  8160   0.248E+00    0.298E-01
DAV:   2    -0.192183643997E+03   -0.54141E-02   -0.52660E-02 11200   0.875E-01    0.480E-01
DAV:   3    -0.192181757526E+03    0.18865E-02   -0.82413E-03 12480   0.809E-01    0.295E-01
DAV:   4    -0.192180752829E+03    0.10047E-02   -0.16861E-03 11800   0.341E-01    0.117E-01
DAV:   5    -0.192180810350E+03   -0.57521E-04   -0.86890E-04 11000   0.252E-01
  66 F= -.19218081E+03 E0= -.19210918E+03  d E =-.689224E-02
       N       E                     dE             d eps       ncg     rms          rms(c)
DAV:   1    -0.192182637633E+03   -0.18848E-02   -0.40937E-01  8160   0.138E+00    0.182E-01
DAV:   2    -0.192185261798E+03   -0.26242E-02   -0.20887E-02 12520   0.581E-01    0.347E-01
DAV:   3    -0.192183903698E+03    0.13581E-02   -0.37296E-03 12280   0.526E-01    0.150E-01
DAV:   4    -0.192183727925E+03    0.17577E-03   -0.61759E-04 10200   0.194E-01    0.978E-02
DAV:   5    -0.192183655502E+03    0.72423E-04   -0.32872E-04  9160   0.158E-01
  67 F= -.19218366E+03 E0= -.19211195E+03  d E =-.284515E-02
       N       E                     dE             d eps       ncg     rms          rms(c)
DAV:   1    -0.192184732661E+03   -0.10047E-02   -0.72979E-02  8240   0.612E-01    0.970E-02
DAV:   2    -0.192185122724E+03   -0.39006E-03   -0.40742E-03 12640   0.233E-01    0.134E-01
DAV:   3    -0.192184894598E+03    0.22813E-03   -0.83239E-04 11200   0.233E-01    0.923E-02
DAV:   4    -0.192184825677E+03    0.68921E-04   -0.21707E-04  8640   0.124E-01
  68 F= -.19218483E+03 E0= -.19211289E+03  d E =-.117017E-02
       N       E                     dE             d eps       ncg     rms          rms(c)
DAV:   1    -0.192185720797E+03   -0.82620E-03   -0.82599E-02  8160   0.629E-01    0.101E-01
DAV:   2    -0.192186137144E+03   -0.41635E-03   -0.36314E-03 11680   0.286E-01    0.187E-01
DAV:   3    -0.192185774014E+03    0.36313E-03   -0.93409E-04 10760   0.278E-01    0.833E-02
DAV:   4    -0.192185695941E+03    0.78073E-04   -0.16531E-04  7120   0.978E-02
  69 F= -.19218570E+03 E0= -.19211353E+03  d E =-.870264E-03
