   27   27  100    1
  0.9710400E+02  0.1002848E-08  0.1002848E-08  0.3000000E-08  0.5000000E-15
  1.000000000000000E-004
  CAR 
 unknown system                          
    159     34    120
 
  0.0000000E+00  0.0000000E+00  0.0000000E+00  0.1562500E-01
    1      -17.810704   1.000000
    2      -16.710411   1.000000
    3      -16.684185   1.000000
    4      -16.596159   1.000000
    5      -16.549397   1.000000
    6      -16.417494   1.000000
    7      -16.402139   1.000000
    8      -16.347836   1.000000
    9      -16.179632   1.000000
   10      -16.104060   1.000000
   11      -16.072789   1.000000
   12      -15.982664   1.000000
   13      -15.903795   1.000000
   14      -15.758824   1.000000
   15      -15.572301   1.000000
   16      -15.464854   1.000000
   17      -15.388229   1.000000
   18      -15.146653   1.000000
   19       -9.349150   1.000000
   20       -9.038749   1.000000
   21       -8.906623   1.000000
   22       -8.780144   1.000000
   23       -8.763960   1.000000
   24       -8.697426   1.000000
   25       -8.640232   1.000000
   26       -8.611423   1.000000
   27       -8.511133   1.000000
   28       -8.462532   1.000000
   29       -8.434576   1.000000
   30       -8.385530   1.000000
   31       -8.253917   1.000000
   32       -8.193852   1.000000
   33       -8.184105   1.000000
   34       -8.102083   1.000000
   35       -7.809712   1.000000
   36       -7.718095   1.000000
   37       -7.672293   1.000000
   38       -7.580648   1.000000
   39       -7.528063   1.000000
   40       -7.387371   1.000000
   41       -7.245276   1.000000
   42       -7.217095   1.000000
   43       -7.171005   1.000000
   44       -6.863627   1.000000
   45       -6.858728   1.000000
   46       -6.786628   1.000000
   47       -6.692218   1.000000
   48       -6.591547   1.000000
   49       -6.559154   1.000000
   50       -6.525889   1.000000
   51       -6.428363   1.000000
   52       -6.386093   1.000000
   53       -6.290775   1.000000
   54       -6.213407   1.000000
   55       -6.193456   1.000000
   56       -6.106098   1.000000
   57       -6.032259   1.000000
   58       -5.975230   1.000000
   59       -5.882780   1.000000
   60       -5.619623   1.000000
   61       -5.537519   1.000000
   62       -5.331866   1.000000
   63       -5.304981   1.000000
   64       -5.105550   1.000000
   65       -5.058235   1.000000
   66       -4.974315   1.000000
   67       -4.948389   1.000000
   68       -4.855627   1.000000
   69       -4.810692   1.000000
   70       -4.772688   1.000000
   71       -4.609242   1.000000
   72       -4.577822   1.000000
   73       -4.536198   1.000000
   74       -4.358427   1.000000
   75       -4.149165   1.000000
   76       -3.969326   1.000000
   77       -3.692173   0.998456
   78       -3.552467   0.975634
   79       -3.499310   0.944651
   80       -3.425506   0.858406
   81       -3.300036   0.573768
   82       -2.898361   0.003974
   83       -2.750138   0.000107
   84       -2.651220   0.000005
   85       -2.589566   0.000001
   86       -2.412143   0.000000
   87       -2.297484   0.000000
   88       -2.217378   0.000000
   89       -2.161251   0.000000
   90       -2.092720   0.000000
   91       -1.869720   0.000000
   92       -1.710738   0.000000
   93       -1.525714   0.000000
   94       -1.331371   0.000000
   95       -1.131091   0.000000
   96       -0.999574   0.000000
   97       -0.880499   0.000000
   98       -0.848749   0.000000
   99       -0.792944   0.000000
  100       -0.618681   0.000000
  101       -0.583962   0.000000
  102       -0.547164   0.000000
  103       -0.383889   0.000000
  104       -0.300677   0.000000
  105       -0.176163   0.000000
  106       -0.152006   0.000000
  107       -0.102287   0.000000
  108        0.011208   0.000000
  109        0.115873   0.000000
  110        0.190627   0.000000
  111        0.362600   0.000000
  112        0.491854   0.000000
  113        0.597274   0.000000
  114        0.670245   0.000000
  115        0.951898   0.000000
  116        1.138476   0.000000
  117        1.266036   0.000000
  118        1.634498   0.000000
  119        1.834739   0.000000
  120        2.154307   0.000000
 
  0.1250000E+00  0.2775558E-16  0.0000000E+00  0.3125000E-01
    1      -17.786679   1.000000
    2      -16.784897   1.000000
    3      -16.695559   1.000000
    4      -16.641419   1.000000
    5      -16.580788   1.000000
    6      -16.402325   1.000000
    7      -16.357976   1.000000
    8      -16.333203   1.000000
    9      -16.170172   1.000000
   10      -16.104188   1.000000
   11      -16.012857   1.000000
   12      -15.962266   1.000000
   13      -15.892520   1.000000
   14      -15.751939   1.000000
   15      -15.588744   1.000000
   16      -15.477241   1.000000
   17      -15.389969   1.000000
   18      -15.148490   1.000000
   19       -9.343359   1.000000
   20       -9.154353   1.000000
   21       -9.037109   1.000000
   22       -8.888554   1.000000
   23       -8.823596   1.000000
   24       -8.745420   1.000000
   25       -8.664432   1.000000
   26       -8.581387   1.000000
   27       -8.450099   1.000000
   28       -8.428899   1.000000
   29       -8.384764   1.000000
   30       -8.290843   1.000000
   31       -8.217393   1.000000
   32       -8.161626   1.000000
   33       -8.070259   1.000000
   34       -7.972042   1.000000
   35       -7.790310   1.000000
   36       -7.667185   1.000000
   37       -7.630830   1.000000
   38       -7.594256   1.000000
   39       -7.546452   1.000000
   40       -7.452528   1.000000
   41       -7.239175   1.000000
   42       -7.210398   1.000000
   43       -7.190158   1.000000
   44       -6.931701   1.000000
   45       -6.860970   1.000000
   46       -6.755248   1.000000
   47       -6.684182   1.000000
   48       -6.602928   1.000000
   49       -6.529130   1.000000
   50       -6.482219   1.000000
   51       -6.429338   1.000000
   52       -6.394580   1.000000
   53       -6.318653   1.000000
   54       -6.235689   1.000000
   55       -6.192275   1.000000
   56       -6.159467   1.000000
   57       -6.021491   1.000000
   58       -5.938681   1.000000
   59       -5.815024   1.000000
   60       -5.623532   1.000000
   61       -5.521895   1.000000
   62       -5.417346   1.000000
   63       -5.379208   1.000000
   64       -5.216806   1.000000
   65       -5.091090   1.000000
   66       -4.955209   1.000000
   67       -4.921559   1.000000
   68       -4.867002   1.000000
   69       -4.846241   1.000000
   70       -4.763533   1.000000
   71       -4.576959   1.000000
   72       -4.523431   1.000000
   73       -4.477417   1.000000
   74       -4.303266   1.000000
   75       -4.130700   1.000000
   76       -4.018286   1.000000
   77       -3.756751   0.999682
   78       -3.657702   0.996687
   79       -3.565789   0.980545
   80       -3.322664   0.635321
   81       -3.208108   0.321305
   82       -2.864972   0.001924
   83       -2.737996   0.000076
   84       -2.635413   0.000003
   85       -2.580225   0.000000
   86       -2.424550   0.000000
   87       -2.271630   0.000000
   88       -2.214388   0.000000
   89       -2.142366   0.000000
   90       -2.075702   0.000000
   91       -1.872301   0.000000
   92       -1.714674   0.000000
   93       -1.512133   0.000000
   94       -1.339928   0.000000
   95       -1.117326   0.000000
   96       -1.009463   0.000000
   97       -0.909652   0.000000
   98       -0.855892   0.000000
   99       -0.791178   0.000000
  100       -0.696794   0.000000
  101       -0.623821   0.000000
  102       -0.579888   0.000000
  103       -0.424217   0.000000
  104       -0.361901   0.000000
  105       -0.318024   0.000000
  106       -0.206517   0.000000
  107       -0.122968   0.000000
  108        0.099649   0.000000
  109        0.132188   0.000000
  110        0.191026   0.000000
  111        0.326650   0.000000
  112        0.547884   0.000000
  113        0.631038   0.000000
  114        0.736553   0.000000
  115        0.986249   0.000000
  116        1.123402   0.000000
  117        1.225164   0.000000
  118        1.676739   0.000000
  119        1.876039   0.000000
  120        2.188902   0.000000
 
  0.2500000E+00  0.5551115E-16  0.0000000E+00  0.3125000E-01
    1      -17.716642   1.000000
    2      -16.977180   1.000000
    3      -16.714963   1.000000
    4      -16.683160   1.000000
    5      -16.614430   1.000000
    6      -16.401849   1.000000
    7      -16.308224   1.000000
    8      -16.292041   1.000000
    9      -16.157401   1.000000
   10      -16.076421   1.000000
   11      -15.945844   1.000000
   12      -15.901725   1.000000
   13      -15.856275   1.000000
   14      -15.719830   1.000000
   15      -15.630184   1.000000
   16      -15.508940   1.000000
   17      -15.396234   1.000000
   18      -15.153363   1.000000
   19       -9.488914   1.000000
   20       -9.278658   1.000000
   21       -9.128462   1.000000
   22       -9.017905   1.000000
   23       -8.948850   1.000000
   24       -8.825895   1.000000
   25       -8.632391   1.000000
   26       -8.519574   1.000000
   27       -8.436659   1.000000
   28       -8.380109   1.000000
   29       -8.329300   1.000000
   30       -8.222685   1.000000
   31       -8.129670   1.000000
   32       -8.062788   1.000000
   33       -7.959373   1.000000
   34       -7.806040   1.000000
   35       -7.747642   1.000000
   36       -7.645052   1.000000
   37       -7.607332   1.000000
   38       -7.518362   1.000000
   39       -7.466242   1.000000
   40       -7.409621   1.000000
   41       -7.317368   1.000000
   42       -7.202141   1.000000
   43       -7.149223   1.000000
   44       -7.007000   1.000000
   45       -6.851659   1.000000
   46       -6.722386   1.000000
   47       -6.671964   1.000000
   48       -6.600865   1.000000
   49       -6.546077   1.000000
   50       -6.478176   1.000000
   51       -6.433260   1.000000
   52       -6.386515   1.000000
   53       -6.296390   1.000000
   54       -6.249494   1.000000
   55       -6.188041   1.000000
   56       -6.116226   1.000000
   57       -6.048591   1.000000
   58       -5.885916   1.000000
   59       -5.737059   1.000000
   60       -5.702911   1.000000
   61       -5.651826   1.000000
   62       -5.561077   1.000000
   63       -5.483799   1.000000
   64       -5.346389   1.000000
   65       -5.205520   1.000000
   66       -4.982084   1.000000
   67       -4.932004   1.000000
   68       -4.850591   1.000000
   69       -4.794946   1.000000
   70       -4.702781   1.000000
   71       -4.496157   1.000000
   72       -4.441702   1.000000
   73       -4.352393   1.000000
   74       -4.328253   1.000000
   75       -4.210633   1.000000
   76       -4.056152   1.000000
   77       -3.878916   0.999991
   78       -3.743327   0.999551
   79       -3.566752   0.980865
   80       -3.217723   0.346029
   81       -3.079361   0.084654
   82       -2.797057   0.000375
   83       -2.726476   0.000054
   84       -2.614412   0.000002
   85       -2.538944   0.000000
   86       -2.448648   0.000000
   87       -2.211408   0.000000
   88       -2.188998   0.000000
   89       -2.097884   0.000000
   90       -2.030573   0.000000
   91       -1.870115   0.000000
   92       -1.709378   0.000000
   93       -1.488785   0.000000
   94       -1.364512   0.000000
   95       -1.105353   0.000000
   96       -1.094187   0.000000
   97       -0.945839   0.000000
   98       -0.929603   0.000000
   99       -0.829279   0.000000
  100       -0.773244   0.000000
  101       -0.710859   0.000000
  102       -0.621494   0.000000
  103       -0.569511   0.000000
  104       -0.517569   0.000000
  105       -0.399901   0.000000
  106       -0.298671   0.000000
  107       -0.201931   0.000000
  108        0.051931   0.000000
  109        0.118761   0.000000
  110        0.226441   0.000000
  111        0.397581   0.000000
  112        0.537993   0.000000
  113        0.722019   0.000000
  114        0.855004   0.000000
  115        0.995842   0.000000
  116        1.162212   0.000000
  117        1.194541   0.000000
  118        1.794785   0.000000
  119        1.993303   0.000000
  120        2.291324   0.000000
 
  0.3750000E+00  0.0000000E+00  0.0000000E+00  0.3125000E-01
    1      -17.610573   1.000000
    2      -17.176618   1.000000
    3      -16.750230   1.000000
    4      -16.695399   1.000000
    5      -16.627976   1.000000
    6      -16.409651   1.000000
    7      -16.290009   1.000000
    8      -16.274557   1.000000
    9      -16.108563   1.000000
   10      -16.040954   1.000000
   11      -15.909152   1.000000
   12      -15.861044   1.000000
   13      -15.830929   1.000000
   14      -15.683820   1.000000
   15      -15.653698   1.000000
   16      -15.540075   1.000000
   17      -15.405516   1.000000
   18      -15.158853   1.000000
   19       -9.692369   1.000000
   20       -9.313628   1.000000
   21       -9.203339   1.000000
   22       -9.041075   1.000000
   23       -9.023850   1.000000
   24       -8.886396   1.000000
   25       -8.557105   1.000000
   26       -8.474665   1.000000
   27       -8.420539   1.000000
   28       -8.365688   1.000000
   29       -8.279115   1.000000
   30       -8.176372   1.000000
   31       -8.124263   1.000000
   32       -8.035889   1.000000
   33       -7.972298   1.000000
   34       -7.804851   1.000000
   35       -7.748827   1.000000
   36       -7.721690   1.000000
   37       -7.491373   1.000000
   38       -7.437596   1.000000
   39       -7.350144   1.000000
   40       -7.284200   1.000000
   41       -7.213308   1.000000
   42       -7.167089   1.000000
   43       -7.114352   1.000000
   44       -6.989494   1.000000
   45       -6.843538   1.000000
   46       -6.720741   1.000000
   47       -6.694373   1.000000
   48       -6.611459   1.000000
   49       -6.563594   1.000000
   50       -6.421443   1.000000
   51       -6.394368   1.000000
   52       -6.364711   1.000000
   53       -6.285820   1.000000
   54       -6.187837   1.000000
   55       -6.172558   1.000000
   56       -6.094375   1.000000
   57       -6.045207   1.000000
   58       -5.914427   1.000000
   59       -5.851740   1.000000
   60       -5.772672   1.000000
   61       -5.768732   1.000000
   62       -5.674281   1.000000
   63       -5.630163   1.000000
   64       -5.395875   1.000000
   65       -5.206033   1.000000
   66       -5.047080   1.000000
   67       -4.891400   1.000000
   68       -4.819647   1.000000
   69       -4.789667   1.000000
   70       -4.715775   1.000000
   71       -4.643533   1.000000
   72       -4.387386   1.000000
   73       -4.359544   1.000000
   74       -4.273595   1.000000
   75       -4.146359   1.000000
   76       -4.055482   1.000000
   77       -3.963632   0.999999
   78       -3.720888   0.999216
   79       -3.559539   0.978357
   80       -3.157568   0.205703
   81       -2.956155   0.012364
   82       -2.749344   0.000104
   83       -2.741387   0.000084
   84       -2.615726   0.000002
   85       -2.519781   0.000000
   86       -2.415492   0.000000
   87       -2.180073   0.000000
   88       -2.123200   0.000000
   89       -2.049843   0.000000
   90       -1.966730   0.000000
   91       -1.862164   0.000000
   92       -1.676692   0.000000
   93       -1.481209   0.000000
   94       -1.396816   0.000000
   95       -1.245313   0.000000
   96       -1.138626   0.000000
   97       -1.067166   0.000000
   98       -0.945874   0.000000
   99       -0.869854   0.000000
  100       -0.823338   0.000000
  101       -0.764178   0.000000
  102       -0.684818   0.000000
  103       -0.638889   0.000000
  104       -0.588847   0.000000
  105       -0.493660   0.000000
  106       -0.351396   0.000000
  107       -0.270512   0.000000
  108       -0.062294   0.000000
  109        0.119591   0.000000
  110        0.230981   0.000000
  111        0.430934   0.000000
  112        0.533837   0.000000
  113        0.774714   0.000000
  114        0.894222   0.000000
  115        0.997883   0.000000
  116        1.198152   0.000000
  117        1.287337   0.000000
  118        1.971275   0.000000
  119        2.170974   0.000000
  120        2.445333   0.000000
 
  0.5000000E+00  0.1110223E-15  0.0000000E+00  0.1562500E-01
    1      -17.530428   1.000000
    2      -17.290072   1.000000
    3      -16.763597   1.000000
    4      -16.701670   1.000000
    5      -16.628828   1.000000
    6      -16.413949   1.000000
    7      -16.285685   1.000000
    8      -16.274403   1.000000
    9      -16.074714   1.000000
   10      -16.028011   1.000000
   11      -15.890269   1.000000
   12      -15.860796   1.000000
   13      -15.812727   1.000000
   14      -15.711947   1.000000
   15      -15.629869   1.000000
   16      -15.547551   1.000000
   17      -15.410409   1.000000
   18      -15.161317   1.000000
   19       -9.766905   1.000000
   20       -9.339044   1.000000
   21       -9.234830   1.000000
   22       -9.055837   1.000000
   23       -9.009822   1.000000
   24       -8.907311   1.000000
   25       -8.521705   1.000000
   26       -8.461216   1.000000
   27       -8.418616   1.000000
   28       -8.370633   1.000000
   29       -8.273408   1.000000
   30       -8.146968   1.000000
   31       -8.092873   1.000000
   32       -8.009473   1.000000
   33       -7.985566   1.000000
   34       -7.871746   1.000000
   35       -7.808923   1.000000
   36       -7.760813   1.000000
   37       -7.417387   1.000000
   38       -7.402057   1.000000
   39       -7.337660   1.000000
   40       -7.235241   1.000000
   41       -7.130476   1.000000
   42       -7.107280   1.000000
   43       -7.026303   1.000000
   44       -6.984484   1.000000
   45       -6.865935   1.000000
   46       -6.734132   1.000000
   47       -6.710910   1.000000
   48       -6.616084   1.000000
   49       -6.549347   1.000000
   50       -6.442873   1.000000
   51       -6.367835   1.000000
   52       -6.316217   1.000000
   53       -6.240498   1.000000
   54       -6.200811   1.000000
   55       -6.161095   1.000000
   56       -6.130119   1.000000
   57       -6.026775   1.000000
   58       -5.999241   1.000000
   59       -5.897160   1.000000
   60       -5.850568   1.000000
   61       -5.787404   1.000000
   62       -5.677702   1.000000
   63       -5.476775   1.000000
   64       -5.443700   1.000000
   65       -5.319131   1.000000
   66       -5.146483   1.000000
   67       -4.910021   1.000000
   68       -4.868921   1.000000
   69       -4.772624   1.000000
   70       -4.713170   1.000000
   71       -4.648174   1.000000
   72       -4.337736   1.000000
   73       -4.330429   1.000000
   74       -4.276605   1.000000
   75       -4.157876   1.000000
   76       -4.035073   1.000000
   77       -3.976088   1.000000
   78       -3.690054   0.998379
   79       -3.565824   0.980556
   80       -3.139174   0.170678
   81       -2.880111   0.002690
   82       -2.787949   0.000296
   83       -2.719506   0.000044
   84       -2.621647   0.000002
   85       -2.525351   0.000000
   86       -2.381682   0.000000
   87       -2.159783   0.000000
   88       -2.104725   0.000000
   89       -2.025863   0.000000
   90       -1.925287   0.000000
   91       -1.859154   0.000000
   92       -1.651806   0.000000
   93       -1.483900   0.000000
   94       -1.420968   0.000000
   95       -1.306279   0.000000
   96       -1.185272   0.000000
   97       -1.120723   0.000000
   98       -0.953246   0.000000
   99       -0.877807   0.000000
  100       -0.862611   0.000000
  101       -0.752477   0.000000
  102       -0.716373   0.000000
  103       -0.664349   0.000000
  104       -0.613418   0.000000
  105       -0.527553   0.000000
  106       -0.349574   0.000000
  107       -0.308351   0.000000
  108       -0.108429   0.000000
  109        0.117179   0.000000
  110        0.216881   0.000000
  111        0.441807   0.000000
  112        0.528028   0.000000
  113        0.786509   0.000000
  114        0.900114   0.000000
  115        1.006492   0.000000
  116        1.224221   0.000000
  117        1.329701   0.000000
  118        2.152430   0.000000
  119        2.253727   0.000000
  120        2.379375   0.000000
 
  0.0000000E+00  0.1250000E+00  0.0000000E+00  0.3125000E-01
    1      -17.785787   1.000000
    2      -16.803414   1.000000
    3      -16.705505   1.000000
    4      -16.610198   1.000000
    5      -16.545142   1.000000
    6      -16.438181   1.000000
    7      -16.384538   1.000000
    8      -16.301073   1.000000
    9      -16.207803   1.000000
   10      -16.109263   1.000000
   11      -15.987331   1.000000
   12      -15.958272   1.000000
   13      -15.887273   1.000000
   14      -15.752937   1.000000
   15      -15.579643   1.000000
   16      -15.475707   1.000000
   17      -15.394844   1.000000
   18      -15.154022   1.000000
   19       -9.340619   1.000000
   20       -9.190460   1.000000
   21       -9.024479   1.000000
   22       -8.915216   1.000000
   23       -8.771790   1.000000
   24       -8.702493   1.000000
   25       -8.639675   1.000000
   26       -8.575721   1.000000
   27       -8.507720   1.000000
   28       -8.439926   1.000000
   29       -8.398286   1.000000
   30       -8.320399   1.000000
   31       -8.259192   1.000000
   32       -8.096091   1.000000
   33       -8.053972   1.000000
   34       -7.938194   1.000000
   35       -7.842601   1.000000
   36       -7.735949   1.000000
   37       -7.657521   1.000000
   38       -7.554614   1.000000
   39       -7.479723   1.000000
   40       -7.378048   1.000000
   41       -7.271918   1.000000
   42       -7.228589   1.000000
   43       -7.169809   1.000000
   44       -6.945986   1.000000
   45       -6.846020   1.000000
   46       -6.762828   1.000000
   47       -6.714286   1.000000
   48       -6.639437   1.000000
   49       -6.553907   1.000000
   50       -6.524621   1.000000
   51       -6.463420   1.000000
   52       -6.337448   1.000000
   53       -6.314042   1.000000
   54       -6.237475   1.000000
   55       -6.173706   1.000000
   56       -6.139392   1.000000
   57       -5.977242   1.000000
   58       -5.947786   1.000000
   59       -5.827422   1.000000
   60       -5.566998   1.000000
   61       -5.520076   1.000000
   62       -5.403320   1.000000
   63       -5.310401   1.000000
   64       -5.249810   1.000000
   65       -5.154175   1.000000
   66       -5.040399   1.000000
   67       -4.970860   1.000000
   68       -4.916373   1.000000
   69       -4.826120   1.000000
   70       -4.660739   1.000000
   71       -4.582600   1.000000
   72       -4.514398   1.000000
   73       -4.424236   1.000000
   74       -4.317126   1.000000
   75       -4.136095   1.000000
   76       -3.917233   0.999997
   77       -3.815910   0.999937
   78       -3.626595   0.993704
   79       -3.554789   0.976558
   80       -3.440608   0.880994
   81       -3.191037   0.279355
   82       -2.888640   0.003234
   83       -2.726410   0.000054
   84       -2.636388   0.000003
   85       -2.582614   0.000001
   86       -2.411462   0.000000
   87       -2.274279   0.000000
   88       -2.214813   0.000000
   89       -2.172532   0.000000
   90       -2.074065   0.000000
   91       -1.848207   0.000000
   92       -1.708874   0.000000
   93       -1.495640   0.000000
   94       -1.333232   0.000000
   95       -1.149232   0.000000
   96       -1.008171   0.000000
   97       -0.898415   0.000000
   98       -0.862536   0.000000
   99       -0.804618   0.000000
  100       -0.666440   0.000000
  101       -0.632788   0.000000
  102       -0.610075   0.000000
  103       -0.431200   0.000000
  104       -0.353654   0.000000
  105       -0.280967   0.000000
  106       -0.173617   0.000000
  107       -0.074962   0.000000
  108       -0.034010   0.000000
  109        0.141402   0.000000
  110        0.190445   0.000000
  111        0.306803   0.000000
  112        0.518479   0.000000
  113        0.679520   0.000000
  114        0.749823   0.000000
  115        0.972996   0.000000
  116        1.157680   0.000000
  117        1.243258   0.000000
  118        1.679263   0.000000
  119        1.874044   0.000000
  120        2.189465   0.000000
 
  0.1250000E+00  0.1250000E+00  0.0000000E+00  0.3125000E-01
    1      -17.738747   1.000000
    2      -16.889368   1.000000
    3      -16.806988   1.000000
    4      -16.664532   1.000000
    5      -16.515380   1.000000
    6      -16.391467   1.000000
    7      -16.368046   1.000000
    8      -16.287882   1.000000
    9      -16.208371   1.000000
   10      -16.060692   1.000000
   11      -15.976190   1.000000
   12      -15.894731   1.000000
   13      -15.858027   1.000000
   14      -15.738351   1.000000
   15      -15.612374   1.000000
   16      -15.501688   1.000000
   17      -15.393188   1.000000
   18      -15.156226   1.000000
   19       -9.371879   1.000000
   20       -9.352781   1.000000
   21       -9.129877   1.000000
   22       -9.065739   1.000000
   23       -8.801154   1.000000
   24       -8.731552   1.000000
   25       -8.629640   1.000000
   26       -8.546720   1.000000
   27       -8.451033   1.000000
   28       -8.392718   1.000000
   29       -8.362067   1.000000
   30       -8.228563   1.000000
   31       -8.169320   1.000000
   32       -8.104231   1.000000
   33       -7.994453   1.000000
   34       -7.853976   1.000000
   35       -7.759878   1.000000
   36       -7.696323   1.000000
   37       -7.569340   1.000000
   38       -7.562349   1.000000
   39       -7.481155   1.000000
   40       -7.347209   1.000000
   41       -7.324552   1.000000
   42       -7.203176   1.000000
   43       -7.142587   1.000000
   44       -6.939758   1.000000
   45       -6.900016   1.000000
   46       -6.749126   1.000000
   47       -6.709512   1.000000
   48       -6.647775   1.000000
   49       -6.548493   1.000000
   50       -6.484243   1.000000
   51       -6.414705   1.000000
   52       -6.406517   1.000000
   53       -6.319433   1.000000
   54       -6.257015   1.000000
   55       -6.198539   1.000000
   56       -6.105811   1.000000
   57       -6.023852   1.000000
   58       -5.869581   1.000000
   59       -5.801759   1.000000
   60       -5.629185   1.000000
   61       -5.578752   1.000000
   62       -5.476015   1.000000
   63       -5.389768   1.000000
   64       -5.352614   1.000000
   65       -5.205603   1.000000
   66       -5.058189   1.000000
   67       -4.983590   1.000000
   68       -4.917689   1.000000
   69       -4.765962   1.000000
   70       -4.654349   1.000000
   71       -4.544720   1.000000
   72       -4.420882   1.000000
   73       -4.369210   1.000000
   74       -4.248301   1.000000
   75       -4.154039   1.000000
   76       -4.037745   1.000000
   77       -3.932423   0.999998
   78       -3.681010   0.998011
   79       -3.513476   0.954984
   80       -3.369905   0.751756
   81       -3.131866   0.157891
   82       -2.833932   0.000936
   83       -2.703224   0.000027
   84       -2.617811   0.000002
   85       -2.544732   0.000000
   86       -2.429061   0.000000
   87       -2.255199   0.000000
   88       -2.204349   0.000000
   89       -2.131334   0.000000
   90       -2.040999   0.000000
   91       -1.832965   0.000000
   92       -1.699880   0.000000
   93       -1.483072   0.000000
   94       -1.359524   0.000000
   95       -1.134858   0.000000
   96       -1.055611   0.000000
   97       -0.941906   0.000000
   98       -0.889122   0.000000
   99       -0.826408   0.000000
  100       -0.759663   0.000000
  101       -0.709952   0.000000
  102       -0.637798   0.000000
  103       -0.512723   0.000000
  104       -0.490219   0.000000
  105       -0.350691   0.000000
  106       -0.233113   0.000000
  107       -0.181255   0.000000
  108        0.043256   0.000000
  109        0.081831   0.000000
  110        0.249941   0.000000
  111        0.304483   0.000000
  112        0.545769   0.000000
  113        0.750813   0.000000
  114        0.889711   0.000000
  115        1.005890   0.000000
  116        1.127316   0.000000
  117        1.186505   0.000000
  118        1.759743   0.000000
  119        1.952832   0.000000
  120        2.258082   0.000000
 
  0.2500000E+00  0.1250000E+00  0.0000000E+00  0.3125000E-01
    1      -17.649300   1.000000
    2      -17.067992   1.000000
    3      -16.893982   1.000000
    4      -16.657590   1.000000
    5      -16.519172   1.000000
    6      -16.392764   1.000000
    7      -16.302179   1.000000
    8      -16.269073   1.000000
    9      -16.192114   1.000000
   10      -16.032146   1.000000
   11      -15.958201   1.000000
   12      -15.867973   1.000000
   13      -15.788858   1.000000
   14      -15.694216   1.000000
   15      -15.659113   1.000000
   16      -15.533847   1.000000
   17      -15.396688   1.000000
   18      -15.159892   1.000000
   19       -9.592101   1.000000
   20       -9.417220   1.000000
   21       -9.235427   1.000000
   22       -9.107113   1.000000
   23       -8.857738   1.000000
   24       -8.718151   1.000000
   25       -8.570727   1.000000
   26       -8.496518   1.000000
   27       -8.424500   1.000000
   28       -8.367140   1.000000
   29       -8.295496   1.000000
   30       -8.216706   1.000000
   31       -8.159577   1.000000
   32       -8.075474   1.000000
   33       -7.993445   1.000000
   34       -7.804407   1.000000
   35       -7.773038   1.000000
   36       -7.658419   1.000000
   37       -7.553814   1.000000
   38       -7.458631   1.000000
   39       -7.391380   1.000000
   40       -7.315087   1.000000
   41       -7.251296   1.000000
   42       -7.164047   1.000000
   43       -7.098424   1.000000
   44       -6.932257   1.000000
   45       -6.875186   1.000000
   46       -6.751973   1.000000
   47       -6.704209   1.000000