 vasp.5.4.1 05Feb16 (build Jul 05 2020 17:13:04) complex                        
  
 executed on           IFC91_ompi date 2024.07.25  11:32:21
 running on   40 total cores
 distrk:  each k-point on   40 cores,    1 groups
 distr:  one band on NCORES_PER_BAND=   1 cores,   40 groups


--------------------------------------------------------------------------------------------------------


 INCAR:
 POTCAR:   PAW_PBE V 08Apr2002                    
 POTCAR:   PAW_PBE Mo 08Apr2002                   
 POTCAR:   PAW_PBE W 08Apr2002                    
 POTCAR:    PAW_PBE S 17Jan2003                   

 ----------------------------------------------------------------------------- 
|                                                                             |
|           W    W    AA    RRRRR   N    N  II  N    N   GGGG   !!!           |
|           W    W   A  A   R    R  NN   N  II  NN   N  G    G  !!!           |
|           W    W  A    A  R    R  N N  N  II  N N  N  G       !!!           |
|           W WW W  AAAAAA  RRRRR   N  N N  II  N  N N  G  GGG   !            |
|           WW  WW  A    A  R   R   N   NN  II  N   NN  G    G                |
|           W    W  A    A  R    R  N    N  II  N    N   GGGG   !!!           |
|                                                                             |
|      For optimal performance we recommend to set                            |
|        NCORE= 4 - approx SQRT( number of cores)                             |
|      NCORE specifies how many cores store one orbital (NPAR=cpu/NCORE).     |
|      This setting can  greatly improve the performance of VASP for DFT.     |
|      The default, NPAR=number of cores might be grossly inefficient         |
|      on modern multi-core architectures or massively parallel machines.     |
|      Do your own testing !!!!                                               |
|      Unfortunately you need to use the default for GW and RPA calculations. |
|      (for HF NCORE is supported but not extensively tested yet)             |
|                                                                             |
 ----------------------------------------------------------------------------- 

 POTCAR:   PAW_PBE V 08Apr2002                    
   VRHFIN =V: p6 d4 s1                                                          
   LEXCH  = PE                                                                  
   EATOM  =   170.8679 eV,   12.5584 Ry                                         
                                                                                
   TITEL  = PAW_PBE V 08Apr2002                                                 
   LULTRA =        F    use ultrasoft PP ?                                      
   IUNSCR =        1    unscreen: 0-lin 1-nonlin 2-no                           
   RPACOR =    2.000    partial core radius                                     
   POMASS =   50.941; ZVAL   =    5.000    mass and valenz                      
   RCORE  =    2.700    outmost cutoff radius                                   
   RWIGS  =    2.500; RWIGS  =    1.323    wigner-seitz radius (au A)           
   ENMAX  =  192.543; ENMIN  =  144.408 eV                                      
   RCLOC  =    1.779    cutoff for local pot                                    
   LCOR   =        T    correct aug charges                                     
   LPAW   =        T    paw PP                                                  
   EAUG   =  358.662                                                            
   DEXC   =    -.034                                                            
   RMAX   =    3.323    core radius for proj-oper                               
   RAUG   =    1.300    factor for augmentation sphere                          
   RDEP   =    2.762    radius for radial grids                                 
   QCUT   =   -3.762; QGAM   =    7.524    optimization parameters              
                                                                                
   Description                                                                  
     l     E      TYP  RCUT    TYP  RCUT                                        
     2   .000     23  2.700                                                     
     2   .000     23  2.700                                                     
     0   .000     23  2.700                                                     
     0  2.000     23  2.700                                                     
     1   .000     23  2.700                                                     
     1  2.000     23  2.700                                                     
     3   .000      7   .000                                                     
  local pseudopotential read in
  partial core-charges read in
  atomic valenz-charges read in
  non local Contribution for L=           2  read in
    real space projection operators read in
  non local Contribution for L=           2  read in
    real space projection operators read in
  non local Contribution for L=           0  read in
    real space projection operators read in
  non local Contribution for L=           0  read in
    real space projection operators read in
  non local Contribution for L=           1  read in
    real space projection operators read in
  non local Contribution for L=           1  read in
    real space projection operators read in
    PAW grid and wavefunctions read in
 
   number of l-projection  operators is LMAX  =           6
   number of lm-projection operators is LMMAX =          18
 
 POTCAR:   PAW_PBE Mo 08Apr2002                   
   VRHFIN =Mo: 4p5s4d                                                           
   LEXCH  = PE                                                                  
   EATOM  =   217.5180 eV,   15.9871 Ry                                         
                                                                                
   TITEL  = PAW_PBE Mo 08Apr2002                                                
   LULTRA =        F    use ultrasoft PP ?                                      
   IUNSCR =        1    unscreen: 0-lin 1-nonlin 2-no                           
   RPACOR =    2.200    partial core radius                                     
   POMASS =   95.940; ZVAL   =    6.000    mass and valenz                      
   RCORE  =    2.750    outmost cutoff radius                                   
   RWIGS  =    2.750; RWIGS  =    1.455    wigner-seitz radius (au A)           
   ENMAX  =  224.584; ENMIN  =  168.438 eV                                      
   RCLOC  =    2.111    cutoff for local pot                                    
   LCOR   =        T    correct aug charges                                     
   LPAW   =        T    paw PP                                                  
   EAUG   =  345.278                                                            
   DEXC   =    -.088                                                            
   RMAX   =    3.077    core radius for proj-oper                               
   RAUG   =    1.300    factor for augmentation sphere                          
   RDEP   =    2.815    radius for radial grids                                 
   QCUT   =   -4.063; QGAM   =    8.126    optimization parameters              
                                                                                
   Description                                                                  
     l     E      TYP  RCUT    TYP  RCUT                                        
     2   .000     23  2.500                                                     
     2   .000     23  2.500                                                     
     0   .000     23  2.600                                                     
     0  1.000     23  2.600                                                     
     1   .400     23  2.750                                                     
     1  2.000     23  2.750                                                     
     3   .000      7   .000                                                     
  local pseudopotential read in
  partial core-charges read in
  atomic valenz-charges read in
  non local Contribution for L=           2  read in
    real space projection operators read in
  non local Contribution for L=           2  read in
    real space projection operators read in
  non local Contribution for L=           0  read in
    real space projection operators read in
  non local Contribution for L=           0  read in
    real space projection operators read in
  non local Contribution for L=           1  read in
    real space projection operators read in
  non local Contribution for L=           1  read in
    real space projection operators read in
    PAW grid and wavefunctions read in
 
   number of l-projection  operators is LMAX  =           6
   number of lm-projection operators is LMMAX =          18
 
 POTCAR:   PAW_PBE W 08Apr2002                    
   VRHFIN =W : 6s5d                                                             
   LEXCH  = PE                                                                  
   EATOM  =   204.6100 eV,   15.0384 Ry                                         
                                                                                
   TITEL  = PAW_PBE W 08Apr2002                                                 
   LULTRA =        F    use ultrasoft PP ?                                      
   IUNSCR =        1    unscreen: 0-lin 1-nonlin 2-no                           
   RPACOR =    2.330    partial core radius                                     
   POMASS =  183.850; ZVAL   =    6.000    mass and valenz                      
   RCORE  =    2.750    outmost cutoff radius                                   
   RWIGS  =    2.750; RWIGS  =    1.455    wigner-seitz radius (au A)           
   ENMAX  =  223.057; ENMIN  =  167.293 eV                                      
   RCLOC  =    2.147    cutoff for local pot                                    
   LCOR   =        T    correct aug charges                                     
   LPAW   =        T    paw PP                                                  
   EAUG   =  373.438                                                            
   DEXC   =    -.060                                                            
   RMAX   =    3.087    core radius for proj-oper                               
   RAUG   =    1.300    factor for augmentation sphere                          
   RDEP   =    2.886    radius for radial grids                                 
   QCUT   =   -4.049; QGAM   =    8.098    optimization parameters              
                                                                                
   Description                                                                  
     l     E      TYP  RCUT    TYP  RCUT                                        
     2   .000     23  2.500                                                     
     2   .000     23  2.500                                                     
     0   .000     23  2.500                                                     
     0   .000     23  2.500                                                     
     1   .200     23  2.750                                                     
     1  2.000     23  2.750                                                     
     3   .000      7   .000                                                     
  local pseudopotential read in
  partial core-charges read in
  atomic valenz-charges read in
  non local Contribution for L=           2  read in
    real space projection operators read in
  non local Contribution for L=           2  read in
    real space projection operators read in
  non local Contribution for L=           0  read in
    real space projection operators read in
  non local Contribution for L=           0  read in
    real space projection operators read in
  non local Contribution for L=           1  read in
    real space projection operators read in
  non local Contribution for L=           1  read in
    real space projection operators read in
    PAW grid and wavefunctions read in
 
   number of l-projection  operators is LMAX  =           6
   number of lm-projection operators is LMMAX =          18
 
 POTCAR:    PAW_PBE S 17Jan2003                   
   VRHFIN =S : s2p4                                                             
   LEXCH  = PE                                                                  
   EATOM  =   276.8230 eV,   20.3459 Ry                                         
                                                                                
   TITEL  = PAW_PBE S 17Jan2003                                                 
   LULTRA =        F    use ultrasoft PP ?                                      
   IUNSCR =        1    unscreen: 0-lin 1-nonlin 2-no                           
   RPACOR =    1.500    partial core radius                                     
   POMASS =   32.066; ZVAL   =    6.000    mass and valenz                      
   RCORE  =    1.900    outmost cutoff radius                                   
   RWIGS  =    2.200; RWIGS  =    1.164    wigner-seitz radius (au A)           
   ENMAX  =  280.000; ENMIN  =  194.016 eV                                      
   ICORE  =        2    local potential                                         
   LCOR   =        T    correct aug charges                                     
   LPAW   =        T    paw PP                                                  
   EAUG   =  335.092                                                            
   DEXC   =     .000                                                            
   RMAX   =    2.867    core radius for proj-oper                               
   RAUG   =    1.300    factor for augmentation sphere                          
   RDEP   =    1.954    radius for radial grids                                 
   QCUT   =   -4.360; QGAM   =    8.721    optimization parameters              
                                                                                
   Description                                                                  
     l     E      TYP  RCUT    TYP  RCUT                                        
     0   .000     23  1.900                                                     
     0   .000     23  1.900                                                     
     1   .000     23  1.900                                                     
     1   .000     23  1.900                                                     
     2   .000     23  1.900                                                     
  local pseudopotential read in
  partial core-charges read in
  atomic valenz-charges read in
  non local Contribution for L=           0  read in
    real space projection operators read in
  non local Contribution for L=           0  read in
    real space projection operators read in
  non local Contribution for L=           1  read in
    real space projection operators read in
  non local Contribution for L=           1  read in
    real space projection operators read in
    PAW grid and wavefunctions read in
 
   number of l-projection  operators is LMAX  =           4
   number of lm-projection operators is LMMAX =           8
 

 ----------------------------------------------------------------------------- 
|                                                                             |
|  ADVICE TO THIS USER RUNNING 'VASP/VAMP'   (HEAR YOUR MASTER'S VOICE ...):  |
|                                                                             |
|      You have a (more or less) 'large supercell' and for larger cells       |
|      it might be more efficient to use real space projection operators      |
|      So try LREAL= Auto  in the INCAR   file.                               |
|      Mind: If you want to do a very accurate calculations keep the          |
|      reciprocal projection scheme          (i.e. LREAL=.FALSE.)             |
|                                                                             |
 ----------------------------------------------------------------------------- 

 PAW_PBE V 08Apr2002                    :
 energy of atom  1       EATOM= -170.8679
 kinetic energy error for atom=    0.0047 (will be added to EATOM!!)
 PAW_PBE Mo 08Apr2002                   :
 energy of atom  2       EATOM= -217.5180
 kinetic energy error for atom=    0.0215 (will be added to EATOM!!)
 PAW_PBE W 08Apr2002                    :
 energy of atom  3       EATOM= -204.6100
 kinetic energy error for atom=    0.0205 (will be added to EATOM!!)
  PAW_PBE S 17Jan2003                   :
 energy of atom  4       EATOM= -276.8230
 kinetic energy error for atom=    0.0122 (will be added to EATOM!!)
 
 
 POSCAR: crystal structure from VMoWS2 with Hexag
  positions in cartesian coordinates
  No initial velocities read in
 exchange correlation table for  LEXCH =        8
   RHO(1)=    0.500       N(1)  =     2000
   RHO(2)=  100.500       N(2)  =     4000
 


--------------------------------------------------------------------------------------------------------


 ion  position               nearest neighbor table
   1  0.667  0.667  0.000-  21 2.34  24 2.34  27 2.36  26 2.36  19 2.36  18 2.36
   2  0.667  0.333  0.000-  19 2.34  22 2.34  25 2.36  24 2.36  17 2.36  16 2.36
   3  0.000  0.000  0.000-  23 2.34  14 2.34  11 2.36  10 2.36  27 2.36  26 2.36
   4  0.333  0.333  0.000-  13 2.34  16 2.34  19 2.36  18 2.36  11 2.36  10 2.36   6 3.34   5 3.34
                             7 3.34
   5  0.333  0.000  0.000-  11 2.34  20 2.34  17 2.36  16 2.36  15 2.36  14 2.36   6 3.34   4 3.34
                             9 3.34   8 3.36
   6  0.333  0.667  0.000-  15 2.34  18 2.34  20 2.36  21 2.36  13 2.36  12 2.36   5 3.34   4 3.34
                             8 3.34   9 3.36   7 3.36
   7  1.000  0.333  0.000-  25 2.34  10 2.34  13 2.36  12 2.36  22 2.36  23 2.36   8 3.34   4 3.34
                             9 3.36   6 3.36
   8  0.000  0.667  0.000-  27 2.34  12 2.34  14 2.36  15 2.36  24 2.36  25 2.36   7 3.34   6 3.34
                             5 3.36
   9  0.667  0.000  0.000-  17 2.34  26 2.34  23 2.36  22 2.36  21 2.36  20 2.36   5 3.34   7 3.36
                             6 3.36
  10  0.111  0.222  0.955-   7 2.34   3 2.36   4 2.36
  11  0.222  0.111  0.045-   5 2.34   3 2.36   4 2.36
  12  0.111  0.556  0.955-   8 2.34   7 2.36   6 2.36
  13  0.222  0.444  0.045-   4 2.34   7 2.36   6 2.36
  14  0.111  0.889  0.955-   3 2.34   8 2.36   5 2.36
  15  0.222  0.777  0.045-   6 2.34   8 2.36   5 2.36
  16  0.444  0.222  0.955-   4 2.34   5 2.36   2 2.36
  17  0.556  0.111  0.045-   9 2.34   5 2.36   2 2.36
  18  0.444  0.556  0.955-   6 2.34   4 2.36   1 2.36
  19  0.556  0.444  0.045-   2 2.34   4 2.36   1 2.36
  20  0.444  0.889  0.955-   5 2.34   6 2.36   9 2.36
  21  0.556  0.777  0.045-   1 2.34   6 2.36   9 2.36
  22  0.777  0.222  0.955-   2 2.34   9 2.36   7 2.36
  23  0.889  0.111  0.045-   3 2.34   9 2.36   7 2.36
  24  0.777  0.556  0.955-   1 2.34   2 2.36   8 2.36
  25  0.889  0.444  0.045-   7 2.34   2 2.36   8 2.36
  26  0.777  0.889  0.955-   9 2.34   1 2.36   3 2.36
  27  0.889  0.777  0.045-   8 2.34   1 2.36   3 2.36
 

IMPORTANT INFORMATION: All symmetrisations will be switched off!
NOSYMM: (Re-)initialisation of all symmetry stuff for point group C_1.

 
 
 KPOINTS: K-POINTS 	#supercell of CrS2 in hexagona

Automatic generation of k-mesh.
Space group operators:
 irot       det(A)        alpha          n_x          n_y          n_z        tau_x        tau_y        tau_z
    1     1.000000     0.000000     1.000000     0.000000     0.000000     0.000000     0.000000     0.000000
 
 Subroutine IBZKPT returns following result:
 ===========================================
 
 Found     34 irreducible k-points:
 
 Following reciprocal coordinates:
            Coordinates               Weight
  0.000000  0.000000  0.000000      1.000000
  0.125000  0.000000  0.000000      2.000000
  0.250000  0.000000  0.000000      2.000000
  0.375000  0.000000  0.000000      2.000000
  0.500000  0.000000  0.000000      1.000000
  0.000000  0.125000  0.000000      2.000000
  0.125000  0.125000  0.000000      2.000000
  0.250000  0.125000  0.000000      2.000000
  0.375000  0.125000  0.000000      2.000000
  0.500000  0.125000  0.000000      2.000000
 -0.375000  0.125000  0.000000      2.000000
 -0.250000  0.125000  0.000000      2.000000
 -0.125000  0.125000  0.000000      2.000000
  0.000000  0.250000  0.000000      2.000000
  0.125000  0.250000  0.000000      2.000000
  0.250000  0.250000  0.000000      2.000000
  0.375000  0.250000  0.000000      2.000000
  0.500000  0.250000  0.000000      2.000000
 -0.375000  0.250000  0.000000      2.000000
 -0.250000  0.250000  0.000000      2.000000
 -0.125000  0.250000  0.000000      2.000000
 -0.000000  0.375000  0.000000      2.000000
  0.125000  0.375000  0.000000      2.000000
  0.250000  0.375000  0.000000      2.000000
  0.375000  0.375000  0.000000      2.000000
  0.500000  0.375000  0.000000      2.000000
 -0.375000  0.375000  0.000000      2.000000
 -0.250000  0.375000  0.000000      2.000000
 -0.125000  0.375000  0.000000      2.000000
  0.000000  0.500000  0.000000      1.000000
  0.125000  0.500000  0.000000      2.000000
  0.250000  0.500000  0.000000      2.000000
  0.375000  0.500000  0.000000      2.000000
  0.500000  0.500000  0.000000      1.000000
 
 Following cartesian coordinates:
            Coordinates               Weight
  0.000000  0.000000  0.000000      1.000000
  0.007209  0.012401  0.000000      2.000000
  0.014418  0.024802  0.000000      2.000000
  0.021626  0.037202  0.000000      2.000000
  0.028835  0.049603  0.000000      1.000000
 -0.007209  0.012401  0.000000      2.000000
  0.000000  0.024802  0.000000      2.000000
  0.007209  0.037202  0.000000      2.000000
  0.014418  0.049603  0.000000      2.000000
  0.021626  0.062004  0.000000      2.000000
 -0.028835 -0.024802  0.000000      2.000000
 -0.021626 -0.012401  0.000000      2.000000
 -0.014418  0.000000  0.000000      2.000000
 -0.014418  0.024802  0.000000      2.000000
 -0.007209  0.037202  0.000000      2.000000
  0.000000  0.049603  0.000000      2.000000
  0.007209  0.062004  0.000000      2.000000
  0.014418  0.074405  0.000000      2.000000
 -0.036044 -0.012401  0.000000      2.000000
 -0.028835  0.000000  0.000000      2.000000
 -0.021626  0.012401  0.000000      2.000000
 -0.021626  0.037202  0.000000      2.000000
 -0.014418  0.049603  0.000000      2.000000
 -0.007209  0.062004  0.000000      2.000000
  0.000000  0.074405  0.000000      2.000000
  0.007209  0.086806  0.000000      2.000000
 -0.043253  0.000000  0.000000      2.000000
 -0.036044  0.012401  0.000000      2.000000
 -0.028835  0.024802  0.000000      2.000000
 -0.028835  0.049603  0.000000      1.000000
 -0.021626  0.062004  0.000000      2.000000
 -0.014418  0.074405  0.000000      2.000000
 -0.007209  0.086806  0.000000      2.000000
  0.000000  0.099206  0.000000      1.000000
 


--------------------------------------------------------------------------------------------------------




 Dimension of arrays:
   k-points           NKPTS =     34   k-points in BZ     NKDIM =     34   number of bands    NBANDS=    120
   number of dos      NEDOS =    301   number of ions     NIONS =     27
   non local maximal  LDIM  =      6   non local SUM 2l+1 LMDIM =     18
   total plane-waves  NPLWV = 222264
   max r-space proj   IRMAX =      1   max aug-charges    IRDMAX=   5642
   dimension x,y,z NGX =    42 NGY =   42 NGZ =  126
   dimension x,y,z NGXF=    84 NGYF=   84 NGZF=  252
   support grid    NGXF=    84 NGYF=   84 NGZF=  252
   ions per type =               3   3   3  18
 NGX,Y,Z   is equivalent  to a cutoff of   6.96,  6.96,  6.98 a.u.
 NGXF,Y,Z  is equivalent  to a cutoff of  13.92, 13.92, 13.96 a.u.


 I would recommend the setting:
   dimension x,y,z NGX =    41 NGY =   41 NGZ =  123
 SYSTEM =  unknown system                          
 POSCAR =  crystal structure from VMoWS2 with Hexag

 Startparameter for this run:
   NWRITE =      2    write-flag & timer
   PREC   = normal    normal or accurate (medium, high low for compatibility)
   ISTART =      0    job   : 0-new  1-cont  2-samecut
   ICHARG =      2    charge: 1-file 2-atom 10-const
   ISPIN  =      1    spin polarized calculation?
   LNONCOLLINEAR =      F non collinear calculations
   LSORBIT =      F    spin-orbit coupling
   INIWAV =      1    electr: 0-lowe 1-rand  2-diag
   LASPH  =      F    aspherical Exc in radial PAW
   METAGGA=      F    non-selfconsistent MetaGGA calc.

 Electronic Relaxation 1
   ENCUT  =  280.0 eV  20.58 Ry    4.54 a.u.  13.68 13.68 40.93*2*pi/ulx,y,z
   ENINI  =  280.0     initial cutoff
   ENAUG  =  373.4 eV  augmentation charge cutoff
   NELM   =     60;   NELMIN=  2; NELMDL= -5     # of ELM steps 
   EDIFF  = 0.1E-03   stopping-criterion for ELM
   LREAL  =      F    real-space projection
   NLSPLINE    = F    spline interpolate recip. space projectors
   LCOMPAT=      F    compatible to vasp.4.4
   GGA_COMPAT  = T    GGA compatible to vasp.4.4-vasp.4.6
   LMAXPAW     = -100 max onsite density
   LMAXMIX     =    2 max onsite mixed and CHGCAR
   VOSKOWN=      0    Vosko Wilk Nusair interpolation
   ROPT   =    0.00000   0.00000   0.00000   0.00000
 Ionic relaxation
   EDIFFG = 0.1E-02   stopping-criterion for IOM
   NSW    =    100    number of steps for IOM
   NBLOCK =      1;   KBLOCK =    100    inner block; outer block 
   IBRION =      1    ionic relax: 0-MD 1-quasi-New 2-CG
   NFREE  =      0    steps in history (QN), initial steepest desc. (CG)
   ISIF   =      3    stress and relaxation
   IWAVPR =     11    prediction:  0-non 1-charg 2-wave 3-comb
   ISYM   =      0    0-nonsym 1-usesym 2-fastsym
   LCORR  =      T    Harris-Foulkes like correction to forces

   POTIM  = 0.5000    time-step for ionic-motion
   TEIN   =    0.0    initial temperature
   TEBEG  =    0.0;   TEEND  =   0.0 temperature during run
   SMASS  =  -3.00    Nose mass-parameter (am)
   estimated Nose-frequenzy (Omega)   =  0.10E-29 period in steps =****** mass=  -0.230E-26a.u.
   SCALEE = 1.0000    scale energy and forces
   NPACO  =    256;   APACO  = 16.0  distance and # of slots for P.C.
   PSTRESS=    0.0 pullay stress

  Mass of Ions in am
   POMASS =  50.94 95.94183.85 32.07
  Ionic Valenz
   ZVAL   =   5.00  6.00  6.00  6.00
  Atomic Wigner-Seitz radii
   RWIGS  =  -1.00 -1.00 -1.00 -1.00
  virtual crystal weights 
   VCA    =   1.00  1.00  1.00  1.00
   NELECT =     159.0000    total number of electrons
   NUPDOWN=      -1.0000    fix difference up-down

 DOS related values:
   EMIN   =  10.00;   EMAX   =-10.00  energy-range for DOS
   EFERMI =   0.00
   ISMEAR =     0;   SIGMA  =   0.20  broadening in eV -4-tet -1-fermi 0-gaus

 Electronic relaxation 2 (details)
   IALGO  =     38    algorithm
   LDIAG  =      T    sub-space diagonalisation (order eigenvalues)
   LSUBROT=      F    optimize rotation matrix (better conditioning)
   TURBO    =      0    0=normal 1=particle mesh
   IRESTART =      0    0=no restart 2=restart with 2 vectors
   NREBOOT  =      0    no. of reboots
   NMIN     =      0    reboot dimension
   EREF     =   0.00    reference energy to select bands
   IMIX   =      4    mixing-type and parameters
     AMIX     =   0.40;   BMIX     =  1.00
     AMIX_MAG =   1.60;   BMIX_MAG =  1.00
     AMIN     =   0.10
     WC   =   100.;   INIMIX=   1;  MIXPRE=   1;  MAXMIX= -45

 Intra band minimization:
   WEIMIN = 0.0010     energy-eigenvalue tresh-hold
   EBREAK =  0.21E-06  absolut break condition
   DEPER  =   0.30     relativ break condition  

   TIME   =   0.40     timestep for ELM

  volume/ion in A,a.u.               =      97.10       655.29
  Fermi-wavevector in a.u.,A,eV,Ry     =   0.643191  1.215456  5.628665  0.413695
  Thomas-Fermi vector in A             =   1.710110
 
 Write flags
   LWAVE  =      F    write WAVECAR
   LCHARG =      F    write CHGCAR
   LVTOT  =      F    write LOCPOT, total local potential
   LVHAR  =      F    write LOCPOT, Hartree potential only
   LELF   =      F    write electronic localiz. function (ELF)
   LORBIT =      0    0 simple, 1 ext, 2 COOP (PROOUT)


 Dipole corrections
   LMONO  =      F    monopole corrections only (constant potential shift)
   LDIPOL =      F    correct potential (dipole corrections)
   IDIPOL =      0    1-x, 2-y, 3-z, 4-all directions 
   EPSILON=  1.0000000 bulk dielectric constant

 Exchange correlation treatment:
   GGA     =    --    GGA type
   LEXCH   =     8    internal setting for exchange type
   VOSKOWN=      0    Vosko Wilk Nusair interpolation
   LHFCALC =     F    Hartree Fock is set to
   LHFONE  =     F    Hartree Fock one center treatment
   AEXX    =    0.0000 exact exchange contribution

 Linear response parameters
   LEPSILON=     F    determine dielectric tensor
   LRPA    =     F    only Hartree local field effects (RPA)
   LNABLA  =     F    use nabla operator in PAW spheres
   LVEL    =     F    velocity operator in full k-point grid
   LINTERFAST=   F  fast interpolation
   KINTER  =     0    interpolate to denser k-point grid
   CSHIFT  =0.1000    complex shift for real part using Kramers Kronig
   OMEGAMAX=  -1.0    maximum frequency
   DEG_THRESHOLD= 0.2000000E-02 threshold for treating states as degnerate
   RTIME   =    0.100 relaxation time in fs

 Orbital magnetization related:
   ORBITALMAG=     F  switch on orbital magnetization
   LCHIMAG   =     F  perturbation theory with respect to B field
   DQ        =  0.001000  dq finite difference perturbation B field



--------------------------------------------------------------------------------------------------------


 quasi-Newton-method for relaxation of ions
 charge density and potential will be updated during run
 non-spin polarized calculation
 Variant of blocked Davidson
 Davidson routine will perform the subspace rotation
 perform sub-space diagonalisation
    after iterative eigenvector-optimisation
 modified Broyden-mixing scheme, WC =      100.0
 initial mixing is a Kerker type mixing with AMIX =  0.4000 and BMIX =      1.0000
 Hartree-type preconditioning will be used
 using additional bands           40
 reciprocal scheme for non local part
 use partial core corrections
 calculate Harris-corrections to forces 
   (improved forces if not selfconsistent)
 use gradient corrections 
 use of overlap-Matrix (Vanderbilt PP)
 Gauss-broadening in eV      SIGMA  =   0.20


--------------------------------------------------------------------------------------------------------


  energy-cutoff  :      280.00
  volume of cell :     2621.81
      direct lattice vectors                 reciprocal lattice vectors
     8.669999960  5.039999894  0.000000000     0.057670129  0.099206348  0.000000000
    -8.669999821  5.040000133  0.000000000    -0.057670126  0.099206350  0.000000000
     0.000000000  0.000000000 30.000000000     0.000000000  0.000000000  0.033333333

  length of vectors
    10.028484344 10.028484344 30.000000000     0.114750788  0.114750788  0.033333333


 
 k-points in units of 2pi/SCALE and weight: K-POINTS 	#supercell of CrS2 in hexagona
   0.00000000  0.00000000  0.00000000       0.016
   0.00720877  0.01240079  0.00000000       0.031
   0.01441753  0.02480159  0.00000000       0.031
   0.02162630  0.03720238  0.00000000       0.031
   0.02883506  0.04960317  0.00000000       0.016
  -0.00720877  0.01240079  0.00000000       0.031
   0.00000000  0.02480159  0.00000000       0.031
   0.00720877  0.03720238  0.00000000       0.031
   0.01441753  0.04960317  0.00000000       0.031
   0.02162630  0.06200397  0.00000000       0.031
  -0.02883506 -0.02480159  0.00000000       0.031
  -0.02162630 -0.01240079  0.00000000       0.031
  -0.01441753  0.00000000  0.00000000       0.031
  -0.01441753  0.02480159  0.00000000       0.031
  -0.00720877  0.03720238  0.00000000       0.031
   0.00000000  0.04960317  0.00000000       0.031
   0.00720877  0.06200397  0.00000000       0.031
   0.01441753  0.07440476  0.00000000       0.031
  -0.03604383 -0.01240079  0.00000000       0.031
  -0.02883506  0.00000000  0.00000000       0.031
  -0.02162630  0.01240079  0.00000000       0.031
  -0.02162630  0.03720238  0.00000000       0.031
  -0.01441753  0.04960317  0.00000000       0.031
  -0.00720877  0.06200397  0.00000000       0.031
   0.00000000  0.07440476  0.00000000       0.031
   0.00720877  0.08680556  0.00000000       0.031
  -0.04325260  0.00000000  0.00000000       0.031
  -0.03604383  0.01240079  0.00000000       0.031
  -0.02883506  0.02480159  0.00000000       0.031
  -0.02883506  0.04960317  0.00000000       0.016
  -0.02162630  0.06200397  0.00000000       0.031
  -0.01441753  0.07440476  0.00000000       0.031
  -0.00720876  0.08680556  0.00000000       0.031
   0.00000000  0.09920635  0.00000000       0.016
 
 k-points in reciprocal lattice and weights: K-POINTS 	#supercell of CrS2 in hexagona
   0.00000000  0.00000000  0.00000000       0.016
   0.12500000  0.00000000  0.00000000       0.031
   0.25000000  0.00000000  0.00000000       0.031
   0.37500000  0.00000000  0.00000000       0.031
   0.50000000  0.00000000  0.00000000       0.016
   0.00000000  0.12500000  0.00000000       0.031
   0.12500000  0.12500000  0.00000000       0.031
   0.25000000  0.12500000  0.00000000       0.031
   0.37500000  0.12500000  0.00000000       0.031
   0.50000000  0.12500000  0.00000000       0.031
  -0.37500000  0.12500000  0.00000000       0.031
  -0.25000000  0.12500000  0.00000000       0.031
  -0.12500000  0.12500000  0.00000000       0.031
   0.00000000  0.25000000  0.00000000       0.031
   0.12500000  0.25000000  0.00000000       0.031
   0.25000000  0.25000000  0.00000000       0.031
   0.37500000  0.25000000  0.00000000       0.031
   0.50000000  0.25000000  0.00000000       0.031
  -0.37500000  0.25000000  0.00000000       0.031
  -0.25000000  0.25000000  0.00000000       0.031
  -0.12500000  0.25000000  0.00000000       0.031
  -0.00000000  0.37500000  0.00000000       0.031
   0.12500000  0.37500000  0.00000000       0.031
   0.25000000  0.37500000  0.00000000       0.031
   0.37500000  0.37500000  0.00000000       0.031
   0.50000000  0.37500000  0.00000000       0.031
  -0.37500000  0.37500000  0.00000000       0.031
  -0.25000000  0.37500000  0.00000000       0.031
  -0.12500000  0.37500000  0.00000000       0.031
   0.00000000  0.50000000  0.00000000       0.016
   0.12500000  0.50000000  0.00000000       0.031
   0.25000000  0.50000000  0.00000000       0.031
   0.37500000  0.50000000  0.00000000       0.031
   0.50000000  0.50000000  0.00000000       0.016
 
 position of ions in fractional coordinates (direct lattice) 
   0.66666669  0.66666669  0.00000000
   0.66666669  0.33333334  0.00000000
   0.00000000  0.00000000  0.00000000
   0.33333334  0.33333334  0.00000000
   0.33333334  0.00000000  0.00000000
   0.33333334  0.66666669  0.00000000
   1.00000000  0.33333334  0.00000000
   0.00000000  0.66666669  0.00000000
   0.66666669  0.00000000  0.00000000
   0.11068511  0.22244981  0.95539999
   0.22244981  0.11068511  0.04460000
   0.11068511  0.55578315  0.95539999
   0.22244981  0.44401845  0.04460000
   0.11068511  0.88911647  0.95539999
   0.22244981  0.77735180  0.04460000
   0.44401845  0.22244981  0.95539999
   0.55578315  0.11068511  0.04460000
   0.44401845  0.55578315  0.95539999
   0.55578315  0.44401845  0.04460000
   0.44401845  0.88911647  0.95539999
   0.55578315  0.77735180  0.04460000
   0.77735180  0.22244981  0.95539999
   0.88911647  0.11068511  0.04460000
   0.77735180  0.55578315  0.95539999
   0.88911647  0.44401845  0.04460000
   0.77735180  0.88911647  0.95539999
   0.88911647  0.77735180  0.04460000
 
 position of ions in cartesian coordinates  (Angst):
   0.00000009  6.72000022  0.00000000
   2.89000012  5.04000012  0.00000000
   0.00000000  0.00000000  0.00000000
   0.00000005  3.36000011  0.00000000
   2.89000007  1.68000002  0.00000000
  -2.88999998  5.04000020  0.00000000
   5.77999993  6.71999999  0.00000000
  -5.78000005  3.36000019  0.00000000
   5.78000015  3.36000003  0.00000000
  -0.96899991  1.67900001 28.66199970
   0.96899995  1.67899998  1.33799996
  -3.85899993  3.35900011 28.66199970
  -1.92100007  3.35900008  1.33799996
  -6.74899970  5.03900005 28.66199970
  -4.81100010  5.03900017  1.33799996
   1.92100017  3.35900003 28.66199970
   3.85900003  3.35900000  1.33799996
  -0.96899986  5.03900012 28.66199970
   0.96900000  5.03900009  1.33799996
  -3.85899963  6.71900006 28.66199970
  -1.92100003  6.71900019  1.33799996
   4.81100024  5.03900004 28.66199970
   6.74899984  5.03899987  1.33799996
   1.92100021  6.71900014 28.66199970
   3.85899981  6.71899996  1.33799996
  -0.96899956  8.39900008 28.66199970
   0.96899979  8.39900005  1.33799996
 


--------------------------------------------------------------------------------------------------------


 k-point  1 :   0.0000 0.0000 0.0000  plane waves:   27959
 k-point  2 :   0.1250 0.0000 0.0000  plane waves:   27889
 k-point  3 :   0.2500 0.0000 0.0000  plane waves:   27875
 k-point  4 :   0.3750 0.0000 0.0000  plane waves:   27893
 k-point  5 :   0.5000 0.0000 0.0000  plane waves:   27932
 k-point  6 :   0.0000 0.1250 0.0000  plane waves:   27889
 k-point  7 :   0.1250 0.1250 0.0000  plane waves:   27906
 k-point  8 :   0.2500 0.1250 0.0000  plane waves:   27898
 k-point  9 :   0.3750 0.1250 0.0000  plane waves:   27888
 k-point 10 :   0.5000 0.1250 0.0000  plane waves:   27873
 k-point 11 :  -0.3750 0.1250 0.0000  plane waves:   27874
 k-point 12 :  -0.2500 0.1250 0.0000  plane waves:   27895
 k-point 13 :  -0.1250 0.1250 0.0000  plane waves:   27879
 k-point 14 :   0.0000 0.2500 0.0000  plane waves:   27875
 k-point 15 :   0.1250 0.2500 0.0000  plane waves:   27898
 k-point 16 :   0.2500 0.2500 0.0000  plane waves:   27920
 k-point 17 :   0.3750 0.2500 0.0000  plane waves:   27901
 k-point 18 :   0.5000 0.2500 0.0000  plane waves:   27875
 k-point 19 :  -0.3750 0.2500 0.0000  plane waves:   27894
 k-point 20 :  -0.2500 0.2500 0.0000  plane waves:   27870
 k-point 21 :  -0.1250 0.2500 0.0000  plane waves:   27895
 k-point 22 :  -0.0000 0.3750 0.0000  plane waves:   27893
 k-point 23 :   0.1250 0.3750 0.0000  plane waves:   27888
 k-point 24 :   0.2500 0.3750 0.0000  plane waves:   27901
 k-point 25 :   0.3750 0.3750 0.0000  plane waves:   27860
 k-point 26 :   0.5000 0.3750 0.0000  plane waves:   27895
 k-point 27 :  -0.3750 0.3750 0.0000  plane waves:   27858
 k-point 28 :  -0.2500 0.3750 0.0000  plane waves:   27894
 k-point 29 :  -0.1250 0.3750 0.0000  plane waves:   27874
 k-point 30 :   0.0000 0.5000 0.0000  plane waves:   27932
 k-point 31 :   0.1250 0.5000 0.0000  plane waves:   27873
 k-point 32 :   0.2500 0.5000 0.0000  plane waves:   27875
 k-point 33 :   0.3750 0.5000 0.0000  plane waves:   27895
 k-point 34 :   0.5000 0.5000 0.0000  plane waves:   27910

 maximum and minimum number of plane-waves per node :     27959    27858

 maximum number of plane-waves:     27959
 maximum index in each direction: 
   IXMAX=   14   IYMAX=   13   IZMAX=   40
   IXMIN=  -14   IYMIN=  -14   IZMIN=  -40

 WARNING: aliasing errors must be expected set NGX to  58 to avoid them
 WARNING: aliasing errors must be expected set NGY to  56 to avoid them
 WARNING: aliasing errors must be expected set NGZ to 162 to avoid them
 aliasing errors are usually negligible using standard VASP settings
 and one can safely disregard these warnings

 serial   3D FFT for wavefunctions

 total amount of memory used by VASP on root node   650782. kBytes
========================================================================

   base      :      30000. kBytes
   nonl-proj :     559647. kBytes
   fftplans  :       2414. kBytes
   grid      :      12150. kBytes
   one-center:        419. kBytes
   wavefun   :      46152. kBytes
 
     INWAV:  cpu time    0.0000: real time    0.0000
 Broyden mixing: mesh for mixing (old mesh)
   NGX = 27   NGY = 27   NGZ = 81
  (NGX  = 84   NGY  = 84   NGZ  =252)
  gives a total of  59049 points

 initial charge density was supplied:
 charge density of overlapping atoms calculated
 number of electron     159.0000000 magnetization 
 keeping initial charge density in first step


--------------------------------------------------------------------------------------------------------


 Maximum index for augmentation-charges          146 (set IRDMAX)


--------------------------------------------------------------------------------------------------------


 First call to EWALD:  gamma=   0.129
 Maximum number of real-space cells 4x 4x 2
 Maximum number of reciprocal cells 2x 2x 5

 FEWALD executed in parallel
    FEWALD:  cpu time    0.0017: real time    0.0017


----------------------------------------- Iteration    1(   1)  ---------------------------------------


    POTLOK:  cpu time    0.0371: real time    0.0374
    SETDIJ:  cpu time    0.0033: real time    0.0034
     EDDAV:  cpu time   22.0346: real time   22.0917
       DOS:  cpu time    0.0020: real time    0.0017
    --------------------------------------------
      LOOP:  cpu time   22.0803: real time   22.1409

 eigenvalue-minimisations  :  8160
 total energy-change (2. order) : 0.1126106E+04  (-0.3597374E+04)
 number of electron     159.0000000 magnetization 
 augmentation part      159.0000000 magnetization 

 Free energy of the ion-electron system (eV)
  ---------------------------------------------------
  alpha Z        PSCENC =        81.65567618
  Ewald energy   TEWEN  =     41890.23009656
  -Hartree energ DENC   =    -47722.85867626
  -exchange      EXHF   =         0.00000000
  -V(xc)+E(xc)   XCENC  =      -242.92976591
  PAW double counting   =      3467.42045192    -2871.19716117
  entropy T*S    EENTRO =        -0.54413124
  eigenvalues    EBANDS =      -237.11341593
  atomic energy  EATOM  =      6761.44252427
  Solvation  Ediel_sol  =         0.00000000
  ---------------------------------------------------
  free energy    TOTEN  =      1126.10559842 eV

  energy without entropy =     1126.64972966  energy(sigma->0) =     1126.37766404


--------------------------------------------------------------------------------------------------------




----------------------------------------- Iteration    1(   2)  ---------------------------------------


     EDDAV:  cpu time   28.6993: real time   28.7692
       DOS:  cpu time    0.0009: real time    0.0009
    --------------------------------------------
      LOOP:  cpu time   28.7013: real time   28.7783

 eigenvalue-minimisations  : 11320
 total energy-change (2. order) :-0.1129533E+04  (-0.1088697E+04)
 number of electron     159.0000000 magnetization 
 augmentation part      159.0000000 magnetization 

 Free energy of the ion-electron system (eV)
  ---------------------------------------------------
  alpha Z        PSCENC =        81.65567618
  Ewald energy   TEWEN  =     41890.23009656
  -Hartree energ DENC   =    -47722.85867626
  -exchange      EXHF   =         0.00000000
  -V(xc)+E(xc)   XCENC  =      -242.92976591
  PAW double counting   =      3467.42045192    -2871.19716117
  entropy T*S    EENTRO =        -0.19960643
  eigenvalues    EBANDS =     -1366.99070147
  atomic energy  EATOM  =      6761.44252427
  Solvation  Ediel_sol  =         0.00000000
  ---------------------------------------------------
  free energy    TOTEN  =        -3.42716231 eV

  energy without entropy =       -3.22755588  energy(sigma->0) =       -3.32735909


--------------------------------------------------------------------------------------------------------




----------------------------------------- Iteration    1(   3)  ---------------------------------------


     EDDAV:  cpu time   27.8725: real time   27.9395
       DOS:  cpu time    0.0009: real time    0.0009
    --------------------------------------------
      LOOP:  cpu time   27.8745: real time   27.9472

 eigenvalue-minimisations  : 10920
 total energy-change (2. order) :-0.1964353E+03  (-0.1889563E+03)
 number of electron     159.0000000 magnetization 
 augmentation part      159.0000000 magnetization 

 Free energy of the ion-electron system (eV)
  ---------------------------------------------------
  alpha Z        PSCENC =        81.65567618
  Ewald energy   TEWEN  =     41890.23009656
  -Hartree energ DENC   =    -47722.85867626
  -exchange      EXHF   =         0.00000000
  -V(xc)+E(xc)   XCENC  =      -242.92976591
  PAW double counting   =      3467.42045192    -2871.19716117
  entropy T*S    EENTRO =        -0.26385473
  eigenvalues    EBANDS =     -1563.36175706
  atomic energy  EATOM  =      6761.44252427
  Solvation  Ediel_sol  =         0.00000000
  ---------------------------------------------------
  free energy    TOTEN  =      -199.86246620 eV

  energy without entropy =     -199.59861147  energy(sigma->0) =     -199.73053884


--------------------------------------------------------------------------------------------------------




----------------------------------------- Iteration    1(   4)  ---------------------------------------


     EDDAV:  cpu time   31.3277: real time   31.4033
       DOS:  cpu time    0.0010: real time    0.0010
    --------------------------------------------
      LOOP:  cpu time   31.3295: real time   31.4123

 eigenvalue-minimisations  : 12600
 total energy-change (2. order) :-0.9156382E+01  (-0.8886842E+01)
 number of electron     159.0000000 magnetization 
 augmentation part      159.0000000 magnetization 

 Free energy of the ion-electron system (eV)
  ---------------------------------------------------
  alpha Z        PSCENC =        81.65567618
  Ewald energy   TEWEN  =     41890.23009656
  -Hartree energ DENC   =    -47722.85867626
  -exchange      EXHF   =         0.00000000
  -V(xc)+E(xc)   XCENC  =      -242.92976591
  PAW double counting   =      3467.42045192    -2871.19716117
  entropy T*S    EENTRO =        -0.29746449
  eigenvalues    EBANDS =     -1572.48452916
  atomic energy  EATOM  =      6761.44252427
  Solvation  Ediel_sol  =         0.00000000
  ---------------------------------------------------
  free energy    TOTEN  =      -209.01884806 eV

  energy without entropy =     -208.72138357  energy(sigma->0) =     -208.87011582


--------------------------------------------------------------------------------------------------------




----------------------------------------- Iteration    1(   5)  ---------------------------------------


     EDDAV:  cpu time   28.3413: real time   28.4095
       DOS:  cpu time    0.0010: real time    0.0010
    CHARGE:  cpu time    0.4599: real time    0.4611
    MIXING:  cpu time    0.0020: real time    0.0020
    --------------------------------------------
      LOOP:  cpu time   28.8053: real time   28.8807

 eigenvalue-minimisations  : 11200
 total energy-change (2. order) :-0.2616301E+00  (-0.2608312E+00)
 number of electron     159.0000111 magnetization 
 augmentation part       -9.7982300 magnetization 

 Broyden mixing:
  rms(total) = 0.27467E+01    rms(broyden)= 0.27462E+01
  rms(prec ) = 0.29321E+01
  weight for this iteration     100.00

 Free energy of the ion-electron system (eV)
  ---------------------------------------------------
  alpha Z        PSCENC =        81.65567618
  Ewald energy   TEWEN  =     41890.23009656
  -Hartree energ DENC   =    -47722.85867626
  -exchange      EXHF   =         0.00000000
  -V(xc)+E(xc)   XCENC  =      -242.92976591
  PAW double counting   =      3467.42045192    -2871.19716117
  entropy T*S    EENTRO =        -0.29497709
  eigenvalues    EBANDS =     -1572.74864665
  atomic energy  EATOM  =      6761.44252427
  Solvation  Ediel_sol  =         0.00000000
  ---------------------------------------------------
  free energy    TOTEN  =      -209.28047815 eV

  energy without entropy =     -208.98550106  energy(sigma->0) =     -209.13298961


--------------------------------------------------------------------------------------------------------




----------------------------------------- Iteration    1(   6)  ---------------------------------------


    POTLOK:  cpu time    0.0343: real time    0.0343
    SETDIJ:  cpu time    0.0025: real time    0.0026
     EDDAV:  cpu time   31.6109: real time   31.6873
       DOS:  cpu time    0.0010: real time    0.0010
    CHARGE:  cpu time    0.4536: real time    0.4547
    MIXING:  cpu time    0.0022: real time    0.0022
    --------------------------------------------
      LOOP:  cpu time   32.1051: real time   32.1913

 eigenvalue-minimisations  : 12800
 total energy-change (2. order) :-0.2793484E+02  (-0.1077849E+02)
 number of electron     159.0000106 magnetization 
 augmentation part        7.0895753 magnetization 

 Broyden mixing:
  rms(total) = 0.59404E+01    rms(broyden)= 0.59398E+01
  rms(prec ) = 0.65229E+01
  weight for this iteration     100.00

 eigenvalues of (default mixing * dielectric matrix)
  average eigenvalue GAMMA=   0.2933
  0.2933

 Free energy of the ion-electron system (eV)
  ---------------------------------------------------
  alpha Z        PSCENC =        81.65567618
  Ewald energy   TEWEN  =     41890.23009656
  -Hartree energ DENC   =    -47701.25095157
  -exchange      EXHF   =         0.00000000
  -V(xc)+E(xc)   XCENC  =      -233.63289676
  PAW double counting   =      3676.39288280    -3082.48204203
  entropy T*S    EENTRO =        -0.26918603
  eigenvalues    EBANDS =     -1629.30141808
  atomic energy  EATOM  =      6761.44252427
  Solvation  Ediel_sol  =         0.00000000
  ---------------------------------------------------
  free energy    TOTEN  =      -237.21531466 eV

  energy without entropy =     -236.94612863  energy(sigma->0) =     -237.08072164


--------------------------------------------------------------------------------------------------------




----------------------------------------- Iteration    1(   7)  ---------------------------------------


    POTLOK:  cpu time    0.0310: real time    0.0313
    SETDIJ:  cpu time    0.0024: real time    0.0024
     EDDAV:  cpu time   32.0839: real time   32.1615
       DOS:  cpu time    0.0010: real time    0.0010
    CHARGE:  cpu time    0.4649: real time    0.4660
    MIXING:  cpu time    0.0012: real time    0.0013
    --------------------------------------------
      LOOP:  cpu time   32.5856: real time   32.6727

 eigenvalue-minimisations  : 13040
 total energy-change (2. order) : 0.4057222E+02  (-0.1774207E+02)
 number of electron     159.0000087 magnetization 
 augmentation part       -6.2321770 magnetization 

 Broyden mixing:
  rms(total) = 0.20353E+01    rms(broyden)= 0.20333E+01
  rms(prec ) = 0.22594E+01
  weight for this iteration     100.00

 eigenvalues of (default mixing * dielectric matrix)
  average eigenvalue GAMMA=   0.5408
  0.8704  0.2112

 Free energy of the ion-electron system (eV)
  ---------------------------------------------------
  alpha Z        PSCENC =        81.65567618
  Ewald energy   TEWEN  =     41890.23009656
  -Hartree energ DENC   =    -47738.77153970
  -exchange      EXHF   =         0.00000000
  -V(xc)+E(xc)   XCENC  =      -235.01579632
  PAW double counting   =      3764.17729021    -3178.21883263
  entropy T*S    EENTRO =        -0.33400882
  eigenvalues    EBANDS =     -1541.80850453
  atomic energy  EATOM  =      6761.44252427
  Solvation  Ediel_sol  =         0.00000000
  ---------------------------------------------------
  free energy    TOTEN  =      -196.64309477 eV

  energy without entropy =     -196.30908595  energy(sigma->0) =     -196.47609036


--------------------------------------------------------------------------------------------------------




----------------------------------------- Iteration    1(   8)  ---------------------------------------


    POTLOK:  cpu time    0.0315: real time    0.0316
    SETDIJ:  cpu time    0.0023: real time    0.0023
     EDDAV:  cpu time   29.4326: real time   29.5037
       DOS:  cpu time    0.0010: real time    0.0010
    CHARGE:  cpu time    0.4687: real time    0.4698
    MIXING:  cpu time    0.0012: real time    0.0012
    --------------------------------------------
      LOOP:  cpu time   29.9382: real time   30.0189

 eigenvalue-minimisations  : 11720
 total energy-change (2. order) : 0.6558463E+01  (-0.2030403E+01)
 number of electron     159.0000095 magnetization 
 augmentation part       -6.3964034 magnetization 

 Broyden mixing:
  rms(total) = 0.13703E+01    rms(broyden)= 0.13698E+01
  rms(prec ) = 0.14805E+01
  weight for this iteration     100.00

 eigenvalues of (default mixing * dielectric matrix)
  average eigenvalue GAMMA=   0.5274
  1.0497  0.2569  0.2756

 Free energy of the ion-electron system (eV)
  ---------------------------------------------------
  alpha Z        PSCENC =        81.65567618
  Ewald energy   TEWEN  =     41890.23009656
  -Hartree energ DENC   =    -47761.61737607
  -exchange      EXHF   =         0.00000000
  -V(xc)+E(xc)   XCENC  =      -235.04548058
  PAW double counting   =      3903.02008701    -3318.61957184
  entropy T*S    EENTRO =        -0.26942603
  eigenvalues    EBANDS =     -1510.88116168
  atomic energy  EATOM  =      6761.44252427
  Solvation  Ediel_sol  =         0.00000000
  ---------------------------------------------------
  free energy    TOTEN  =      -190.08463218 eV

  energy without entropy =     -189.81520615  energy(sigma->0) =     -189.94991916


--------------------------------------------------------------------------------------------------------




----------------------------------------- Iteration    1(   9)  ---------------------------------------


    POTLOK:  cpu time    0.0307: real time    0.0310
    SETDIJ:  cpu time    0.0023: real time    0.0023
     EDDAV:  cpu time   30.1259: real time   30.1981
       DOS:  cpu time    0.0010: real time    0.0010
    CHARGE:  cpu time    0.4820: real time    0.4832
    MIXING:  cpu time    0.0013: real time    0.0013
    --------------------------------------------
      LOOP:  cpu time   30.6445: real time   30.7257

 eigenvalue-minimisations  : 12040
 total energy-change (2. order) : 0.1772700E+01  (-0.3499069E+00)
 number of electron     159.0000093 magnetization 
 augmentation part       -5.7202780 magnetization 

 Broyden mixing:
  rms(total) = 0.93829E+00    rms(broyden)= 0.93788E+00
  rms(prec ) = 0.10102E+01
  weight for this iteration     100.00

 eigenvalues of (default mixing * dielectric matrix)
  average eigenvalue GAMMA=   0.6975
  1.7127  0.5776  0.2199  0.2799

 Free energy of the ion-electron system (eV)
  ---------------------------------------------------
  alpha Z        PSCENC =        81.65567618
  Ewald energy   TEWEN  =     41890.23009656
  -Hartree energ DENC   =    -47765.67483183
  -exchange      EXHF   =         0.00000000
  -V(xc)+E(xc)   XCENC  =      -234.36357797
  PAW double counting   =      3961.32330425    -3377.64002148
  entropy T*S    EENTRO =        -0.32806871
  eigenvalues    EBANDS =     -1504.95703378
  atomic energy  EATOM  =      6761.44252427
  Solvation  Ediel_sol  =         0.00000000
  ---------------------------------------------------
  free energy    TOTEN  =      -188.31193250 eV

  energy without entropy =     -187.98386379  energy(sigma->0) =     -188.14789815


--------------------------------------------------------------------------------------------------------




----------------------------------------- Iteration    1(  10)  ---------------------------------------


    POTLOK:  cpu time    0.0331: real time    0.0331
    SETDIJ:  cpu time    0.0025: real time    0.0025
     EDDAV:  cpu time   32.7415: real time   32.8207
       DOS:  cpu time    0.0010: real time    0.0010
    CHARGE:  cpu time    0.4893: real time    0.4905
    MIXING:  cpu time    0.0014: real time    0.0014
    --------------------------------------------
      LOOP:  cpu time   33.2696: real time   33.3582

 eigenvalue-minimisations  : 13320
 total energy-change (2. order) : 0.1187276E+01  (-0.1769525E+00)
 number of electron     159.0000092 magnetization 
 augmentation part       -4.3931215 magnetization 

 Broyden mixing:
  rms(total) = 0.33636E+00    rms(broyden)= 0.33601E+00
  rms(prec ) = 0.36766E+00
  weight for this iteration     100.00

 eigenvalues of (default mixing * dielectric matrix)
  average eigenvalue GAMMA=   0.6978
  1.8732  0.6175  0.5156  0.2239  0.2590

 Free energy of the ion-electron system (eV)
  ---------------------------------------------------
  alpha Z        PSCENC =        81.65567618
  Ewald energy   TEWEN  =     41890.23009656
  -Hartree energ DENC   =    -47778.00080984
  -exchange      EXHF   =         0.00000000
  -V(xc)+E(xc)   XCENC  =      -232.74067807
  PAW double counting   =      4089.97440443    -3507.93828812
  entropy T*S    EENTRO =        -0.34249118
  eigenvalues    EBANDS =     -1491.40509101
  atomic energy  EATOM  =      6761.44252427
  Solvation  Ediel_sol  =         0.00000000
  ---------------------------------------------------
  free energy    TOTEN  =      -187.12465678 eV

  energy without entropy =     -186.78216560  energy(sigma->0) =     -186.95341119


--------------------------------------------------------------------------------------------------------




----------------------------------------- Iteration    1(  11)  ---------------------------------------


    POTLOK:  cpu time    0.0320: real time    0.0323
    SETDIJ:  cpu time    0.0023: real time    0.0023
     EDDAV:  cpu time   30.7290: real time   30.8027
       DOS:  cpu time    0.0010: real time    0.0010
    CHARGE:  cpu time    0.4959: real time    0.4971
    MIXING:  cpu time    0.0013: real time    0.0013
    --------------------------------------------
      LOOP:  cpu time   31.2627: real time   31.3452

 eigenvalue-minimisations  : 12360
 total energy-change (2. order) : 0.1096664E+00  (-0.6567757E-01)
 number of electron     159.0000092 magnetization 
 augmentation part       -4.2810048 magnetization 

 Broyden mixing:
  rms(total) = 0.23791E+00    rms(broyden)= 0.23757E+00
  rms(prec ) = 0.26160E+00
  weight for this iteration     100.00

 eigenvalues of (default mixing * dielectric matrix)
  average eigenvalue GAMMA=   0.8659
  1.9102  1.9102  0.6175  0.2859  0.2215  0.2500

 Free energy of the ion-electron system (eV)
  ---------------------------------------------------
  alpha Z        PSCENC =        81.65567618
  Ewald energy   TEWEN  =     41890.23009656
  -Hartree energ DENC   =    -47783.99817401
  -exchange      EXHF   =         0.00000000
  -V(xc)+E(xc)   XCENC  =      -232.39450824
  PAW double counting   =      4127.04639650    -3545.30973450
  entropy T*S    EENTRO =        -0.34894947
  eigenvalues    EBANDS =     -1485.33831763
  atomic energy  EATOM  =      6761.44252427
  Solvation  Ediel_sol  =         0.00000000
  ---------------------------------------------------
  free energy    TOTEN  =      -187.01499033 eV

  energy without entropy =     -186.66604086  energy(sigma->0) =     -186.84051560


--------------------------------------------------------------------------------------------------------




----------------------------------------- Iteration    1(  12)  ---------------------------------------


    POTLOK:  cpu time    0.0318: real time    0.0319
    SETDIJ:  cpu time    0.0024: real time    0.0024
     EDDAV:  cpu time   31.5630: real time   31.6393
       DOS:  cpu time    0.0010: real time    0.0010
    CHARGE:  cpu time    0.4922: real time    0.4934
    MIXING:  cpu time    0.0014: real time    0.0014
    --------------------------------------------
      LOOP:  cpu time   32.0929: real time   32.1784

 eigenvalue-minimisations  : 12760
 total energy-change (2. order) :-0.2006975E-01  (-0.4872420E-01)
 number of electron     159.0000089 magnetization 
 augmentation part       -4.4637361 magnetization 

 Broyden mixing:
  rms(total) = 0.35218E+00    rms(broyden)= 0.35208E+00
  rms(prec ) = 0.38985E+00
  weight for this iteration     100.00

 eigenvalues of (default mixing * dielectric matrix)
  average eigenvalue GAMMA=   0.7956
  1.9951  1.9951  0.6195  0.2756  0.2756  0.2173  0.1909

 Free energy of the ion-electron system (eV)
  ---------------------------------------------------
  alpha Z        PSCENC =        81.65567618
  Ewald energy   TEWEN  =     41890.23009656
  -Hartree energ DENC   =    -47796.69216328
  -exchange      EXHF   =         0.00000000
  -V(xc)+E(xc)   XCENC  =      -232.07391471
  PAW double counting   =      4179.43018529    -3597.66138216
  entropy T*S    EENTRO =        -0.33421661
  eigenvalues    EBANDS =     -1473.03186563
  atomic energy  EATOM  =      6761.44252427
  Solvation  Ediel_sol  =         0.00000000
  ---------------------------------------------------
  free energy    TOTEN  =      -187.03506009 eV

  energy without entropy =     -186.70084347  energy(sigma->0) =     -186.86795178


--------------------------------------------------------------------------------------------------------




----------------------------------------- Iteration    1(  13)  ---------------------------------------


    POTLOK:  cpu time    0.0326: real time    0.0330
    SETDIJ:  cpu time    0.0025: real time    0.0025
     EDDAV:  cpu time   31.8779: real time   31.9543
       DOS:  cpu time    0.0010: real time    0.0010
    CHARGE:  cpu time    0.4964: real time    0.4976
    MIXING:  cpu time    0.0014: real time    0.0014
    --------------------------------------------
      LOOP:  cpu time   32.4131: real time   32.4978

 eigenvalue-minimisations  : 12920
 total energy-change (2. order) : 0.1020629E+00  (-0.2863556E-01)
 number of electron     159.0000089 magnetization 
 augmentation part       -4.4211452 magnetization 

 Broyden mixing:
  rms(total) = 0.18908E+00    rms(broyden)= 0.18892E+00
  rms(prec ) = 0.20955E+00
  weight for this iteration     100.00

 eigenvalues of (default mixing * dielectric matrix)
  average eigenvalue GAMMA=   0.7790
  2.2757  1.7118  0.7451  0.5920  0.2986  0.2241  0.2426  0.1423

 Free energy of the ion-electron system (eV)
  ---------------------------------------------------
  alpha Z        PSCENC =        81.65567618
  Ewald energy   TEWEN  =     41890.23009656
  -Hartree energ DENC   =    -47799.22332775
  -exchange      EXHF   =         0.00000000
  -V(xc)+E(xc)   XCENC  =      -231.99107196
  PAW double counting   =      4187.45142270    -3605.67118698
  entropy T*S    EENTRO =        -0.33632079
  eigenvalues    EBANDS =     -1470.49080941
  atomic energy  EATOM  =      6761.44252427
  Solvation  Ediel_sol  =         0.00000000
  ---------------------------------------------------
  free energy    TOTEN  =      -186.93299718 eV

  energy without entropy =     -186.59667639  energy(sigma->0) =     -186.76483678


--------------------------------------------------------------------------------------------------------




----------------------------------------- Iteration    1(  14)  ---------------------------------------


    POTLOK:  cpu time    0.0290: real time    0.0302
    SETDIJ:  cpu time    0.0023: real time    0.0023
     EDDAV:  cpu time   31.9540: real time   32.0312
       DOS:  cpu time    0.0009: real time    0.0010
    CHARGE:  cpu time    0.4927: real time    0.4939
    MIXING:  cpu time    0.0015: real time    0.0015
    --------------------------------------------
      LOOP:  cpu time   32.4827: real time   32.5684

 eigenvalue-minimisations  : 12920
 total energy-change (2. order) : 0.2887204E-01  (-0.1054515E-01)
 number of electron     159.0000089 magnetization 
 augmentation part       -4.1698515 magnetization 

 Broyden mixing:
  rms(total) = 0.99983E-01    rms(broyden)= 0.99839E-01
  rms(prec ) = 0.11210E+00
  weight for this iteration     100.00

 eigenvalues of (default mixing * dielectric matrix)
  average eigenvalue GAMMA=   0.7370
  2.2889  1.6485  0.9541  0.6013  0.2987  0.2567  0.2241  0.2241  0.1370

 Free energy of the ion-electron system (eV)
  ---------------------------------------------------
  alpha Z        PSCENC =        81.65567618
  Ewald energy   TEWEN  =     41890.23009656
  -Hartree energ DENC   =    -47802.60923914
  -exchange      EXHF   =         0.00000000
  -V(xc)+E(xc)   XCENC  =      -231.87360809
  PAW double counting   =      4192.33697616    -3610.53001413
  entropy T*S    EENTRO =        -0.34126207
  eigenvalues    EBANDS =     -1467.21527488
  atomic energy  EATOM  =      6761.44252427
  Solvation  Ediel_sol  =         0.00000000
  ---------------------------------------------------
  free energy    TOTEN  =      -186.90412514 eV

  energy without entropy =     -186.56286307  energy(sigma->0) =     -186.73349411


--------------------------------------------------------------------------------------------------------




----------------------------------------- Iteration    1(  15)  ---------------------------------------


    POTLOK:  cpu time    0.0314: real time    0.0315
    SETDIJ:  cpu time    0.0024: real time    0.0024
     EDDAV:  cpu time   30.1914: real time   30.2637
       DOS:  cpu time    0.0010: real time    0.0010
    CHARGE:  cpu time    0.4944: real time    0.4956
    MIXING:  cpu time    0.0017: real time    0.0017
    --------------------------------------------
      LOOP:  cpu time   30.7242: real time   30.8048

 eigenvalue-minimisations  : 12080
 total energy-change (2. order) : 0.5252980E-02  (-0.4359324E-02)
 number of electron     159.0000090 magnetization 
 augmentation part       -4.1169078 magnetization 

 Broyden mixing:
  rms(total) = 0.99101E-01    rms(broyden)= 0.99028E-01
  rms(prec ) = 0.11004E+00
  weight for this iteration     100.00

 eigenvalues of (default mixing * dielectric matrix)
  average eigenvalue GAMMA=   0.7003
  2.2872  1.6391  1.0887  0.5990  0.3553  0.3017  0.2260  0.2371  0.1433  0.1256

 Free energy of the ion-electron system (eV)
  ---------------------------------------------------
  alpha Z        PSCENC =        81.65567618
  Ewald energy   TEWEN  =     41890.23009656
  -Hartree energ DENC   =    -47804.67950598
  -exchange      EXHF   =         0.00000000
  -V(xc)+E(xc)   XCENC  =      -231.83885382
  PAW double counting   =      4192.80938772    -3610.97662395
  entropy T*S    EENTRO =        -0.34323243
  eigenvalues    EBANDS =     -1465.19834070
  atomic energy  EATOM  =      6761.44252427
  Solvation  Ediel_sol  =         0.00000000
  ---------------------------------------------------
  free energy    TOTEN  =      -186.89887216 eV

  energy without entropy =     -186.55563973  energy(sigma->0) =     -186.72725594


--------------------------------------------------------------------------------------------------------




----------------------------------------- Iteration    1(  16)  ---------------------------------------


    POTLOK:  cpu time    0.0313: real time    0.0316
    SETDIJ:  cpu time    0.0024: real time    0.0024
     EDDAV:  cpu time   31.5215: real time   31.5991
       DOS:  cpu time    0.0010: real time    0.0010
    CHARGE:  cpu time    0.4924: real time    0.4936
    MIXING:  cpu time    0.0016: real time    0.0017
    --------------------------------------------
      LOOP:  cpu time   32.0504: real time   32.1387

 eigenvalue-minimisations  : 12760
 total energy-change (2. order) : 0.6203443E-02  (-0.1612016E-02)
 number of electron     159.0000090 magnetization 
 augmentation part       -4.1292526 magnetization 

 Broyden mixing:
  rms(total) = 0.48101E-01    rms(broyden)= 0.48058E-01
  rms(prec ) = 0.54262E-01
  weight for this iteration     100.00

 eigenvalues of (default mixing * dielectric matrix)
  average eigenvalue GAMMA=   0.7666
  2.3718  1.9401  1.4946  0.6975  0.6262  0.3083  0.2699  0.2241  0.2418  0.1400
  0.1182

 Free energy of the ion-electron system (eV)
  ---------------------------------------------------
  alpha Z        PSCENC =        81.65567618
  Ewald energy   TEWEN  =     41890.23009656
  -Hartree energ DENC   =    -47806.20445402
  -exchange      EXHF   =         0.00000000
  -V(xc)+E(xc)   XCENC  =      -231.81947814
  PAW double counting   =      4193.10137002    -3611.25177730
  entropy T*S    EENTRO =        -0.34351421
  eigenvalues    EBANDS =     -1463.70311209
  atomic energy  EATOM  =      6761.44252427
  Solvation  Ediel_sol  =         0.00000000
  ---------------------------------------------------
  free energy    TOTEN  =      -186.89266872 eV

  energy without entropy =     -186.54915451  energy(sigma->0) =     -186.72091161


--------------------------------------------------------------------------------------------------------




----------------------------------------- Iteration    1(  17)  ---------------------------------------


    POTLOK:  cpu time    0.0318: real time    0.0321
    SETDIJ:  cpu time    0.0023: real time    0.0023
     EDDAV:  cpu time   31.6109: real time   31.6867
       DOS:  cpu time    0.0010: real time    0.0010
    CHARGE:  cpu time    0.4968: real time    0.4980
    MIXING:  cpu time    0.0019: real time    0.0019
    --------------------------------------------
      LOOP:  cpu time   32.1458: real time   32.2304

 eigenvalue-minimisations  : 12800
 total energy-change (2. order) : 0.2640753E-02  (-0.7330763E-03)
 number of electron     159.0000090 magnetization 
 augmentation part       -4.1947249 magnetization 

 Broyden mixing:
  rms(total) = 0.17544E-01    rms(broyden)= 0.17483E-01
  rms(prec ) = 0.21441E-01
  weight for this iteration     100.00

 eigenvalues of (default mixing * dielectric matrix)
  average eigenvalue GAMMA=   0.7804
  2.3401  2.3401  1.4342  0.8621  0.6044  0.4915  0.3083  0.2236  0.2578  0.2451
  0.1399  0.1179

 Free energy of the ion-electron system (eV)
  ---------------------------------------------------
  alpha Z        PSCENC =        81.65567618
  Ewald energy   TEWEN  =     41890.23009656
  -Hartree energ DENC   =    -47811.86910442
  -exchange      EXHF   =         0.00000000
  -V(xc)+E(xc)   XCENC  =      -231.74590370
  PAW double counting   =      4194.73317735    -3612.82301012
  entropy T*S    EENTRO =        -0.34152521
  eigenvalues    EBANDS =     -1458.17195886
  atomic energy  EATOM  =      6761.44252427
  Solvation  Ediel_sol  =         0.00000000
  ---------------------------------------------------
  free energy    TOTEN  =      -186.89002797 eV

  energy without entropy =     -186.54850275  energy(sigma->0) =     -186.71926536


--------------------------------------------------------------------------------------------------------




----------------------------------------- Iteration    1(  18)  ---------------------------------------


    POTLOK:  cpu time    0.0311: real time    0.0314
    SETDIJ:  cpu time    0.0024: real time    0.0024
     EDDAV:  cpu time   29.3134: real time   29.3842
       DOS:  cpu time    0.0010: real time    0.0010
    CHARGE:  cpu time    0.4950: real time    0.4961
    MIXING:  cpu time    0.0019: real time    0.0020
    --------------------------------------------
      LOOP:  cpu time   29.8460: real time   29.9259

 eigenvalue-minimisations  : 11680
 total energy-change (2. order) : 0.5326101E-03  (-0.1912280E-03)
 number of electron     159.0000090 magnetization 
 augmentation part       -4.2060996 magnetization 

 Broyden mixing:
  rms(total) = 0.16558E-01    rms(broyden)= 0.16548E-01
  rms(prec ) = 0.19384E-01
  weight for this iteration     100.00

 eigenvalues of (default mixing * dielectric matrix)
  average eigenvalue GAMMA=   0.7873
  2.3673  2.3673  1.2634  1.2634  0.6714  0.6244  0.3869  0.3060  0.2238  0.2590
  0.2437  0.1399  0.1179

 Free energy of the ion-electron system (eV)
  ---------------------------------------------------
  alpha Z        PSCENC =        81.65567618
  Ewald energy   TEWEN  =     41890.23009656
  -Hartree energ DENC   =    -47815.30880610
  -exchange      EXHF   =         0.00000000
  -V(xc)+E(xc)   XCENC  =      -231.71204373
  PAW double counting   =      4194.97131082    -3613.02861868
  entropy T*S    EENTRO =        -0.34137467
  eigenvalues    EBANDS =     -1454.79826000
  atomic energy  EATOM  =      6761.44252427
  Solvation  Ediel_sol  =         0.00000000
  ---------------------------------------------------
  free energy    TOTEN  =      -186.88949536 eV

  energy without entropy =     -186.54812068  energy(sigma->0) =     -186.71880802


--------------------------------------------------------------------------------------------------------




----------------------------------------- Iteration    1(  19)  ---------------------------------------


    POTLOK:  cpu time    0.0319: real time    0.0323
    SETDIJ:  cpu time    0.0024: real time    0.0024
     EDDAV:  cpu time   28.2997: real time   28.3675
       DOS:  cpu time    0.0009: real time    0.0010
    CHARGE:  cpu time    0.4959: real time    0.4971
    MIXING:  cpu time    0.0019: real time    0.0019
    --------------------------------------------
      LOOP:  cpu time   28.8340: real time   28.9112

 eigenvalue-minimisations  : 11200
 total energy-change (2. order) : 0.2069686E-03  (-0.7713036E-04)
 number of electron     159.0000090 magnetization 
 augmentation part       -4.1825141 magnetization 

 Broyden mixing:
  rms(total) = 0.46611E-02    rms(broyden)= 0.46463E-02
  rms(prec ) = 0.76008E-02
  weight for this iteration     100.00

 eigenvalues of (default mixing * dielectric matrix)
  average eigenvalue GAMMA=   0.8821
  2.6827  2.6827  1.5690  1.4923  0.9967  0.6294  0.6294  0.3766  0.3066  0.2238
  0.2592  0.2438  0.1399  0.1179

 Free energy of the ion-electron system (eV)
  ---------------------------------------------------
  alpha Z        PSCENC =        81.65567618
  Ewald energy   TEWEN  =     41890.23009656
  -Hartree energ DENC   =    -47817.76945740
  -exchange      EXHF   =         0.00000000
  -V(xc)+E(xc)   XCENC  =      -231.69148983
  PAW double counting   =      4194.42138305    -3612.46494107
  entropy T*S    EENTRO =        -0.34183539
  eigenvalues    EBANDS =     -1452.37124476
  atomic energy  EATOM  =      6761.44252427
  Solvation  Ediel_sol  =         0.00000000
  ---------------------------------------------------
  free energy    TOTEN  =      -186.88928839 eV

  energy without entropy =     -186.54745300  energy(sigma->0) =     -186.71837069


--------------------------------------------------------------------------------------------------------




----------------------------------------- Iteration    1(  20)  ---------------------------------------


    POTLOK:  cpu time    0.0320: real time    0.0320
    SETDIJ:  cpu time    0.0024: real time    0.0024
     EDDAV:  cpu time   23.9506: real time   24.0084
       DOS:  cpu time    0.0009: real time    0.0009
    CHARGE:  cpu time    0.4953: real time    0.4966
    MIXING:  cpu time    0.0020: real time    0.0021
    --------------------------------------------
      LOOP:  cpu time   24.4843: real time   24.5515

 eigenvalue-minimisations  :  9120
 total energy-change (2. order) :-0.8814056E-03  (-0.8257562E-04)
 number of electron     159.0000090 magnetization 
 augmentation part       -4.1876742 magnetization 

 Broyden mixing:
  rms(total) = 0.44764E-02    rms(broyden)= 0.44752E-02
  rms(prec ) = 0.59025E-02
  weight for this iteration     100.00

 eigenvalues of (default mixing * dielectric matrix)
  average eigenvalue GAMMA=   0.9200
  3.1192  2.5634  1.8777  1.5022  0.9020  0.9020  0.6331  0.6331  0.3767  0.3066
  0.2238  0.2592  0.2438  0.1399  0.1179

 Free energy of the ion-electron system (eV)
  ---------------------------------------------------
  alpha Z        PSCENC =        81.65567618
  Ewald energy   TEWEN  =     41890.23009656
  -Hartree energ DENC   =    -47824.29942877
  -exchange      EXHF   =         0.00000000
  -V(xc)+E(xc)   XCENC  =      -231.63617924
  PAW double counting   =      4193.11791632    -3611.14009157
  entropy T*S    EENTRO =        -0.34150376
  eigenvalues    EBANDS =     -1445.91917980
  atomic energy  EATOM  =      6761.44252427
  Solvation  Ediel_sol  =         0.00000000
  ---------------------------------------------------
  free energy    TOTEN  =      -186.89016979 eV

  energy without entropy =     -186.54866603  energy(sigma->0) =     -186.71941791


--------------------------------------------------------------------------------------------------------




----------------------------------------- Iteration    1(  21)  ---------------------------------------


    POTLOK:  cpu time    0.0318: real time    0.0321
    SETDIJ:  cpu time    0.0025: real time    0.0025
     EDDAV:  cpu time   22.4375: real time   22.4912
       DOS:  cpu time    0.0009: real time    0.0009
    CHARGE:  cpu time    0.4962: real time    0.4974
    MIXING:  cpu time    0.0019: real time    0.0020
    --------------------------------------------
      LOOP:  cpu time   22.9730: real time   23.0352

 eigenvalue-minimisations  :  8360
 total energy-change (2. order) :-0.8712319E-03  (-0.2292746E-04)
 number of electron     159.0000090 magnetization 
 augmentation part       -4.1805865 magnetization 

 Broyden mixing:
  rms(total) = 0.35228E-02    rms(broyden)= 0.35185E-02
  rms(prec ) = 0.45361E-02
  weight for this iteration     100.00

 eigenvalues of (default mixing * dielectric matrix)
  average eigenvalue GAMMA=   0.9535
  3.6090  2.4337  2.1669  1.5924  1.0503  1.0503  0.6366  0.6366  0.4130  0.3766
  0.3066  0.2238  0.2437  0.2592  0.1399  0.1179

 Free energy of the ion-electron system (eV)
  ---------------------------------------------------
  alpha Z        PSCENC =        81.65567618
  Ewald energy   TEWEN  =     41890.23009656
  -Hartree energ DENC   =    -47827.10666123
  -exchange      EXHF   =         0.00000000
  -V(xc)+E(xc)   XCENC  =      -231.61706204
  PAW double counting   =      4192.74245499    -3610.76464656
  entropy T*S    EENTRO =        -0.34163368
  eigenvalues    EBANDS =     -1443.13178952
  atomic energy  EATOM  =      6761.44252427
  Solvation  Ediel_sol  =         0.00000000
  ---------------------------------------------------
  free energy    TOTEN  =      -186.89104102 eV

  energy without entropy =     -186.54940735  energy(sigma->0) =     -186.72022418


--------------------------------------------------------------------------------------------------------




----------------------------------------- Iteration    1(  22)  ---------------------------------------


    POTLOK:  cpu time    0.0311: real time    0.0314
    SETDIJ:  cpu time    0.0023: real time    0.0023
     EDDAV:  cpu time   19.2179: real time   19.2643
       DOS:  cpu time    0.0011: real time    0.0011
    CHARGE:  cpu time    0.4935: real time    0.4947
    MIXING:  cpu time    0.0020: real time    0.0021
    --------------------------------------------
      LOOP:  cpu time   19.7482: real time   19.8051

 eigenvalue-minimisations  :  6760
 total energy-change (2. order) :-0.8080577E-03  (-0.1059625E-04)
 number of electron     159.0000090 magnetization 
 augmentation part       -4.1793757 magnetization 

 Broyden mixing:
  rms(total) = 0.33910E-02    rms(broyden)= 0.33896E-02
  rms(prec ) = 0.40053E-02
  weight for this iteration     100.00

 eigenvalues of (default mixing * dielectric matrix)
  average eigenvalue GAMMA=   1.0829
  4.8806  2.5242  2.5242  1.7294  1.4704  0.9902  0.9902  0.6275  0.6275  0.2238
  0.2438  0.2592  0.3066  0.3817  0.3728  0.1399  0.1179

 Free energy of the ion-electron system (eV)
  ---------------------------------------------------
  alpha Z        PSCENC =        81.65567618
  Ewald energy   TEWEN  =     41890.23009656
  -Hartree energ DENC   =    -47829.23061732
[...]
    104      -0.5427      0.00000
    105      -0.5054      0.00000
    106      -0.3684      0.00000
    107      -0.2838      0.00000
    108      -0.0925      0.00000
    109      -0.0487      0.00000
    110       0.0983      0.00000
    111       0.3716      0.00000
    112       0.6285      0.00000
    113       0.7101      0.00000
    114       0.9613      0.00000
    115       1.1855      0.00000
    116       1.3105      0.00000
    117       1.6465      0.00000
    118       2.1485      0.00000
    119       2.3042      0.00000
    120       2.4031      0.00000

 k-point    34 :       0.5000    0.5000    0.0000
  band No.  band energies     occupation 
      1     -17.5381      2.00000
      2     -17.2896      2.00000
      3     -16.7952      2.00000
      4     -16.6916      2.00000
      5     -16.6775      2.00000
      6     -16.4748      2.00000
      7     -16.3503      2.00000
      8     -16.1619      2.00000
      9     -16.1176      2.00000
     10     -16.0194      2.00000
     11     -15.9116      2.00000
     12     -15.8601      2.00000
     13     -15.7352      2.00000
     14     -15.6607      2.00000
     15     -15.5657      2.00000
     16     -15.4623      2.00000
     17     -15.3661      2.00000
     18     -15.3249      2.00000
     19      -9.7826      2.00000
     20      -9.3339      2.00000
     21      -9.2389      2.00000
     22      -9.1131      2.00000
     23      -8.9611      2.00000
     24      -8.9000      2.00000
     25      -8.5899      2.00000
     26      -8.5267      2.00000
     27      -8.4481      2.00000
     28      -8.2881      2.00000
     29      -8.2566      2.00000
     30      -8.1831      2.00000
     31      -8.1237      2.00000
     32      -8.0203      2.00000
     33      -7.9735      2.00000
     34      -7.8599      2.00000
     35      -7.7459      2.00000
     36      -7.7287      2.00000
     37      -7.6031      2.00000
     38      -7.4888      2.00000
     39      -7.4111      2.00000
     40      -7.3242      2.00000
     41      -7.2014      2.00000
     42      -7.0284      2.00000
     43      -6.9956      2.00000
     44      -6.9158      2.00000
     45      -6.7513      2.00000
     46      -6.7081      2.00000
     47      -6.6397      2.00000
     48      -6.6119      2.00000
     49      -6.5292      2.00000
     50      -6.4746      2.00000
     51      -6.4361      2.00000
     52      -6.3532      2.00000
     53      -6.3242      2.00000
     54      -6.2647      2.00000
     55      -6.1726      2.00000
     56      -6.0511      2.00000
     57      -6.0224      2.00000
     58      -5.8283      2.00000
     59      -5.8075      2.00000
     60      -5.7190      2.00000
     61      -5.6905      2.00000
     62      -5.5573      2.00000
     63      -5.5423      2.00000
     64      -5.4046      2.00000
     65      -5.2230      2.00000
     66      -5.0673      2.00000
     67      -5.0328      2.00000
     68      -4.9455      2.00000
     69      -4.8398      2.00000
     70      -4.6463      2.00000
     71      -4.5368      2.00000
     72      -4.4478      2.00000
     73      -4.3208      2.00000
     74      -4.2714      2.00000
     75      -4.2065      2.00000
     76      -3.9810      2.00000
     77      -3.8524      1.99999
     78      -3.7764      1.99992
     79      -3.6069      1.99376
     80      -3.1016      0.40175
     81      -3.0110      0.13909
     82      -2.9202      0.03395
     83      -2.6590      0.00007
     84      -2.6181      0.00002
     85      -2.4810      0.00000
     86      -2.3864      0.00000
     87      -2.1902      0.00000
     88      -2.1334      0.00000
     89      -2.0724      0.00000
     90      -1.9258      0.00000
     91      -1.6615      0.00000
     92      -1.4276      0.00000
     93      -1.4024      0.00000
     94      -1.2986      0.00000
     95      -1.2489      0.00000
     96      -1.1857      0.00000
     97      -1.0891      0.00000
     98      -0.9884      0.00000
     99      -0.9393      0.00000
    100      -0.8867      0.00000
    101      -0.8463      0.00000
    102      -0.7945      0.00000
    103      -0.5922      0.00000
    104      -0.5556      0.00000
    105      -0.4432      0.00000
    106      -0.3719      0.00000
    107      -0.3096      0.00000
    108      -0.1299      0.00000
    109      -0.0366      0.00000
    110       0.0843      0.00000
    111       0.3757      0.00000
    112       0.6213      0.00000
    113       0.7079      0.00000
    114       0.9817      0.00000
    115       1.2057      0.00000
    116       1.3276      0.00000
    117       1.6558      0.00000
    118       2.2285      0.00000
    119       2.2575      0.00000
    120       2.3979      0.00000


--------------------------------------------------------------------------------------------------------


 soft charge-density along one line, spin component           1
         0         1         2         3         4         5         6         7         8         9
 total charge-density along one line
 
 pseudopotential strength for first ion, spin component:           1
 -7.185   0.016  -0.005  -0.008   0.000   0.663  -0.006   0.002
  0.016  -7.062  -0.007   0.005   0.007  -0.006   0.626   0.002
 -0.005  -0.007  -7.037   0.015   0.032   0.002   0.002   0.620
 -0.008   0.005   0.015  -7.110   0.033   0.002  -0.001  -0.005
  0.000   0.007   0.032   0.033  -7.181  -0.000  -0.002  -0.010
  0.663  -0.006   0.002   0.002  -0.000   0.336   0.002  -0.000
 -0.006   0.626   0.002  -0.001  -0.002   0.002   0.347  -0.001
  0.002   0.002   0.620  -0.005  -0.010  -0.000  -0.001   0.348
  0.002  -0.001  -0.005   0.640  -0.009  -0.001   0.000   0.001
 -0.000  -0.002  -0.010  -0.009   0.662   0.000   0.001   0.003
 -0.002   0.003  -0.022  -0.008   0.009   0.000  -0.001   0.005
 -0.001   0.001  -0.007  -0.003   0.003   0.000  -0.000   0.002
 -0.003  -0.001   0.002  -0.003   0.007  -0.001   0.000   0.000
 -0.003  -0.010   0.000  -0.005   0.001   0.000   0.001  -0.000
 -0.007  -0.003   0.001   0.001  -0.003  -0.000   0.000   0.001
 -0.003  -0.001   0.001  -0.002   0.005   0.000   0.000  -0.000
 -0.002  -0.007   0.001  -0.004   0.001   0.000   0.001  -0.000
 -0.004  -0.002   0.000   0.001  -0.003   0.001   0.000  -0.000
 total augmentation occupancy for first ion, spin component:           1
  0.777   0.158  -0.012  -0.008   0.013   0.433   0.215  -0.003  -0.003   0.002   0.026  -0.002   0.014  -0.054   0.017   0.002
  0.158   1.035   0.003  -0.009   0.007   0.214   0.639   0.031  -0.016   0.003  -0.007   0.001  -0.038  -0.062  -0.062  -0.001
 -0.012   0.003   0.887   0.049   0.077  -0.003   0.032   0.344   0.013   0.005   0.133   0.005  -0.048   0.005  -0.043  -0.003
 -0.008  -0.009   0.049   1.084  -0.123  -0.004  -0.016   0.014   0.649  -0.215  -0.005   0.003  -0.044  -0.033   0.019  -0.002
  0.013   0.007   0.077  -0.123   0.877   0.002   0.004   0.009  -0.217   0.453  -0.019  -0.001   0.007   0.019   0.015  -0.003
  0.433   0.214  -0.003  -0.004   0.002   0.377   0.218   0.004   0.001  -0.007  -0.017  -0.002  -0.016  -0.060  -0.022   0.000
  0.215   0.639   0.032  -0.016   0.004   0.218   0.579   0.020  -0.010   0.003   0.019   0.002  -0.033  -0.080  -0.057  -0.003
 -0.003   0.031   0.344   0.014   0.009   0.004   0.020   0.276   0.007  -0.000   0.033   0.009  -0.019   0.003  -0.011  -0.004
 -0.003  -0.016   0.013   0.649  -0.217   0.001  -0.010   0.007   0.580  -0.220   0.003   0.002  -0.059  -0.048   0.026  -0.005
  0.002   0.003   0.005  -0.215   0.453  -0.007   0.003  -0.000  -0.220   0.376   0.003   0.000   0.026   0.033  -0.012  -0.001
  0.026  -0.007   0.133  -0.005  -0.019  -0.017   0.019   0.033   0.003   0.003   1.376   0.141  -0.038  -0.010  -0.007  -0.002
 -0.002   0.001   0.005   0.003  -0.001  -0.002   0.002   0.009   0.002   0.000   0.141   0.026  -0.008   0.000  -0.006  -0.001
  0.014  -0.038  -0.048  -0.044   0.007  -0.016  -0.033  -0.019  -0.059   0.026  -0.038  -0.008   0.361   0.000   0.004   0.027
 -0.054  -0.062   0.005  -0.033   0.019  -0.060  -0.080   0.003  -0.048   0.033  -0.010   0.000   0.000   0.415  -0.000  -0.000
  0.017  -0.062  -0.043   0.019   0.015  -0.022  -0.057  -0.011   0.026  -0.012  -0.007  -0.006   0.004  -0.000   0.348  -0.000
  0.002  -0.001  -0.003  -0.002  -0.003   0.000  -0.003  -0.004  -0.005  -0.001  -0.002  -0.001   0.027  -0.000  -0.000   0.003
 -0.002   0.001  -0.000   0.001   0.001  -0.004  -0.005   0.000  -0.002   0.002  -0.000  -0.000  -0.000   0.029  -0.000   0.000
  0.003  -0.002  -0.002   0.000   0.003   0.001  -0.005  -0.002   0.002   0.001  -0.001  -0.000  -0.000  -0.000   0.027  -0.000


------------------------ aborting loop because EDIFF is reached ----------------------------------------


    CHARGE:  cpu time    0.4549: real time    0.4560
    FORLOC:  cpu time    0.0063: real time    0.0063
    FORNL :  cpu time    5.2825: real time    5.2951
    STRESS:  cpu time   32.6838: real time   32.7620
    FORCOR:  cpu time    0.0338: real time    0.0339
    FORHAR:  cpu time    0.0124: real time    0.0125
    MIXING:  cpu time    0.0010: real time    0.0010
    OFIELD:  cpu time    0.0000: real time    0.0000

  FORCE on cell =-STRESS in cart. coord.  units (eV):
  Direction    XX          YY          ZZ          XY          YZ          ZX
  --------------------------------------------------------------------------------------
  Alpha Z    89.19162    89.19162    89.19162
  Ewald   49217.92376 49176.54649-54132.18907   -38.55488    16.73587    11.63600
  Hartree 49923.85822 49897.97703-49553.32188   -24.15358    11.03171     6.62929
  E(xc)    -609.69617  -610.83547  -617.71798    -1.03667    -0.77195    -0.53720
  Local  ************************101123.25596    53.58942   -36.53601   -23.20817
  n-local  1214.22791  1215.60532  1248.49484     1.50691    -2.84448    -1.05935
  augment  -213.61469  -212.40306  -214.86134     0.27020     0.49491     0.68498
  Kinetic  2007.45791  2015.35901  2055.06956     8.38399    11.72339     5.78095
  Fock        0.00000     0.00000     0.00000     0.00000     0.00000     0.00000
  -------------------------------------------------------------------------------------
  Total       0.04154     0.04245    -2.07829     0.00539    -0.16655    -0.07350
  in kB       0.02773     0.02834    -1.38725     0.00360    -0.11117    -0.04906
  external pressure =       -0.44 kB  Pullay stress =        0.00 kB


 VOLUME and BASIS-vectors are now :
 -----------------------------------------------------------------------------
  energy-cutoff  :      280.00
  volume of cell :     2400.29
      direct lattice vectors                 reciprocal lattice vectors
     8.329145280  4.824152001  0.000000000     0.059898550  0.103872406  0.000000000
    -8.310787141  4.792457572  0.000000000    -0.060294683  0.104101855  0.000000000
     0.000000000  0.000000000 30.000000000     0.000000000  0.000000000  0.033333333

  length of vectors
     9.625336547  9.593582880 30.000000000     0.119905434  0.120302307  0.033333333


 FORCES acting on ions
    electron-ion (+dipol)            ewald-force                    non-local-force                 convergence-correction
 -----------------------------------------------------------------------------------------------
   -.148E+02 -.218E+02 -.998E+01   0.159E+02 0.229E+02 0.978E+01   -.110E+01 -.115E+01 0.202E+00   0.107E-01 0.231E-01 0.208E-01
   -.110E+02 -.190E+02 -.194E+02   0.115E+02 0.203E+02 0.192E+02   -.449E+00 -.135E+01 0.179E+00   -.332E-01 0.143E-01 0.326E-01
   0.117E+02 0.194E+02 0.197E+02   -.124E+02 -.207E+02 -.195E+02   0.717E+00 0.127E+01 -.230E+00   -.282E-02 -.174E-01 -.380E-01
   -.195E+02 0.534E+01 -.190E+01   0.195E+02 -.539E+01 0.187E+01   0.424E-01 0.288E-01 0.244E-01   0.156E-01 0.258E-01 -.629E-03
   0.195E+02 -.121E+02 -.892E+00   -.193E+02 0.121E+02 0.942E+00   -.962E-01 0.687E-01 -.488E-01   -.265E-01 -.129E-02 -.565E-02
   -.745E+01 -.450E+01 -.231E+01   0.721E+01 0.431E+01 0.237E+01   0.185E+00 0.146E+00 -.671E-01   0.446E-01 0.297E-01 0.297E-02
   0.131E+02 0.345E+02 0.150E+02   -.132E+02 -.353E+02 -.148E+02   0.133E+00 0.861E+00 -.207E+00   0.144E-01 -.310E-01 -.316E-02
   0.223E+02 0.284E+02 0.119E+02   -.230E+02 -.291E+02 -.116E+02   0.764E+00 0.691E+00 -.270E+00   -.597E-01 -.147E-01 -.699E-02
   -.144E+02 -.313E+02 -.107E+02   0.148E+02 0.323E+02 0.106E+02   -.452E+00 -.101E+01 0.161E+00   0.582E-01 0.205E-02 0.412E-02
   0.300E+01 0.241E+02 0.606E+03   -.309E+01 -.247E+02 -.610E+03   0.322E-01 0.690E+00 0.388E+01   0.411E-01 -.658E-01 0.275E-01
   0.327E+01 0.562E+01 -.569E+03   -.432E+01 -.727E+01 0.572E+03   0.108E+01 0.170E+01 -.307E+01   -.283E-01 -.499E-01 -.177E-01
   0.122E+02 0.221E+02 0.627E+03   -.125E+02 -.228E+02 -.630E+03   0.279E+00 0.722E+00 0.375E+01   -.746E-02 -.484E-02 -.209E-01
   0.111E+01 0.153E+02 -.627E+03   -.112E+01 -.164E+02 0.631E+03   -.175E-01 0.110E+01 -.340E+01   0.158E-01 0.127E-01 0.259E-01
   0.201E+02 0.146E+02 0.602E+03   -.207E+02 -.151E+02 -.606E+03   0.748E+00 0.483E+00 0.373E+01   -.769E-01 -.106E-01 0.335E-01
   0.138E+02 0.107E+02 -.629E+03   -.146E+02 -.112E+02 0.633E+03   0.769E+00 0.470E+00 -.344E+01   -.848E-02 0.529E-03 0.277E-01
   -.276E+01 -.806E+01 0.566E+03   0.383E+01 0.998E+01 -.569E+03   -.106E+01 -.193E+01 0.299E+01   -.476E-02 0.167E-01 -.749E-02
   -.375E+01 -.247E+02 -.603E+03   0.379E+01 0.255E+02 0.607E+03   -.118E-01 -.792E+00 -.375E+01   -.800E-02 0.279E-01 -.310E-02
   -.140E+02 -.155E+02 0.604E+03   0.151E+02 0.164E+02 -.607E+03   -.122E+01 -.929E+00 0.296E+01   0.413E-01 0.668E-01 0.425E-01
   -.164E+02 -.158E+02 -.589E+03   0.170E+02 0.165E+02 0.592E+03   -.598E+00 -.750E+00 -.339E+01   -.162E-01 0.692E-01 -.637E-01
   -.664E+01 -.187E+02 0.625E+03   0.670E+01 0.199E+02 -.628E+03   -.611E-01 -.117E+01 0.338E+01   0.151E-01 0.867E-02 -.187E-01
   -.165E+02 -.212E+02 -.603E+03   0.171E+02 0.221E+02 0.606E+03   -.658E+00 -.850E+00 -.335E+01   0.818E-01 0.112E-01 -.537E-01
   0.463E+00 -.610E+01 0.491E+03   -.854E+00 0.564E+01 -.496E+03   0.375E+00 0.453E+00 0.496E+01   0.279E-03 -.479E-02 -.575E-02
   -.116E-01 0.923E+01 -.489E+03   0.394E+00 -.887E+01 0.494E+03   -.419E+00 -.329E+00 -.504E+01   0.548E-01 -.228E-01 -.216E-01
   -.338E+01 -.219E+01 0.485E+03   0.291E+01 0.152E+01 -.489E+03   0.544E+00 0.655E+00 0.472E+01   -.734E-01 -.363E-02 0.398E-01
   0.101E+02 0.178E+02 -.507E+03   -.102E+02 -.180E+02 0.512E+03   0.167E+00 0.225E+00 -.501E+01   -.278E-01 -.193E-01 0.388E-02
   -.925E+01 -.119E+02 0.495E+03   0.936E+01 0.118E+02 -.500E+03   -.154E+00 0.955E-01 0.478E+01   0.526E-01 -.176E-01 0.639E-01
   0.969E+01 0.641E+01 -.485E+03   -.977E+01 -.638E+01 0.490E+03   0.141E+00 0.249E-01 -.477E+01   -.617E-01 -.253E-01 -.546E-01
 -----------------------------------------------------------------------------------------------
   0.311E+00 0.568E+00 0.358E+00   0.639E-13 0.497E-13 0.000E+00   -.318E+00 -.585E+00 -.357E+00   0.111E-01 0.197E-01 0.358E-02
 
 
 POSITION                                       TOTAL-FORCE (eV/Angst)
 -----------------------------------------------------------------------------------
     -0.12564      6.17770      0.04305         0.003845      0.004533      0.020684
      2.61211      4.53021      0.07042        -0.008289     -0.010490      0.048200
      0.15752      0.27684     -0.07178         0.002902      0.023352     -0.049398
     -0.16526      3.26613      0.00411        -0.014358     -0.002747     -0.005219
      2.94073      1.51401      0.00252         0.017119     -0.007635     -0.004273
     -2.80068      4.77568      0.00801        -0.007859     -0.009454     -0.003463
      5.68260      6.70469     -0.05133        -0.009973      0.000325     -0.010986
     -5.37125      3.43602     -0.04274         0.001040     -0.004708     -0.013792
      5.42262      2.94393      0.04009         0.013433     -0.003009      0.011995
     -0.90278      1.61483     28.33946        -0.015501      0.026641     -0.027595
      0.94339      1.62951      1.51680         0.000611     -0.001033     -0.024810
     -3.67968      3.22019     28.28279        -0.002453      0.000153     -0.008660
     -1.85183      3.23934      1.69158        -0.010248     -0.015423     -0.007085
     -6.46512      4.81865     28.35140         0.022464      0.007942     -0.024803
     -4.57856      4.81366      1.69844        -0.004000     -0.014505     -0.007395
      1.83283      3.17467     28.49381         0.004375      0.006856      0.020349
      3.67744      3.19530      1.65104         0.017089     -0.016459      0.020291
     -0.91747      4.83824     28.38309         0.003000      0.014586      0.003830
      0.91325      4.81995      1.60534        -0.017894     -0.010813      0.038251
     -3.67578      6.35917     28.31536         0.017088      0.010126      0.006165
     -1.79954      6.38948      1.64327        -0.010440     -0.007208      0.020807
      4.59369      4.82310     28.70630        -0.016329     -0.010933      0.018844
      6.51016      4.82047      1.28451         0.018146      0.008846     -0.015303
      1.86062      6.38658     28.72821        -0.000048     -0.017613      0.012033
      3.69542      6.38736      1.34500        -0.006437     -0.000799      0.000171
     -0.87862      8.01678     28.68890         0.006213      0.005972      0.000445
      0.91923      8.03380      1.27233        -0.003496      0.023495     -0.019281
 -----------------------------------------------------------------------------------
    total drift:                                0.003741      0.002283      0.005069


--------------------------------------------------------------------------------------------------------



  FREE ENERGIE OF THE ION-ELECTRON SYSTEM (eV)
  ---------------------------------------------------
  free  energy   TOTEN  =      -192.46208570 eV

  energy  without entropy=     -192.33490501  energy(sigma->0) =     -192.39849535
 
 d Force = 0.9842021E-03[ 0.907E-03, 0.106E-02]  d Energy = 0.8692869E-03 0.115E-03
 d Force = 0.2288554E+01[ 0.229E+01, 0.229E+01]  d Ewald  = 0.2593519E+01-0.305E+00


--------------------------------------------------------------------------------------------------------


    POTLOK:  cpu time    0.0344: real time    0.0344


--------------------------------------------------------------------------------------------------------


 Quasi-Newton relaxation of ions (Broydens 2nd method)
  g(Force)  = 0.930E-03   g(Stress)= 0.641E-05

 retain information from N=  1 steps
 eigenvalues of (default step * inverse Hessian matrix)
  average eigenvalue of G=   0.2773
 eigenvalue spectrum of G is  0.2773


--------------------------------------------------------------------------------------------------------


  
 reached required accuracy - stopping structural energy minimisation
     LOOP+:  cpu time  136.7329: real time  137.0754
    4ORBIT:  cpu time    0.0000: real time    0.0000

 total amount of memory used by VASP on root node   650782. kBytes
========================================================================

   base      :      30000. kBytes
   nonl-proj :     559647. kBytes
   fftplans  :       2414. kBytes
   grid      :      12150. kBytes
   one-center:        419. kBytes
   wavefun   :      46152. kBytes
 
  
  
 General timing and accounting informations for this job:
 ========================================================
  
                  Total CPU time used (sec):     6349.821
                            User time (sec):     6314.038
                          System time (sec):       35.783
                         Elapsed time (sec):     6367.514
  
                   Maximum memory used (kb):      741504.
                   Average memory used (kb):           0.
  
                          Minor page faults:       973099
                          Major page faults:            9
                 Voluntary context switches:         6100
